Title t= 164.00000 step= 82000
44469
    1GLY      N    1   5.666   5.289   4.085
    1GLY    HT1    2   5.698   5.387   4.100
    1GLY    HT2    3   5.721   5.222   4.142
    1GLY    HT3    4   5.569   5.292   4.123
    1GLY     CA    5   5.678   5.278   3.940
    1GLY    HA1    6   5.641   5.181   3.910
    1GLY    HA2    7   5.783   5.292   3.919
    1GLY      C    8   5.606   5.376   3.852
    1GLY      O    9   5.531   5.460   3.902
    2PRO      N   10   5.624   5.375   3.722
    2PRO     CD   11   5.702   5.277   3.651
    2PRO    HD1   12   5.673   5.176   3.687
    2PRO    HD2   13   5.809   5.296   3.674
    2PRO     CA   14   5.561   5.480   3.636
    2PRO     HA   15   5.584   5.573   3.685
    2PRO     CB   16   5.638   5.461   3.507
    2PRO    HB1   17   5.734   5.515   3.526
    2PRO    HB2   18   5.606   5.507   3.411
    2PRO     CG   19   5.667   5.307   3.510
    2PRO    HG1   20   5.586   5.244   3.467
    2PRO    HG2   21   5.750   5.284   3.439
    2PRO      C   22   5.415   5.457   3.614
    2PRO      O   23   5.351   5.534   3.540
    3GLY      N   24   5.355   5.358   3.683
    3GLY     HN   25   5.413   5.299   3.739
    3GLY     CA   26   5.217   5.333   3.698
    3GLY    HA1   27   5.208   5.227   3.715
    3GLY    HA2   28   5.178   5.369   3.604
    3GLY      C   29   5.157   5.409   3.809
    3GLY      O   30   5.040   5.408   3.831
    4ASN      N   31   5.234   5.486   3.885
    4ASN     HN   32   5.327   5.504   3.853
    4ASN     CA   33   5.192   5.578   3.997
    4ASN     HA   34   5.087   5.557   4.016
    4ASN     CB   35   5.269   5.571   4.127
    4ASN    HB1   36   5.213   5.615   4.212
    4ASN    HB2   37   5.364   5.626   4.112
    4ASN     CG   38   5.313   5.427   4.156
    4ASN    OD1   39   5.430   5.389   4.188
    4ASN    ND2   40   5.220   5.332   4.169
    4ASN   HD21   41   5.247   5.237   4.184
    4ASN   HD22   42   5.125   5.351   4.146
    4ASN      C   43   5.194   5.723   3.958
    4ASN      O   44   5.274   5.754   3.867
    5PRO      N   45   5.119   5.814   4.015
    5PRO     CD   46   4.991   5.786   4.074
    5PRO    HD1   47   4.995   5.728   4.169
    5PRO    HD2   48   4.921   5.743   4.000
    5PRO     CA   49   5.153   5.956   4.022
    5PRO     HA   50   5.133   5.999   3.925
    5PRO     CB   51   5.061   6.016   4.131
    5PRO    HB1   52   5.037   6.124   4.118
    5PRO    HB2   53   5.093   5.990   4.234
    5PRO     CG   54   4.934   5.927   4.117
    5PRO    HG1   55   4.865   5.917   4.203
    5PRO    HG2   56   4.887   5.968   4.025
    5PRO      C   57   5.296   5.994   4.059
    5PRO      O   58   5.367   5.917   4.125
    6GLY      N   59   5.343   6.117   4.017
    6GLY     HN   60   5.278   6.178   3.973
    6GLY     CA   61   5.474   6.162   4.035
    6GLY    HA1   62   5.502   6.203   3.939
    6GLY    HA2   63   5.539   6.077   4.045
    6GLY      C   64   5.505   6.255   4.154
    6GLY      O   65   5.416   6.269   4.240
    7PRO      N   66   5.624   6.310   4.169
    7PRO     CD   67   5.750   6.256   4.102
    7PRO    HD1   68   5.741   6.276   3.993
    7PRO    HD2   69   5.760   6.149   4.128
    7PRO     CA   70   5.654   6.427   4.249
    7PRO     HA   71   5.657   6.398   4.353
    7PRO     CB   72   5.790   6.471   4.197
    7PRO    HB1   73   5.853   6.521   4.274
    7PRO    HB2   74   5.777   6.528   4.103
    7PRO     CG   75   5.863   6.339   4.157
    7PRO    HG1   76   5.948   6.367   4.091
    7PRO    HG2   77   5.913   6.288   4.242
    7PRO      C   78   5.562   6.546   4.242
    7PRO      O   79   5.516   6.571   4.135
    8GLY      N   80   5.546   6.636   4.340
    8GLY     HN   81   5.587   6.632   4.430
    8GLY     CA   82   5.475   6.761   4.317
    8GLY    HA1   83   5.415   6.751   4.227
    8GLY    HA2   84   5.543   6.844   4.309
    8GLY      C   85   5.385   6.785   4.431
    8GLY      O   86   5.342   6.695   4.502
    9ASN      N   87   5.342   6.908   4.454
    9ASN     HN   88   5.377   6.984   4.399
    9ASN     CA   89   5.232   6.941   4.538
    9ASN     HA   90   5.251   6.907   4.639
    9ASN     CB   91   5.212   7.096   4.545
    9ASN    HB1   92   5.116   7.125   4.591
    9ASN    HB2   93   5.221   7.137   4.442
    9ASN     CG   94   5.315   7.160   4.641
    9ASN    OD1   95   5.394   7.090   4.703
    9ASN    ND2   96   5.301   7.296   4.657
    9ASN   HD21   97   5.365   7.340   4.719
    9ASN   HD22   98   5.227   7.340   4.605
    9ASN      C   99   5.092   6.879   4.488
    9ASN      O  100   5.052   6.885   4.371
   10PRO      N  101   5.004   6.829   4.576
   10PRO     CD  102   5.031   6.805   4.720
   10PRO    HD1  103   5.096   6.887   4.756
   10PRO    HD2  104   5.086   6.711   4.740
   10PRO     CA  105   4.862   6.796   4.552
   10PRO     HA  106   4.863   6.731   4.466
   10PRO     CB  107   4.811   6.736   4.686
   10PRO    HB1  108   4.844   6.630   4.685
   10PRO    HB2  109   4.700   6.740   4.698
   10PRO     CG  110   4.895   6.799   4.796
   10PRO    HG1  111   4.863   6.904   4.813
   10PRO    HG2  112   4.897   6.742   4.892
   10PRO      C  113   4.786   6.916   4.504
   10PRO      O  114   4.815   7.030   4.532
   11GLY      N  115   4.685   6.886   4.418
   11GLY     HN  116   4.668   6.794   4.386
   11GLY     CA  117   4.590   6.983   4.358
   11GLY    HA1  118   4.544   6.935   4.274
   11GLY    HA2  119   4.650   7.067   4.326
   11GLY      C  120   4.490   7.041   4.451
   11GLY      O  121   4.494   7.021   4.572
   12PRO      N  122   4.389   7.116   4.396
   12PRO     CD  123   4.398   7.176   4.261
   12PRO    HD1  124   4.416   7.097   4.185
   12PRO    HD2  125   4.476   7.255   4.259
   12PRO     CA  126   4.264   7.154   4.462
   12PRO     HA  127   4.298   7.185   4.560
   12PRO     CB  128   4.218   7.273   4.371
   12PRO    HB1  129   4.264   7.364   4.414
   12PRO    HB2  130   4.107   7.276   4.379
   12PRO     CG  131   4.265   7.243   4.233
   12PRO    HG1  132   4.195   7.176   4.178
   12PRO    HG2  133   4.275   7.333   4.168
   12PRO      C  134   4.169   7.035   4.476
   12PRO      O  135   4.077   7.050   4.553
   13GLY      N  136   4.177   6.920   4.402
   13GLY     HN  137   4.251   6.920   4.335
   13GLY     CA  138   4.084   6.805   4.402
   13GLY    HA1  139   3.990   6.828   4.451
   13GLY    HA2  140   4.139   6.724   4.445
   13GLY      C  141   4.042   6.772   4.258
   13GLY      O  142   4.004   6.860   4.180
   14ASN      N  143   4.063   6.648   4.216
   14ASN     HN  144   4.086   6.574   4.279
   14ASN     CA  145   4.045   6.605   4.075
   14ASN     HA  146   4.112   6.670   4.020
   14ASN     CB  147   4.106   6.455   4.055
   14ASN    HB1  148   4.080   6.432   3.949
   14ASN    HB2  149   4.045   6.384   4.114
   14ASN     CG  150   4.254   6.442   4.093
   14ASN    OD1  151   4.314   6.549   4.108
   14ASN    ND2  152   4.314   6.320   4.105
   14ASN   HD21  153   4.413   6.315   4.113
   14ASN   HD22  154   4.253   6.241   4.100
   14ASN      C  155   3.909   6.608   4.018
   14ASN      O  156   3.812   6.605   4.097
   15PRO      N  157   3.882   6.611   3.891
   15PRO     CD  158   3.972   6.659   3.788
   15PRO    HD1  159   4.015   6.572   3.733
   15PRO    HD2  160   4.056   6.723   3.821
   15PRO     CA  161   3.744   6.617   3.843
   15PRO     HA  162   3.693   6.694   3.900
   15PRO     CB  163   3.761   6.644   3.694
   15PRO    HB1  164   3.672   6.688   3.645
   15PRO    HB2  165   3.798   6.552   3.643
   15PRO     CG  166   3.878   6.736   3.694
   15PRO    HG1  167   3.914   6.748   3.589
   15PRO    HG2  168   3.854   6.835   3.738
   15PRO      C  169   3.668   6.488   3.870
   15PRO    OT1  170   3.539   6.480   3.864
   15PRO    OT2  171   3.731   6.385   3.897
   16LIT    LIT  172   1.923   5.341   2.341
   17LIT    LIT  173   2.225   7.370   0.240
   18LIT    LIT  174   7.881   6.629   0.105
   19LIT    LIT  175   1.292   6.572   4.604
   20LIT    LIT  176   2.063   1.977   3.276
   21LIT    LIT  177   0.650   6.293   6.031
   22LIT    LIT  178   6.614   7.423   3.660
   23LIT    LIT  179   2.946   2.029   5.003
   24LIT    LIT  180   3.508   5.698   2.660
   25LIT    LIT  181   7.705   6.734   4.558
   26LIT    LIT  182   6.812   7.504   0.551
   27LIT    LIT  183   2.757   4.837   1.274
   28LIT    LIT  184   7.911   4.807   4.953
   29LIT    LIT  185   8.067   4.797   5.933
   30LIT    LIT  186   4.527   1.786   3.287
   31LIT    LIT  187   8.246   1.598   0.220
   32LIT    LIT  188   6.412   0.838   3.474
   33LIT    LIT  189   0.569   5.389   2.956
   34LIT    LIT  190   1.647   1.560   2.138
   35LIT    LIT  191   6.429   3.698   3.142
   36LIT    LIT  192   5.872   4.412   0.288
   37LIT    LIT  193   2.723   1.716   6.043
   38LIT    LIT  194   1.606   3.713   3.133
   39LIT    LIT  195   4.324   6.437   5.678
   40LIT    LIT  196   1.396   5.442   0.438
   41LIT    LIT  197   1.438   5.369   5.428
   42LIT    LIT  198   2.380   2.254   5.341
   43LIT    LIT  199   3.562   6.295   3.884
   44LIT    LIT  200   4.521   4.401   3.954
   45LIT    LIT  201   2.354   3.879   4.705
   46LIT    LIT  202   2.735   0.761   0.575
   47LIT    LIT  203   6.569   3.123   5.153
   48LIT    LIT  204   6.846   0.731   0.144
   49LIT    LIT  205   0.601   2.142   4.637
   50LIT    LIT  206   5.666   5.271   2.175
   51LIT    LIT  207   5.051   1.093   2.024
   52LIT    LIT  208   6.143   3.156   2.729
   53LIT    LIT  209   7.117   7.730   1.082
   54LIT    LIT  210   4.706   6.961   1.764
   55LIT    LIT  211   1.448   3.909   1.089
   56LIT    LIT  212   3.677   7.300   6.620
   57LIT    LIT  213   6.381   2.951   4.529
   58CLA    CLA  214   2.528   3.019   2.626
   59CLA    CLA  215   5.147   0.173   0.986
   60CLA    CLA  216   7.685   1.384   4.143
   61CLA    CLA  217   5.538   1.781   4.324
   62CLA    CLA  218   5.559   6.833   0.355
   63CLA    CLA  219   7.696   7.535   3.563
   64CLA    CLA  220   1.072   5.862   5.732
   65CLA    CLA  221   4.281   2.817   6.486
   66CLA    CLA  222   0.225   7.294   1.157
   67CLA    CLA  223   6.707   3.277   2.168
   68CLA    CLA  224   1.195   5.435   1.200
   69CLA    CLA  225   6.159   4.150   4.937
   70CLA    CLA  226   3.188   7.343   4.314
   71CLA    CLA  227   7.593   4.384   4.644
   72CLA    CLA  228   6.190   5.058   1.852
   73CLA    CLA  229   0.314   4.204   2.395
   74CLA    CLA  230   3.188   4.945   4.773
   75CLA    CLA  231   2.023   3.578   5.278
   76CLA    CLA  232   3.657   1.511   3.923
   77CLA    CLA  233   5.448   4.314   6.346
   78CLA    CLA  234   5.666   7.725   4.948
   79CLA    CLA  235   3.576   5.554   3.031
   80CLA    CLA  236   0.946   5.003   3.685
   81CLA    CLA  237   6.945   7.323   6.655
   82CLA    CLA  238   7.923   2.761   3.896
   83CLA    CLA  239   5.102   6.517   1.438
   84CLA    CLA  240   2.599   4.879   3.738
   85CLA    CLA  241   2.542   6.823   6.567
   86CLA    CLA  242   6.399   1.035   2.754
   87CLA    CLA  243   6.876   0.896   1.333
   88CLA    CLA  244   2.691   6.637   5.368
   89CLA    CLA  245   6.702   5.785   1.023
   90CLA    CLA  246   5.410   2.575   0.273
   91CLA    CLA  247   2.344   0.251   2.403
   92CLA    CLA  248   8.121   4.571   6.010
   93CLA    CLA  249   4.149   2.803   4.242
   94CLA    CLA  250   4.368   4.571   3.552
   95CLA    CLA  251   2.485   1.970   6.337
   96CLA    CLA  252   1.203   4.142   5.809
   97CLA    CLA  253   7.223   5.567   0.034
   98CLA    CLA  254   0.065   4.919   5.287
   99CLA    CLA  255   2.357   7.730   6.665
  100TIP3   OH2  256   1.652   7.473   5.411
  100TIP3    H1  257   1.645   7.379   5.425
  100TIP3    H2  258   1.662   7.510   5.499
  101TIP3   OH2  259  -0.016   4.654   2.540
  101TIP3    H1  260  -0.045   4.565   2.519
  101TIP3    H2  261   0.076   4.656   2.512
  102TIP3   OH2  262   5.548   0.018   2.155
  102TIP3    H1  263   5.500  -0.038   2.095
  102TIP3    H2  264   5.543   0.105   2.116
  103TIP3   OH2  265   1.215   2.164   5.753
  103TIP3    H1  266   1.277   2.158   5.826
  103TIP3    H2  267   1.188   2.256   5.753
  104TIP3   OH2  268   7.401   3.971   0.079
  104TIP3    H1  269   7.412   4.048   0.024
  104TIP3    H2  270   7.306   3.961   0.089
  105TIP3   OH2  271   8.046   5.693   0.942
  105TIP3    H1  272   8.085   5.780   0.945
  105TIP3    H2  273   7.974   5.696   1.006
  106TIP3   OH2  274   4.024   5.126   4.078
  106TIP3    H1  275   4.078   5.082   4.145
  106TIP3    H2  276   3.934   5.102   4.100
  107TIP3   OH2  277   2.877   2.231   2.372
  107TIP3    H1  278   2.946   2.251   2.309
  107TIP3    H2  279   2.796   2.242   2.323
  108TIP3   OH2  280   2.597   3.074   0.710
  108TIP3    H1  281   2.689   3.100   0.709
  108TIP3    H2  282   2.578   3.057   0.803
  109TIP3   OH2  283   4.962   4.648   4.232
  109TIP3    H1  284   4.925   4.736   4.225
  109TIP3    H2  285   4.924   4.612   4.311
  110TIP3   OH2  286   3.971   0.539   0.500
  110TIP3    H1  287   4.064   0.558   0.509
  110TIP3    H2  288   3.966   0.466   0.438
  111TIP3   OH2  289   6.593   0.687   5.520
  111TIP3    H1  290   6.610   0.626   5.448
  111TIP3    H2  291   6.498   0.685   5.531
  112TIP3   OH2  292   5.115   1.111   6.326
  112TIP3    H1  293   5.025   1.099   6.295
  112TIP3    H2  294   5.145   1.191   6.283
  113TIP3   OH2  295   7.489   4.776   6.360
  113TIP3    H1  296   7.526   4.788   6.448
  113TIP3    H2  297   7.460   4.685   6.359
  114TIP3   OH2  298   5.999   2.262   0.404
  114TIP3    H1  299   5.926   2.263   0.341
  114TIP3    H2  300   6.058   2.194   0.371
  115TIP3   OH2  301   5.598   3.868   4.486
  115TIP3    H1  302   5.575   3.847   4.395
  115TIP3    H2  303   5.691   3.890   4.483
  116TIP3   OH2  304   6.806   1.689   2.569
  116TIP3    H1  305   6.855   1.760   2.526
  116TIP3    H2  306   6.848   1.609   2.538
  117TIP3   OH2  307   4.831   4.075   5.119
  117TIP3    H1  308   4.770   4.009   5.154
  117TIP3    H2  309   4.834   4.143   5.187
  118TIP3   OH2  310   2.675   5.849   6.302
  118TIP3    H1  311   2.643   5.774   6.352
  118TIP3    H2  312   2.625   5.845   6.220
  119TIP3   OH2  313   5.124   6.805   5.385
  119TIP3    H1  314   5.112   6.866   5.458
  119TIP3    H2  315   5.150   6.859   5.311
  120TIP3   OH2  316   6.998   7.372   3.737
  120TIP3    H1  317   7.028   7.282   3.750
  120TIP3    H2  318   7.037   7.398   3.653
  121TIP3   OH2  319   1.367   5.111   4.655
  121TIP3    H1  320   1.332   5.022   4.651
  121TIP3    H2  321   1.458   5.103   4.628
  122TIP3   OH2  322   0.540   3.085   0.046
  122TIP3    H1  323   0.513   3.053   0.132
  122TIP3    H2  324   0.486   3.163   0.031
  123TIP3   OH2  325   0.205   6.771   3.218
  123TIP3    H1  326   0.207   6.678   3.237
  123TIP3    H2  327   0.151   6.779   3.140
  124TIP3   OH2  328   0.319   5.681   2.255
  124TIP3    H1  329   0.271   5.744   2.308
  124TIP3    H2  330   0.325   5.602   2.309
  125TIP3   OH2  331   2.106   3.238   6.649
  125TIP3    H1  332   2.085   3.147   6.667
  125TIP3    H2  333   2.162   3.264   6.722
  126TIP3   OH2  334   7.223   7.724   3.360
  126TIP3    H1  335   7.131   7.739   3.338
  126TIP3    H2  336   7.248   7.800   3.413
  127TIP3   OH2  337   2.357   0.994   5.056
  127TIP3    H1  338   2.364   0.911   5.101
  127TIP3    H2  339   2.369   0.972   4.963
  128TIP3   OH2  340   1.493   2.873   6.624
  128TIP3    H1  341   1.533   2.949   6.581
  128TIP3    H2  342   1.445   2.909   6.698
  129TIP3   OH2  343   2.335   2.805   6.074
  129TIP3    H1  344   2.240   2.806   6.072
  129TIP3    H2  345   2.357   2.752   6.151
  130TIP3   OH2  346   1.794   1.121   1.296
  130TIP3    H1  347   1.875   1.080   1.265
  130TIP3    H2  348   1.800   1.115   1.391
  131TIP3   OH2  349   2.383   0.396   5.290
  131TIP3    H1  350   2.326   0.364   5.360
  131TIP3    H2  351   2.466   0.417   5.334
  132TIP3   OH2  352   0.430   6.123   1.516
  132TIP3    H1  353   0.368   6.053   1.537
  132TIP3    H2  354   0.404   6.152   1.429
  133TIP3   OH2  355   0.510   2.498   1.990
  133TIP3    H1  356   0.508   2.403   1.976
  133TIP3    H2  357   0.446   2.533   1.928
  134TIP3   OH2  358   3.095   1.935   3.890
  134TIP3    H1  359   3.094   1.997   3.817
  134TIP3    H2  360   3.019   1.879   3.875
  135TIP3   OH2  361   4.398   2.082   2.112
  135TIP3    H1  362   4.466   2.098   2.178
  135TIP3    H2  363   4.446   2.053   2.035
  136TIP3   OH2  364   2.284   2.443   5.702
  136TIP3    H1  365   2.351   2.459   5.769
  136TIP3    H2  366   2.208   2.492   5.732
  137TIP3   OH2  367   2.272   6.385   2.301
  137TIP3    H1  368   2.265   6.380   2.397
  137TIP3    H2  369   2.361   6.415   2.285
  138TIP3   OH2  370   4.532   3.755   1.137
  138TIP3    H1  371   4.491   3.730   1.054
  138TIP3    H2  372   4.624   3.768   1.116
  139TIP3   OH2  373   5.720   0.938   4.749
  139TIP3    H1  374   5.765   0.870   4.698
  139TIP3    H2  375   5.702   0.897   4.833
  140TIP3   OH2  376   8.065   3.829   4.569
  140TIP3    H1  377   8.134   3.883   4.607
  140TIP3    H2  378   7.987   3.885   4.572
  141TIP3   OH2  379   6.946   2.143   3.895
  141TIP3    H1  380   7.023   2.190   3.927
  141TIP3    H2  381   6.899   2.208   3.844
  142TIP3   OH2  382   6.339   6.611   6.068
  142TIP3    H1  383   6.410   6.549   6.086
  142TIP3    H2  384   6.260   6.567   6.098
  143TIP3   OH2  385   6.137   6.417   6.128
  143TIP3    H1  386   6.203   6.348   6.125
  143TIP3    H2  387   6.086   6.397   6.207
  144TIP3   OH2  388   3.140   6.203   1.211
  144TIP3    H1  389   3.174   6.124   1.254
  144TIP3    H2  390   3.090   6.247   1.279
  145TIP3   OH2  391   5.820   1.087   5.075
  145TIP3    H1  392   5.744   1.144   5.087
  145TIP3    H2  393   5.883   1.119   5.140
  146TIP3   OH2  394   2.258   3.887   3.879
  146TIP3    H1  395   2.253   3.965   3.824
  146TIP3    H2  396   2.261   3.814   3.817
  147TIP3   OH2  397   7.855   2.451   0.069
  147TIP3    H1  398   7.888   2.515   0.006
  147TIP3    H2  399   7.771   2.486   0.097
  148TIP3   OH2  400   5.682   0.121   0.488
  148TIP3    H1  401   5.656   0.146   0.576
  148TIP3    H2  402   5.765   0.075   0.500
  149TIP3   OH2  403   1.742   1.269   5.408
  149TIP3    H1  404   1.673   1.334   5.420
  149TIP3    H2  405   1.765   1.274   5.316
  150TIP3   OH2  406   6.056   0.494   0.612
  150TIP3    H1  407   6.074   0.562   0.677
  150TIP3    H2  408   5.992   0.437   0.654
  151TIP3   OH2  409   4.995   4.815   2.737
  151TIP3    H1  410   5.035   4.899   2.716
  151TIP3    H2  411   4.932   4.835   2.806
  152TIP3   OH2  412   5.879   0.565   1.797
  152TIP3    H1  413   5.831   0.547   1.716
  152TIP3    H2  414   5.907   0.656   1.789
  153TIP3   OH2  415   1.507   3.432   1.133
  153TIP3    H1  416   1.457   3.513   1.123
  153TIP3    H2  417   1.587   3.446   1.084
  154TIP3   OH2  418   6.624   6.398   5.879
  154TIP3    H1  419   6.660   6.486   5.867
  154TIP3    H2  420   6.611   6.365   5.791
  155TIP3   OH2  421   1.445   5.072   4.365
  155TIP3    H1  422   1.374   5.058   4.301
  155TIP3    H2  423   1.501   4.995   4.355
  156TIP3   OH2  424   7.555   7.227   4.064
  156TIP3    H1  425   7.488   7.283   4.102
  156TIP3    H2  426   7.637   7.260   4.099
  157TIP3   OH2  427   7.602   2.332   3.426
  157TIP3    H1  428   7.609   2.391   3.350
  157TIP3    H2  429   7.634   2.385   3.499
  158TIP3   OH2  430   8.132   1.674   6.087
  158TIP3    H1  431   8.134   1.590   6.041
  158TIP3    H2  432   8.147   1.652   6.179
  159TIP3   OH2  433   0.858   3.032   3.502
  159TIP3    H1  434   0.818   3.117   3.520
  159TIP3    H2  435   0.813   3.000   3.424
  160TIP3   OH2  436   5.163   4.563   0.904
  160TIP3    H1  437   5.068   4.555   0.911
  160TIP3    H2  438   5.184   4.640   0.957
  161TIP3   OH2  439   4.685   3.017   3.652
  161TIP3    H1  440   4.602   2.971   3.668
  161TIP3    H2  441   4.662   3.110   3.659
  162TIP3   OH2  442   0.552   5.101   3.897
  162TIP3    H1  443   0.589   5.063   3.818
  162TIP3    H2  444   0.576   5.194   3.892
  163TIP3   OH2  445   3.607   2.022   5.727
  163TIP3    H1  446   3.517   2.055   5.727
  163TIP3    H2  447   3.601   1.937   5.771
  164TIP3   OH2  448   3.310   3.179   0.106
  164TIP3    H1  449   3.225   3.214   0.133
  164TIP3    H2  450   3.294   3.085   0.093
  165TIP3   OH2  451   3.239   5.408   4.351
  165TIP3    H1  452   3.181   5.335   4.330
  165TIP3    H2  453   3.184   5.472   4.395
  166TIP3   OH2  454   7.652   3.740   4.895
  166TIP3    H1  455   7.692   3.806   4.952
  166TIP3    H2  456   7.591   3.694   4.952
  167TIP3   OH2  457   6.243   2.298   1.916
  167TIP3    H1  458   6.268   2.383   1.881
  167TIP3    H2  459   6.313   2.275   1.977
  168TIP3   OH2  460   6.992   0.995   0.785
  168TIP3    H1  461   7.013   0.967   0.874
  168TIP3    H2  462   7.046   0.940   0.729
  169TIP3   OH2  463   5.053   4.912   0.799
  169TIP3    H1  464   5.052   4.832   0.747
  169TIP3    H2  465   4.988   4.896   0.868
  170TIP3   OH2  466   7.738   3.219   0.888
  170TIP3    H1  467   7.653   3.223   0.931
  170TIP3    H2  468   7.726   3.267   0.806
  171TIP3   OH2  469   8.278   4.525   3.108
  171TIP3    H1  470   8.202   4.558   3.156
  171TIP3    H2  471   8.240   4.470   3.039
  172TIP3   OH2  472   4.185   2.387   3.360
  172TIP3    H1  473   4.100   2.380   3.316
  172TIP3    H2  474   4.227   2.303   3.344
  173TIP3   OH2  475   0.262   2.831   1.912
  173TIP3    H1  476   0.227   2.753   1.869
  173TIP3    H2  477   0.189   2.863   1.966
  174TIP3   OH2  478   0.351   5.653   3.669
  174TIP3    H1  479   0.383   5.715   3.734
  174TIP3    H2  480   0.317   5.708   3.598
  175TIP3   OH2  481   0.739   2.547   0.591
  175TIP3    H1  482   0.769   2.464   0.554
  175TIP3    H2  483   0.677   2.522   0.660
  176TIP3   OH2  484   7.554   7.689   4.954
  176TIP3    H1  485   7.466   7.675   4.988
  176TIP3    H2  486   7.604   7.722   5.029
  177TIP3   OH2  487   5.906   4.600   0.248
  177TIP3    H1  488   5.834   4.662   0.263
  177TIP3    H2  489   5.984   4.655   0.249
  178TIP3   OH2  490   1.426   3.286   4.888
  178TIP3    H1  491   1.348   3.340   4.898
  178TIP3    H2  492   1.393   3.199   4.863
  179TIP3   OH2  493   1.295   4.603   3.997
  179TIP3    H1  494   1.200   4.603   3.986
  179TIP3    H2  495   1.308   4.598   4.092
  180TIP3   OH2  496   1.929   5.329   0.194
  180TIP3    H1  497   2.001   5.329   0.257
  180TIP3    H2  498   1.850   5.321   0.248
  181TIP3   OH2  499   0.189   7.748   4.481
  181TIP3    H1  500   0.179   7.837   4.446
  181TIP3    H2  501   0.108   7.732   4.529
  182TIP3   OH2  502   0.188   7.257   0.149
  182TIP3    H1  503   0.157   7.169   0.127
  182TIP3    H2  504   0.264   7.271   0.093
  183TIP3   OH2  505   0.658   1.169   3.590
  183TIP3    H1  506   0.713   1.193   3.664
  183TIP3    H2  507   0.712   1.110   3.538
  184TIP3   OH2  508   2.884   4.520   2.782
  184TIP3    H1  509   2.948   4.542   2.850
  184TIP3    H2  510   2.870   4.426   2.793
  185TIP3   OH2  511   1.739   2.772   2.212
  185TIP3    H1  512   1.731   2.789   2.118
  185TIP3    H2  513   1.653   2.738   2.237
  186TIP3   OH2  514   8.141   2.226   6.349
  186TIP3    H1  515   8.070   2.255   6.291
  186TIP3    H2  516   8.200   2.301   6.354
  187TIP3   OH2  517   6.484   0.525   0.983
  187TIP3    H1  518   6.498   0.608   1.029
  187TIP3    H2  519   6.536   0.461   1.032
  188TIP3   OH2  520   7.950   2.620   3.124
  188TIP3    H1  521   7.932   2.530   3.098
  188TIP3    H2  522   8.016   2.612   3.193
  189TIP3   OH2  523   6.149   3.977   3.992
  189TIP3    H1  524   6.146   3.883   3.974
  189TIP3    H2  525   6.116   4.018   3.912
  190TIP3   OH2  526   5.018   7.683   0.336
  190TIP3    H1  527   4.990   7.774   0.345
  190TIP3    H2  528   4.989   7.640   0.416
  191TIP3   OH2  529   3.237   5.023   6.565
  191TIP3    H1  530   3.149   4.984   6.567
  191TIP3    H2  531   3.284   4.973   6.498
  192TIP3   OH2  532   2.590   1.907   1.541
  192TIP3    H1  533   2.553   1.829   1.583
  192TIP3    H2  534   2.531   1.978   1.567
  193TIP3   OH2  535   5.009   3.468   4.538
  193TIP3    H1  536   4.984   3.546   4.488
  193TIP3    H2  537   4.926   3.430   4.567
  194TIP3   OH2  538   4.401   4.516   0.534
  194TIP3    H1  539   4.423   4.524   0.441
  194TIP3    H2  540   4.356   4.432   0.540
  195TIP3   OH2  541   3.635   0.576   5.608
  195TIP3    H1  542   3.657   0.507   5.546
  195TIP3    H2  543   3.543   0.562   5.628
  196TIP3   OH2  544   0.371   6.757   3.825
  196TIP3    H1  545   0.446   6.804   3.789
  196TIP3    H2  546   0.340   6.703   3.752
  197TIP3   OH2  547   0.658   6.862   0.065
  197TIP3    H1  548   0.652   6.869   0.160
  197TIP3    H2  549   0.573   6.892   0.033
  198TIP3   OH2  550   3.720   4.358   4.790
  198TIP3    H1  551   3.645   4.320   4.744
  198TIP3    H2  552   3.684   4.435   4.835
  199TIP3   OH2  553   7.357   1.429   4.197
  199TIP3    H1  554   7.339   1.459   4.108
  199TIP3    H2  555   7.449   1.400   4.194
  200TIP3   OH2  556   4.898   2.911   1.053
  200TIP3    H1  557   4.837   2.983   1.070
  200TIP3    H2  558   4.948   2.902   1.134
  201TIP3   OH2  559   4.918   3.911   5.369
  201TIP3    H1  560   4.993   3.869   5.410
  201TIP3    H2  561   4.893   3.981   5.430
  202TIP3   OH2  562   5.499   4.529   1.785
  202TIP3    H1  563   5.458   4.573   1.860
  202TIP3    H2  564   5.505   4.437   1.811
  203TIP3   OH2  565   2.090   3.193   5.092
  203TIP3    H1  566   2.031   3.243   5.035
  203TIP3    H2  567   2.034   3.165   5.165
  204TIP3   OH2  568   0.475   7.162   3.434
  204TIP3    H1  569   0.499   7.179   3.343
  204TIP3    H2  570   0.441   7.072   3.433
  205TIP3   OH2  571   6.324   3.337   4.406
  205TIP3    H1  572   6.386   3.409   4.400
  205TIP3    H2  573   6.253   3.370   4.462
  206TIP3   OH2  574   2.574   7.453   3.183
  206TIP3    H1  575   2.544   7.364   3.203
  206TIP3    H2  576   2.537   7.507   3.254
  207TIP3   OH2  577   7.886   1.849   4.686
  207TIP3    H1  578   7.931   1.765   4.673
  207TIP3    H2  579   7.813   1.829   4.744
  208TIP3   OH2  580   2.658   0.991   0.922
  208TIP3    H1  581   2.611   0.910   0.905
  208TIP3    H2  582   2.622   1.023   1.005
  209TIP3   OH2  583   0.366   6.783   1.253
  209TIP3    H1  584   0.350   6.730   1.175
  209TIP3    H2  585   0.454   6.760   1.281
  210TIP3   OH2  586   1.643   3.976   6.041
  210TIP3    H1  587   1.552   3.958   6.019
  210TIP3    H2  588   1.692   3.958   5.960
  211TIP3   OH2  589   2.206   0.276   5.106
  211TIP3    H1  590   2.256   0.345   5.148
  211TIP3    H2  591   2.159   0.233   5.178
  212TIP3   OH2  592   0.894   7.675   2.910
  212TIP3    H1  593   0.954   7.603   2.891
  212TIP3    H2  594   0.935   7.751   2.868
  213TIP3   OH2  595   1.539   7.688   3.148
  213TIP3    H1  596   1.469   7.652   3.094
  213TIP3    H2  597   1.494   7.739   3.215
  214TIP3   OH2  598   8.019   3.960   5.775
  214TIP3    H1  599   8.006   4.051   5.805
  214TIP3    H2  600   8.107   3.959   5.737
  215TIP3   OH2  601   4.615   1.754   1.331
  215TIP3    H1  602   4.532   1.778   1.372
  215TIP3    H2  603   4.681   1.810   1.373
  216TIP3   OH2  604   8.009   0.064   2.603
  216TIP3    H1  605   7.956   0.002   2.552
  216TIP3    H2  606   7.945   0.127   2.637
  217TIP3   OH2  607   0.772   7.417   6.380
  217TIP3    H1  608   0.857   7.461   6.377
  217TIP3    H2  609   0.756   7.388   6.290
  218TIP3   OH2  610   1.060   7.165   1.872
  218TIP3    H1  611   1.008   7.087   1.894
  218TIP3    H2  612   1.009   7.209   1.804
  219TIP3   OH2  613   3.888   2.933   4.468
  219TIP3    H1  614   3.974   2.892   4.472
  219TIP3    H2  615   3.826   2.862   4.486
  220TIP3   OH2  616   4.998   2.425   6.613
  220TIP3    H1  617   5.085   2.448   6.579
  220TIP3    H2  618   4.989   2.332   6.593
  221TIP3   OH2  619   4.190   0.445   1.733
  221TIP3    H1  620   4.283   0.468   1.729
  221TIP3    H2  621   4.145   0.528   1.716
  222TIP3   OH2  622   2.767   2.773   5.785
  222TIP3    H1  623   2.698   2.721   5.745
  222TIP3    H2  624   2.803   2.826   5.713
  223TIP3   OH2  625   1.248   0.627   4.900
  223TIP3    H1  626   1.277   0.632   4.808
  223TIP3    H2  627   1.290   0.548   4.934
  224TIP3   OH2  628   8.292   1.594   5.054
  224TIP3    H1  629   8.241   1.525   5.096
  224TIP3    H2  630   8.227   1.649   5.010
  225TIP3   OH2  631   4.839   2.535   1.814
  225TIP3    H1  632   4.834   2.626   1.845
  225TIP3    H2  633   4.914   2.534   1.756
  226TIP3   OH2  634   0.758   7.264   0.682
  226TIP3    H1  635   0.822   7.209   0.726
  226TIP3    H2  636   0.695   7.203   0.645
  227TIP3   OH2  637   0.765   7.694   2.005
  227TIP3    H1  638   0.852   7.675   2.038
  227TIP3    H2  639   0.717   7.727   2.081
  228TIP3   OH2  640   7.629   2.261   5.830
  228TIP3    H1  641   7.671   2.329   5.882
  228TIP3    H2  642   7.556   2.306   5.788
  229TIP3   OH2  643   6.237   2.229   5.576
  229TIP3    H1  644   6.185   2.180   5.640
  229TIP3    H2  645   6.310   2.171   5.554
  230TIP3   OH2  646   1.371   5.453   6.292
  230TIP3    H1  647   1.425   5.428   6.216
  230TIP3    H2  648   1.384   5.548   6.299
  231TIP3   OH2  649   5.847   0.377   5.858
  231TIP3    H1  650   5.777   0.404   5.798
  231TIP3    H2  651   5.849   0.446   5.924
  232TIP3   OH2  652   2.207   5.575   3.800
  232TIP3    H1  653   2.115   5.574   3.775
  232TIP3    H2  654   2.207   5.612   3.889
  233TIP3   OH2  655   4.666   3.302   6.423
  233TIP3    H1  656   4.634   3.383   6.383
  233TIP3    H2  657   4.621   3.233   6.375
  234TIP3   OH2  658   3.914   3.315   3.334
  234TIP3    H1  659   3.901   3.341   3.244
  234TIP3    H2  660   4.006   3.335   3.352
  235TIP3   OH2  661   7.760   7.769   0.001
  235TIP3    H1  662   7.749   7.687   0.048
  235TIP3    H2  663   7.843   7.805   0.033
  236TIP3   OH2  664   0.769   7.240   4.746
  236TIP3    H1  665   0.719   7.186   4.685
  236TIP3    H2  666   0.848   7.264   4.698
  237TIP3   OH2  667   1.147   6.713   0.496
  237TIP3    H1  668   1.132   6.774   0.424
  237TIP3    H2  669   1.190   6.637   0.455
  238TIP3   OH2  670   1.500   0.991   1.638
  238TIP3    H1  671   1.515   0.952   1.553
  238TIP3    H2  672   1.547   1.074   1.635
  239TIP3   OH2  673   5.808   7.050   1.977
  239TIP3    H1  674   5.884   7.013   1.933
  239TIP3    H2  675   5.738   6.986   1.962
  240TIP3   OH2  676   3.456   4.002   1.127
  240TIP3    H1  677   3.432   4.070   1.189
  240TIP3    H2  678   3.373   3.973   1.089
  241TIP3   OH2  679   2.538   6.725   4.830
  241TIP3    H1  680   2.632   6.733   4.814
  241TIP3    H2  681   2.527   6.746   4.923
  242TIP3   OH2  682   0.890   4.486   2.628
  242TIP3    H1  683   0.807   4.496   2.580
  242TIP3    H2  684   0.863   4.463   2.717
  243TIP3   OH2  685   5.690   6.034   1.215
  243TIP3    H1  686   5.735   6.089   1.151
  243TIP3    H2  687   5.723   6.065   1.300
  244TIP3   OH2  688   5.887   3.877   2.663
  244TIP3    H1  689   5.894   3.972   2.678
  244TIP3    H2  690   5.968   3.841   2.700
  245TIP3   OH2  691   1.588   4.432   3.006
  245TIP3    H1  692   1.632   4.388   2.933
  245TIP3    H2  693   1.565   4.518   2.972
  246TIP3   OH2  694   6.812   7.559   0.104
  246TIP3    H1  695   6.734   7.529   0.058
  246TIP3    H2  696   6.807   7.655   0.097
  247TIP3   OH2  697   3.177   3.350   1.576
  247TIP3    H1  698   3.110   3.386   1.633
  247TIP3    H2  699   3.169   3.255   1.585
  248TIP3   OH2  700   7.254   4.871   4.703
  248TIP3    H1  701   7.300   4.816   4.765
  248TIP3    H2  702   7.219   4.810   4.637
  249TIP3   OH2  703   6.606   1.023   6.659
  249TIP3    H1  704   6.609   1.119   6.654
  249TIP3    H2  705   6.649   1.002   6.742
  250TIP3   OH2  706   4.694   5.306   0.006
  250TIP3    H1  707   4.600   5.286   0.001
  250TIP3    H2  708   4.702   5.361   0.084
  251TIP3   OH2  709   3.254   4.083   2.074
  251TIP3    H1  710   3.335   4.032   2.063
  251TIP3    H2  711   3.266   4.128   2.158
  252TIP3   OH2  712   8.252   6.048   6.162
  252TIP3    H1  713   8.307   5.987   6.211
  252TIP3    H2  714   8.171   6.000   6.146
  253TIP3   OH2  715   0.956   2.923   2.089
  253TIP3    H1  716   0.954   2.926   2.184
  253TIP3    H2  717   0.876   2.877   2.064
  254TIP3   OH2  718   1.085   6.581   3.642
  254TIP3    H1  719   1.103   6.559   3.550
  254TIP3    H2  720   1.057   6.673   3.639
  255TIP3   OH2  721   5.948   7.146   2.326
  255TIP3    H1  722   5.899   7.220   2.290
  255TIP3    H2  723   6.039   7.175   2.325
  256TIP3   OH2  724   6.260   1.372   1.607
  256TIP3    H1  725   6.314   1.407   1.678
  256TIP3    H2  726   6.202   1.445   1.584
  257TIP3   OH2  727   2.699   2.460   0.039
  257TIP3    H1  728   2.742   2.429   0.118
  257TIP3    H2  729   2.616   2.497   0.069
  258TIP3   OH2  730   0.455   5.481   5.166
  258TIP3    H1  731   0.449   5.393   5.202
  258TIP3    H2  732   0.371   5.522   5.186
  259TIP3   OH2  733   5.279   1.023   4.416
  259TIP3    H1  734   5.297   1.053   4.505
  259TIP3    H2  735   5.348   1.063   4.363
  260TIP3   OH2  736   6.442   4.094   4.851
  260TIP3    H1  737   6.451   4.082   4.945
  260TIP3    H2  738   6.351   4.122   4.839
  261TIP3   OH2  739   4.926   5.808   1.093
  261TIP3    H1  740   4.859   5.850   1.040
  261TIP3    H2  741   4.904   5.833   1.183
  262TIP3   OH2  742   1.114   2.697   6.694
  262TIP3    H1  743   1.025   2.728   6.709
  262TIP3    H2  744   1.163   2.728   6.770
  263TIP3   OH2  745   1.524   7.353   4.589
  263TIP3    H1  746   1.599   7.326   4.641
  263TIP3    H2  747   1.529   7.449   4.587
  264TIP3   OH2  748   4.726   0.600   3.290
  264TIP3    H1  749   4.648   0.650   3.315
  264TIP3    H2  750   4.745   0.545   3.367
  265TIP3   OH2  751   0.881   4.668   0.545
  265TIP3    H1  752   0.852   4.616   0.471
  265TIP3    H2  753   0.808   4.665   0.607
  266TIP3   OH2  754   0.623   0.513   4.938
  266TIP3    H1  755   0.568   0.584   4.906
  266TIP3    H2  756   0.613   0.444   4.873
  267TIP3   OH2  757   7.771   2.102   5.563
  267TIP3    H1  758   7.773   2.128   5.655
  267TIP3    H2  759   7.744   2.180   5.516
  268TIP3   OH2  760   6.100   0.742   1.709
  268TIP3    H1  761   6.186   0.782   1.723
  268TIP3    H2  762   6.038   0.811   1.732
  269TIP3   OH2  763   2.114   0.852   0.216
  269TIP3    H1  764   2.025   0.833   0.186
  269TIP3    H2  765   2.146   0.919   0.155
  270TIP3   OH2  766   2.933   4.792   1.329
  270TIP3    H1  767   2.974   4.797   1.415
  270TIP3    H2  768   3.005   4.777   1.268
  271TIP3   OH2  769   5.527   3.599   3.749
  271TIP3    H1  770   5.432   3.606   3.758
  271TIP3    H2  771   5.543   3.507   3.725
  272TIP3   OH2  772   0.181   3.586   0.934
  272TIP3    H1  773   0.176   3.678   0.963
  272TIP3    H2  774   0.274   3.564   0.941
  273TIP3   OH2  775   1.283   0.216   1.527
  273TIP3    H1  776   1.264   0.259   1.610
  273TIP3    H2  777   1.351   0.270   1.486
  274TIP3   OH2  778   3.206   6.594   3.075
  274TIP3    H1  779   3.125   6.631   3.038
  274TIP3    H2  780   3.200   6.500   3.058
  275TIP3   OH2  781   1.974   0.468   2.097
  275TIP3    H1  782   2.022   0.420   2.164
  275TIP3    H2  783   1.939   0.401   2.039
  276TIP3   OH2  784   7.709   7.067   5.978
  276TIP3    H1  785   7.625   7.030   6.007
  276TIP3    H2  786   7.772   6.996   5.992
  277TIP3   OH2  787   4.748   2.472   5.740
  277TIP3    H1  788   4.821   2.503   5.687
  277TIP3    H2  789   4.706   2.405   5.686
  278TIP3   OH2  790   0.046   5.987   1.852
  278TIP3    H1  791   0.099   5.945   1.921
  278TIP3    H2  792   0.087   6.073   1.840
  279TIP3   OH2  793   1.750   4.899   3.744
  279TIP3    H1  794   1.673   4.847   3.769
  279TIP3    H2  795   1.818   4.835   3.728
  280TIP3   OH2  796   8.024   2.927   3.373
  280TIP3    H1  797   8.110   2.909   3.334
  280TIP3    H2  798   8.031   2.892   3.462
  281TIP3   OH2  799   1.593   2.876   2.709
  281TIP3    H1  800   1.572   2.808   2.772
  281TIP3    H2  801   1.626   2.829   2.632
  282TIP3   OH2  802   7.671   2.411   2.689
  282TIP3    H1  803   7.584   2.447   2.706
  282TIP3    H2  804   7.713   2.410   2.775
  283TIP3   OH2  805   7.193   2.845   0.139
  283TIP3    H1  806   7.100   2.843   0.162
  283TIP3    H2  807   7.236   2.791   0.206
  284TIP3   OH2  808   3.436   4.924   0.629
  284TIP3    H1  809   3.526   4.954   0.639
  284TIP3    H2  810   3.444   4.830   0.613
  285TIP3   OH2  811   5.235   0.357   1.979
  285TIP3    H1  812   5.281   0.433   1.942
  285TIP3    H2  813   5.173   0.394   2.041
  286TIP3   OH2  814   4.750   1.777   6.627
  286TIP3    H1  815   4.730   1.870   6.641
  286TIP3    H2  816   4.667   1.732   6.646
  287TIP3   OH2  817   5.490   1.247   6.753
  287TIP3    H1  818   5.482   1.258   6.659
  287TIP3    H2  819   5.420   1.301   6.790
  288TIP3   OH2  820   6.720   1.836   5.538
  288TIP3    H1  821   6.812   1.815   5.559
  288TIP3    H2  822   6.672   1.757   5.561
  289TIP3   OH2  823   1.425   1.583   0.422
  289TIP3    H1  824   1.392   1.546   0.341
  289TIP3    H2  825   1.369   1.546   0.490
  290TIP3   OH2  826   5.155   7.663   0.820
  290TIP3    H1  827   5.129   7.681   0.910
  290TIP3    H2  828   5.250   7.677   0.819
  291TIP3   OH2  829   3.574   2.445   2.565
  291TIP3    H1  830   3.568   2.531   2.607
  291TIP3    H2  831   3.656   2.448   2.516
  292TIP3   OH2  832   6.187   1.415   5.432
  292TIP3    H1  833   6.241   1.495   5.437
  292TIP3    H2  834   6.098   1.447   5.417
  293TIP3   OH2  835   2.229   0.904   3.193
  293TIP3    H1  836   2.252   0.938   3.279
  293TIP3    H2  837   2.153   0.955   3.166
  294TIP3   OH2  838   2.197   7.146   2.378
  294TIP3    H1  839   2.103   7.138   2.363
  294TIP3    H2  840   2.204   7.205   2.453
  295TIP3   OH2  841   8.139   3.350   2.900
  295TIP3    H1  842   8.102   3.263   2.913
  295TIP3    H2  843   8.066   3.410   2.917
  296TIP3   OH2  844   1.713   2.178   5.646
  296TIP3    H1  845   1.806   2.185   5.664
  296TIP3    H2  846   1.684   2.268   5.632
  297TIP3   OH2  847   1.904   5.315   3.352
  297TIP3    H1  848   1.962   5.247   3.317
  297TIP3    H2  849   1.877   5.282   3.438
  298TIP3   OH2  850   3.702   6.200   5.871
  298TIP3    H1  851   3.690   6.151   5.952
  298TIP3    H2  852   3.797   6.213   5.865
  299TIP3   OH2  853   0.604   5.587   0.435
  299TIP3    H1  854   0.651   5.516   0.391
  299TIP3    H2  855   0.673   5.646   0.466
  300TIP3   OH2  856   5.667   0.785   1.430
  300TIP3    H1  857   5.585   0.805   1.475
  300TIP3    H2  858   5.640   0.760   1.341
  301TIP3   OH2  859   0.650   5.991   1.307
  301TIP3    H1  860   0.695   5.949   1.234
  301TIP3    H2  861   0.591   6.054   1.265
  302TIP3   OH2  862   6.433   2.330   6.632
  302TIP3    H1  863   6.475   2.328   6.546
  302TIP3    H2  864   6.367   2.261   6.629
  303TIP3   OH2  865   0.417   6.974   0.812
  303TIP3    H1  866   0.484   7.040   0.831
  303TIP3    H2  867   0.459   6.890   0.831
  304TIP3   OH2  868   5.358   4.657   3.964
  304TIP3    H1  869   5.318   4.670   4.050
  304TIP3    H2  870   5.368   4.562   3.957
  305TIP3   OH2  871   7.234   1.429   1.053
  305TIP3    H1  872   7.166   1.383   1.101
  305TIP3    H2  873   7.229   1.519   1.083
  306TIP3   OH2  874   0.143   1.456   1.523
  306TIP3    H1  875   0.158   1.363   1.508
  306TIP3    H2  876   0.202   1.500   1.462
  307TIP3   OH2  877   0.502   2.552   6.726
  307TIP3    H1  878   0.484   2.458   6.724
  307TIP3    H2  879   0.418   2.593   6.745
  308TIP3   OH2  880   6.806   4.038   2.501
  308TIP3    H1  881   6.844   4.084   2.426
  308TIP3    H2  882   6.715   4.023   2.476
  309TIP3   OH2  883   4.931   5.741   0.684
  309TIP3    H1  884   4.976   5.825   0.694
  309TIP3    H2  885   4.872   5.754   0.609
  310TIP3   OH2  886   1.743   3.155   4.290
  310TIP3    H1  887   1.680   3.196   4.349
  310TIP3    H2  888   1.800   3.104   4.348
  311TIP3   OH2  889   7.508   3.090   0.734
  311TIP3    H1  890   7.577   3.077   0.799
  311TIP3    H2  891   7.554   3.096   0.651
  312TIP3   OH2  892   1.492   7.130   2.408
  312TIP3    H1  893   1.446   7.137   2.324
  312TIP3    H2  894   1.483   7.039   2.433
  313TIP3   OH2  895   4.414   7.519   6.438
  313TIP3    H1  896   4.504   7.539   6.414
  313TIP3    H2  897   4.422   7.459   6.513
  314TIP3   OH2  898   4.487   5.754   6.717
  314TIP3    H1  899   4.471   5.801   6.799
  314TIP3    H2  900   4.550   5.685   6.741
  315TIP3   OH2  901   7.702   0.342   2.076
  315TIP3    H1  902   7.712   0.424   2.124
  315TIP3    H2  903   7.771   0.344   2.009
  316TIP3   OH2  904   6.932   6.034   5.190
  316TIP3    H1  905   7.007   6.083   5.154
  316TIP3    H2  906   6.962   5.943   5.191
  317TIP3   OH2  907   2.257   4.034   5.032
  317TIP3    H1  908   2.293   4.031   5.121
  317TIP3    H2  909   2.203   4.113   5.031
  318TIP3   OH2  910   2.162   6.263   4.966
  318TIP3    H1  911   2.257   6.267   4.960
  318TIP3    H2  912   2.140   6.306   5.048
  319TIP3   OH2  913   3.146   0.134   2.355
  319TIP3    H1  914   3.053   0.133   2.378
  319TIP3    H2  915   3.147   0.118   2.261
  320TIP3   OH2  916   0.115   1.298   1.270
  320TIP3    H1  917   0.129   1.370   1.208
  320TIP3    H2  918   0.201   1.284   1.310
  321TIP3   OH2  919   4.794   1.538   5.274
  321TIP3    H1  920   4.727   1.512   5.338
  321TIP3    H2  921   4.829   1.455   5.242
  322TIP3   OH2  922   0.207   7.044   0.631
  322TIP3    H1  923   0.250   7.114   0.582
  322TIP3    H2  924   0.278   7.003   0.680
  323TIP3   OH2  925   3.921   5.225   4.474
  323TIP3    H1  926   3.966   5.265   4.548
  323TIP3    H2  927   3.835   5.201   4.507
  324TIP3   OH2  928   7.696   2.975   6.191
  324TIP3    H1  929   7.684   3.069   6.201
  324TIP3    H2  930   7.720   2.945   6.279
  325TIP3   OH2  931   3.058   3.498   3.473
  325TIP3    H1  932   3.000   3.485   3.548
  325TIP3    H2  933   3.056   3.592   3.457
  326TIP3   OH2  934   2.882   5.472   2.525
  326TIP3    H1  935   2.954   5.461   2.588
  326TIP3    H2  936   2.805   5.489   2.580
  327TIP3   OH2  937   7.963   3.079   4.779
  327TIP3    H1  938   7.900   3.037   4.838
  327TIP3    H2  939   7.949   3.036   4.695
  328TIP3   OH2  940   2.663   3.492   5.510
  328TIP3    H1  941   2.639   3.471   5.420
  328TIP3    H2  942   2.593   3.455   5.563
  329TIP3   OH2  943   2.495   0.062   6.193
  329TIP3    H1  944   2.587   0.038   6.200
  329TIP3    H2  945   2.460   0.050   6.282
  330TIP3   OH2  946   6.413   0.255   4.834
  330TIP3    H1  947   6.368   0.239   4.917
  330TIP3    H2  948   6.494   0.205   4.840
  331TIP3   OH2  949   4.961   6.302   5.664
  331TIP3    H1  950   4.991   6.217   5.632
  331TIP3    H2  951   5.039   6.343   5.700
  332TIP3   OH2  952   6.758   4.039   0.796
  332TIP3    H1  953   6.809   3.965   0.829
  332TIP3    H2  954   6.794   4.057   0.709
  333TIP3   OH2  955   3.924   4.213   6.425
  333TIP3    H1  956   3.884   4.259   6.498
  333TIP3    H2  957   3.866   4.138   6.409
  334TIP3   OH2  958   6.869   0.759   4.916
  334TIP3    H1  959   6.903   0.848   4.920
  334TIP3    H2  960   6.783   0.767   4.876
  335TIP3   OH2  961   7.071   3.405   5.462
  335TIP3    H1  962   7.021   3.335   5.504
  335TIP3    H2  963   7.146   3.420   5.520
  336TIP3   OH2  964   3.378   7.371   6.123
  336TIP3    H1  965   3.337   7.285   6.119
  336TIP3    H2  966   3.468   7.355   6.096
  337TIP3   OH2  967   5.753   5.087   6.533
  337TIP3    H1  968   5.665   5.125   6.532
  337TIP3    H2  969   5.769   5.063   6.441
  338TIP3   OH2  970   7.948   7.288   1.928
  338TIP3    H1  971   8.006   7.221   1.965
  338TIP3    H2  972   7.976   7.370   1.970
  339TIP3   OH2  973   1.033   6.639   2.479
  339TIP3    H1  974   0.985   6.700   2.424
  339TIP3    H2  975   1.090   6.592   2.418
  340TIP3   OH2  976   7.945   2.420   4.722
  340TIP3    H1  977   8.032   2.392   4.753
  340TIP3    H2  978   7.941   2.391   4.631
  341TIP3   OH2  979   1.224   5.518   4.825
  341TIP3    H1  980   1.207   5.471   4.744
  341TIP3    H2  981   1.250   5.451   4.888
  342TIP3   OH2  982   0.592   6.841   2.010
  342TIP3    H1  983   0.559   6.757   2.042
  342TIP3    H2  984   0.658   6.868   2.073
  343TIP3   OH2  985   7.129   4.046   5.477
  343TIP3    H1  986   7.214   4.066   5.516
  343TIP3    H2  987   7.149   4.020   5.387
  344TIP3   OH2  988   6.940   5.639   3.865
  344TIP3    H1  989   6.994   5.583   3.921
  344TIP3    H2  990   6.995   5.655   3.788
  345TIP3   OH2  991   7.247   1.096   6.555
  345TIP3    H1  992   7.250   1.121   6.648
  345TIP3    H2  993   7.240   1.001   6.556
  346TIP3   OH2  994   0.915   2.241   2.580
  346TIP3    H1  995   0.869   2.178   2.525
  346TIP3    H2  996   0.975   2.286   2.521
  347TIP3   OH2  997   6.677   6.863   3.780
  347TIP3    H1  998   6.690   6.890   3.689
  347TIP3    H2  999   6.585   6.836   3.783
  348TIP3   OH2 1000   5.017   2.594   5.907
  348TIP3    H1 1001   5.086   2.587   5.973
  348TIP3    H2 1002   4.939   2.619   5.957
  349TIP3   OH2 1003   1.495   5.704   0.724
  349TIP3    H1 1004   1.479   5.787   0.769
  349TIP3    H2 1005   1.424   5.646   0.755
  350TIP3   OH2 1006   1.650   6.563   5.498
  350TIP3    H1 1007   1.573   6.553   5.442
  350TIP3    H2 1008   1.722   6.526   5.447
  351TIP3   OH2 1009   6.437   4.808   3.293
  351TIP3    H1 1010   6.532   4.813   3.305
  351TIP3    H2 1011   6.400   4.826   3.379
  352TIP3   OH2 1012   6.492   6.895   2.561
  352TIP3    H1 1013   6.534   6.810   2.545
  352TIP3    H2 1014   6.559   6.946   2.607
  353TIP3   OH2 1015   6.321   2.285   2.932
  353TIP3    H1 1016   6.350   2.285   3.023
  353TIP3    H2 1017   6.226   2.276   2.937
  354TIP3   OH2 1018   6.553   3.979   2.199
  354TIP3    H1 1019   6.637   4.006   2.162
  354TIP3    H2 1020   6.487   4.025   2.148
  355TIP3   OH2 1021   1.648   2.227   4.243
  355TIP3    H1 1022   1.567   2.278   4.241
  355TIP3    H2 1023   1.646   2.174   4.163
  356TIP3   OH2 1024   2.588   1.124   3.170
  356TIP3    H1 1025   2.498   1.104   3.197
  356TIP3    H2 1026   2.580   1.207   3.122
  357TIP3   OH2 1027   0.591   2.716   1.240
  357TIP3    H1 1028   0.527   2.655   1.277
  357TIP3    H2 1029   0.553   2.803   1.255
  358TIP3   OH2 1030   5.153   1.120   4.105
  358TIP3    H1 1031   5.090   1.073   4.159
  358TIP3    H2 1032   5.238   1.081   4.127
  359TIP3   OH2 1033   3.949   3.771   4.008
  359TIP3    H1 1034   3.879   3.793   3.947
  359TIP3    H2 1035   3.905   3.731   4.082
  360TIP3   OH2 1036   6.913   7.003   4.320
  360TIP3    H1 1037   6.835   6.960   4.286
  360TIP3    H2 1038   6.923   7.082   4.267
  361TIP3   OH2 1039   7.609   3.883   6.602
  361TIP3    H1 1040   7.560   3.941   6.660
  361TIP3    H2 1041   7.553   3.875   6.524
  362TIP3   OH2 1042   3.025   4.647   5.316
  362TIP3    H1 1043   2.943   4.654   5.268
  362TIP3    H2 1044   3.004   4.679   5.404
  363TIP3   OH2 1045   2.908   4.527   0.959
  363TIP3    H1 1046   2.996   4.525   0.921
  363TIP3    H2 1047   2.870   4.442   0.936
  364TIP3   OH2 1048   4.170   6.308   5.630
  364TIP3    H1 1049   4.167   6.249   5.555
  364TIP3    H2 1050   4.094   6.365   5.619
  365TIP3   OH2 1051   5.338   7.045   2.793
  365TIP3    H1 1052   5.306   7.125   2.835
  365TIP3    H2 1053   5.259   7.001   2.761
  366TIP3   OH2 1054   4.122   0.584   0.802
  366TIP3    H1 1055   4.171   0.527   0.742
  366TIP3    H2 1056   4.096   0.527   0.874
  367TIP3   OH2 1057   1.864   4.201   4.851
  367TIP3    H1 1058   1.777   4.237   4.834
  367TIP3    H2 1059   1.911   4.272   4.896
  368TIP3   OH2 1060   7.134   4.956   3.200
  368TIP3    H1 1061   7.066   4.952   3.267
  368TIP3    H2 1062   7.110   4.888   3.137
  369TIP3   OH2 1063   1.083   2.423   1.329
  369TIP3    H1 1064   1.173   2.412   1.299
  369TIP3    H2 1065   1.087   2.409   1.423
  370TIP3   OH2 1066   2.892   1.888   2.875
  370TIP3    H1 1067   2.982   1.893   2.843
  370TIP3    H2 1068   2.847   1.830   2.814
  371TIP3   OH2 1069   2.393   4.789   4.638
  371TIP3    H1 1070   2.473   4.737   4.624
  371TIP3    H2 1071   2.413   4.874   4.600
  372TIP3   OH2 1072   5.524   6.259   6.559
  372TIP3    H1 1073   5.615   6.239   6.580
  372TIP3    H2 1074   5.482   6.274   6.644
  373TIP3   OH2 1075   6.296   1.772   1.362
  373TIP3    H1 1076   6.332   1.861   1.355
  373TIP3    H2 1077   6.372   1.715   1.367
  374TIP3   OH2 1078   1.475   5.729   6.281
  374TIP3    H1 1079   1.566   5.760   6.275
  374TIP3    H2 1080   1.442   5.732   6.191
  375TIP3   OH2 1081   2.088   7.266   2.017
  375TIP3    H1 1082   1.998   7.235   2.006
  375TIP3    H2 1083   2.110   7.305   1.933
  376TIP3   OH2 1084   5.401   3.090   0.909
  376TIP3    H1 1085   5.423   3.093   0.816
  376TIP3    H2 1086   5.322   3.143   0.916
  377TIP3   OH2 1087   1.752   2.847   2.484
  377TIP3    H1 1088   1.775   2.835   2.391
  377TIP3    H2 1089   1.816   2.911   2.516
  378TIP3   OH2 1090   6.773   6.156   5.366
  378TIP3    H1 1091   6.833   6.102   5.314
  378TIP3    H2 1092   6.723   6.205   5.301
  379TIP3   OH2 1093   6.418   3.545   3.027
  379TIP3    H1 1094   6.473   3.498   2.964
  379TIP3    H2 1095   6.329   3.527   2.999
  380TIP3   OH2 1096   2.375   2.322   4.408
  380TIP3    H1 1097   2.418   2.382   4.347
  380TIP3    H2 1098   2.306   2.375   4.447
  381TIP3   OH2 1099   3.518   2.185   1.730
  381TIP3    H1 1100   3.613   2.188   1.721
  381TIP3    H2 1101   3.486   2.245   1.662
  382TIP3   OH2 1102   3.361   3.219   6.244
  382TIP3    H1 1103   3.444   3.173   6.256
  382TIP3    H2 1104   3.338   3.204   6.153
  383TIP3   OH2 1105   0.316   0.579   3.055
  383TIP3    H1 1106   0.335   0.672   3.042
  383TIP3    H2 1107   0.371   0.554   3.130
  384TIP3   OH2 1108   3.205   4.687   4.959
  384TIP3    H1 1109   3.199   4.764   4.902
  384TIP3    H2 1110   3.218   4.723   5.047
  385TIP3   OH2 1111   6.615   3.499   2.843
  385TIP3    H1 1112   6.576   3.522   2.759
  385TIP3    H2 1113   6.681   3.567   2.858
  386TIP3   OH2 1114   2.593   7.013   6.063
  386TIP3    H1 1115   2.631   6.959   5.994
  386TIP3    H2 1116   2.632   6.979   6.144
  387TIP3   OH2 1117   2.244   5.835   4.475
  387TIP3    H1 1118   2.260   5.846   4.568
  387TIP3    H2 1119   2.306   5.767   4.447
  388TIP3   OH2 1120   1.803   6.026   2.035
  388TIP3    H1 1121   1.792   6.121   2.026
  388TIP3    H2 1122   1.729   5.990   1.986
  389TIP3   OH2 1123   1.879   1.812   2.208
  389TIP3    H1 1124   1.788   1.812   2.238
  389TIP3    H2 1125   1.920   1.740   2.257
  390TIP3   OH2 1126   6.566   4.628   2.743
  390TIP3    H1 1127   6.485   4.579   2.726
  390TIP3    H2 1128   6.536   4.716   2.768
  391TIP3   OH2 1129   6.053   4.217   0.863
  391TIP3    H1 1130   6.122   4.214   0.929
  391TIP3    H2 1131   6.090   4.169   0.789
  392TIP3   OH2 1132   2.288   5.669   3.557
  392TIP3    H1 1133   2.220   5.619   3.511
  392TIP3    H2 1134   2.282   5.639   3.647
  393TIP3   OH2 1135   0.422   4.034   3.372
  393TIP3    H1 1136   0.383   4.033   3.285
  393TIP3    H2 1137   0.404   3.946   3.407
  394TIP3   OH2 1138   0.287   5.099   6.507
  394TIP3    H1 1139   0.309   5.139   6.423
  394TIP3    H2 1140   0.369   5.059   6.537
  395TIP3   OH2 1141   0.918   6.526   0.848
  395TIP3    H1 1142   0.829   6.488   0.843
  395TIP3    H2 1143   0.963   6.471   0.912
  396TIP3   OH2 1144   3.260   2.661   2.492
  396TIP3    H1 1145   3.332   2.606   2.462
  396TIP3    H2 1146   3.271   2.744   2.445
  397TIP3   OH2 1147   0.647   4.361   1.679
  397TIP3    H1 1148   0.728   4.342   1.726
  397TIP3    H2 1149   0.584   4.381   1.747
  398TIP3   OH2 1150   3.783   2.473   2.374
  398TIP3    H1 1151   3.837   2.551   2.361
  398TIP3    H2 1152   3.789   2.426   2.290
  399TIP3   OH2 1153   6.774   0.596   5.263
  399TIP3    H1 1154   6.861   0.605   5.302
  399TIP3    H2 1155   6.761   0.502   5.254
  400TIP3   OH2 1156   2.069   0.757   0.447
  400TIP3    H1 1157   1.988   0.709   0.434
  400TIP3    H2 1158   2.084   0.800   0.363
  401TIP3   OH2 1159   5.946   0.063   4.069
  401TIP3    H1 1160   5.881  -0.008   4.074
  401TIP3    H2 1161   5.917   0.117   3.995
  402TIP3   OH2 1162   1.645   0.828   6.310
  402TIP3    H1 1163   1.568   0.883   6.324
  402TIP3    H2 1164   1.616   0.740   6.333
  403TIP3   OH2 1165   4.459   1.439   3.623
  403TIP3    H1 1166   4.545   1.437   3.665
  403TIP3    H2 1167   4.406   1.494   3.680
  404TIP3   OH2 1168   0.984   6.191   5.676
  404TIP3    H1 1169   1.059   6.243   5.649
  404TIP3    H2 1170   1.018   6.102   5.686
  405TIP3   OH2 1171   2.979   6.272   5.622
  405TIP3    H1 1172   2.913   6.278   5.691
  405TIP3    H2 1173   3.052   6.325   5.655
  406TIP3   OH2 1174   7.133   4.835   2.276
  406TIP3    H1 1175   7.172   4.768   2.332
  406TIP3    H2 1176   7.149   4.804   2.187
  407TIP3   OH2 1177   1.498   0.854   0.337
  407TIP3    H1 1178   1.460   0.855   0.250
  407TIP3    H2 1179   1.424   0.874   0.395
  408TIP3   OH2 1180   8.242   7.790   3.709
  408TIP3    H1 1181   8.319   7.775   3.654
  408TIP3    H2 1182   8.168   7.770   3.651
  409TIP3   OH2 1183   7.549   4.683   3.835
  409TIP3    H1 1184   7.495   4.720   3.765
  409TIP3    H2 1185   7.626   4.649   3.789
  410TIP3   OH2 1186   2.262   4.498   0.946
  410TIP3    H1 1187   2.227   4.415   0.977
  410TIP3    H2 1188   2.296   4.541   1.024
  411TIP3   OH2 1189   7.300   5.305   4.014
  411TIP3    H1 1190   7.352   5.226   4.028
  411TIP3    H2 1191   7.352   5.375   4.052
  412TIP3   OH2 1192   2.007   7.323   1.063
  412TIP3    H1 1193   1.915   7.303   1.079
  412TIP3    H2 1194   2.022   7.407   1.108
  413TIP3   OH2 1195   4.361   4.166   5.592
  413TIP3    H1 1196   4.431   4.123   5.640
  413TIP3    H2 1197   4.405   4.229   5.535
  414TIP3   OH2 1198   3.643   4.666   4.990
  414TIP3    H1 1199   3.630   4.750   4.946
  414TIP3    H2 1200   3.582   4.606   4.946
  415TIP3   OH2 1201   2.806   7.140   2.935
  415TIP3    H1 1202   2.868   7.169   3.002
  415TIP3    H2 1203   2.787   7.219   2.884
  416TIP3   OH2 1204   1.564   2.397   1.392
  416TIP3    H1 1205   1.622   2.369   1.321
  416TIP3    H2 1206   1.594   2.485   1.415
  417TIP3   OH2 1207   4.011   0.113   0.151
  417TIP3    H1 1208   3.926   0.148   0.123
  417TIP3    H2 1209   4.046   0.070   0.073
  418TIP3   OH2 1210   5.770   1.160   3.190
  418TIP3    H1 1211   5.809   1.245   3.209
  418TIP3    H2 1212   5.677   1.171   3.214
  419TIP3   OH2 1213   3.556   3.052   3.324
  419TIP3    H1 1214   3.633   3.041   3.380
  419TIP3    H2 1215   3.557   2.976   3.266
  420TIP3   OH2 1216   6.652   6.027   3.271
  420TIP3    H1 1217   6.708   6.056   3.198
  420TIP3    H2 1218   6.565   6.021   3.233
  421TIP3   OH2 1219   1.322   6.343   4.074
  421TIP3    H1 1220   1.289   6.432   4.064
  421TIP3    H2 1221   1.401   6.352   4.128
  422TIP3   OH2 1222   2.194   3.206   5.760
  422TIP3    H1 1223   2.222   3.177   5.847
  422TIP3    H2 1224   2.169   3.297   5.772
  423TIP3   OH2 1225   0.027   3.481   5.562
  423TIP3    H1 1226  -0.058   3.467   5.520
  423TIP3    H2 1227   0.080   3.522   5.493
  424TIP3   OH2 1228   5.771   2.763   0.783
  424TIP3    H1 1229   5.739   2.697   0.844
  424TIP3    H2 1230   5.852   2.726   0.747
  425TIP3   OH2 1231   3.078   5.402   3.628
  425TIP3    H1 1232   3.084   5.415   3.533
  425TIP3    H2 1233   3.097   5.309   3.641
  426TIP3   OH2 1234   1.832   2.953   1.067
  426TIP3    H1 1235   1.863   2.954   0.976
  426TIP3    H2 1236   1.809   2.862   1.084
  427TIP3   OH2 1237   0.264   6.707   1.657
  427TIP3    H1 1238   0.302   6.782   1.703
  427TIP3    H2 1239   0.197   6.674   1.716
  428TIP3   OH2 1240   2.828   4.827   4.172
  428TIP3    H1 1241   2.857   4.792   4.256
  428TIP3    H2 1242   2.734   4.809   4.170
  429TIP3   OH2 1243   6.588   2.737   3.112
  429TIP3    H1 1244   6.599   2.808   3.176
  429TIP3    H2 1245   6.544   2.779   3.037
  430TIP3   OH2 1246   7.833   5.566   5.609
  430TIP3    H1 1247   7.758   5.541   5.663
  430TIP3    H2 1248   7.820   5.659   5.592
  431TIP3   OH2 1249   1.675   4.739   6.249
  431TIP3    H1 1250   1.687   4.706   6.338
  431TIP3    H2 1251   1.749   4.703   6.200
  432TIP3   OH2 1252   2.801   6.664   6.716
  432TIP3    H1 1253   2.754   6.602   6.772
  432TIP3    H2 1254   2.737   6.692   6.651
  433TIP3   OH2 1255   8.250   7.669   6.542
  433TIP3    H1 1256   8.196   7.742   6.574
  433TIP3    H2 1257   8.194   7.624   6.479
  434TIP3   OH2 1258   2.213   2.931   4.987
  434TIP3    H1 1259   2.192   3.014   5.030
  434TIP3    H2 1260   2.131   2.906   4.943
  435TIP3   OH2 1261   5.082   2.287   3.029
  435TIP3    H1 1262   5.029   2.273   3.107
  435TIP3    H2 1263   5.041   2.233   2.961
  436TIP3   OH2 1264   2.271   3.235   0.181
  436TIP3    H1 1265   2.240   3.272   0.264
  436TIP3    H2 1266   2.367   3.243   0.186
  437TIP3   OH2 1267   8.105   0.842   3.220
  437TIP3    H1 1268   8.190   0.843   3.177
  437TIP3    H2 1269   8.042   0.854   3.149
  438TIP3   OH2 1270   0.064   4.591   4.162
  438TIP3    H1 1271   0.029   4.655   4.100
  438TIP3    H2 1272   0.141   4.555   4.118
  439TIP3   OH2 1273   2.789   2.297   1.639
  439TIP3    H1 1274   2.696   2.304   1.657
  439TIP3    H2 1275   2.824   2.240   1.707
  440TIP3   OH2 1276   1.893   6.622   5.943
  440TIP3    H1 1277   1.850   6.572   5.873
  440TIP3    H2 1278   1.837   6.609   6.019
  441TIP3   OH2 1279   7.509   1.756   5.963
  441TIP3    H1 1280   7.553   1.708   5.893
  441TIP3    H2 1281   7.547   1.844   5.959
  442TIP3   OH2 1282   8.020   4.647   5.025
  442TIP3    H1 1283   8.002   4.562   4.984
  442TIP3    H2 1284   8.102   4.634   5.072
  443TIP3   OH2 1285   5.735   0.599   0.477
  443TIP3    H1 1286   5.773   0.661   0.415
  443TIP3    H2 1287   5.808   0.575   0.535
  444TIP3   OH2 1288   3.571   7.343   4.844
  444TIP3    H1 1289   3.517   7.268   4.820
  444TIP3    H2 1290   3.556   7.406   4.774
  445TIP3   OH2 1291   4.001   2.660   6.541
  445TIP3    H1 1292   3.959   2.710   6.471
  445TIP3    H2 1293   4.093   2.687   6.538
  446TIP3   OH2 1294   3.011   4.183   3.678
  446TIP3    H1 1295   3.088   4.128   3.665
  446TIP3    H2 1296   3.036   4.268   3.644
  447TIP3   OH2 1297   7.995   1.802   4.389
  447TIP3    H1 1298   7.908   1.773   4.361
  447TIP3    H2 1299   8.030   1.728   4.438
  448TIP3   OH2 1300   2.123   7.281   1.738
  448TIP3    H1 1301   2.214   7.260   1.717
  448TIP3    H2 1302   2.074   7.201   1.717
  449TIP3   OH2 1303   8.028   2.472   1.444
  449TIP3    H1 1304   7.951   2.425   1.412
  449TIP3    H2 1305   8.094   2.459   1.377
  450TIP3   OH2 1306   1.911   1.919   4.049
  450TIP3    H1 1307   1.886   1.868   4.125
  450TIP3    H2 1308   1.990   1.966   4.076
  451TIP3   OH2 1309   3.737   6.377   5.496
  451TIP3    H1 1310   3.646   6.398   5.520
  451TIP3    H2 1311   3.767   6.453   5.447
  452TIP3   OH2 1312   5.752   1.527   2.406
  452TIP3    H1 1313   5.674   1.577   2.428
  452TIP3    H2 1314   5.723   1.436   2.404
  453TIP3   OH2 1315   6.916   7.701   3.599
  453TIP3    H1 1316   6.879   7.738   3.680
  453TIP3    H2 1317   6.988   7.645   3.629
  454TIP3   OH2 1318   7.631   5.864   0.827
  454TIP3    H1 1319   7.538   5.848   0.842
  454TIP3    H2 1320   7.652   5.938   0.884
  455TIP3   OH2 1321   2.522   3.387   1.956
  455TIP3    H1 1322   2.482   3.418   1.875
  455TIP3    H2 1323   2.564   3.304   1.932
  456TIP3   OH2 1324   0.443   6.196   0.928
  456TIP3    H1 1325   0.408   6.175   0.842
  456TIP3    H2 1326   0.369   6.183   0.987
  457TIP3   OH2 1327   1.592   5.208   0.869
  457TIP3    H1 1328   1.618   5.300   0.864
  457TIP3    H2 1329   1.644   5.171   0.939
  458TIP3   OH2 1330   5.658   5.640   0.607
  458TIP3    H1 1331   5.738   5.655   0.657
  458TIP3    H2 1332   5.644   5.546   0.611
  459TIP3   OH2 1333   3.382   3.221   2.483
  459TIP3    H1 1334   3.407   3.257   2.398
  459TIP3    H2 1335   3.363   3.298   2.537
  460TIP3   OH2 1336   3.232   6.203   0.137
  460TIP3    H1 1337   3.192   6.269   0.194
  460TIP3    H2 1338   3.326   6.209   0.155
  461TIP3   OH2 1339   5.239   7.503   3.428
  461TIP3    H1 1340   5.221   7.484   3.520
  461TIP3    H2 1341   5.324   7.461   3.411
  462TIP3   OH2 1342   4.826   1.731   6.341
  462TIP3    H1 1343   4.812   1.811   6.291
  462TIP3    H2 1344   4.800   1.753   6.430
  463TIP3   OH2 1345   0.373   0.784   6.559
  463TIP3    H1 1346   0.457   0.739   6.559
  463TIP3    H2 1347   0.359   0.810   6.650
  464TIP3   OH2 1348   2.959   1.175   6.192
  464TIP3    H1 1349   3.029   1.213   6.245
  464TIP3    H2 1350   2.969   1.081   6.203
  465TIP3   OH2 1351   8.233   3.978   4.710
  465TIP3    H1 1352   8.248   3.973   4.805
  465TIP3    H2 1353   8.314   3.947   4.671
  466TIP3   OH2 1354   2.308   6.373   6.190
  466TIP3    H1 1355   2.228   6.400   6.144
  466TIP3    H2 1356   2.343   6.302   6.136
  467TIP3   OH2 1357   0.354   0.390   1.795
  467TIP3    H1 1358   0.386   0.431   1.875
  467TIP3    H2 1359   0.325   0.463   1.740
  468TIP3   OH2 1360   0.330   5.664   0.483
  468TIP3    H1 1361   0.415   5.640   0.447
  468TIP3    H2 1362   0.347   5.743   0.535
  469TIP3   OH2 1363   0.366   3.784   5.447
  469TIP3    H1 1364   0.309   3.788   5.524
  469TIP3    H2 1365   0.429   3.855   5.459
  470TIP3   OH2 1366   4.963   7.216   0.143
  470TIP3    H1 1367   4.916   7.244   0.222
  470TIP3    H2 1368   5.050   7.254   0.152
  471TIP3   OH2 1369   0.425   2.549   1.445
  471TIP3    H1 1370   0.334   2.529   1.422
  471TIP3    H2 1371   0.419   2.627   1.500
  472TIP3   OH2 1372   4.664   7.094   4.759
  472TIP3    H1 1373   4.624   7.014   4.792
  472TIP3    H2 1374   4.701   7.069   4.674
  473TIP3   OH2 1375   7.240   3.413   1.785
  473TIP3    H1 1376   7.275   3.484   1.731
  473TIP3    H2 1377   7.149   3.403   1.755
  474TIP3   OH2 1378   5.451   4.724   4.647
  474TIP3    H1 1379   5.490   4.799   4.692
  474TIP3    H2 1380   5.400   4.679   4.715
  475TIP3   OH2 1381   8.261   4.324   4.042
  475TIP3    H1 1382   8.251   4.357   4.132
  475TIP3    H2 1383   8.234   4.233   4.047
  476TIP3   OH2 1384   0.723   3.061   5.095
  476TIP3    H1 1385   0.810   3.100   5.088
  476TIP3    H2 1386   0.663   3.136   5.096
  477TIP3   OH2 1387   0.845   1.186   5.288
  477TIP3    H1 1388   0.822   1.178   5.381
  477TIP3    H2 1389   0.879   1.100   5.264
  478TIP3   OH2 1390   3.863   1.315   2.587
  478TIP3    H1 1391   3.835   1.262   2.661
  478TIP3    H2 1392   3.791   1.310   2.524
  479TIP3   OH2 1393   0.735   5.831   2.192
  479TIP3    H1 1394   0.763   5.807   2.104
  479TIP3    H2 1395   0.661   5.773   2.210
  480TIP3   OH2 1396   0.796   3.845   4.487
  480TIP3    H1 1397   0.796   3.900   4.565
  480TIP3    H2 1398   0.762   3.901   4.417
  481TIP3   OH2 1399   5.348   1.992   0.621
  481TIP3    H1 1400   5.352   2.087   0.635
  481TIP3    H2 1401   5.282   1.962   0.683
  482TIP3   OH2 1402   3.937   1.595   2.037
  482TIP3    H1 1403   3.995   1.598   2.113
  482TIP3    H2 1404   3.894   1.680   2.036
  483TIP3   OH2 1405   7.087   0.098   1.227
  483TIP3    H1 1406   7.002   0.054   1.232
  483TIP3    H2 1407   7.074   0.180   1.273
  484TIP3   OH2 1408   0.653   6.059   1.043
  484TIP3    H1 1409   0.587   6.124   1.021
  484TIP3    H2 1410   0.618   5.977   1.010
  485TIP3   OH2 1411   4.607   6.951   6.174
  485TIP3    H1 1412   4.563   6.990   6.099
  485TIP3    H2 1413   4.673   7.014   6.199
  486TIP3   OH2 1414   6.685   7.269   3.575
  486TIP3    H1 1415   6.657   7.231   3.492
  486TIP3    H2 1416   6.755   7.210   3.606
  487TIP3   OH2 1417   2.174   6.871   4.864
  487TIP3    H1 1418   2.098   6.925   4.888
  487TIP3    H2 1419   2.144   6.781   4.878
  488TIP3   OH2 1420   5.931   1.949   3.754
  488TIP3    H1 1421   5.934   2.025   3.812
  488TIP3    H2 1422   5.848   1.958   3.706
  489TIP3   OH2 1423   1.894   1.117   2.341
  489TIP3    H1 1424   1.911   1.190   2.282
  489TIP3    H2 1425   1.801   1.125   2.363
  490TIP3   OH2 1426   2.209   0.664   1.732
  490TIP3    H1 1427   2.213   0.589   1.672
  490TIP3    H2 1428   2.148   0.637   1.800
  491TIP3   OH2 1429   0.208   1.226   1.813
  491TIP3    H1 1430   0.131   1.171   1.825
  491TIP3    H2 1431   0.174   1.314   1.798
  492TIP3   OH2 1432   4.458   7.415   1.753
  492TIP3    H1 1433   4.539   7.436   1.798
  492TIP3    H2 1434   4.445   7.487   1.691
  493TIP3   OH2 1435   2.682   6.692   3.015
  493TIP3    H1 1436   2.655   6.604   2.987
  493TIP3    H2 1437   2.723   6.730   2.937
  494TIP3   OH2 1438   7.199   0.908   0.615
  494TIP3    H1 1439   7.233   0.940   0.532
  494TIP3    H2 1440   7.244   0.825   0.629
  495TIP3   OH2 1441   2.331   2.215   0.965
  495TIP3    H1 1442   2.353   2.177   1.050
  495TIP3    H2 1443   2.257   2.163   0.934
  496TIP3   OH2 1444   2.157   1.531   5.783
  496TIP3    H1 1445   2.172   1.597   5.850
  496TIP3    H2 1446   2.066   1.545   5.756
  497TIP3   OH2 1447   4.664   1.913   2.665
  497TIP3    H1 1448   4.740   1.971   2.655
  497TIP3    H2 1449   4.643   1.916   2.758
  498TIP3   OH2 1450   7.020   0.566   1.268
  498TIP3    H1 1451   7.087   0.623   1.304
  498TIP3    H2 1452   6.939   0.617   1.273
  499TIP3   OH2 1453   6.174   6.871   4.482
  499TIP3    H1 1454   6.264   6.877   4.515
  499TIP3    H2 1455   6.121   6.851   4.559
  500TIP3   OH2 1456   0.712   4.000   4.681
  500TIP3    H1 1457   0.674   4.031   4.763
  500TIP3    H2 1458   0.658   4.040   4.612
  501TIP3   OH2 1459   7.562   0.709   1.587
  501TIP3    H1 1460   7.507   0.640   1.623
  501TIP3    H2 1461   7.588   0.761   1.663
  502TIP3   OH2 1462   3.387   0.293   2.641
  502TIP3    H1 1463   3.353   0.330   2.559
  502TIP3    H2 1464   3.429   0.366   2.685
  503TIP3   OH2 1465   5.036   0.100   4.541
  503TIP3    H1 1466   4.997   0.127   4.625
  503TIP3    H2 1467   5.033   0.005   4.543
  504TIP3   OH2 1468   3.987   4.500   2.757
  504TIP3    H1 1469   3.958   4.590   2.739
  504TIP3    H2 1470   4.082   4.504   2.746
  505TIP3   OH2 1471   1.397   0.912   5.818
  505TIP3    H1 1472   1.414   0.840   5.757
  505TIP3    H2 1473   1.390   0.868   5.904
  506TIP3   OH2 1474   4.890   1.634   1.944
  506TIP3    H1 1475   4.907   1.687   1.866
  506TIP3    H2 1476   4.795   1.639   1.956
  507TIP3   OH2 1477   3.501   1.737   2.445
  507TIP3    H1 1478   3.535   1.691   2.368
  507TIP3    H2 1479   3.481   1.667   2.507
  508TIP3   OH2 1480   2.175   7.668   4.611
  508TIP3    H1 1481   2.128   7.680   4.693
  508TIP3    H2 1482   2.110   7.688   4.543
  509TIP3   OH2 1483   8.014   5.735   6.708
  509TIP3    H1 1484   8.071   5.740   6.631
  509TIP3    H2 1485   8.073   5.715   6.781
  510TIP3   OH2 1486   1.655   3.457   6.234
  510TIP3    H1 1487   1.600   3.384   6.207
  510TIP3    H2 1488   1.661   3.513   6.156
  511TIP3   OH2 1489   1.441   6.893   4.087
  511TIP3    H1 1490   1.370   6.909   4.148
  511TIP3    H2 1491   1.407   6.920   4.002
  512TIP3   OH2 1492   1.164   7.162   1.447
  512TIP3    H1 1493   1.169   7.135   1.355
  512TIP3    H2 1494   1.190   7.254   1.446
  513TIP3   OH2 1495   5.432   2.039   3.182
  513TIP3    H1 1496   5.510   2.051   3.129
  513TIP3    H2 1497   5.460   1.982   3.254
  514TIP3   OH2 1498   3.531   0.026   0.189
  514TIP3    H1 1499   3.459   0.023   0.125
  514TIP3    H2 1500   3.610   0.023   0.136
  515TIP3   OH2 1501   2.508   3.822   4.053
  515TIP3    H1 1502   2.441   3.891   4.051
  515TIP3    H2 1503   2.586   3.864   4.018
  516TIP3   OH2 1504   6.106   0.081   6.241
  516TIP3    H1 1505   6.041   0.123   6.184
  516TIP3    H2 1506   6.093  -0.013   6.226
  517TIP3   OH2 1507   1.924   3.082   1.788
  517TIP3    H1 1508   1.933   3.161   1.735
  517TIP3    H2 1509   1.900   3.114   1.875
  518TIP3   OH2 1510   0.214   7.309   1.773
  518TIP3    H1 1511   0.299   7.280   1.741
  518TIP3    H2 1512   0.232   7.386   1.826
  519TIP3   OH2 1513   7.756   3.904   1.988
  519TIP3    H1 1514   7.803   3.975   2.033
  519TIP3    H2 1515   7.820   3.833   1.982
  520TIP3   OH2 1516   1.147   4.334   6.170
  520TIP3    H1 1517   1.081   4.289   6.119
  520TIP3    H2 1518   1.210   4.368   6.105
  521TIP3   OH2 1519   6.138   5.941   5.753
  521TIP3    H1 1520   6.044   5.951   5.770
  521TIP3    H2 1521   6.172   6.030   5.751
  522TIP3   OH2 1522   0.965   7.302   1.658
  522TIP3    H1 1523   1.038   7.327   1.602
  522TIP3    H2 1524   0.940   7.383   1.703
  523TIP3   OH2 1525   0.590   0.877   0.244
  523TIP3    H1 1526   0.666   0.923   0.209
  523TIP3    H2 1527   0.515   0.916   0.198
  524TIP3   OH2 1528   0.381   3.072   0.566
  524TIP3    H1 1529   0.321   3.134   0.610
  524TIP3    H2 1530   0.338   2.987   0.575
  525TIP3   OH2 1531   6.924   3.445   6.456
  525TIP3    H1 1532   6.849   3.505   6.465
  525TIP3    H2 1533   6.939   3.440   6.362
  526TIP3   OH2 1534   3.318   2.085   0.457
  526TIP3    H1 1535   3.345   2.130   0.537
  526TIP3    H2 1536   3.394   2.090   0.399
  527TIP3   OH2 1537   3.082   4.763   6.279
  527TIP3    H1 1538   3.090   4.772   6.184
  527TIP3    H2 1539   3.166   4.792   6.313
  528TIP3   OH2 1540   6.040   1.871   1.844
  528TIP3    H1 1541   6.018   1.801   1.906
  528TIP3    H2 1542   6.076   1.941   1.899
  529TIP3   OH2 1543   2.469   5.195   2.956
  529TIP3    H1 1544   2.522   5.275   2.956
  529TIP3    H2 1545   2.455   5.175   3.049
  530TIP3   OH2 1546   7.555   1.907   3.563
  530TIP3    H1 1547   7.533   1.941   3.649
  530TIP3    H2 1548   7.477   1.859   3.535
  531TIP3   OH2 1549   7.491   4.359   4.343
  531TIP3    H1 1550   7.526   4.362   4.432
  531TIP3    H2 1551   7.522   4.439   4.301
  532TIP3   OH2 1552   4.962   6.212   1.972
  532TIP3    H1 1553   4.867   6.222   1.970
  532TIP3    H2 1554   4.984   6.176   1.886
  533TIP3   OH2 1555   6.283   6.236   5.237
  533TIP3    H1 1556   6.234   6.283   5.169
  533TIP3    H2 1557   6.216   6.198   5.293
  534TIP3   OH2 1558   4.286   2.364   2.660
  534TIP3    H1 1559   4.214   2.394   2.715
  534TIP3    H2 1560   4.255   2.380   2.570
  535TIP3   OH2 1561   6.093   2.779   2.776
  535TIP3    H1 1562   6.156   2.761   2.705
  535TIP3    H2 1563   6.123   2.723   2.848
  536TIP3   OH2 1564   4.324   1.405   5.041
  536TIP3    H1 1565   4.311   1.435   4.951
  536TIP3    H2 1566   4.315   1.484   5.094
  537TIP3   OH2 1567   5.221   2.770   6.111
  537TIP3    H1 1568   5.176   2.843   6.154
  537TIP3    H2 1569   5.313   2.783   6.132
  538TIP3   OH2 1570   6.413   6.801   3.629
  538TIP3    H1 1571   6.441   6.727   3.683
  538TIP3    H2 1572   6.492   6.826   3.580
  539TIP3   OH2 1573   3.092   2.309   1.922
  539TIP3    H1 1574   3.090   2.270   2.009
  539TIP3    H2 1575   3.087   2.403   1.936
  540TIP3   OH2 1576   5.918   2.691   3.266
  540TIP3    H1 1577   5.882   2.669   3.180
  540TIP3    H2 1578   5.948   2.781   3.257
  541TIP3   OH2 1579   7.273   2.207   0.233
  541TIP3    H1 1580   7.339   2.251   0.180
  541TIP3    H2 1581   7.191   2.251   0.211
  542TIP3   OH2 1582   8.246   0.813   6.255
  542TIP3    H1 1583   8.325   0.773   6.290
  542TIP3    H2 1584   8.207   0.858   6.330
  543TIP3   OH2 1585   5.556   4.538   5.559
  543TIP3    H1 1586   5.534   4.606   5.622
  543TIP3    H2 1587   5.616   4.480   5.606
  544TIP3   OH2 1588   3.908   4.721   3.839
  544TIP3    H1 1589   3.947   4.675   3.766
  544TIP3    H2 1590   3.858   4.792   3.799
  545TIP3   OH2 1591   5.464   3.326   5.807
  545TIP3    H1 1592   5.525   3.386   5.850
  545TIP3    H2 1593   5.408   3.383   5.754
  546TIP3   OH2 1594   5.399   0.371   4.272
  546TIP3    H1 1595   5.346   0.342   4.198
  546TIP3    H2 1596   5.351   0.340   4.349
  547TIP3   OH2 1597   4.307   5.010   0.453
  547TIP3    H1 1598   4.282   5.072   0.521
  547TIP3    H2 1599   4.384   5.049   0.411
  548TIP3   OH2 1600   3.974   4.696   1.731
  548TIP3    H1 1601   3.989   4.708   1.637
  548TIP3    H2 1602   3.955   4.784   1.764
  549TIP3   OH2 1603   3.358   5.384   6.278
  549TIP3    H1 1604   3.453   5.392   6.288
  549TIP3    H2 1605   3.343   5.290   6.267
  550TIP3   OH2 1606   6.823   3.479   3.499
  550TIP3    H1 1607   6.847   3.546   3.435
  550TIP3    H2 1608   6.771   3.526   3.565
  551TIP3   OH2 1609   5.693   2.897   0.453
  551TIP3    H1 1610   5.603   2.867   0.446
  551TIP3    H2 1611   5.694   2.980   0.406
  552TIP3   OH2 1612   2.491   1.505   1.170
  552TIP3    H1 1613   2.404   1.541   1.156
  552TIP3    H2 1614   2.532   1.564   1.234
  553TIP3   OH2 1615   6.814   2.712   2.974
  553TIP3    H1 1616   6.722   2.712   3.002
  553TIP3    H2 1617   6.825   2.794   2.926
  554TIP3   OH2 1618   1.298   0.788   1.589
  554TIP3    H1 1619   1.203   0.797   1.590
  554TIP3    H2 1620   1.331   0.872   1.620
  555TIP3   OH2 1621   6.496   4.456   1.951
  555TIP3    H1 1622   6.510   4.392   1.881
  555TIP3    H2 1623   6.584   4.483   1.977
  556TIP3   OH2 1624   7.571   4.601   0.588
  556TIP3    H1 1625   7.661   4.634   0.587
  556TIP3    H2 1626   7.521   4.670   0.633
  557TIP3   OH2 1627   1.715   5.283   5.151
  557TIP3    H1 1628   1.744   5.207   5.201
  557TIP3    H2 1629   1.789   5.303   5.093
  558TIP3   OH2 1630   3.429   1.845   2.147
  558TIP3    H1 1631   3.389   1.878   2.228
  558TIP3    H2 1632   3.479   1.918   2.113
  559TIP3   OH2 1633   1.154   7.726   4.155
  559TIP3    H1 1634   1.111   7.665   4.216
  559TIP3    H2 1635   1.204   7.669   4.096
  560TIP3   OH2 1636   5.466   6.694   2.412
  560TIP3    H1 1637   5.392   6.647   2.374
  560TIP3    H2 1638   5.539   6.673   2.355
  561TIP3   OH2 1639   3.242   3.832   5.601
  561TIP3    H1 1640   3.324   3.858   5.644
  561TIP3    H2 1641   3.269   3.768   5.535
  562TIP3   OH2 1642   2.510   2.319   3.365
  562TIP3    H1 1643   2.477   2.303   3.277
  562TIP3    H2 1644   2.433   2.313   3.421
  563TIP3   OH2 1645   6.630   4.408   6.308
  563TIP3    H1 1646   6.685   4.394   6.384
  563TIP3    H2 1647   6.680   4.373   6.235
  564TIP3   OH2 1648   3.853   6.736   5.595
  564TIP3    H1 1649   3.800   6.795   5.648
  564TIP3    H2 1650   3.804   6.725   5.514
  565TIP3   OH2 1651   4.635   4.821   1.964
  565TIP3    H1 1652   4.563   4.885   1.967
  565TIP3    H2 1653   4.702   4.858   2.023
  566TIP3   OH2 1654   0.390   6.786   0.496
  566TIP3    H1 1655   0.438   6.725   0.552
  566TIP3    H2 1656   0.356   6.731   0.424
  567TIP3   OH2 1657   2.946   4.099   3.401
  567TIP3    H1 1658   2.890   4.021   3.404
  567TIP3    H2 1659   2.890   4.168   3.366
  568TIP3   OH2 1660   0.987   4.204   6.376
  568TIP3    H1 1661   1.026   4.136   6.430
  568TIP3    H2 1662   1.059   4.235   6.321
  569TIP3   OH2 1663   3.959   7.419   5.340
  569TIP3    H1 1664   3.945   7.514   5.343
  569TIP3    H2 1665   3.871   7.382   5.348
  570TIP3   OH2 1666   2.547   4.575   2.497
  570TIP3    H1 1667   2.464   4.568   2.544
  570TIP3    H2 1668   2.605   4.621   2.558
  571TIP3   OH2 1669   1.918   5.728   6.295
  571TIP3    H1 1670   1.850   5.793   6.313
  571TIP3    H2 1671   1.885   5.647   6.334
  572TIP3   OH2 1672   2.552   4.572   2.965
  572TIP3    H1 1673   2.527   4.516   2.891
  572TIP3    H2 1674   2.645   4.591   2.950
  573TIP3   OH2 1675   7.605   2.954   2.022
  573TIP3    H1 1676   7.698   2.939   2.043
  573TIP3    H2 1677   7.560   2.939   2.105
  574TIP3   OH2 1678   2.618   5.604   2.563
  574TIP3    H1 1679   2.525   5.607   2.585
  574TIP3    H2 1680   2.634   5.685   2.514
  575TIP3   OH2 1681   0.887   1.528   2.547
  575TIP3    H1 1682   0.850   1.456   2.598
  575TIP3    H2 1683   0.836   1.529   2.467
  576TIP3   OH2 1684   5.369   5.570   6.096
  576TIP3    H1 1685   5.361   5.625   6.174
  576TIP3    H2 1686   5.278   5.555   6.068
  577TIP3   OH2 1687   7.804   1.866   1.815
  577TIP3    H1 1688   7.787   1.846   1.907
  577TIP3    H2 1689   7.756   1.947   1.798
  578TIP3   OH2 1690   0.626   4.496   5.584
  578TIP3    H1 1691   0.698   4.552   5.613
  578TIP3    H2 1692   0.631   4.420   5.642
  579TIP3   OH2 1693   6.590   7.160   6.741
  579TIP3    H1 1694   6.548   7.117   6.667
  579TIP3    H2 1695   6.675   7.190   6.707
  580TIP3   OH2 1696   1.121   3.720   1.327
  580TIP3    H1 1697   1.067   3.698   1.252
  580TIP3    H2 1698   1.061   3.713   1.402
  581TIP3   OH2 1699   0.529   1.118   2.619
  581TIP3    H1 1700   0.588   1.192   2.638
  581TIP3    H2 1701   0.475   1.110   2.697
  582TIP3   OH2 1702   7.935   3.182   3.112
  582TIP3    H1 1703   7.904   3.103   3.156
  582TIP3    H2 1704   8.005   3.215   3.168
  583TIP3   OH2 1705   1.719   6.979   1.747
  583TIP3    H1 1706   1.655   6.968   1.816
  583TIP3    H2 1707   1.678   6.941   1.669
  584TIP3   OH2 1708   1.355   7.200   6.127
  584TIP3    H1 1709   1.367   7.154   6.210
  584TIP3    H2 1710   1.265   7.230   6.129
  585TIP3   OH2 1711   7.697   6.776   4.039
  585TIP3    H1 1712   7.791   6.769   4.018
  585TIP3    H2 1713   7.654   6.783   3.954
  586TIP3   OH2 1714   3.955   1.615   5.331
  586TIP3    H1 1715   3.982   1.676   5.399
  586TIP3    H2 1716   3.874   1.577   5.363
  587TIP3   OH2 1717   2.794   2.092   3.561
  587TIP3    H1 1718   2.841   2.008   3.555
  587TIP3    H2 1719   2.779   2.118   3.470
  588TIP3   OH2 1720   7.923   7.222   0.943
  588TIP3    H1 1721   7.976   7.220   0.863
  588TIP3    H2 1722   7.987   7.221   1.014
  589TIP3   OH2 1723   5.352   1.762   1.537
  589TIP3    H1 1724   5.261   1.781   1.514
  589TIP3    H2 1725   5.404   1.819   1.480
  590TIP3   OH2 1726   2.998   7.632   2.164
  590TIP3    H1 1727   2.910   7.669   2.160
  590TIP3    H2 1728   3.024   7.640   2.255
  591TIP3   OH2 1729   1.426   6.531   0.933
  591TIP3    H1 1730   1.413   6.537   1.027
  591TIP3    H2 1731   1.413   6.620   0.901
  592TIP3   OH2 1732   3.608   3.487   1.953
  592TIP3    H1 1733   3.648   3.413   1.998
  592TIP3    H2 1734   3.558   3.448   1.881
  593TIP3   OH2 1735   5.130   3.845   1.735
  593TIP3    H1 1736   5.058   3.883   1.785
  593TIP3    H2 1737   5.092   3.828   1.649
  594TIP3   OH2 1738   6.139   0.539   0.965
  594TIP3    H1 1739   6.165   0.600   1.035
  594TIP3    H2 1740   6.111   0.596   0.893
  595TIP3   OH2 1741   5.044   1.568   6.367
  595TIP3    H1 1742   5.012   1.486   6.327
  595TIP3    H2 1743   4.975   1.631   6.348
  596TIP3   OH2 1744   6.645   7.808   0.444
  596TIP3    H1 1745   6.576   7.765   0.495
  596TIP3    H2 1746   6.689   7.736   0.399
  597TIP3   OH2 1747   8.247   6.759   3.052
  597TIP3    H1 1748   8.208   6.682   3.011
  597TIP3    H2 1749   8.242   6.828   2.985
  598TIP3   OH2 1750   3.619   2.861   2.922
  598TIP3    H1 1751   3.554   2.885   2.856
  598TIP3    H2 1752   3.698   2.839   2.872
  599TIP3   OH2 1753   7.449   5.793   3.683
  599TIP3    H1 1754   7.535   5.752   3.686
  599TIP3    H2 1755   7.413   5.781   3.771
  600TIP3   OH2 1756   7.241   7.463   5.548
  600TIP3    H1 1757   7.227   7.415   5.466
  600TIP3    H2 1758   7.336   7.461   5.561
  601TIP3   OH2 1759   7.057   0.027   5.966
  601TIP3    H1 1760   7.010   0.044   5.885
  601TIP3    H2 1761   7.132  -0.026   5.940
  602TIP3   OH2 1762   4.009   5.724   2.328
  602TIP3    H1 1763   4.088   5.676   2.303
  602TIP3    H2 1764   4.034   5.816   2.320
  603TIP3   OH2 1765   1.555   0.159   6.653
  603TIP3    H1 1766   1.492   0.229   6.673
  603TIP3    H2 1767   1.640   0.197   6.675
  604TIP3   OH2 1768   8.180   4.351   2.928
  604TIP3    H1 1769   8.247   4.286   2.912
  604TIP3    H2 1770   8.100   4.300   2.944
  605TIP3   OH2 1771   4.824   6.987   2.247
  605TIP3    H1 1772   4.845   6.969   2.339
  605TIP3    H2 1773   4.744   6.938   2.230
  606TIP3   OH2 1774   6.781   1.181   2.412
  606TIP3    H1 1775   6.694   1.143   2.421
  606TIP3    H2 1776   6.781   1.222   2.326
  607TIP3   OH2 1777   6.022   7.755   1.720
  607TIP3    H1 1778   5.937   7.789   1.747
  607TIP3    H2 1779   6.054   7.819   1.656
  608TIP3   OH2 1780   7.042   3.795   0.282
  608TIP3    H1 1781   7.048   3.873   0.227
  608TIP3    H2 1782   7.132   3.778   0.309
  609TIP3   OH2 1783   1.123   3.166   3.571
  609TIP3    H1 1784   1.038   3.123   3.581
  609TIP3    H2 1785   1.107   3.256   3.599
  610TIP3   OH2 1786   3.927   2.942   0.075
  610TIP3    H1 1787   3.988   3.005   0.038
  610TIP3    H2 1788   3.884   2.902  -0.001
  611TIP3   OH2 1789   1.837   6.770   4.363
  611TIP3    H1 1790   1.825   6.847   4.308
  611TIP3    H2 1791   1.914   6.790   4.416
  612TIP3   OH2 1792   4.168   1.655   2.167
  612TIP3    H1 1793   4.223   1.730   2.143
  612TIP3    H2 1794   4.201   1.582   2.115
  613TIP3   OH2 1795   1.221   4.282   0.643
  613TIP3    H1 1796   1.163   4.347   0.603
  613TIP3    H2 1797   1.216   4.300   0.737
  614TIP3   OH2 1798   6.720   5.670   6.344
  614TIP3    H1 1799   6.760   5.626   6.269
  614TIP3    H2 1800   6.780   5.653   6.417
  615TIP3   OH2 1801   6.594   7.489   3.331
  615TIP3    H1 1802   6.688   7.495   3.319
  615TIP3    H2 1803   6.567   7.577   3.357
  616TIP3   OH2 1804   5.986   3.700   6.002
  616TIP3    H1 1805   6.046   3.773   6.018
  616TIP3    H2 1806   6.040   3.634   5.959
  617TIP3   OH2 1807   5.854   6.795   3.755
  617TIP3    H1 1808   5.944   6.789   3.724
  617TIP3    H2 1809   5.859   6.780   3.849
  618TIP3   OH2 1810   3.583   0.681   6.593
  618TIP3    H1 1811   3.637   0.613   6.635
  618TIP3    H2 1812   3.528   0.715   6.664
  619TIP3   OH2 1813   1.159   3.770   3.673
  619TIP3    H1 1814   1.126   3.682   3.655
  619TIP3    H2 1815   1.237   3.778   3.617
  620TIP3   OH2 1816   3.374   2.216   5.644
  620TIP3    H1 1817   3.405   2.292   5.596
  620TIP3    H2 1818   3.349   2.153   5.576
  621TIP3   OH2 1819   0.679   1.488   6.219
  621TIP3    H1 1820   0.634   1.435   6.154
  621TIP3    H2 1821   0.750   1.432   6.251
  622TIP3   OH2 1822   1.739   7.500   3.687
  622TIP3    H1 1823   1.649   7.494   3.718
  622TIP3    H2 1824   1.792   7.469   3.760
  623TIP3   OH2 1825   6.300   2.724   4.954
  623TIP3    H1 1826   6.360   2.691   4.887
  623TIP3    H2 1827   6.356   2.769   5.017
  624TIP3   OH2 1828   3.368   5.563   2.655
  624TIP3    H1 1829   3.290   5.614   2.634
  624TIP3    H2 1830   3.358   5.482   2.605
  625TIP3   OH2 1831   4.102   6.457   3.303
  625TIP3    H1 1832   4.157   6.454   3.381
  625TIP3    H2 1833   4.072   6.548   3.299
  626TIP3   OH2 1834   2.297   1.217   3.450
  626TIP3    H1 1835   2.366   1.247   3.510
  626TIP3    H2 1836   2.341   1.150   3.396
  627TIP3   OH2 1837   3.673   0.458   5.881
  627TIP3    H1 1838   3.679   0.526   5.814
  627TIP3    H2 1839   3.758   0.458   5.923
  628TIP3   OH2 1840   0.917   1.309   1.506
  628TIP3    H1 1841   0.843   1.363   1.535
  628TIP3    H2 1842   0.880   1.222   1.495
  629TIP3   OH2 1843   5.417   0.005   2.704
  629TIP3    H1 1844   5.327  -0.017   2.727
  629TIP3    H2 1845   5.461   0.015   2.788
  630TIP3   OH2 1846   7.297   1.948   5.638
  630TIP3    H1 1847   7.324   2.040   5.638
  630TIP3    H2 1848   7.270   1.931   5.548
  631TIP3   OH2 1849   5.345   7.705   6.687
  631TIP3    H1 1850   5.346   7.640   6.758
  631TIP3    H2 1851   5.252   7.727   6.676
  632TIP3   OH2 1852   5.853   3.878   4.366
  632TIP3    H1 1853   5.932   3.829   4.344
  632TIP3    H2 1854   5.869   3.908   4.456
  633TIP3   OH2 1855   0.368   6.947   6.420
  633TIP3    H1 1856   0.326   6.905   6.495
  633TIP3    H2 1857   0.311   6.928   6.346
  634TIP3   OH2 1858   6.912   5.242   4.446
  634TIP3    H1 1859   7.006   5.229   4.450
  634TIP3    H2 1860   6.880   5.168   4.394
  635TIP3   OH2 1861   7.308   6.679   4.941
  635TIP3    H1 1862   7.235   6.630   4.979
  635TIP3    H2 1863   7.315   6.647   4.851
  636TIP3   OH2 1864   2.369   1.422   3.950
  636TIP3    H1 1865   2.448   1.374   3.976
  636TIP3    H2 1866   2.304   1.397   4.016
  637TIP3   OH2 1867   0.394   7.333   3.843
  637TIP3    H1 1868   0.438   7.261   3.888
  637TIP3    H2 1869   0.436   7.412   3.879
  638TIP3   OH2 1870   2.946   7.717   3.025
  638TIP3    H1 1871   3.022   7.728   2.968
  638TIP3    H2 1872   2.978   7.666   3.099
  639TIP3   OH2 1873   2.475   7.273   2.321
  639TIP3    H1 1874   2.467   7.325   2.241
  639TIP3    H2 1875   2.432   7.190   2.299
  640TIP3   OH2 1876   3.930   4.561   1.191
  640TIP3    H1 1877   3.837   4.577   1.204
  640TIP3    H2 1878   3.934   4.483   1.135
  641TIP3   OH2 1879   6.194   6.874   2.320
  641TIP3    H1 1880   6.106   6.883   2.283
  641TIP3    H2 1881   6.251   6.920   2.257
  642TIP3   OH2 1882   7.465   2.956   3.508
  642TIP3    H1 1883   7.462   3.047   3.538
  642TIP3    H2 1884   7.548   2.922   3.542
  643TIP3   OH2 1885   0.872   3.015   0.193
  643TIP3    H1 1886   0.809   3.065   0.245
  643TIP3    H2 1887   0.850   2.924   0.210
  644TIP3   OH2 1888   5.973   4.435   5.990
  644TIP3    H1 1889   6.008   4.444   6.079
  644TIP3    H2 1890   6.050   4.414   5.936
  645TIP3   OH2 1891   3.062   3.145   3.283
  645TIP3    H1 1892   3.156   3.161   3.276
  645TIP3    H2 1893   3.040   3.092   3.206
  646TIP3   OH2 1894   0.822   2.708   4.999
  646TIP3    H1 1895   0.890   2.770   4.971
  646TIP3    H2 1896   0.750   2.724   4.938
  647TIP3   OH2 1897   2.596   5.185   1.783
  647TIP3    H1 1898   2.548   5.188   1.700
  647TIP3    H2 1899   2.602   5.277   1.810
  648TIP3   OH2 1900   6.427   2.448   3.440
  648TIP3    H1 1901   6.370   2.389   3.490
  648TIP3    H2 1902   6.475   2.496   3.507
  649TIP3   OH2 1903   2.555   6.408   3.774
  649TIP3    H1 1904   2.531   6.473   3.708
  649TIP3    H2 1905   2.625   6.449   3.824
  650TIP3   OH2 1906   7.441   7.375   3.642
  650TIP3    H1 1907   7.513   7.433   3.616
  650TIP3    H2 1908   7.484   7.293   3.666
  651TIP3   OH2 1909   6.347   3.943   3.453
  651TIP3    H1 1910   6.434   3.968   3.425
  651TIP3    H2 1911   6.288   3.979   3.387
  652TIP3   OH2 1912   4.311   4.381   5.796
  652TIP3    H1 1913   4.272   4.295   5.784
  652TIP3    H2 1914   4.405   4.366   5.784
  653TIP3   OH2 1915   2.057   2.644   4.221
  653TIP3    H1 1916   2.143   2.636   4.261
  653TIP3    H2 1917   2.049   2.737   4.200
  654TIP3   OH2 1918   5.767   0.256   6.561
  654TIP3    H1 1919   5.786   0.187   6.625
  654TIP3    H2 1920   5.674   0.274   6.573
  655TIP3   OH2 1921   6.594   0.905   3.418
  655TIP3    H1 1922   6.687   0.889   3.430
  655TIP3    H2 1923   6.584   1.000   3.429
  656TIP3   OH2 1924   2.481   6.131   6.551
  656TIP3    H1 1925   2.442   6.216   6.530
  656TIP3    H2 1926   2.539   6.113   6.476
  657TIP3   OH2 1927   1.534   5.399   6.083
  657TIP3    H1 1928   1.598   5.466   6.059
  657TIP3    H2 1929   1.583   5.338   6.139
  658TIP3   OH2 1930   7.442   1.573   6.611
  658TIP3    H1 1931   7.533   1.586   6.582
  658TIP3    H2 1932   7.390   1.621   6.546
  659TIP3   OH2 1933   6.123   2.493   3.294
  659TIP3    H1 1934   6.052   2.554   3.314
  659TIP3    H2 1935   6.201   2.548   3.292
  660TIP3   OH2 1936   4.893   7.462   4.825
  660TIP3    H1 1937   4.811   7.512   4.817
  660TIP3    H2 1938   4.901   7.416   4.741
  661TIP3   OH2 1939   1.621   5.690   1.058
  661TIP3    H1 1940   1.673   5.769   1.044
  661TIP3    H2 1941   1.530   5.719   1.051
  662TIP3   OH2 1942   2.920   5.755   6.184
  662TIP3    H1 1943   2.835   5.751   6.227
  662TIP3    H2 1944   2.935   5.666   6.152
  663TIP3   OH2 1945   6.601   2.670   0.867
  663TIP3    H1 1946   6.693   2.648   0.885
  663TIP3    H2 1947   6.551   2.604   0.914
  664TIP3   OH2 1948   4.076   3.918   3.578
  664TIP3    H1 1949   4.073   3.866   3.657
  664TIP3    H2 1950   3.985   3.925   3.549
  665TIP3   OH2 1951   4.699   3.155   2.471
  665TIP3    H1 1952   4.638   3.217   2.431
  665TIP3    H2 1953   4.759   3.131   2.400
  666TIP3   OH2 1954   7.193   0.209   3.996
  666TIP3    H1 1955   7.282   0.225   3.964
  666TIP3    H2 1956   7.167   0.291   4.037
  667TIP3   OH2 1957   1.362   3.952   4.499
  667TIP3    H1 1958   1.434   3.919   4.553
  667TIP3    H2 1959   1.404   4.012   4.438
  668TIP3   OH2 1960   1.948   4.096   3.203
  668TIP3    H1 1961   1.948   4.171   3.263
  668TIP3    H2 1962   1.917   4.131   3.120
  669TIP3   OH2 1963   7.303   4.185   4.241
  669TIP3    H1 1964   7.291   4.122   4.312
  669TIP3    H2 1965   7.361   4.252   4.278
  670TIP3   OH2 1966   4.844   4.526   6.209
  670TIP3    H1 1967   4.824   4.564   6.123
  670TIP3    H2 1968   4.802   4.440   6.208
  671TIP3   OH2 1969   5.828   6.749   2.869
  671TIP3    H1 1970   5.810   6.742   2.962
  671TIP3    H2 1971   5.923   6.758   2.864
  672TIP3   OH2 1972   5.930   4.672   3.986
  672TIP3    H1 1973   5.879   4.657   3.907
  672TIP3    H2 1974   5.962   4.761   3.977
  673TIP3   OH2 1975   2.307   7.803   5.593
  673TIP3    H1 1976   2.359   7.843   5.663
  673TIP3    H2 1977   2.252   7.739   5.638
  674TIP3   OH2 1978   5.611   7.296   0.500
  674TIP3    H1 1979   5.589   7.385   0.528
  674TIP3    H2 1980   5.618   7.301   0.405
  675TIP3   OH2 1981   6.273   0.503   2.837
  675TIP3    H1 1982   6.351   0.454   2.814
  675TIP3    H2 1983   6.293   0.593   2.812
  676TIP3   OH2 1984   4.952   5.089   5.836
  676TIP3    H1 1985   4.938   5.147   5.761
  676TIP3    H2 1986   5.036   5.117   5.872
  677TIP3   OH2 1987   4.959   0.620   1.243
  677TIP3    H1 1988   5.014   0.544   1.225
  677TIP3    H2 1989   4.954   0.666   1.160
  678TIP3   OH2 1990   3.301   6.103   4.783
  678TIP3    H1 1991   3.287   6.166   4.712
  678TIP3    H2 1992   3.220   6.103   4.832
  679TIP3   OH2 1993   4.938   5.499   5.754
  679TIP3    H1 1994   4.886   5.530   5.828
  679TIP3    H2 1995   4.971   5.578   5.712
  680TIP3   OH2 1996   1.699   4.728   5.198
  680TIP3    H1 1997   1.616   4.680   5.198
  680TIP3    H2 1998   1.693   4.786   5.274
  681TIP3   OH2 1999   4.779   2.650   0.696
  681TIP3    H1 2000   4.822   2.653   0.611
  681TIP3    H2 2001   4.763   2.742   0.717
  682TIP3   OH2 2002   6.101   0.324   3.266
  682TIP3    H1 2003   6.158   0.301   3.340
  682TIP3    H2 2004   6.151   0.298   3.189
  683TIP3   OH2 2005   2.014   7.382   3.899
  683TIP3    H1 2006   1.935   7.431   3.923
  683TIP3    H2 2007   2.086   7.444   3.912
  684TIP3   OH2 2008   3.709   1.653   3.440
  684TIP3    H1 2009   3.678   1.654   3.530
  684TIP3    H2 2010   3.692   1.742   3.408
  685TIP3   OH2 2011   6.656   2.487   5.694
  685TIP3    H1 2012   6.568   2.457   5.672
  685TIP3    H2 2013   6.713   2.416   5.665
  686TIP3   OH2 2014   2.703   3.220   4.603
  686TIP3    H1 2015   2.675   3.156   4.537
  686TIP3    H2 2016   2.789   3.188   4.632
  687TIP3   OH2 2017   3.425   6.163   0.727
  687TIP3    H1 2018   3.382   6.240   0.764
  687TIP3    H2 2019   3.468   6.194   0.648
  688TIP3   OH2 2020   0.752   2.049   0.599
  688TIP3    H1 2021   0.733   1.992   0.674
  688TIP3    H2 2022   0.668   2.091   0.580
  689TIP3   OH2 2023   6.333   4.825   3.536
  689TIP3    H1 2024   6.391   4.788   3.603
  689TIP3    H2 2025   6.295   4.903   3.577
  690TIP3   OH2 2026   6.614   5.204   3.705
  690TIP3    H1 2027   6.688   5.258   3.678
  690TIP3    H2 2028   6.609   5.135   3.638
  691TIP3   OH2 2029   1.608   1.600   4.270
  691TIP3    H1 2030   1.537   1.548   4.233
  691TIP3    H2 2031   1.630   1.555   4.351
  692TIP3   OH2 2032   0.714   4.643   3.564
  692TIP3    H1 2033   0.668   4.574   3.612
  692TIP3    H2 2034   0.657   4.662   3.490
  693TIP3   OH2 2035   6.211   1.640   0.023
  693TIP3    H1 2036   6.240   1.705   0.087
  693TIP3    H2 2037   6.168   1.691  -0.045
  694TIP3   OH2 2038   1.739   7.569   2.737
  694TIP3    H1 2039   1.692   7.653   2.741
  694TIP3    H2 2040   1.828   7.590   2.763
  695TIP3   OH2 2041   4.067   0.126   3.085
  695TIP3    H1 2042   4.031   0.213   3.069
  695TIP3    H2 2043   4.161   0.135   3.065
  696TIP3   OH2 2044   0.289   3.905   4.319
  696TIP3    H1 2045   0.265   3.876   4.407
  696TIP3    H2 2046   0.366   3.960   4.332
  697TIP3   OH2 2047   0.651   7.350   3.570
  697TIP3    H1 2048   0.607   7.434   3.556
  697TIP3    H2 2049   0.602   7.288   3.516
  698TIP3   OH2 2050   5.701   0.057   5.000
  698TIP3    H1 2051   5.646   0.125   4.960
  698TIP3    H2 2052   5.764   0.034   4.932
  699TIP3   OH2 2053   8.145   0.614   3.696
  699TIP3    H1 2054   8.098   0.686   3.738
  699TIP3    H2 2055   8.105   0.607   3.609
  700TIP3   OH2 2056   5.562   0.812   3.138
  700TIP3    H1 2057   5.506   0.889   3.123
  700TIP3    H2 2058   5.577   0.775   3.051
  701TIP3   OH2 2059   3.612   4.765   2.906
  701TIP3    H1 2060   3.612   4.714   2.987
  701TIP3    H2 2061   3.594   4.855   2.934
  702TIP3   OH2 2062   6.354   7.559   5.961
  702TIP3    H1 2063   6.327   7.647   5.989
  702TIP3    H2 2064   6.279   7.526   5.911
  703TIP3   OH2 2065   7.920   5.347   5.455
  703TIP3    H1 2066   7.840   5.317   5.412
  703TIP3    H2 2067   7.890   5.413   5.518
  704TIP3   OH2 2068   4.224   1.132   0.849
  704TIP3    H1 2069   4.185   1.128   0.936
  704TIP3    H2 2070   4.211   1.045   0.813
  705TIP3   OH2 2071   4.252   1.612   5.930
  705TIP3    H1 2072   4.208   1.528   5.943
  705TIP3    H2 2073   4.199   1.657   5.863
  706TIP3   OH2 2074   4.750   2.439   6.019
  706TIP3    H1 2075   4.755   2.477   5.931
  706TIP3    H2 2076   4.709   2.508   6.072
  707TIP3   OH2 2077   7.506   0.781   2.189
  707TIP3    H1 2078   7.496   0.871   2.219
  707TIP3    H2 2079   7.458   0.729   2.253
  708TIP3   OH2 2080   6.671   4.956   6.202
  708TIP3    H1 2081   6.744   5.018   6.209
  708TIP3    H2 2082   6.667   4.915   6.289
  709TIP3   OH2 2083   1.516   4.423   3.682
  709TIP3    H1 2084   1.558   4.377   3.754
  709TIP3    H2 2085   1.530   4.516   3.701
  710TIP3   OH2 2086   2.355   4.250   1.909
  710TIP3    H1 2087   2.399   4.176   1.949
  710TIP3    H2 2088   2.405   4.269   1.830
  711TIP3   OH2 2089   7.161   1.082   5.712
  711TIP3    H1 2090   7.147   1.176   5.727
  711TIP3    H2 2091   7.074   1.047   5.699
  712TIP3   OH2 2092   5.500   2.220   4.832
  712TIP3    H1 2093   5.501   2.131   4.867
  712TIP3    H2 2094   5.490   2.276   4.908
  713TIP3   OH2 2095   6.814   3.902   4.801
  713TIP3    H1 2096   6.856   3.873   4.882
  713TIP3    H2 2097   6.840   3.837   4.736
  714TIP3   OH2 2098   4.237   5.627   6.307
  714TIP3    H1 2099   4.239   5.565   6.381
  714TIP3    H2 2100   4.327   5.630   6.276
  715TIP3   OH2 2101   1.704   5.034   4.668
  715TIP3    H1 2102   1.664   5.054   4.752
  715TIP3    H2 2103   1.760   5.110   4.649
  716TIP3   OH2 2104   3.750   2.120   6.321
  716TIP3    H1 2105   3.825   2.174   6.296
  716TIP3    H2 2106   3.779   2.071   6.397
  717TIP3   OH2 2107   0.668   5.150   3.306
  717TIP3    H1 2108   0.658   5.061   3.273
  717TIP3    H2 2109   0.753   5.150   3.350
  718TIP3   OH2 2110   6.071   3.569   3.065
  718TIP3    H1 2111   5.985   3.611   3.060
  718TIP3    H2 2112   6.100   3.562   2.974
  719TIP3   OH2 2113   7.309   2.813   2.541
  719TIP3    H1 2114   7.387   2.867   2.548
  719TIP3    H2 2115   7.342   2.725   2.520
  720TIP3   OH2 2116   2.361   0.751   0.300
  720TIP3    H1 2117   2.380   0.809   0.374
  720TIP3    H2 2118   2.267   0.759   0.286
  721TIP3   OH2 2119   5.934   1.022   0.206
  721TIP3    H1 2120   6.003   0.985   0.261
  721TIP3    H2 2121   5.921   1.110   0.240
  722TIP3   OH2 2122   8.074   4.250   4.610
  722TIP3    H1 2123   8.133   4.185   4.647
  722TIP3    H2 2124   8.003   4.199   4.571
  723TIP3   OH2 2125   3.746   5.911   0.565
  723TIP3    H1 2126   3.665   5.936   0.520
  723TIP3    H2 2127   3.741   5.955   0.650
  724TIP3   OH2 2128   4.207   5.436   6.488
  724TIP3    H1 2129   4.185   5.409   6.577
  724TIP3    H2 2130   4.155   5.378   6.432
  725TIP3   OH2 2131   4.700   2.411   4.313
  725TIP3    H1 2132   4.660   2.364   4.239
  725TIP3    H2 2133   4.732   2.341   4.370
  726TIP3   OH2 2134   2.929   6.067   1.950
  726TIP3    H1 2135   3.018   6.079   1.917
  726TIP3    H2 2136   2.926   6.120   2.030
  727TIP3   OH2 2137   8.093   3.669   5.262
  727TIP3    H1 2138   8.096   3.743   5.322
  727TIP3    H2 2139   8.105   3.592   5.318
  728TIP3   OH2 2140   7.929   4.770   2.399
  728TIP3    H1 2141   7.916   4.710   2.472
  728TIP3    H2 2142   7.994   4.833   2.431
  729TIP3   OH2 2143   1.311   5.012   0.035
  729TIP3    H1 2144   1.314   4.924   0.073
  729TIP3    H2 2145   1.373   5.009  -0.038
  730TIP3   OH2 2146   8.279   4.839   3.574
  730TIP3    H1 2147   8.351   4.898   3.552
  730TIP3    H2 2148   8.202   4.879   3.535
  731TIP3   OH2 2149   0.171   1.851   3.388
  731TIP3    H1 2150   0.235   1.783   3.363
  731TIP3    H2 2151   0.154   1.834   3.481
  732TIP3   OH2 2152   0.489   3.047   5.623
  732TIP3    H1 2153   0.539   2.970   5.650
  732TIP3    H2 2154   0.458   3.027   5.535
  733TIP3   OH2 2155   7.511   1.011   3.946
  733TIP3    H1 2156   7.529   1.069   4.020
  733TIP3    H2 2157   7.537   0.925   3.977
  734TIP3   OH2 2158   3.622   7.405   1.902
  734TIP3    H1 2159   3.539   7.362   1.922
  734TIP3    H2 2160   3.597   7.494   1.879
  735TIP3   OH2 2161   2.968   6.507   2.215
  735TIP3    H1 2162   3.022   6.583   2.235
  735TIP3    H2 2163   2.978   6.494   2.121
  736TIP3   OH2 2164   7.855   4.996   5.548
  736TIP3    H1 2165   7.895   4.967   5.467
  736TIP3    H2 2166   7.771   5.034   5.521
  737TIP3   OH2 2167   5.897   6.993   4.105
  737TIP3    H1 2168   5.801   6.990   4.106
  737TIP3    H2 2169   5.923   6.944   4.183
  738TIP3   OH2 2170   0.343   5.288   3.369
  738TIP3    H1 2171   0.434   5.279   3.398
  738TIP3    H2 2172   0.343   5.257   3.278
  739TIP3   OH2 2173   5.020   4.756   2.432
  739TIP3    H1 2174   5.089   4.799   2.381
  739TIP3    H2 2175   4.944   4.753   2.374
  740TIP3   OH2 2176   6.079   7.034   1.823
  740TIP3    H1 2177   6.100   7.008   1.913
  740TIP3    H2 2178   6.159   7.015   1.773
  741TIP3   OH2 2179   3.923   2.714   2.461
  741TIP3    H1 2180   3.835   2.709   2.498
  741TIP3    H2 2181   3.962   2.791   2.501
  742TIP3   OH2 2182   7.630   1.242   0.494
  742TIP3    H1 2183   7.557   1.286   0.538
  742TIP3    H2 2184   7.699   1.239   0.560
  743TIP3   OH2 2185   7.836   3.870   1.682
  743TIP3    H1 2186   7.913   3.882   1.737
  743TIP3    H2 2187   7.820   3.775   1.685
  744TIP3   OH2 2188   3.020   2.848   0.649
  744TIP3    H1 2189   2.943   2.815   0.604
  744TIP3    H2 2190   3.077   2.772   0.659
  745TIP3   OH2 2191   2.897   3.345   3.929
  745TIP3    H1 2192   2.929   3.361   4.018
  745TIP3    H2 2193   2.873   3.253   3.928
  746TIP3   OH2 2194   0.510   5.000   2.001
  746TIP3    H1 2195   0.483   4.922   2.051
  746TIP3    H2 2196   0.593   5.025   2.040
  747TIP3   OH2 2197   4.574   4.587   4.002
  747TIP3    H1 2198   4.590   4.658   3.940
  747TIP3    H2 2199   4.512   4.624   4.066
  748TIP3   OH2 2200   8.200   1.494   5.477
  748TIP3    H1 2201   8.284   1.520   5.514
  748TIP3    H2 2202   8.173   1.418   5.528
  749TIP3   OH2 2203   4.247   7.744   3.208
  749TIP3    H1 2204   4.319   7.681   3.211
  749TIP3    H2 2205   4.181   7.702   3.153
  750TIP3   OH2 2206   0.342   6.044   2.421
  750TIP3    H1 2207   0.356   6.089   2.504
  750TIP3    H2 2208   0.413   6.073   2.365
  751TIP3   OH2 2209   5.786   0.524   1.539
  751TIP3    H1 2210   5.799   0.452   1.477
  751TIP3    H2 2211   5.793   0.603   1.485
  752TIP3   OH2 2212   4.682   6.284   2.051
  752TIP3    H1 2213   4.729   6.361   2.084
  752TIP3    H2 2214   4.601   6.320   2.015
  753TIP3   OH2 2215   5.894   6.271   5.104
  753TIP3    H1 2216   5.819   6.295   5.158
  753TIP3    H2 2217   5.873   6.185   5.070
  754TIP3   OH2 2218   2.229   6.144   4.473
  754TIP3    H1 2219   2.248   6.050   4.465
  754TIP3    H2 2220   2.314   6.185   4.488
  755TIP3   OH2 2221   5.854   5.129   3.071
  755TIP3    H1 2222   5.786   5.196   3.066
  755TIP3    H2 2223   5.852   5.087   2.985
  756TIP3   OH2 2224   6.316   0.233   5.323
  756TIP3    H1 2225   6.284   0.145   5.302
  756TIP3    H2 2226   6.408   0.219   5.348
  757TIP3   OH2 2227   3.959   6.269   4.497
  757TIP3    H1 2228   3.902   6.279   4.573
  757TIP3    H2 2229   3.908   6.300   4.423
  758TIP3   OH2 2230   4.746   5.183   2.030
  758TIP3    H1 2231   4.765   5.124   2.103
  758TIP3    H2 2232   4.808   5.157   1.962
  759TIP3   OH2 2233   0.195   1.832   6.510
  759TIP3    H1 2234   0.215   1.906   6.452
  759TIP3    H2 2235   0.105   1.849   6.540
  760TIP3   OH2 2236   5.582   6.777   2.775
  760TIP3    H1 2237   5.672   6.764   2.804
  760TIP3    H2 2238   5.588   6.850   2.712
  761TIP3   OH2 2239   5.056   7.168   3.158
  761TIP3    H1 2240   4.983   7.124   3.200
  761TIP3    H2 2241   5.019   7.204   3.077
  762TIP3   OH2 2242   8.226   1.296   1.808
  762TIP3    H1 2243   8.198   1.384   1.780
  762TIP3    H2 2244   8.153   1.239   1.786
  763TIP3   OH2 2245   2.354   6.887   5.729
  763TIP3    H1 2246   2.280   6.888   5.669
  763TIP3    H2 2247   2.428   6.858   5.675
  764TIP3   OH2 2248   0.850   2.902   2.832
  764TIP3    H1 2249   0.940   2.870   2.836
  764TIP3    H2 2250   0.803   2.849   2.896
  765TIP3   OH2 2251   3.074   1.822   2.335
  765TIP3    H1 2252   2.999   1.770   2.305
  765TIP3    H2 2253   3.035   1.898   2.378
  766TIP3   OH2 2254   3.219   0.343   6.634
  766TIP3    H1 2255   3.205   0.430   6.672
  766TIP3    H2 2256   3.313   0.331   6.635
  767TIP3   OH2 2257   2.627   2.293   6.037
  767TIP3    H1 2258   2.715   2.265   6.012
  767TIP3    H2 2259   2.572   2.266   5.963
  768TIP3   OH2 2260   2.024   0.646   1.310
  768TIP3    H1 2261   1.966   0.693   1.369
  768TIP3    H2 2262   1.967   0.618   1.238
  769TIP3   OH2 2263   2.544   0.643   6.681
  769TIP3    H1 2264   2.631   0.625   6.647
  769TIP3    H2 2265   2.531   0.736   6.667
  770TIP3   OH2 2266   7.940   5.343   0.362
  770TIP3    H1 2267   7.883   5.275   0.400
  770TIP3    H2 2268   7.882   5.417   0.345
  771TIP3   OH2 2269   3.202   1.456   4.337
  771TIP3    H1 2270   3.183   1.543   4.301
  771TIP3    H2 2271   3.220   1.403   4.260
  772TIP3   OH2 2272   1.126   4.951   2.415
  772TIP3    H1 2273   1.135   4.994   2.330
  772TIP3    H2 2274   1.130   5.022   2.479
  773TIP3   OH2 2275   2.034   1.981   5.455
  773TIP3    H1 2276   2.067   1.914   5.516
  773TIP3    H2 2277   1.963   1.938   5.408
  774TIP3   OH2 2278   7.295   6.085   3.195
  774TIP3    H1 2279   7.272   6.127   3.278
  774TIP3    H2 2280   7.215   6.041   3.168
  775TIP3   OH2 2281   3.045   6.999   1.163
  775TIP3    H1 2282   3.128   6.954   1.146
  775TIP3    H2 2283   3.038   7.001   1.258
  776TIP3   OH2 2284   2.623   6.157   6.311
  776TIP3    H1 2285   2.695   6.094   6.303
  776TIP3    H2 2286   2.599   6.179   6.221
  777TIP3   OH2 2287   1.580  -0.014  -0.023
  777TIP3    H1 2288   1.624   0.069  -0.038
  777TIP3    H2 2289   1.542  -0.006   0.064
  778TIP3   OH2 2290   0.996   5.147   1.048
  778TIP3    H1 2291   0.979   5.059   1.014
  778TIP3    H2 2292   0.912   5.191   1.044
  779TIP3   OH2 2293   0.120   5.519   6.216
  779TIP3    H1 2294   0.123   5.475   6.301
  779TIP3    H2 2295   0.030   5.549   6.207
  780TIP3   OH2 2296   5.413   7.195   3.593
  780TIP3    H1 2297   5.481   7.260   3.578
  780TIP3    H2 2298   5.331   7.244   3.585
  781TIP3   OH2 2299   7.128   2.793   5.846
  781TIP3    H1 2300   7.134   2.828   5.935
  781TIP3    H2 2301   7.082   2.710   5.856
  782TIP3   OH2 2302   3.931   3.619   1.801
  782TIP3    H1 2303   3.962   3.694   1.751
  782TIP3    H2 2304   4.003   3.598   1.860
  783TIP3   OH2 2305   3.079   5.117   3.585
  783TIP3    H1 2306   3.013   5.055   3.617
  783TIP3    H2 2307   3.080   5.104   3.490
  784TIP3   OH2 2308   6.738   5.619   0.154
  784TIP3    H1 2309   6.830   5.621   0.182
  784TIP3    H2 2310   6.742   5.629   0.059
  785TIP3   OH2 2311   1.533   5.867   4.728
  785TIP3    H1 2312   1.583   5.936   4.683
  785TIP3    H2 2313   1.536   5.793   4.668
  786TIP3   OH2 2314   0.441   6.629   2.114
  786TIP3    H1 2315   0.456   6.663   2.202
  786TIP3    H2 2316   0.400   6.544   2.128
  787TIP3   OH2 2317   7.440   3.044   4.292
  787TIP3    H1 2318   7.352   3.015   4.269
  787TIP3    H2 2319   7.436   3.140   4.282
  788TIP3   OH2 2320   6.479   7.475   2.031
  788TIP3    H1 2321   6.386   7.482   2.006
  788TIP3    H2 2322   6.508   7.565   2.043
  789TIP3   OH2 2323   5.272   0.889   5.376
  789TIP3    H1 2324   5.299   0.903   5.285
  789TIP3    H2 2325   5.197   0.948   5.388
  790TIP3   OH2 2326   1.278   0.633   1.910
  790TIP3    H1 2327   1.314   0.722   1.917
  790TIP3    H2 2328   1.189   0.647   1.878
  791TIP3   OH2 2329   6.331   3.889   5.038
  791TIP3    H1 2330   6.247   3.918   5.003
  791TIP3    H2 2331   6.330   3.916   5.130
  792TIP3   OH2 2332   2.409   0.291   3.906
  792TIP3    H1 2333   2.375   0.238   3.834
  792TIP3    H2 2334   2.504   0.285   3.897
  793TIP3   OH2 2335   5.332   2.091   2.475
  793TIP3    H1 2336   5.282   2.051   2.546
  793TIP3    H2 2337   5.407   2.033   2.462
  794TIP3   OH2 2338   7.554   1.164   6.097
  794TIP3    H1 2339   7.474   1.216   6.096
  794TIP3    H2 2340   7.540   1.097   6.030
  795TIP3   OH2 2341   1.172   7.248   5.675
  795TIP3    H1 2342   1.165   7.217   5.585
  795TIP3    H2 2343   1.164   7.170   5.728
  796TIP3   OH2 2344   5.631   5.895   2.251
  796TIP3    H1 2345   5.554   5.886   2.308
  796TIP3    H2 2346   5.672   5.977   2.280
  797TIP3   OH2 2347   4.857   7.114   5.448
  797TIP3    H1 2348   4.941   7.148   5.416
  797TIP3    H2 2349   4.823   7.183   5.505
  798TIP3   OH2 2350   4.473   0.253   5.997
  798TIP3    H1 2351   4.412   0.188   6.032
  798TIP3    H2 2352   4.428   0.289   5.921
  799TIP3   OH2 2353   7.421   5.347   0.593
  799TIP3    H1 2354   7.416   5.403   0.516
  799TIP3    H2 2355   7.437   5.260   0.558
  800TIP3   OH2 2356   5.117   1.065   1.482
  800TIP3    H1 2357   5.045   1.029   1.430
  800TIP3    H2 2358   5.136   0.998   1.547
  801TIP3   OH2 2359   5.588   4.062   4.067
  801TIP3    H1 2360   5.629   4.063   4.154
  801TIP3    H2 2361   5.651   4.016   4.011
  802TIP3   OH2 2362   6.606   6.345   6.591
  802TIP3    H1 2363   6.550   6.337   6.513
  802TIP3    H2 2364   6.670   6.411   6.567
  803TIP3   OH2 2365   4.987   6.559   1.972
  803TIP3    H1 2366   4.988   6.511   1.889
  803TIP3    H2 2367   4.954   6.646   1.948
  804TIP3   OH2 2368   3.410   4.779   0.972
  804TIP3    H1 2369   3.368   4.847   1.024
  804TIP3    H2 2370   3.343   4.750   0.910
  805TIP3   OH2 2371   3.883   6.953   2.809
  805TIP3    H1 2372   3.883   6.902   2.728
  805TIP3    H2 2373   3.865   6.888   2.877
  806TIP3   OH2 2374   3.057   3.593   0.049
  806TIP3    H1 2375   3.134   3.579  -0.006
  806TIP3    H2 2376   3.014   3.507   0.052
  807TIP3   OH2 2377   1.690   3.127   6.050
  807TIP3    H1 2378   1.704   3.124   6.145
  807TIP3    H2 2379   1.776   3.146   6.014
  808TIP3   OH2 2380   6.713   3.226   5.100
  808TIP3    H1 2381   6.743   3.198   5.013
  808TIP3    H2 2382   6.774   3.294   5.125
  809TIP3   OH2 2383   0.544   7.016   5.835
  809TIP3    H1 2384   0.602   7.080   5.792
  809TIP3    H2 2385   0.496   6.976   5.762
  810TIP3   OH2 2386   7.656   6.865   1.178
  810TIP3    H1 2387   7.663   6.949   1.132
  810TIP3    H2 2388   7.683   6.800   1.114
  811TIP3   OH2 2389   2.765   7.582   1.991
  811TIP3    H1 2390   2.728   7.575   2.079
  811TIP3    H2 2391   2.857   7.558   2.001
  812TIP3   OH2 2392   1.335   0.743   2.849
  812TIP3    H1 2393   1.267   0.679   2.831
  812TIP3    H2 2394   1.351   0.735   2.943
  813TIP3   OH2 2395   2.786   4.361   6.666
  813TIP3    H1 2396   2.776   4.453   6.642
  813TIP3    H2 2397   2.708   4.318   6.630
  814TIP3   OH2 2398   6.789   3.150   0.167
  814TIP3    H1 2399   6.743   3.090   0.226
  814TIP3    H2 2400   6.776   3.112   0.080
  815TIP3   OH2 2401   0.710   6.978   1.742
  815TIP3    H1 2402   0.663   7.030   1.808
  815TIP3    H2 2403   0.796   6.963   1.781
  816TIP3   OH2 2404   7.439   0.243   5.547
  816TIP3    H1 2405   7.530   0.274   5.549
  816TIP3    H2 2406   7.418   0.235   5.454
  817TIP3   OH2 2407   3.906   5.700   6.591
  817TIP3    H1 2408   3.981   5.755   6.569
  817TIP3    H2 2409   3.830   5.754   6.570
  818TIP3   OH2 2410   6.657   4.320   2.297
  818TIP3    H1 2411   6.650   4.389   2.231
  818TIP3    H2 2412   6.750   4.298   2.300
  819TIP3   OH2 2413   4.287   4.493   5.269
  819TIP3    H1 2414   4.378   4.516   5.288
  819TIP3    H2 2415   4.240   4.509   5.351
  820TIP3   OH2 2416   4.761   6.433   0.539
  820TIP3    H1 2417   4.687   6.487   0.514
  820TIP3    H2 2418   4.762   6.435   0.634
  821TIP3   OH2 2419   4.824   4.453   3.457
  821TIP3    H1 2420   4.794   4.364   3.438
  821TIP3    H2 2421   4.754   4.509   3.425
  822TIP3   OH2 2422   0.775   2.402   5.921
  822TIP3    H1 2423   0.796   2.392   6.014
  822TIP3    H2 2424   0.789   2.314   5.884
  823TIP3   OH2 2425   1.223   2.089   1.916
  823TIP3    H1 2426   1.186   2.092   2.004
  823TIP3    H2 2427   1.281   2.165   1.912
  824TIP3   OH2 2428   4.857   5.517   6.554
  824TIP3    H1 2429   4.843   5.477   6.469
  824TIP3    H2 2430   4.870   5.610   6.536
  825TIP3   OH2 2431   1.766   5.057   2.560
  825TIP3    H1 2432   1.763   5.013   2.645
  825TIP3    H2 2433   1.775   4.986   2.496
  826TIP3   OH2 2434   1.766   6.183   4.146
  826TIP3    H1 2435   1.730   6.094   4.149
  826TIP3    H2 2436   1.837   6.182   4.210
  827TIP3   OH2 2437   7.828   7.069   1.675
  827TIP3    H1 2438   7.838   6.995   1.614
  827TIP3    H2 2439   7.741   7.056   1.713
  828TIP3   OH2 2440   3.467   5.291   5.915
  828TIP3    H1 2441   3.526   5.238   5.861
  828TIP3    H2 2442   3.428   5.353   5.853
  829TIP3   OH2 2443   5.202   5.680   1.720
  829TIP3    H1 2444   5.247   5.765   1.714
  829TIP3    H2 2445   5.155   5.684   1.803
  830TIP3   OH2 2446   7.598   1.224   6.383
  830TIP3    H1 2447   7.543   1.302   6.394
  830TIP3    H2 2448   7.604   1.212   6.288
  831TIP3   OH2 2449   6.214   6.949   2.595
  831TIP3    H1 2450   6.168   6.931   2.513
  831TIP3    H2 2451   6.290   6.892   2.594
  832TIP3   OH2 2452   0.566   2.009   2.632
  832TIP3    H1 2453   0.506   1.985   2.562
  832TIP3    H2 2454   0.595   2.097   2.610
  833TIP3   OH2 2455   2.634   5.606   3.496
  833TIP3    H1 2456   2.722   5.593   3.460
  833TIP3    H2 2457   2.583   5.533   3.459
  834TIP3   OH2 2458   4.461   6.311   5.728
  834TIP3    H1 2459   4.545   6.317   5.773
  834TIP3    H2 2460   4.432   6.221   5.745
  835TIP3   OH2 2461   2.745   4.830   1.091
  835TIP3    H1 2462   2.674   4.787   1.043
  835TIP3    H2 2463   2.784   4.890   1.027
  836TIP3   OH2 2464   5.485   6.726   2.103
  836TIP3    H1 2465   5.407   6.703   2.054
  836TIP3    H2 2466   5.546   6.653   2.087
  837TIP3   OH2 2467   4.043   2.708   0.203
  837TIP3    H1 2468   3.975   2.682   0.265
  837TIP3    H2 2469   4.017   2.796   0.175
  838TIP3   OH2 2470   1.818   0.315   3.706
  838TIP3    H1 2471   1.892   0.372   3.686
  838TIP3    H2 2472   1.800   0.269   3.625
  839TIP3   OH2 2473   2.329   7.818   6.265
  839TIP3    H1 2474   2.264   7.759   6.227
  839TIP3    H2 2475   2.344   7.783   6.353
  840TIP3   OH2 2476   4.992   1.849   4.477
  840TIP3    H1 2477   5.081   1.818   4.495
  840TIP3    H2 2478   4.980   1.922   4.538
  841TIP3   OH2 2479   7.538   5.384   2.660
  841TIP3    H1 2480   7.596   5.311   2.681
  841TIP3    H2 2481   7.542   5.441   2.737
  842TIP3   OH2 2482   4.333   3.902   2.248
  842TIP3    H1 2483   4.284   3.895   2.329
  842TIP3    H2 2484   4.292   3.974   2.200
  843TIP3   OH2 2485   4.826   4.524   5.054
  843TIP3    H1 2486   4.870   4.587   4.998
  843TIP3    H2 2487   4.762   4.481   4.997
  844TIP3   OH2 2488   5.683   7.238   3.953
  844TIP3    H1 2489   5.698   7.178   3.881
  844TIP3    H2 2490   5.649   7.183   4.024
  845TIP3   OH2 2491   0.175   1.470   0.532
  845TIP3    H1 2492   0.091   1.473   0.578
  845TIP3    H2 2493   0.238   1.444   0.599
  846TIP3   OH2 2494   0.365   2.083   5.393
  846TIP3    H1 2495   0.279   2.045   5.374
  846TIP3    H2 2496   0.420   2.057   5.319
  847TIP3   OH2 2497   1.005   6.764   4.260
  847TIP3    H1 2498   0.944   6.813   4.205
  847TIP3    H2 2499   0.949   6.710   4.316
  848TIP3   OH2 2500   4.192   0.455   6.053
  848TIP3    H1 2501   4.258   0.428   5.989
  848TIP3    H2 2502   4.225   0.538   6.088
  849TIP3   OH2 2503   5.212   6.807   3.890
  849TIP3    H1 2504   5.192   6.795   3.797
  849TIP3    H2 2505   5.128   6.831   3.930
  850TIP3   OH2 2506   1.000   2.184   0.951
  850TIP3    H1 2507   1.066   2.157   1.014
  850TIP3    H2 2508   0.917   2.174   0.997
  851TIP3   OH2 2509   5.092   3.046   4.805
  851TIP3    H1 2510   5.131   2.959   4.812
  851TIP3    H2 2511   5.151   3.103   4.853
  852TIP3   OH2 2512   1.920   4.624   6.429
  852TIP3    H1 2513   1.928   4.682   6.505
  852TIP3    H2 2514   1.975   4.549   6.450
  853TIP3   OH2 2515   6.098   5.834   2.943
  853TIP3    H1 2516   6.116   5.764   3.006
  853TIP3    H2 2517   6.127   5.797   2.859
  854TIP3   OH2 2518   3.921   0.373   4.178
  854TIP3    H1 2519   3.893   0.318   4.252
  854TIP3    H2 2520   3.942   0.311   4.109
  855TIP3   OH2 2521   0.762   3.588   3.269
  855TIP3    H1 2522   0.674   3.567   3.239
  855TIP3    H2 2523   0.766   3.684   3.267
  856TIP3   OH2 2524   3.200   6.227   2.209
  856TIP3    H1 2525   3.258   6.295   2.243
  856TIP3    H2 2526   3.203   6.237   2.114
  857TIP3   OH2 2527   6.745   0.739   6.678
  857TIP3    H1 2528   6.662   0.754   6.633
  857TIP3    H2 2529   6.803   0.807   6.645
  858TIP3   OH2 2530   6.362   0.802   3.282
  858TIP3    H1 2531   6.415   0.857   3.223
  858TIP3    H2 2532   6.307   0.751   3.223
  859TIP3   OH2 2533   5.619   6.045   5.512
  859TIP3    H1 2534   5.629   6.051   5.417
  859TIP3    H2 2535   5.620   6.136   5.542
  860TIP3   OH2 2536   2.928   3.065   1.281
  860TIP3    H1 2537   2.979   3.076   1.361
  860TIP3    H2 2538   2.988   3.023   1.220
  861TIP3   OH2 2539   1.803   5.007   6.097
  861TIP3    H1 2540   1.883   4.979   6.143
  861TIP3    H2 2541   1.734   4.952   6.134
  862TIP3   OH2 2542   1.562   0.965   4.759
  862TIP3    H1 2543   1.546   0.871   4.748
  862TIP3    H2 2544   1.590   0.995   4.672
  863TIP3   OH2 2545   8.131   2.044   4.609
  863TIP3    H1 2546   8.063   1.978   4.616
  863TIP3    H2 2547   8.163   2.036   4.519
  864TIP3   OH2 2548   6.473   2.120   5.773
  864TIP3    H1 2549   6.478   2.212   5.800
  864TIP3    H2 2550   6.537   2.111   5.703
  865TIP3   OH2 2551   6.464   0.055   3.388
  865TIP3    H1 2552   6.539   0.110   3.368
  865TIP3    H2 2553   6.443   0.012   3.305
  866TIP3   OH2 2554   2.429   4.817   2.959
  866TIP3    H1 2555   2.457   4.859   2.877
  866TIP3    H2 2556   2.464   4.728   2.953
  867TIP3   OH2 2557   4.790   6.454   3.299
  867TIP3    H1 2558   4.875   6.473   3.261
  867TIP3    H2 2559   4.727   6.496   3.241
  868TIP3   OH2 2560   5.005   2.065   3.410
  868TIP3    H1 2561   5.015   2.139   3.470
  868TIP3    H2 2562   4.936   2.093   3.350
  869TIP3   OH2 2563   3.459   5.900   2.685
  869TIP3    H1 2564   3.382   5.949   2.717
  869TIP3    H2 2565   3.525   5.968   2.668
  870TIP3   OH2 2566   4.640   1.121   0.334
  870TIP3    H1 2567   4.692   1.202   0.337
  870TIP3    H2 2568   4.620   1.103   0.426
  871TIP3   OH2 2569   5.844   3.265   4.781
  871TIP3    H1 2570   5.873   3.351   4.750
  871TIP3    H2 2571   5.754   3.280   4.811
  872TIP3   OH2 2572   3.899   1.040   6.025
  872TIP3    H1 2573   3.845   1.004   6.095
  872TIP3    H2 2574   3.942   0.964   5.986
  873TIP3   OH2 2575   0.821   5.750   5.602
  873TIP3    H1 2576   0.871   5.803   5.663
  873TIP3    H2 2577   0.865   5.762   5.518
  874TIP3   OH2 2578   3.193   4.500   5.726
  874TIP3    H1 2579   3.163   4.586   5.699
  874TIP3    H2 2580   3.284   4.514   5.754
  875TIP3   OH2 2581   3.347   3.233   3.869
  875TIP3    H1 2582   3.369   3.211   3.779
  875TIP3    H2 2583   3.431   3.245   3.913
  876TIP3   OH2 2584   3.914   2.042   1.506
  876TIP3    H1 2585   3.938   2.109   1.442
  876TIP3    H2 2586   3.840   2.080   1.554
  877TIP3   OH2 2587   5.278   0.199   0.158
  877TIP3    H1 2588   5.189   0.213   0.124
  877TIP3    H2 2589   5.335   0.205   0.082
  878TIP3   OH2 2590   4.353   7.727   2.932
  878TIP3    H1 2591   4.352   7.633   2.950
  878TIP3    H2 2592   4.441   7.745   2.901
  879TIP3   OH2 2593   5.958   6.531   5.176
  879TIP3    H1 2594   5.908   6.572   5.106
  879TIP3    H2 2595   5.939   6.437   5.167
  880TIP3   OH2 2596   5.568   4.723   3.832
  880TIP3    H1 2597   5.482   4.699   3.867
  880TIP3    H2 2598   5.591   4.650   3.774
  881TIP3   OH2 2599   4.844   3.066   2.229
  881TIP3    H1 2600   4.833   3.148   2.181
  881TIP3    H2 2601   4.765   3.015   2.208
  882TIP3   OH2 2602   2.407   0.027   5.922
  882TIP3    H1 2603   2.432   0.056   6.010
  882TIP3    H2 2604   2.460  -0.051   5.906
  883TIP3   OH2 2605   5.534   1.325   5.829
  883TIP3    H1 2606   5.445   1.330   5.864
  883TIP3    H2 2607   5.523   1.327   5.734
  884TIP3   OH2 2608   6.228   2.994   0.256
  884TIP3    H1 2609   6.255   2.908   0.288
  884TIP3    H2 2610   6.299   3.021   0.197
  885TIP3   OH2 2611   6.160   4.534   4.018
  885TIP3    H1 2612   6.080   4.586   4.020
  885TIP3    H2 2613   6.204   4.561   3.938
  886TIP3   OH2 2614   6.334   6.555   4.221
  886TIP3    H1 2615   6.315   6.634   4.169
  886TIP3    H2 2616   6.404   6.511   4.172
  887TIP3   OH2 2617   0.974   0.389   3.113
  887TIP3    H1 2618   1.000   0.478   3.137
  887TIP3    H2 2619   0.891   0.375   3.158
  888TIP3   OH2 2620   0.559   4.404   2.959
  888TIP3    H1 2621   0.526   4.487   2.996
  888TIP3    H2 2622   0.481   4.362   2.922
  889TIP3   OH2 2623   7.140   3.647   3.605
  889TIP3    H1 2624   7.087   3.682   3.676
  889TIP3    H2 2625   7.160   3.557   3.630
  890TIP3   OH2 2626   5.942   5.069   4.564
  890TIP3    H1 2627   5.862   5.083   4.614
  890TIP3    H2 2628   5.972   5.157   4.541
  891TIP3   OH2 2629   2.470   4.485   3.195
  891TIP3    H1 2630   2.403   4.418   3.186
  891TIP3    H2 2631   2.491   4.511   3.105
  892TIP3   OH2 2632   3.612   7.321   1.288
  892TIP3    H1 2633   3.529   7.350   1.250
  892TIP3    H2 2634   3.620   7.370   1.370
  893TIP3   OH2 2635   7.527   5.202   1.558
  893TIP3    H1 2636   7.482   5.225   1.476
  893TIP3    H2 2637   7.510   5.277   1.615
  894TIP3   OH2 2638   7.402   5.788   4.648
  894TIP3    H1 2639   7.399   5.883   4.648
  894TIP3    H2 2640   7.336   5.761   4.584
  895TIP3   OH2 2641   5.223   3.015   5.281
  895TIP3    H1 2642   5.304   2.967   5.266
  895TIP3    H2 2643   5.195   2.990   5.369
  896TIP3   OH2 2644   4.366   0.073   5.658
  896TIP3    H1 2645   4.275   0.052   5.681
  896TIP3    H2 2646   4.413  -0.009   5.671
  897TIP3   OH2 2647   5.170   1.401   4.062
  897TIP3    H1 2648   5.245   1.439   4.108
  897TIP3    H2 2649   5.142   1.329   4.119
  898TIP3   OH2 2650   5.090   7.052   2.544
  898TIP3    H1 2651   5.023   7.045   2.612
  898TIP3    H2 2652   5.109   6.961   2.520
  899TIP3   OH2 2653   3.564   4.208   6.410
  899TIP3    H1 2654   3.476   4.182   6.385
  899TIP3    H2 2655   3.616   4.128   6.403
  900TIP3   OH2 2656   0.587   2.860   3.452
  900TIP3    H1 2657   0.545   2.875   3.536
  900TIP3    H2 2658   0.516   2.860   3.389
  901TIP3   OH2 2659   7.047   7.708   0.885
  901TIP3    H1 2660   7.115   7.712   0.818
  901TIP3    H2 2661   6.973   7.757   0.849
  902TIP3   OH2 2662   2.411   4.020   5.739
  902TIP3    H1 2663   2.443   4.103   5.704
  902TIP3    H2 2664   2.317   4.033   5.752
  903TIP3   OH2 2665   5.393   3.837   1.227
  903TIP3    H1 2666   5.379   3.878   1.141
  903TIP3    H2 2667   5.427   3.750   1.207
  904TIP3   OH2 2668   1.233   2.080   4.642
  904TIP3    H1 2669   1.292   2.078   4.567
  904TIP3    H2 2670   1.290   2.101   4.717
  905TIP3   OH2 2671   2.648   2.470   6.414
  905TIP3    H1 2672   2.623   2.520   6.492
  905TIP3    H2 2673   2.595   2.390   6.419
  906TIP3   OH2 2674   2.256   7.393   5.285
  906TIP3    H1 2675   2.233   7.302   5.304
  906TIP3    H2 2676   2.313   7.419   5.357
  907TIP3   OH2 2677   6.867   5.352   3.901
  907TIP3    H1 2678   6.773   5.371   3.895
  907TIP3    H2 2679   6.905   5.392   3.823
  908TIP3   OH2 2680   7.900   0.048   6.631
  908TIP3    H1 2681   7.951   0.128   6.616
  908TIP3    H2 2682   7.841   0.070   6.702
  909TIP3   OH2 2683   6.824   5.420   5.405
  909TIP3    H1 2684   6.755   5.480   5.377
  909TIP3    H2 2685   6.822   5.425   5.501
  910TIP3   OH2 2686   3.513   5.947   4.827
  910TIP3    H1 2687   3.435   6.002   4.832
  910TIP3    H2 2688   3.574   5.987   4.889
  911TIP3   OH2 2689   1.819   5.112   5.327
  911TIP3    H1 2690   1.859   5.025   5.331
  911TIP3    H2 2691   1.852   5.158   5.404
  912TIP3   OH2 2692   0.052   1.802   3.647
  912TIP3    H1 2693  -0.012   1.731   3.638
  912TIP3    H2 2694   0.106   1.776   3.721
  913TIP3   OH2 2695   3.726   7.149   5.532
  913TIP3    H1 2696   3.706   7.221   5.473
  913TIP3    H2 2697   3.641   7.122   5.567
  914TIP3   OH2 2698   3.761   6.773   0.770
  914TIP3    H1 2699   3.703   6.758   0.695
  914TIP3    H2 2700   3.847   6.745   0.738
  915TIP3   OH2 2701   6.402   5.789   6.581
  915TIP3    H1 2702   6.459   5.712   6.583
  915TIP3    H2 2703   6.441   5.848   6.646
  916TIP3   OH2 2704   3.569   4.089   3.444
  916TIP3    H1 2705   3.561   3.998   3.418
  916TIP3    H2 2706   3.651   4.119   3.402
  917TIP3   OH2 2707   6.505   2.266   0.671
  917TIP3    H1 2708   6.471   2.350   0.639
  917TIP3    H2 2709   6.592   2.259   0.633
  918TIP3   OH2 2710   4.541   7.482   3.975
  918TIP3    H1 2711   4.522   7.576   3.982
  918TIP3    H2 2712   4.599   7.464   4.049
  919TIP3   OH2 2713   6.640   7.147   5.544
  919TIP3    H1 2714   6.655   7.061   5.582
  919TIP3    H2 2715   6.722   7.169   5.501
  920TIP3   OH2 2716   4.936   2.592   5.430
  920TIP3    H1 2717   4.902   2.541   5.357
  920TIP3    H2 2718   4.970   2.527   5.492
  921TIP3   OH2 2719   5.560   6.177   0.405
  921TIP3    H1 2720   5.590   6.145   0.319
  921TIP3    H2 2721   5.641   6.200   0.451
  922TIP3   OH2 2722   0.971   4.771   3.389
  922TIP3    H1 2723   0.953   4.827   3.464
  922TIP3    H2 2724   0.962   4.828   3.313
  923TIP3   OH2 2725   5.422   3.758   3.426
  923TIP3    H1 2726   5.464   3.835   3.465
  923TIP3    H2 2727   5.482   3.686   3.445
  924TIP3   OH2 2728   0.354   3.798   2.646
  924TIP3    H1 2729   0.274   3.785   2.696
  924TIP3    H2 2730   0.423   3.760   2.700
  925TIP3   OH2 2731   5.033   6.005   0.597
  925TIP3    H1 2732   5.090   5.966   0.532
  925TIP3    H2 2733   4.987   6.075   0.550
  926TIP3   OH2 2734   7.962   1.550   4.045
  926TIP3    H1 2735   7.892   1.500   4.086
  926TIP3    H2 2736   7.970   1.512   3.957
  927TIP3   OH2 2737   0.294   0.140   4.716
  927TIP3    H1 2738   0.353   0.194   4.768
  927TIP3    H2 2739   0.297   0.054   4.758
  928TIP3   OH2 2740   7.679   5.754   0.481
  928TIP3    H1 2741   7.619   5.828   0.486
  928TIP3    H2 2742   7.714   5.745   0.570
  929TIP3   OH2 2743   3.607   5.862   3.734
  929TIP3    H1 2744   3.527   5.815   3.760
  929TIP3    H2 2745   3.620   5.837   3.642
  930TIP3   OH2 2746   5.801   1.926   2.048
  930TIP3    H1 2747   5.862   1.998   2.032
  930TIP3    H2 2748   5.717   1.970   2.064
  931TIP3   OH2 2749   6.739   6.627   4.233
  931TIP3    H1 2750   6.747   6.551   4.290
  931TIP3    H2 2751   6.793   6.606   4.157
  932TIP3   OH2 2752   3.177   2.391   4.351
  932TIP3    H1 2753   3.175   2.420   4.259
  932TIP3    H2 2754   3.098   2.428   4.389
  933TIP3   OH2 2755   2.172   1.279   6.207
  933TIP3    H1 2756   2.088   1.232   6.217
  933TIP3    H2 2757   2.191   1.275   6.114
  934TIP3   OH2 2758   1.077   2.507   0.371
  934TIP3    H1 2759   1.042   2.443   0.432
  934TIP3    H2 2760   1.041   2.482   0.286
  935TIP3   OH2 2761   3.893   2.217   0.772
  935TIP3    H1 2762   3.850   2.301   0.759
  935TIP3    H2 2763   3.826   2.151   0.752
  936TIP3   OH2 2764   2.324   0.470   4.536
  936TIP3    H1 2765   2.269   0.533   4.584
  936TIP3    H2 2766   2.280   0.386   4.550
  937TIP3   OH2 2767   0.064   7.236   5.431
  937TIP3    H1 2768   0.089   7.169   5.494
  937TIP3    H2 2769   0.144   7.253   5.381
  938TIP3   OH2 2770   4.261   6.290   4.716
  938TIP3    H1 2771   4.327   6.269   4.782
  938TIP3    H2 2772   4.182   6.246   4.747
  939TIP3   OH2 2773   6.414   5.649   3.900
  939TIP3    H1 2774   6.361   5.706   3.955
  939TIP3    H2 2775   6.497   5.695   3.890
  940TIP3   OH2 2776   4.680   2.904   2.858
  940TIP3    H1 2777   4.684   2.809   2.869
  940TIP3    H2 2778   4.771   2.930   2.843
  941TIP3   OH2 2779   5.841   6.984   0.072
  941TIP3    H1 2780   5.916   6.941   0.113
  941TIP3    H2 2781   5.866   6.993  -0.020
  942TIP3   OH2 2782   3.525   5.364   1.925
  942TIP3    H1 2783   3.543   5.458   1.921
  942TIP3    H2 2784   3.437   5.355   1.889
  943TIP3   OH2 2785   2.089   2.977   6.052
  943TIP3    H1 2786   2.090   3.059   6.102
  943TIP3    H2 2787   2.004   2.938   6.072
  944TIP3   OH2 2788   0.536   0.245   1.227
  944TIP3    H1 2789   0.503   0.174   1.282
  944TIP3    H2 2790   0.533   0.211   1.138
  945TIP3   OH2 2791   7.004   4.425   4.232
  945TIP3    H1 2792   6.973   4.335   4.220
  945TIP3    H2 2793   7.022   4.432   4.325
  946TIP3   OH2 2794   7.349   0.051   4.962
  946TIP3    H1 2795   7.302  -0.021   5.002
  946TIP3    H2 2796   7.441   0.034   4.980
  947TIP3   OH2 2797   1.860   4.547   1.327
  947TIP3    H1 2798   1.840   4.601   1.404
  947TIP3    H2 2799   1.818   4.463   1.346
  948TIP3   OH2 2800   7.811   0.120   5.757
  948TIP3    H1 2801   7.756   0.185   5.713
  948TIP3    H2 2802   7.863   0.170   5.819
  949TIP3   OH2 2803   3.723   7.501   2.424
  949TIP3    H1 2804   3.666   7.478   2.497
  949TIP3    H2 2805   3.704   7.436   2.357
  950TIP3   OH2 2806   6.966   4.460   5.187
  950TIP3    H1 2807   6.986   4.547   5.153
  950TIP3    H2 2808   6.987   4.400   5.116
  951TIP3   OH2 2809   0.063   7.637   0.519
  951TIP3    H1 2810  -0.025   7.600   0.522
  951TIP3    H2 2811   0.121   7.563   0.537
  952TIP3   OH2 2812   1.799   0.100   6.423
  952TIP3    H1 2813   1.829   0.167   6.361
  952TIP3    H2 2814   1.706   0.090   6.404
  953TIP3   OH2 2815   3.861   5.888   5.738
  953TIP3    H1 2816   3.806   5.936   5.675
  953TIP3    H2 2817   3.805   5.878   5.815
  954TIP3   OH2 2818   0.538   3.489   6.158
  954TIP3    H1 2819   0.533   3.459   6.067
  954TIP3    H2 2820   0.548   3.408   6.209
  955TIP3   OH2 2821   5.682   1.715   3.924
  955TIP3    H1 2822   5.721   1.779   3.983
  955TIP3    H2 2823   5.749   1.647   3.915
  956TIP3   OH2 2824   6.722   4.706   5.908
  956TIP3    H1 2825   6.704   4.758   5.830
  956TIP3    H2 2826   6.786   4.757   5.957
  957TIP3   OH2 2827   6.901   5.391   3.628
  957TIP3    H1 2828   6.941   5.469   3.591
  957TIP3    H2 2829   6.807   5.406   3.620
  958TIP3   OH2 2830   5.630   6.282   5.633
  958TIP3    H1 2831   5.579   6.352   5.674
  958TIP3    H2 2832   5.721   6.303   5.653
  959TIP3   OH2 2833   3.182   2.743   4.474
  959TIP3    H1 2834   3.254   2.717   4.417
  959TIP3    H2 2835   3.166   2.835   4.453
  960TIP3   OH2 2836   3.030   3.597   0.356
  960TIP3    H1 2837   3.073   3.565   0.277
  960TIP3    H2 2838   2.969   3.527   0.380
  961TIP3   OH2 2839   1.033   7.741   5.681
  961TIP3    H1 2840   1.059   7.772   5.768
  961TIP3    H2 2841   1.024   7.647   5.691
  962TIP3   OH2 2842   3.102   4.834   0.434
  962TIP3    H1 2843   3.100   4.854   0.528
  962TIP3    H2 2844   3.023   4.875   0.399
  963TIP3   OH2 2845   4.149   6.967   3.981
  963TIP3    H1 2846   4.069   6.957   4.033
  963TIP3    H2 2847   4.216   6.922   4.031
  964TIP3   OH2 2848   7.219   4.717   1.018
  964TIP3    H1 2849   7.213   4.812   1.021
  964TIP3    H2 2850   7.229   4.696   0.925
  965TIP3   OH2 2851   6.548   3.931   4.667
  965TIP3    H1 2852   6.507   3.984   4.735
  965TIP3    H2 2853   6.618   3.987   4.633
  966TIP3   OH2 2854   6.577   2.650   3.587
  966TIP3    H1 2855   6.665   2.659   3.625
  966TIP3    H2 2856   6.529   2.598   3.652
  967TIP3   OH2 2857   6.933   3.398   4.259
  967TIP3    H1 2858   7.008   3.382   4.203
  967TIP3    H2 2859   6.969   3.403   4.348
  968TIP3   OH2 2860   7.473   1.853   6.221
  968TIP3    H1 2861   7.535   1.857   6.148
  968TIP3    H2 2862   7.409   1.786   6.195
  969TIP3   OH2 2863   4.813   5.783   6.108
  969TIP3    H1 2864   4.875   5.737   6.165
  969TIP3    H2 2865   4.861   5.795   6.026
  970TIP3   OH2 2866   4.617   5.350   6.690
  970TIP3    H1 2867   4.654   5.420   6.636
  970TIP3    H2 2868   4.683   5.333   6.757
  971TIP3   OH2 2869   7.964   7.548   3.735
  971TIP3    H1 2870   7.926   7.506   3.812
  971TIP3    H2 2871   7.894   7.546   3.670
  972TIP3   OH2 2872   2.408   7.387   0.281
  972TIP3    H1 2873   2.498   7.412   0.260
  972TIP3    H2 2874   2.414   7.343   0.366
  973TIP3   OH2 2875   0.700   2.462   2.944
  973TIP3    H1 2876   0.684   2.369   2.960
  973TIP3    H2 2877   0.774   2.464   2.883
  974TIP3   OH2 2878   6.978   6.345   1.569
  974TIP3    H1 2879   6.966   6.386   1.484
  974TIP3    H2 2880   6.895   6.300   1.586
  975TIP3   OH2 2881   0.082   3.975   5.849
  975TIP3    H1 2882   0.118   4.062   5.831
  975TIP3    H2 2883   0.110   3.956   5.938
  976TIP3   OH2 2884   2.851   2.703   1.840
  976TIP3    H1 2885   2.888   2.690   1.753
  976TIP3    H2 2886   2.908   2.653   1.898
  977TIP3   OH2 2887   4.125   4.414   3.090
  977TIP3    H1 2888   4.144   4.427   3.183
  977TIP3    H2 2889   4.173   4.335   3.066
  978TIP3   OH2 2890   5.841   1.200   4.803
  978TIP3    H1 2891   5.854   1.147   4.881
  978TIP3    H2 2892   5.811   1.138   4.737
  979TIP3   OH2 2893   7.258   7.276   3.034
  979TIP3    H1 2894   7.258   7.352   3.092
  979TIP3    H2 2895   7.194   7.216   3.073
  980TIP3   OH2 2896   4.370   6.904   1.404
  980TIP3    H1 2897   4.291   6.896   1.350
  980TIP3    H2 2898   4.411   6.985   1.375
  981TIP3   OH2 2899   4.397   0.743   4.345
  981TIP3    H1 2900   4.451   0.757   4.423
  981TIP3    H2 2901   4.422   0.656   4.314
  982TIP3   OH2 2902   1.308   6.277   1.253
  982TIP3    H1 2903   1.346   6.348   1.305
  982TIP3    H2 2904   1.254   6.228   1.315
  983TIP3   OH2 2905   6.552   6.363   5.282
  983TIP3    H1 2906   6.574   6.399   5.196
  983TIP3    H2 2907   6.462   6.331   5.273
  984TIP3   OH2 2908   3.470   4.261   4.698
  984TIP3    H1 2909   3.389   4.257   4.750
  984TIP3    H2 2910   3.498   4.170   4.691
  985TIP3   OH2 2911   3.771   1.881   5.299
  985TIP3    H1 2912   3.803   1.823   5.229
  985TIP3    H2 2913   3.775   1.968   5.260
  986TIP3   OH2 2914   5.542   6.960   2.227
  986TIP3    H1 2915   5.525   6.866   2.223
  986TIP3    H2 2916   5.624   6.968   2.276
  987TIP3   OH2 2917   6.083   2.720   6.367
  987TIP3    H1 2918   6.137   2.763   6.433
  987TIP3    H2 2919   6.117   2.630   6.363
  988TIP3   OH2 2920   8.269   2.476   1.733
  988TIP3    H1 2921   8.263   2.447   1.824
  988TIP3    H2 2922   8.302   2.399   1.686
  989TIP3   OH2 2923   1.473   5.882   3.144
  989TIP3    H1 2924   1.462   5.788   3.155
  989TIP3    H2 2925   1.553   5.891   3.093
  990TIP3   OH2 2926   7.390   5.441   3.729
  990TIP3    H1 2927   7.415   5.502   3.659
  990TIP3    H2 2928   7.308   5.402   3.699
  991TIP3   OH2 2929   3.436   3.609   5.787
  991TIP3    H1 2930   3.486   3.540   5.743
  991TIP3    H2 2931   3.366   3.630   5.724
  992TIP3   OH2 2932   0.160   4.431   5.406
  992TIP3    H1 2933   0.106   4.384   5.469
  992TIP3    H2 2934   0.128   4.402   5.321
  993TIP3   OH2 2935   2.050   0.787   5.219
  993TIP3    H1 2936   2.136   0.811   5.253
  993TIP3    H2 2937   2.024   0.862   5.166
  994TIP3   OH2 2938   3.815   4.841   5.311
  994TIP3    H1 2939   3.719   4.843   5.300
  994TIP3    H2 2940   3.849   4.859   5.223
  995TIP3   OH2 2941   4.239   5.766   1.418
  995TIP3    H1 2942   4.320   5.721   1.397
  995TIP3    H2 2943   4.238   5.842   1.360
  996TIP3   OH2 2944   2.880   4.706   5.567
  996TIP3    H1 2945   2.827   4.629   5.590
  996TIP3    H2 2946   2.818   4.779   5.570
  997TIP3   OH2 2947   2.915   0.703   3.234
  997TIP3    H1 2948   2.892   0.715   3.142
  997TIP3    H2 2949   2.980   0.770   3.253
  998TIP3   OH2 2950   7.064   4.506   2.455
  998TIP3    H1 2951   7.034   4.527   2.367
  998TIP3    H2 2952   6.986   4.511   2.510
  999TIP3   OH2 2953   6.937   1.484   0.213
  999TIP3    H1 2954   7.000   1.430   0.260
  999TIP3    H2 2955   6.895   1.424   0.152
 1000TIP3   OH2 2956   2.502   4.918   0.769
 1000TIP3    H1 2957   2.498   4.947   0.860
 1000TIP3    H2 2958   2.442   4.844   0.764
 1001TIP3   OH2 2959   7.277   6.597   1.656
 1001TIP3    H1 2960   7.364   6.636   1.641
 1001TIP3    H2 2961   7.234   6.605   1.571
 1002TIP3   OH2 2962   6.241   4.778   2.660
 1002TIP3    H1 2963   6.178   4.706   2.667
 1002TIP3    H2 2964   6.211   4.843   2.723
 1003TIP3   OH2 2965   1.439   1.038   6.487
 1003TIP3    H1 2966   1.436   1.037   6.392
 1003TIP3    H2 2967   1.352   1.011   6.514
 1004TIP3   OH2 2968   3.331   7.410   1.302
 1004TIP3    H1 2969   3.268   7.437   1.234
 1004TIP3    H2 2970   3.333   7.484   1.363
 1005TIP3   OH2 2971   6.350   0.132   3.855
 1005TIP3    H1 2972   6.313   0.178   3.931
 1005TIP3    H2 2973   6.345   0.040   3.878
 1006TIP3   OH2 2974   5.205   5.191   5.899
 1006TIP3    H1 2975   5.214   5.279   5.863
 1006TIP3    H2 2976   5.295   5.160   5.907
 1007TIP3   OH2 2977   7.815   6.687   4.948
 1007TIP3    H1 2978   7.798   6.702   5.041
 1007TIP3    H2 2979   7.847   6.771   4.916
 1008TIP3   OH2 2980   3.331   3.519   3.692
 1008TIP3    H1 2981   3.273   3.560   3.628
 1008TIP3    H2 2982   3.290   3.538   3.776
 1009TIP3   OH2 2983   1.225   1.662   2.877
 1009TIP3    H1 2984   1.185   1.621   2.953
 1009TIP3    H2 2985   1.153   1.677   2.816
 1010TIP3   OH2 2986   1.140   3.155   2.261
 1010TIP3    H1 2987   1.220   3.102   2.261
 1010TIP3    H2 2988   1.135   3.191   2.173
 1011TIP3   OH2 2989   4.369   0.023   2.767
 1011TIP3    H1 2990   4.330   0.083   2.704
 1011TIP3    H2 2991   4.429   0.078   2.817
 1012TIP3   OH2 2992   6.277   0.497   4.408
 1012TIP3    H1 2993   6.257   0.502   4.315
 1012TIP3    H2 2994   6.371   0.517   4.413
 1013TIP3   OH2 2995   2.976   0.227   3.319
 1013TIP3    H1 2996   3.065   0.248   3.290
 1013TIP3    H2 2997   2.940   0.310   3.348
 1014TIP3   OH2 2998   5.403   0.374   3.324
 1014TIP3    H1 2999   5.484   0.423   3.317
 1014TIP3    H2 3000   5.334   0.440   3.314
 1015TIP3   OH2 3001   0.044   1.398   6.642
 1015TIP3    H1 3002   0.113   1.398   6.576
 1015TIP3    H2 3003   0.089   1.416   6.725
 1016TIP3   OH2 3004   3.103   6.061   0.508
 1016TIP3    H1 3005   3.017   6.089   0.475
 1016TIP3    H2 3006   3.115   6.111   0.589
 1017TIP3   OH2 3007   1.952   1.020   6.547
 1017TIP3    H1 3008   1.978   1.111   6.537
 1017TIP3    H2 3009   1.908   1.017   6.632
 1018TIP3   OH2 3010   7.226   0.450   0.255
 1018TIP3    H1 3011   7.241   0.387   0.184
 1018TIP3    H2 3012   7.250   0.534   0.217
 1019TIP3   OH2 3013   4.897   5.648   3.678
 1019TIP3    H1 3014   4.918   5.560   3.708
 1019TIP3    H2 3015   4.872   5.636   3.586
 1020TIP3   OH2 3016   2.835   2.675   3.116
 1020TIP3    H1 3017   2.923   2.678   3.078
 1020TIP3    H2 3018   2.819   2.582   3.134
 1021TIP3   OH2 3019   4.148   5.382   4.004
 1021TIP3    H1 3020   4.151   5.443   4.078
 1021TIP3    H2 3021   4.097   5.308   4.037
 1022TIP3   OH2 3022   4.359   5.011   5.430
 1022TIP3    H1 3023   4.293   5.046   5.490
 1022TIP3    H2 3024   4.404   5.089   5.396
 1023TIP3   OH2 3025   4.929   1.227   4.373
 1023TIP3    H1 3026   4.835   1.224   4.391
 1023TIP3    H2 3027   4.940   1.168   4.298
 1024TIP3   OH2 3028   0.116   3.476   6.147
 1024TIP3    H1 3029   0.162   3.419   6.208
 1024TIP3    H2 3030   0.182   3.539   6.118
 1025TIP3   OH2 3031   2.683   7.595   6.033
 1025TIP3    H1 3032   2.654   7.505   6.017
 1025TIP3    H2 3033   2.750   7.587   6.101
 1026TIP3   OH2 3034   6.873   3.138   4.305
 1026TIP3    H1 3035   6.802   3.074   4.310
 1026TIP3    H2 3036   6.837   3.211   4.255
 1027TIP3   OH2 3037   8.017   6.276   2.216
 1027TIP3    H1 3038   8.082   6.321   2.269
 1027TIP3    H2 3039   8.057   6.193   2.194
 1028TIP3   OH2 3040   0.480   3.747   0.844
 1028TIP3    H1 3041   0.469   3.654   0.865
 1028TIP3    H2 3042   0.489   3.790   0.928
 1029TIP3   OH2 3043   6.980   4.384   3.327
 1029TIP3    H1 3044   6.991   4.470   3.285
 1029TIP3    H2 3045   6.887   4.380   3.348
 1030TIP3   OH2 3046   8.181   2.348   5.113
 1030TIP3    H1 3047   8.192   2.310   5.200
 1030TIP3    H2 3048   8.201   2.441   5.124
 1031TIP3   OH2 3049   0.073   5.760   4.612
 1031TIP3    H1 3050   0.155   5.741   4.659
 1031TIP3    H2 3051   0.010   5.698   4.649
 1032TIP3   OH2 3052   4.023   1.250   2.834
 1032TIP3    H1 3053   4.066   1.186   2.778
 1032TIP3    H2 3054   4.093   1.307   2.865
 1033TIP3   OH2 3055   4.418   1.013   4.700
 1033TIP3    H1 3056   4.326   0.989   4.691
 1033TIP3    H2 3057   4.438   1.003   4.793
 1034TIP3   OH2 3058   6.924   7.483   2.960
 1034TIP3    H1 3059   6.898   7.391   2.966
 1034TIP3    H2 3060   7.008   7.482   2.915
 1035TIP3   OH2 3061   3.088   2.047   4.415
 1035TIP3    H1 3062   3.141   1.978   4.376
 1035TIP3    H2 3063   3.042   2.087   4.341
 1036TIP3   OH2 3064   4.809   2.016   5.113
 1036TIP3    H1 3065   4.817   1.956   5.187
 1036TIP3    H2 3066   4.893   2.008   5.068
 1037TIP3   OH2 3067   6.385   7.462   0.352
 1037TIP3    H1 3068   6.368   7.374   0.320
 1037TIP3    H2 3069   6.344   7.465   0.438
 1038TIP3   OH2 3070   0.215   4.543   2.956
 1038TIP3    H1 3071   0.193   4.513   3.044
 1038TIP3    H2 3072   0.139   4.594   2.928
 1039TIP3   OH2 3073   7.954   0.241   3.877
 1039TIP3    H1 3074   8.034   0.204   3.842
 1039TIP3    H2 3075   7.982   0.295   3.951
 1040TIP3   OH2 3076   6.281   3.583   4.212
 1040TIP3    H1 3077   6.272   3.488   4.200
 1040TIP3    H2 3078   6.363   3.594   4.259
 1041TIP3   OH2 3079   3.040   3.209   5.953
 1041TIP3    H1 3080   2.966   3.207   6.014
 1041TIP3    H2 3081   3.011   3.270   5.884
 1042TIP3   OH2 3082   5.758   6.042   4.946
 1042TIP3    H1 3083   5.753   6.083   4.859
 1042TIP3    H2 3084   5.813   5.965   4.933
 1043TIP3   OH2 3085   0.706   4.884   5.377
 1043TIP3    H1 3086   0.676   4.954   5.318
 1043TIP3    H2 3087   0.764   4.831   5.322
 1044TIP3   OH2 3088   2.202   5.611   3.142
 1044TIP3    H1 3089   2.257   5.689   3.135
 1044TIP3    H2 3090   2.209   5.585   3.234
 1045TIP3   OH2 3091   6.378   5.873   4.215
 1045TIP3    H1 3092   6.410   5.882   4.305
 1045TIP3    H2 3093   6.339   5.958   4.195
 1046TIP3   OH2 3094   0.936   2.289   3.123
 1046TIP3    H1 3095   0.876   2.327   3.060
 1046TIP3    H2 3096   0.898   2.310   3.208
 1047TIP3   OH2 3097   1.500   6.328   6.348
 1047TIP3    H1 3098   1.462   6.240   6.356
 1047TIP3    H2 3099   1.497   6.347   6.255
 1048TIP3   OH2 3100   2.806   6.436   4.162
 1048TIP3    H1 3101   2.822   6.369   4.228
 1048TIP3    H2 3102   2.871   6.418   4.094
 1049TIP3   OH2 3103   0.920   7.635   1.055
 1049TIP3    H1 3104   0.852   7.568   1.054
 1049TIP3    H2 3105   0.981   7.606   1.123
 1050TIP3   OH2 3106   0.519   0.610   0.274
 1050TIP3    H1 3107   0.438   0.619   0.224
 1050TIP3    H2 3108   0.546   0.701   0.290
 1051TIP3   OH2 3109   8.243   4.435   4.962
 1051TIP3    H1 3110   8.261   4.529   4.969
 1051TIP3    H2 3111   8.155   4.430   4.925
 1052TIP3   OH2 3112   6.459   3.200   3.854
 1052TIP3    H1 3113   6.445   3.106   3.868
 1052TIP3    H2 3114   6.468   3.208   3.759
 1053TIP3   OH2 3115   0.267   5.789   0.093
 1053TIP3    H1 3116   0.209   5.815   0.164
 1053TIP3    H2 3117   0.275   5.694   0.102
 1054TIP3   OH2 3118   5.419   4.108   5.570
 1054TIP3    H1 3119   5.456   4.117   5.657
 1054TIP3    H2 3120   5.357   4.180   5.562
 1055TIP3   OH2 3121   2.760   2.759   3.784
 1055TIP3    H1 3122   2.824   2.716   3.728
 1055TIP3    H2 3123   2.765   2.852   3.761
 1056TIP3   OH2 3124   3.230   5.657   5.000
 1056TIP3    H1 3125   3.216   5.713   4.924
 1056TIP3    H2 3126   3.142   5.631   5.027
 1057TIP3   OH2 3127   5.147   0.137   0.665
 1057TIP3    H1 3128   5.200   0.199   0.614
 1057TIP3    H2 3129   5.156   0.167   0.755
 1058TIP3   OH2 3130   4.719   6.349   6.631
 1058TIP3    H1 3131   4.806   6.326   6.666
 1058TIP3    H2 3132   4.717   6.306   6.546
 1059TIP3   OH2 3133   2.471   4.375   3.941
 1059TIP3    H1 3134   2.555   4.338   3.968
 1059TIP3    H2 3135   2.441   4.426   4.016
 1060TIP3   OH2 3136   0.297   1.823   2.589
 1060TIP3    H1 3137   0.325   1.739   2.554
 1060TIP3    H2 3138   0.301   1.883   2.515
 1061TIP3   OH2 3139   5.409   1.917   6.006
 1061TIP3    H1 3140   5.345   1.868   6.057
 1061TIP3    H2 3141   5.485   1.858   5.998
 1062TIP3   OH2 3142   4.140   3.105   5.791
 1062TIP3    H1 3143   4.204   3.035   5.790
 1062TIP3    H2 3144   4.149   3.144   5.878
 1063TIP3   OH2 3145   4.914   2.368   2.735
 1063TIP3    H1 3146   5.004   2.370   2.701
 1063TIP3    H2 3147   4.894   2.275   2.744
 1064TIP3   OH2 3148   0.044   1.111   3.154
 1064TIP3    H1 3149   0.066   1.020   3.135
 1064TIP3    H2 3150  -0.035   1.128   3.103
 1065TIP3   OH2 3151   8.230   0.434   0.301
 1065TIP3    H1 3152   8.242   0.365   0.235
 1065TIP3    H2 3153   8.295   0.501   0.277
 1066TIP3   OH2 3154   2.673   2.951   0.400
 1066TIP3    H1 3155   2.605   3.006   0.438
 1066TIP3    H2 3156   2.727   3.012   0.350
 1067TIP3   OH2 3157   0.106   4.141   0.708
 1067TIP3    H1 3158   0.200   4.128   0.708
 1067TIP3    H2 3159   0.071   4.063   0.751
 1068TIP3   OH2 3160   4.685   3.261   3.897
 1068TIP3    H1 3161   4.703   3.330   3.961
 1068TIP3    H2 3162   4.620   3.205   3.939
 1069TIP3   OH2 3163   4.282   5.844   4.098
 1069TIP3    H1 3164   4.221   5.789   4.146
 1069TIP3    H2 3165   4.291   5.802   4.013
 1070TIP3   OH2 3166   6.916   3.499   2.713
 1070TIP3    H1 3167   6.840   3.451   2.681
 1070TIP3    H2 3168   6.990   3.463   2.663
 1071TIP3   OH2 3169   8.296   3.631   4.525
 1071TIP3    H1 3170   8.226   3.695   4.535
 1071TIP3    H2 3171   8.281   3.568   4.595
 1072TIP3   OH2 3172   3.398   4.288   3.427
 1072TIP3    H1 3173   3.455   4.212   3.430
 1072TIP3    H2 3174   3.321   4.263   3.478
 1073TIP3   OH2 3175   6.974   3.393   1.716
 1073TIP3    H1 3176   6.940   3.481   1.699
 1073TIP3    H2 3177   6.905   3.350   1.768
 1074TIP3   OH2 3178   2.503   0.966   1.170
 1074TIP3    H1 3179   2.460   0.881   1.177
 1074TIP3    H2 3180   2.432   1.029   1.185
 1075TIP3   OH2 3181   1.092   1.294   6.694
 1075TIP3    H1 3182   1.186   1.287   6.677
 1075TIP3    H2 3183   1.071   1.386   6.679
 1076TIP3   OH2 3184   4.007   3.641   5.449
 1076TIP3    H1 3185   3.961   3.590   5.383
 1076TIP3    H2 3186   3.952   3.719   5.462
 1077TIP3   OH2 3187   2.505   4.209   0.390
 1077TIP3    H1 3188   2.427   4.184   0.340
 1077TIP3    H2 3189   2.517   4.302   0.369
 1078TIP3   OH2 3190   2.598   3.828   2.753
 1078TIP3    H1 3191   2.552   3.832   2.837
 1078TIP3    H2 3192   2.580   3.740   2.719
 1079TIP3   OH2 3193   5.447   1.552   4.922
 1079TIP3    H1 3194   5.389   1.483   4.954
 1079TIP3    H2 3195   5.513   1.506   4.870
 1080TIP3   OH2 3196   5.153   4.286   0.852
 1080TIP3    H1 3197   5.194   4.289   0.766
 1080TIP3    H2 3198   5.151   4.377   0.882
 1081TIP3   OH2 3199   7.615   7.546   0.090
 1081TIP3    H1 3200   7.571   7.484   0.148
 1081TIP3    H2 3201   7.548   7.611   0.068
 1082TIP3   OH2 3202   2.253   4.574   4.732
 1082TIP3    H1 3203   2.284   4.657   4.694
 1082TIP3    H2 3204   2.199   4.535   4.664
 1083TIP3   OH2 3205   6.086   6.263   2.503
 1083TIP3    H1 3206   6.119   6.344   2.464
 1083TIP3    H2 3207   6.027   6.292   2.572
 1084TIP3   OH2 3208   7.373   2.110   2.435
 1084TIP3    H1 3209   7.289   2.139   2.399
 1084TIP3    H2 3210   7.382   2.019   2.408
 1085TIP3   OH2 3211   1.729   2.116   3.967
 1085TIP3    H1 3212   1.694   2.076   3.887
 1085TIP3    H2 3213   1.798   2.057   3.995
 1086TIP3   OH2 3214   5.135   0.010   1.240
 1086TIP3    H1 3215   5.130   0.078   1.173
 1086TIP3    H2 3216   5.161   0.057   1.320
 1087TIP3   OH2 3217   7.360   4.776   5.200
 1087TIP3    H1 3218   7.409   4.806   5.277
 1087TIP3    H2 3219   7.370   4.681   5.201
 1088TIP3   OH2 3220   3.705   5.008   4.480
 1088TIP3    H1 3221   3.739   4.929   4.522
 1088TIP3    H2 3222   3.622   5.025   4.524
 1089TIP3   OH2 3223   7.890   0.523   0.762
 1089TIP3    H1 3224   7.823   0.488   0.704
 1089TIP3    H2 3225   7.909   0.452   0.823
 1090TIP3   OH2 3226   1.053   1.398   1.753
 1090TIP3    H1 3227   1.049   1.388   1.658
 1090TIP3    H2 3228   0.965   1.378   1.783
 1091TIP3   OH2 3229   2.241   0.335   1.816
 1091TIP3    H1 3230   2.268   0.413   1.864
 1091TIP3    H2 3231   2.150   0.352   1.791
 1092TIP3   OH2 3232   4.550   3.795   4.381
 1092TIP3    H1 3233   4.461   3.774   4.410
 1092TIP3    H2 3234   4.606   3.770   4.455
 1093TIP3   OH2 3235   5.855   4.697   5.912
 1093TIP3    H1 3236   5.838   4.731   6.001
 1093TIP3    H2 3237   5.892   4.610   5.926
 1094TIP3   OH2 3238   8.109   7.554   1.032
 1094TIP3    H1 3239   8.204   7.564   1.036
 1094TIP3    H2 3240   8.077   7.603   1.108
 1095TIP3   OH2 3241   4.531   2.659   2.628
 1095TIP3    H1 3242   4.492   2.611   2.701
 1095TIP3    H2 3243   4.458   2.683   2.572
 1096TIP3   OH2 3244   2.491   2.506   0.247
 1096TIP3    H1 3245   2.554   2.487   0.317
 1096TIP3    H2 3246   2.425   2.561   0.289
 1097TIP3   OH2 3247   4.337   2.702   1.220
 1097TIP3    H1 3248   4.343   2.756   1.141
 1097TIP3    H2 3249   4.393   2.627   1.202
 1098TIP3   OH2 3250   5.722   2.637   4.686
 1098TIP3    H1 3251   5.655   2.586   4.642
 1098TIP3    H2 3252   5.780   2.667   4.616
 1099TIP3   OH2 3253   1.872   2.659   6.252
 1099TIP3    H1 3254   1.919   2.594   6.304
 1099TIP3    H2 3255   1.931   2.735   6.251
 1100TIP3   OH2 3256   7.982   6.812   2.364
 1100TIP3    H1 3257   8.004   6.880   2.301
 1100TIP3    H2 3258   8.058   6.754   2.365
 1101TIP3   OH2 3259   4.538   5.094   6.475
 1101TIP3    H1 3260   4.569   5.038   6.546
 1101TIP3    H2 3261   4.566   5.182   6.499
 1102TIP3   OH2 3262   4.964   5.907   2.627
 1102TIP3    H1 3263   4.916   5.985   2.654
 1102TIP3    H2 3264   5.049   5.915   2.671
 1103TIP3   OH2 3265   0.080   0.141   5.549
 1103TIP3    H1 3266   0.166   0.125   5.509
 1103TIP3    H2 3267   0.026   0.174   5.478
 1104TIP3   OH2 3268   5.190   6.211   4.365
 1104TIP3    H1 3269   5.266   6.225   4.308
 1104TIP3    H2 3270   5.213   6.253   4.447
 1105TIP3   OH2 3271   1.307   1.915   3.429
 1105TIP3    H1 3272   1.261   1.914   3.513
 1105TIP3    H2 3273   1.237   1.910   3.363
 1106TIP3   OH2 3274   0.495   3.214   3.818
 1106TIP3    H1 3275   0.424   3.279   3.819
 1106TIP3    H2 3276   0.485   3.167   3.901
 1107TIP3   OH2 3277   3.784   5.932   3.937
 1107TIP3    H1 3278   3.705   5.897   3.895
 1107TIP3    H2 3279   3.850   5.864   3.924
 1108TIP3   OH2 3280   3.389   6.416   2.318
 1108TIP3    H1 3281   3.418   6.504   2.341
 1108TIP3    H2 3282   3.467   6.361   2.329
 1109TIP3   OH2 3283   4.434   6.901   2.796
 1109TIP3    H1 3284   4.452   6.840   2.724
 1109TIP3    H2 3285   4.339   6.897   2.807
 1110TIP3   OH2 3286   7.863   6.662   4.493
 1110TIP3    H1 3287   7.927   6.716   4.447
 1110TIP3    H2 3288   7.875   6.574   4.455
 1111TIP3   OH2 3289   6.409   5.318   0.649
 1111TIP3    H1 3290   6.370   5.274   0.574
 1111TIP3    H2 3291   6.427   5.407   0.619
 1112TIP3   OH2 3292   3.850   0.138   4.320
 1112TIP3    H1 3293   3.883   0.082   4.249
 1112TIP3    H2 3294   3.764   0.103   4.340
 1113TIP3   OH2 3295   1.661   1.249   3.346
 1113TIP3    H1 3296   1.678   1.162   3.384
 1113TIP3    H2 3297   1.608   1.293   3.413
 1114TIP3   OH2 3298   1.106   1.245   5.055
 1114TIP3    H1 3299   1.100   1.178   5.124
 1114TIP3    H2 3300   1.015   1.263   5.032
 1115TIP3   OH2 3301   5.557   0.213   0.726
 1115TIP3    H1 3302   5.505   0.132   0.725
 1115TIP3    H2 3303   5.507   0.272   0.782
 1116TIP3   OH2 3304   0.299   0.154   0.213
 1116TIP3    H1 3305   0.241   0.191   0.279
 1116TIP3    H2 3306   0.306   0.222   0.146
 1117TIP3   OH2 3307   8.287   6.471   0.345
 1117TIP3    H1 3308   8.330   6.405   0.399
 1117TIP3    H2 3309   8.210   6.426   0.309
 1118TIP3   OH2 3310   6.095   2.615   2.408
 1118TIP3    H1 3311   6.026   2.625   2.342
 1118TIP3    H2 3312   6.053   2.567   2.479
 1119TIP3   OH2 3313   0.505   3.146   1.776
 1119TIP3    H1 3314   0.429   3.192   1.740
 1119TIP3    H2 3315   0.581   3.194   1.740
 1120TIP3   OH2 3316   7.149   3.978   6.709
 1120TIP3    H1 3317   7.054   3.973   6.716
 1120TIP3    H2 3318   7.173   4.054   6.761
 1121TIP3   OH2 3319   1.286   0.428   5.480
 1121TIP3    H1 3320   1.227   0.424   5.555
 1121TIP3    H2 3321   1.258   0.357   5.424
 1122TIP3   OH2 3322   8.152   7.140   3.283
 1122TIP3    H1 3323   8.161   7.233   3.261
 1122TIP3    H2 3324   8.230   7.120   3.335
 1123TIP3   OH2 3325   0.855   6.607   0.219
 1123TIP3    H1 3326   0.949   6.615   0.207
 1123TIP3    H2 3327   0.823   6.578   0.134
 1124TIP3   OH2 3328   0.653   6.741   1.236
 1124TIP3    H1 3329   0.740   6.718   1.268
 1124TIP3    H2 3330   0.664   6.829   1.199
 1125TIP3   OH2 3331   2.139   0.547   4.188
 1125TIP3    H1 3332   2.132   0.453   4.174
 1125TIP3    H2 3333   2.104   0.586   4.107
 1126TIP3   OH2 3334   2.756   2.374   3.123
 1126TIP3    H1 3335   2.742   2.348   3.032
 1126TIP3    H2 3336   2.675   2.418   3.148
 1127TIP3   OH2 3337  -0.008   6.609   2.521
 1127TIP3    H1 3338  -0.015   6.695   2.479
 1127TIP3    H2 3339   0.050   6.622   2.595
 1128TIP3   OH2 3340   7.760   4.624   5.725
 1128TIP3    H1 3341   7.801   4.570   5.657
 1128TIP3    H2 3342   7.675   4.648   5.688
 1129TIP3   OH2 3343   0.251   0.980   3.779
 1129TIP3    H1 3344   0.236   0.893   3.743
 1129TIP3    H2 3345   0.173   1.030   3.755
 1130TIP3   OH2 3346   2.730   0.808   1.312
 1130TIP3    H1 3347   2.751   0.726   1.268
 1130TIP3    H2 3348   2.686   0.861   1.245
 1131TIP3   OH2 3349   0.543   1.438   4.929
 1131TIP3    H1 3350   0.604   1.440   4.855
 1131TIP3    H2 3351   0.581   1.376   4.990
 1132TIP3   OH2 3352   3.313   0.041   1.010
 1132TIP3    H1 3353   3.305  -0.039   1.062
 1132TIP3    H2 3354   3.267   0.020   0.928
 1133TIP3   OH2 3355   5.703   7.628   2.713
 1133TIP3    H1 3356   5.684   7.608   2.804
 1133TIP3    H2 3357   5.663   7.714   2.698
 1134TIP3   OH2 3358   3.978   0.466   4.752
 1134TIP3    H1 3359   3.992   0.455   4.846
 1134TIP3    H2 3360   3.983   0.561   4.738
 1135TIP3   OH2 3361   3.473   2.768   4.442
 1135TIP3    H1 3362   3.552   2.716   4.429
 1135TIP3    H2 3363   3.491   2.852   4.399
 1136TIP3   OH2 3364   6.952   0.561   0.104
 1136TIP3    H1 3365   6.999   0.503   0.164
 1136TIP3    H2 3366   6.895   0.502   0.054
 1137TIP3   OH2 3367   6.691   4.242   0.362
 1137TIP3    H1 3368   6.623   4.239   0.295
 1137TIP3    H2 3369   6.654   4.297   0.432
 1138TIP3   OH2 3370   1.859   7.208   5.382
 1138TIP3    H1 3371   1.942   7.170   5.409
 1138TIP3    H2 3372   1.879   7.300   5.361
 1139TIP3   OH2 3373   5.262   0.050   5.204
 1139TIP3    H1 3374   5.233   0.141   5.208
 1139TIP3    H2 3375   5.320   0.047   5.128
 1140TIP3   OH2 3376   6.787   5.532   6.096
 1140TIP3    H1 3377   6.696   5.507   6.110
 1140TIP3    H2 3378   6.827   5.456   6.054
 1141TIP3   OH2 3379   1.845   6.532   2.195
 1141TIP3    H1 3380   1.852   6.579   2.278
 1141TIP3    H2 3381   1.930   6.548   2.152
 1142TIP3   OH2 3382   7.943   6.884   3.527
 1142TIP3    H1 3383   7.985   6.839   3.454
 1142TIP3    H2 3384   7.927   6.973   3.495
 1143TIP3   OH2 3385   0.515   6.935   4.134
 1143TIP3    H1 3386   0.599   6.894   4.153
 1143TIP3    H2 3387   0.477   6.953   4.221
 1144TIP3   OH2 3388   6.851   3.518   2.369
 1144TIP3    H1 3389   6.945   3.521   2.354
 1144TIP3    H2 3390   6.820   3.445   2.316
 1145TIP3   OH2 3391   3.464   1.192   1.374
 1145TIP3    H1 3392   3.514   1.271   1.395
 1145TIP3    H2 3393   3.456   1.192   1.279
 1146TIP3   OH2 3394   1.677   3.887   3.064
 1146TIP3    H1 3395   1.722   3.936   3.133
 1146TIP3    H2 3396   1.619   3.951   3.023
 1147TIP3   OH2 3397   4.749   2.855   4.092
 1147TIP3    H1 3398   4.706   2.939   4.103
 1147TIP3    H2 3399   4.775   2.830   4.181
 1148TIP3   OH2 3400   5.018   2.417   5.610
 1148TIP3    H1 3401   4.993   2.339   5.659
 1148TIP3    H2 3402   5.114   2.415   5.609
 1149TIP3   OH2 3403   6.648   3.431   0.955
 1149TIP3    H1 3404   6.671   3.478   0.875
 1149TIP3    H2 3405   6.569   3.474   0.987
 1150TIP3   OH2 3406   0.880   5.607   2.118
 1150TIP3    H1 3407   0.841   5.540   2.061
 1150TIP3    H2 3408   0.920   5.670   2.058
 1151TIP3   OH2 3409   7.824   0.481   1.499
 1151TIP3    H1 3410   7.835   0.563   1.547
 1151TIP3    H2 3411   7.762   0.502   1.429
 1152TIP3   OH2 3412   3.928   0.445   1.354
 1152TIP3    H1 3413   3.948   0.537   1.371
 1152TIP3    H2 3414   4.010   0.408   1.321
 1153TIP3   OH2 3415   5.275   3.646   6.133
 1153TIP3    H1 3416   5.247   3.721   6.186
 1153TIP3    H2 3417   5.262   3.570   6.191
 1154TIP3   OH2 3418   0.473   6.285   0.122
 1154TIP3    H1 3419   0.387   6.245   0.109
 1154TIP3    H2 3420   0.518   6.226   0.182
 1155TIP3   OH2 3421   2.639   7.161   1.090
 1155TIP3    H1 3422   2.639   7.240   1.036
 1155TIP3    H2 3423   2.597   7.187   1.172
 1156TIP3   OH2 3424   0.264   2.458   6.552
 1156TIP3    H1 3425   0.325   2.450   6.478
 1156TIP3    H2 3426   0.218   2.374   6.554
 1157TIP3   OH2 3427   0.109   2.546   5.284
 1157TIP3    H1 3428   0.041   2.577   5.224
 1157TIP3    H2 3429   0.129   2.457   5.255
 1158TIP3   OH2 3430   1.596   0.354   3.471
 1158TIP3    H1 3431   1.643   0.277   3.502
 1158TIP3    H2 3432   1.528   0.319   3.413
 1159TIP3   OH2 3433   4.839   2.175   6.397
 1159TIP3    H1 3434   4.881   2.236   6.337
 1159TIP3    H2 3435   4.907   2.151   6.459
 1160TIP3   OH2 3436   2.173   2.783   1.164
 1160TIP3    H1 3437   2.261   2.808   1.189
 1160TIP3    H2 3438   2.153   2.706   1.217
 1161TIP3   OH2 3439   5.558   7.803   3.415
 1161TIP3    H1 3440   5.542   7.766   3.502
 1161TIP3    H2 3441   5.572   7.727   3.359
 1162TIP3   OH2 3442   3.433   7.764   3.336
 1162TIP3    H1 3443   3.521   7.787   3.306
 1162TIP3    H2 3444   3.392   7.722   3.260
 1163TIP3   OH2 3445   7.223   6.573   0.416
 1163TIP3    H1 3446   7.253   6.660   0.444
 1163TIP3    H2 3447   7.145   6.591   0.364
 1164TIP3   OH2 3448   0.983   2.371   0.136
 1164TIP3    H1 3449   0.915   2.343   0.074
 1164TIP3    H2 3450   1.032   2.291   0.155
 1165TIP3   OH2 3451   4.869   1.770   1.700
 1165TIP3    H1 3452   4.827   1.854   1.722
 1165TIP3    H2 3453   4.919   1.789   1.621
 1166TIP3   OH2 3454   2.929   3.914   0.772
 1166TIP3    H1 3455   2.966   3.872   0.695
 1166TIP3    H2 3456   2.855   3.964   0.739
 1167TIP3   OH2 3457   6.711   4.601   2.949
 1167TIP3    H1 3458   6.651   4.616   2.876
 1167TIP3    H2 3459   6.772   4.534   2.916
 1168TIP3   OH2 3460   0.457   0.199   2.245
 1168TIP3    H1 3461   0.429   0.269   2.304
 1168TIP3    H2 3462   0.551   0.189   2.263
 1169TIP3   OH2 3463   0.277   0.487   3.535
 1169TIP3    H1 3464   0.217   0.562   3.536
 1169TIP3    H2 3465   0.228   0.418   3.491
 1170TIP3   OH2 3466   4.067   5.032   1.488
 1170TIP3    H1 3467   4.115   4.971   1.544
 1170TIP3    H2 3468   4.134   5.088   1.450
 1171TIP3   OH2 3469   5.542   6.874   3.289
 1171TIP3    H1 3470   5.503   6.827   3.363
 1171TIP3    H2 3471   5.549   6.809   3.220
 1172TIP3   OH2 3472   1.208   7.627   5.401
 1172TIP3    H1 3473   1.286   7.621   5.346
 1172TIP3    H2 3474   1.237   7.599   5.488
 1173TIP3   OH2 3475   3.458   3.611   2.125
 1173TIP3    H1 3476   3.503   3.567   2.053
 1173TIP3    H2 3477   3.413   3.684   2.084
 1174TIP3   OH2 3478   7.002   5.459   2.371
 1174TIP3    H1 3479   6.968   5.477   2.459
 1174TIP3    H2 3480   7.097   5.465   2.381
 1175TIP3   OH2 3481   2.477   3.316   4.222
 1175TIP3    H1 3482   2.436   3.378   4.282
 1175TIP3    H2 3483   2.515   3.370   4.153
 1176TIP3   OH2 3484   7.965   6.243   5.093
 1176TIP3    H1 3485   7.966   6.179   5.165
 1176TIP3    H2 3486   8.008   6.197   5.020
 1177TIP3   OH2 3487   2.034   3.731   3.014
 1177TIP3    H1 3488   2.111   3.783   2.994
 1177TIP3    H2 3489   1.965   3.796   3.028
 1178TIP3   OH2 3490   5.678   1.010   0.027
 1178TIP3    H1 3491   5.763   1.041   0.057
 1178TIP3    H2 3492   5.615   1.065   0.074
 1179TIP3   OH2 3493   3.952   2.289   6.246
 1179TIP3    H1 3494   4.023   2.229   6.223
 1179TIP3    H2 3495   3.983   2.334   6.325
 1180TIP3   OH2 3496   4.746   1.980   6.224
 1180TIP3    H1 3497   4.664   1.951   6.265
 1180TIP3    H2 3498   4.760   2.069   6.257
 1181TIP3   OH2 3499   7.195   4.359   2.145
 1181TIP3    H1 3500   7.238   4.388   2.065
 1181TIP3    H2 3501   7.124   4.422   2.158
 1182TIP3   OH2 3502   2.915   4.054   1.148
 1182TIP3    H1 3503   2.820   4.055   1.160
 1182TIP3    H2 3504   2.947   4.119   1.210
 1183TIP3   OH2 3505   3.204   4.438   1.494
 1183TIP3    H1 3506   3.191   4.496   1.418
 1183TIP3    H2 3507   3.246   4.360   1.458
 1184TIP3   OH2 3508   4.497   6.557   0.161
 1184TIP3    H1 3509   4.584   6.534   0.193
 1184TIP3    H2 3510   4.450   6.474   0.157
 1185TIP3   OH2 3511   0.094   0.100   1.432
 1185TIP3    H1 3512   0.016   0.068   1.387
 1185TIP3    H2 3513   0.142   0.149   1.365
 1186TIP3   OH2 3514   4.541   0.177   6.277
 1186TIP3    H1 3515   4.593   0.114   6.227
 1186TIP3    H2 3516   4.565   0.262   6.241
 1187TIP3   OH2 3517   3.320   2.371   1.435
 1187TIP3    H1 3518   3.356   2.434   1.497
 1187TIP3    H2 3519   3.393   2.311   1.417
 1188TIP3   OH2 3520   6.074   3.723   4.302
 1188TIP3    H1 3521   6.150   3.665   4.295
 1188TIP3    H2 3522   6.006   3.680   4.250
 1189TIP3   OH2 3523   4.196   1.863   0.579
 1189TIP3    H1 3524   4.275   1.812   0.563
 1189TIP3    H2 3525   4.224   1.954   0.575
 1190TIP3   OH2 3526   6.452   2.634   4.731
 1190TIP3    H1 3527   6.537   2.596   4.710
 1190TIP3    H2 3528   6.391   2.560   4.724
 1191TIP3   OH2 3529   5.599   2.463   2.408
 1191TIP3    H1 3530   5.648   2.387   2.440
 1191TIP3    H2 3531   5.515   2.427   2.379
 1192TIP3   OH2 3532   5.671   5.647   2.179
 1192TIP3    H1 3533   5.752   5.650   2.128
 1192TIP3    H2 3534   5.657   5.737   2.206
 1193TIP3   OH2 3535   8.008   1.859   6.719
 1193TIP3    H1 3536   8.065   1.832   6.647
 1193TIP3    H2 3537   8.014   1.955   6.721
 1194TIP3   OH2 3538   1.624   0.273   0.124
 1194TIP3    H1 3539   1.672   0.259   0.043
 1194TIP3    H2 3540   1.688   0.310   0.185
 1195TIP3   OH2 3541   0.344   0.550   5.622
 1195TIP3    H1 3542   0.318   0.596   5.702
 1195TIP3    H2 3543   0.291   0.470   5.622
 1196TIP3   OH2 3544   1.812   5.914   0.090
 1196TIP3    H1 3545   1.852   5.917   0.177
 1196TIP3    H2 3546   1.876   5.866   0.036
 1197TIP3   OH2 3547   6.934   0.137   2.980
 1197TIP3    H1 3548   7.005   0.074   2.991
 1197TIP3    H2 3549   6.876   0.097   2.916
 1198TIP3   OH2 3550   1.126   1.916   5.129
 1198TIP3    H1 3551   1.046   1.871   5.100
 1198TIP3    H2 3552   1.147   1.975   5.057
 1199TIP3   OH2 3553   3.158   0.163   5.616
 1199TIP3    H1 3554   3.157   0.171   5.712
 1199TIP3    H2 3555   3.067   0.179   5.590
 1200TIP3   OH2 3556   2.577   4.908   4.472
 1200TIP3    H1 3557   2.608   4.994   4.500
 1200TIP3    H2 3558   2.656   4.854   4.465
 1201TIP3   OH2 3559   6.688   4.092   1.946
 1201TIP3    H1 3560   6.676   4.135   1.861
 1201TIP3    H2 3561   6.741   4.154   1.996
 1202TIP3   OH2 3562   4.777   5.657   0.173
 1202TIP3    H1 3563   4.734   5.728   0.221
 1202TIP3    H2 3564   4.869   5.683   0.171
 1203TIP3   OH2 3565   0.066   4.750   1.499
 1203TIP3    H1 3566   0.153   4.722   1.528
 1203TIP3    H2 3567   0.083   4.823   1.440
 1204TIP3   OH2 3568   8.230   2.030   0.521
 1204TIP3    H1 3569   8.301   2.010   0.459
 1204TIP3    H2 3570   8.272   2.080   0.591
 1205TIP3   OH2 3571   6.067   4.663   0.619
 1205TIP3    H1 3572   5.992   4.720   0.604
 1205TIP3    H2 3573   6.133   4.720   0.659
 1206TIP3   OH2 3574   0.523   6.610   3.549
 1206TIP3    H1 3575   0.597   6.557   3.580
 1206TIP3    H2 3576   0.450   6.583   3.603
 1207TIP3   OH2 3577   2.524   1.717   4.717
 1207TIP3    H1 3578   2.605   1.759   4.688
 1207TIP3    H2 3579   2.510   1.646   4.655
 1208TIP3   OH2 3580   6.377   1.641   3.466
 1208TIP3    H1 3581   6.319   1.707   3.504
 1208TIP3    H2 3582   6.426   1.688   3.399
 1209TIP3   OH2 3583   2.470   4.394   0.192
 1209TIP3    H1 3584   2.551   4.352   0.163
 1209TIP3    H2 3585   2.416   4.398   0.113
 1210TIP3   OH2 3586   5.353   2.427   2.134
 1210TIP3    H1 3587   5.435   2.387   2.105
 1210TIP3    H2 3588   5.350   2.512   2.089
 1211TIP3   OH2 3589   3.824   7.465   1.109
 1211TIP3    H1 3590   3.748   7.419   1.144
 1211TIP3    H2 3591   3.899   7.414   1.140
 1212TIP3   OH2 3592   2.921   3.583   5.632
 1212TIP3    H1 3593   2.829   3.558   5.623
 1212TIP3    H2 3594   2.918   3.677   5.652
 1213TIP3   OH2 3595   3.604   3.880   0.364
 1213TIP3    H1 3596   3.591   3.818   0.292
 1213TIP3    H2 3597   3.660   3.948   0.328
 1214TIP3   OH2 3598   7.690   0.339   0.699
 1214TIP3    H1 3599   7.735   0.256   0.716
 1214TIP3    H2 3600   7.625   0.346   0.768
 1215TIP3   OH2 3601   4.532   6.845   0.114
 1215TIP3    H1 3602   4.486   6.919   0.154
 1215TIP3    H2 3603   4.478   6.769   0.134
 1216TIP3   OH2 3604   7.295   2.135   1.166
 1216TIP3    H1 3605   7.373   2.190   1.175
 1216TIP3    H2 3606   7.231   2.174   1.225
 1217TIP3   OH2 3607   3.597   5.142   0.793
 1217TIP3    H1 3608   3.680   5.097   0.781
 1217TIP3    H2 3609   3.611   5.197   0.870
 1218TIP3   OH2 3610   4.753   6.299   1.619
 1218TIP3    H1 3611   4.739   6.225   1.678
 1218TIP3    H2 3612   4.755   6.260   1.531
 1219TIP3   OH2 3613   4.709   2.310   1.261
 1219TIP3    H1 3614   4.778   2.265   1.309
 1219TIP3    H2 3615   4.642   2.242   1.246
 1220TIP3   OH2 3616   1.084   5.413   5.221
 1220TIP3    H1 3617   1.092   5.505   5.197
 1220TIP3    H2 3618   1.074   5.367   5.137
 1221TIP3   OH2 3619   4.080   3.861   5.812
 1221TIP3    H1 3620   4.133   3.806   5.754
 1221TIP3    H2 3621   4.127   3.945   5.815
 1222TIP3   OH2 3622   3.159   7.502   1.066
 1222TIP3    H1 3623   3.101   7.564   1.110
 1222TIP3    H2 3624   3.101   7.453   1.007
 1223TIP3   OH2 3625   5.290   5.062   4.918
 1223TIP3    H1 3626   5.358   5.077   4.853
 1223TIP3    H2 3627   5.227   5.133   4.905
 1224TIP3   OH2 3628   5.358   6.386   1.656
 1224TIP3    H1 3629   5.283   6.411   1.602
 1224TIP3    H2 3630   5.364   6.291   1.648
 1225TIP3   OH2 3631   6.837   4.148   6.451
 1225TIP3    H1 3632   6.910   4.165   6.391
 1225TIP3    H2 3633   6.820   4.231   6.494
 1226TIP3   OH2 3634   7.179   6.444   1.860
 1226TIP3    H1 3635   7.211   6.466   1.773
 1226TIP3    H2 3636   7.198   6.522   1.912
 1227TIP3   OH2 3637   5.050   4.155   1.810
 1227TIP3    H1 3638   5.140   4.137   1.782
 1227TIP3    H2 3639   5.059   4.223   1.877
 1228TIP3   OH2 3640   5.950   0.349   0.385
 1228TIP3    H1 3641   6.018   0.381   0.444
 1228TIP3    H2 3642   5.940   0.417   0.319
 1229TIP3   OH2 3643   2.970   6.226   4.336
 1229TIP3    H1 3644   2.944   6.194   4.250
 1229TIP3    H2 3645   3.023   6.155   4.373
 1230TIP3   OH2 3646   5.559   7.560   2.953
 1230TIP3    H1 3647   5.557   7.470   2.987
 1230TIP3    H2 3648   5.467   7.583   2.942
 1231TIP3   OH2 3649   7.439   1.291   1.270
 1231TIP3    H1 3650   7.439   1.209   1.318
 1231TIP3    H2 3651   7.461   1.266   1.180
 1232TIP3   OH2 3652   4.838   6.571   5.862
 1232TIP3    H1 3653   4.873   6.649   5.820
 1232TIP3    H2 3654   4.816   6.512   5.790
 1233TIP3   OH2 3655   5.220   7.510   1.730
 1233TIP3    H1 3656   5.232   7.436   1.670
 1233TIP3    H2 3657   5.138   7.551   1.702
 1234TIP3   OH2 3658   6.536   0.467   4.422
 1234TIP3    H1 3659   6.592   0.437   4.493
 1234TIP3    H2 3660   6.598   0.502   4.357
 1235TIP3   OH2 3661   3.379   1.808   3.558
 1235TIP3    H1 3662   3.362   1.765   3.475
 1235TIP3    H2 3663   3.295   1.845   3.584
 1236TIP3   OH2 3664   6.585   7.724   4.872
 1236TIP3    H1 3665   6.536   7.793   4.918
 1236TIP3    H2 3666   6.667   7.716   4.922
 1237TIP3   OH2 3667   1.261   2.555   1.833
 1237TIP3    H1 3668   1.269   2.535   1.926
 1237TIP3    H2 3669   1.192   2.621   1.829
 1238TIP3   OH2 3670   7.715   0.422   5.947
 1238TIP3    H1 3671   7.766   0.451   6.023
 1238TIP3    H2 3672   7.782   0.401   5.881
 1239TIP3   OH2 3673   5.196   3.851   4.332
 1239TIP3    H1 3674   5.180   3.905   4.254
 1239TIP3    H2 3675   5.200   3.914   4.404
 1240TIP3   OH2 3676   5.114   0.178   4.280
 1240TIP3    H1 3677   5.051   0.149   4.346
 1240TIP3    H2 3678   5.155   0.098   4.249
 1241TIP3   OH2 3679   0.436   2.734   0.200
 1241TIP3    H1 3680   0.409   2.775   0.118
 1241TIP3    H2 3681   0.356   2.728   0.251
 1242TIP3   OH2 3682   7.156   7.018   3.086
 1242TIP3    H1 3683   7.136   6.929   3.114
 1242TIP3    H2 3684   7.145   7.016   2.991
 1243TIP3   OH2 3685   0.536   5.111   1.195
 1243TIP3    H1 3686   0.532   5.087   1.102
 1243TIP3    H2 3687   0.498   5.035   1.240
 1244TIP3   OH2 3688   6.073   0.920   1.376
 1244TIP3    H1 3689   5.989   0.964   1.364
 1244TIP3    H2 3690   6.131   0.988   1.410
 1245TIP3   OH2 3691   4.502   1.850   2.470
 1245TIP3    H1 3692   4.424   1.899   2.498
 1245TIP3    H2 3693   4.567   1.868   2.538
 1246TIP3   OH2 3694   1.587   7.712   6.327
 1246TIP3    H1 3695   1.536   7.636   6.358
 1246TIP3    H2 3696   1.677   7.690   6.348
 1247TIP3   OH2 3697   3.545   6.553   2.679
 1247TIP3    H1 3698   3.532   6.524   2.769
 1247TIP3    H2 3699   3.543   6.648   2.683
 1248TIP3   OH2 3700   0.850   5.282   3.837
 1248TIP3    H1 3701   0.864   5.215   3.770
 1248TIP3    H2 3702   0.937   5.296   3.875
 1249TIP3   OH2 3703   3.862   1.207   5.491
 1249TIP3    H1 3704   3.911   1.288   5.505
 1249TIP3    H2 3705   3.854   1.168   5.579
 1250TIP3   OH2 3706   8.153   3.321   5.097
 1250TIP3    H1 3707   8.095   3.245   5.093
 1250TIP3    H2 3708   8.128   3.375   5.021
 1251TIP3   OH2 3709   7.552   3.759   5.773
 1251TIP3    H1 3710   7.603   3.840   5.774
 1251TIP3    H2 3711   7.605   3.696   5.822
 1252TIP3   OH2 3712   1.001   1.535   6.217
 1252TIP3    H1 3713   0.941   1.480   6.268
 1252TIP3    H2 3714   0.991   1.622   6.255
 1253TIP3   OH2 3715   5.908   2.697   5.470
 1253TIP3    H1 3716   5.959   2.668   5.394
 1253TIP3    H2 3717   5.894   2.790   5.456
 1254TIP3   OH2 3718   4.012   6.860   0.064
 1254TIP3    H1 3719   4.043   6.943   0.100
 1254TIP3    H2 3720   3.917   6.870   0.061
 1255TIP3   OH2 3721   5.571   3.960   1.701
 1255TIP3    H1 3722   5.656   3.933   1.667
 1255TIP3    H2 3723   5.508   3.931   1.635
 1256TIP3   OH2 3724   8.235   0.431   5.653
 1256TIP3    H1 3725   8.243   0.524   5.631
 1256TIP3    H2 3726   8.196   0.391   5.576
 1257TIP3   OH2 3727   8.096   5.943   1.038
 1257TIP3    H1 3728   8.129   6.001   0.970
 1257TIP3    H2 3729   8.168   5.936   1.101
 1258TIP3   OH2 3730   7.127   5.941   5.505
 1258TIP3    H1 3731   7.191   5.892   5.557
 1258TIP3    H2 3732   7.093   6.007   5.565
 1259TIP3   OH2 3733   7.780   2.099   3.778
 1259TIP3    H1 3734   7.829   2.036   3.725
 1259TIP3    H2 3735   7.693   2.060   3.787
 1260TIP3   OH2 3736   0.857   1.154   2.458
 1260TIP3    H1 3737   0.827   1.181   2.545
 1260TIP3    H2 3738   0.789   1.095   2.426
 1261TIP3   OH2 3739   8.031   5.121   1.808
 1261TIP3    H1 3740   7.997   5.050   1.863
 1261TIP3    H2 3741   8.122   5.132   1.835
 1262TIP3   OH2 3742   4.189   4.220   6.370
 1262TIP3    H1 3743   4.103   4.247   6.402
 1262TIP3    H2 3744   4.179   4.217   6.274
 1263TIP3   OH2 3745   8.219   7.159   6.589
 1263TIP3    H1 3746   8.250   7.242   6.551
 1263TIP3    H2 3747   8.145   7.134   6.533
 1264TIP3   OH2 3748   5.481   3.958   2.292
 1264TIP3    H1 3749   5.554   4.012   2.263
 1264TIP3    H2 3750   5.515   3.910   2.368
 1265TIP3   OH2 3751   5.770   5.141   1.030
 1265TIP3    H1 3752   5.690   5.189   1.008
 1265TIP3    H2 3753   5.744   5.085   1.103
 1266TIP3   OH2 3754   7.960   7.430   4.813
 1266TIP3    H1 3755   7.990   7.498   4.873
 1266TIP3    H2 3756   7.865   7.442   4.808
 1267TIP3   OH2 3757   5.407   6.597   3.322
 1267TIP3    H1 3758   5.334   6.659   3.328
 1267TIP3    H2 3759   5.386   6.530   3.387
 1268TIP3   OH2 3760   5.838   0.447   5.057
 1268TIP3    H1 3761   5.852   0.357   5.087
 1268TIP3    H2 3762   5.754   0.471   5.096
 1269TIP3   OH2 3763   7.008   2.566   3.783
 1269TIP3    H1 3764   6.982   2.482   3.744
 1269TIP3    H2 3765   7.104   2.561   3.789
 1270TIP3   OH2 3766   2.012   1.347   1.360
 1270TIP3    H1 3767   2.017   1.253   1.376
 1270TIP3    H2 3768   1.951   1.380   1.426
 1271TIP3   OH2 3769   6.765   3.093   1.641
 1271TIP3    H1 3770   6.761   3.121   1.733
 1271TIP3    H2 3771   6.750   2.999   1.643
 1272TIP3   OH2 3772   3.411   3.077   2.192
 1272TIP3    H1 3773   3.390   3.062   2.100
 1272TIP3    H2 3774   3.383   3.166   2.209
 1273TIP3   OH2 3775   1.473   1.222   5.835
 1273TIP3    H1 3776   1.387   1.216   5.795
 1273TIP3    H2 3777   1.493   1.132   5.863
 1274TIP3   OH2 3778   3.087   3.973   3.905
 1274TIP3    H1 3779   3.131   4.027   3.971
 1274TIP3    H2 3780   3.019   4.031   3.869
 1275TIP3   OH2 3781   4.848   2.320   5.350
 1275TIP3    H1 3782   4.816   2.312   5.260
 1275TIP3    H2 3783   4.937   2.284   5.347
 1276TIP3   OH2 3784   5.666   4.868   2.092
 1276TIP3    H1 3785   5.694   4.898   2.006
 1276TIP3    H2 3786   5.697   4.778   2.099
 1277TIP3   OH2 3787   8.120   6.616   4.770
 1277TIP3    H1 3788   8.060   6.543   4.785
 1277TIP3    H2 3789   8.064   6.693   4.764
 1278TIP3   OH2 3790   4.043   1.508   2.679
 1278TIP3    H1 3791   3.977   1.450   2.641
 1278TIP3    H2 3792   3.995   1.588   2.701
 1279TIP3   OH2 3793   4.584   5.918   0.322
 1279TIP3    H1 3794   4.633   6.000   0.317
 1279TIP3    H2 3795   4.558   5.899   0.231
 1280TIP3   OH2 3796   1.926   6.249   5.814
 1280TIP3    H1 3797   1.953   6.273   5.902
 1280TIP3    H2 3798   1.973   6.311   5.757
 1281TIP3   OH2 3799   2.617   2.083   4.002
 1281TIP3    H1 3800   2.617   2.036   3.919
 1281TIP3    H2 3801   2.533   2.129   4.004
 1282TIP3   OH2 3802   3.876   5.420   4.263
 1282TIP3    H1 3803   3.915   5.354   4.320
 1282TIP3    H2 3804   3.815   5.371   4.207
 1283TIP3   OH2 3805   1.398   7.075   6.387
 1283TIP3    H1 3806   1.332   7.023   6.432
 1283TIP3    H2 3807   1.475   7.071   6.445
 1284TIP3   OH2 3808   7.366   1.563   5.054
 1284TIP3    H1 3809   7.333   1.473   5.055
 1284TIP3    H2 3810   7.289   1.616   5.031
 1285TIP3   OH2 3811   6.827   2.234   4.730
 1285TIP3    H1 3812   6.805   2.143   4.753
 1285TIP3    H2 3813   6.881   2.226   4.652
 1286TIP3   OH2 3814   5.928   1.305   0.016
 1286TIP3    H1 3815   5.972   1.340   0.093
 1286TIP3    H2 3816   5.852   1.361   0.004
 1287TIP3   OH2 3817   3.985   7.245   2.258
 1287TIP3    H1 3818   4.074   7.239   2.224
 1287TIP3    H2 3819   3.958   7.155   2.274
 1288TIP3   OH2 3820   5.389   2.204   5.947
 1288TIP3    H1 3821   5.416   2.207   5.855
 1288TIP3    H2 3822   5.421   2.119   5.978
 1289TIP3   OH2 3823   4.199   1.148   1.575
 1289TIP3    H1 3824   4.164   1.123   1.490
 1289TIP3    H2 3825   4.124   1.142   1.635
 1290TIP3   OH2 3826   2.084   7.658   6.766
 1290TIP3    H1 3827   2.040   7.739   6.792
 1290TIP3    H2 3828   2.159   7.688   6.714
 1291TIP3   OH2 3829   6.225   4.194   2.067
 1291TIP3    H1 3830   6.246   4.273   2.116
 1291TIP3    H2 3831   6.186   4.227   1.986
 1292TIP3   OH2 3832   0.606   0.714   6.092
 1292TIP3    H1 3833   0.520   0.722   6.132
 1292TIP3    H2 3834   0.590   0.667   6.010
 1293TIP3   OH2 3835   5.454   0.594   2.342
 1293TIP3    H1 3836   5.389   0.659   2.316
 1293TIP3    H2 3837   5.524   0.603   2.277
 1294TIP3   OH2 3838   3.981   5.674   6.199
 1294TIP3    H1 3839   4.070   5.656   6.232
 1294TIP3    H2 3840   3.981   5.640   6.110
 1295TIP3   OH2 3841   4.022   4.582   0.535
 1295TIP3    H1 3842   4.057   4.497   0.563
 1295TIP3    H2 3843   4.021   4.635   0.614
 1296TIP3   OH2 3844   0.203   5.241   2.586
 1296TIP3    H1 3845   0.132   5.185   2.619
 1296TIP3    H2 3846   0.282   5.190   2.599
 1297TIP3   OH2 3847   7.954   4.579   2.165
 1297TIP3    H1 3848   7.912   4.609   2.246
 1297TIP3    H2 3849   8.045   4.606   2.173
 1298TIP3   OH2 3850   0.434   6.520   1.582
 1298TIP3    H1 3851   0.370   6.591   1.582
 1298TIP3    H2 3852   0.455   6.506   1.674
 1299TIP3   OH2 3853   2.370   3.219   6.218
 1299TIP3    H1 3854   2.351   3.264   6.300
 1299TIP3    H2 3855   2.285   3.210   6.175
 1300TIP3   OH2 3856   2.563   3.076   6.390
 1300TIP3    H1 3857   2.493   3.123   6.345
 1300TIP3    H2 3858   2.583   3.001   6.334
 1301TIP3   OH2 3859   7.377   6.426   3.669
 1301TIP3    H1 3860   7.417   6.428   3.582
 1301TIP3    H2 3861   7.404   6.342   3.706
 1302TIP3   OH2 3862   1.781   1.441   1.530
 1302TIP3    H1 3863   1.811   1.499   1.600
 1302TIP3    H2 3864   1.711   1.490   1.487
 1303TIP3   OH2 3865   2.046   5.048   4.641
 1303TIP3    H1 3866   2.139   5.059   4.619
 1303TIP3    H2 3867   2.000   5.064   4.558
 1304TIP3   OH2 3868   7.185   0.709   3.450
 1304TIP3    H1 3869   7.194   0.799   3.483
 1304TIP3    H2 3870   7.166   0.720   3.357
 1305TIP3   OH2 3871   3.399   3.432   0.076
 1305TIP3    H1 3872   3.394   3.339   0.098
 1305TIP3    H2 3873   3.492   3.453   0.083
 1306TIP3   OH2 3874   2.106   7.510   0.286
 1306TIP3    H1 3875   2.118   7.589   0.233
 1306TIP3    H2 3876   2.012   7.509   0.305
 1307TIP3   OH2 3877   2.990   5.031   4.038
 1307TIP3    H1 3878   2.980   5.032   3.943
 1307TIP3    H2 3879   2.918   4.978   4.069
 1308TIP3   OH2 3880   6.649   5.625   5.334
 1308TIP3    H1 3881   6.556   5.650   5.337
 1308TIP3    H2 3882   6.695   5.704   5.361
 1309TIP3   OH2 3883   1.940   3.566   1.673
 1309TIP3    H1 3884   1.903   3.514   1.745
 1309TIP3    H2 3885   1.905   3.525   1.594
 1310TIP3   OH2 3886   0.854   3.215   2.014
 1310TIP3    H1 3887   0.782   3.250   2.067
 1310TIP3    H2 3888   0.876   3.132   2.057
 1311TIP3   OH2 3889   5.741   1.844   3.333
 1311TIP3    H1 3890   5.800   1.789   3.385
 1311TIP3    H2 3891   5.796   1.914   3.300
 1312TIP3   OH2 3892   2.892   4.490   1.233
 1312TIP3    H1 3893   2.894   4.586   1.228
 1312TIP3    H2 3894   2.903   4.461   1.143
 1313TIP3   OH2 3895   1.312   0.024   3.832
 1313TIP3    H1 3896   1.399   0.060   3.849
 1313TIP3    H2 3897   1.252   0.078   3.885
 1314TIP3   OH2 3898   6.731   6.442   1.982
 1314TIP3    H1 3899   6.751   6.486   1.899
 1314TIP3    H2 3900   6.768   6.355   1.972
 1315TIP3   OH2 3901   1.382   2.293   5.231
 1315TIP3    H1 3902   1.302   2.240   5.241
 1315TIP3    H2 3903   1.354   2.383   5.248
 1316TIP3   OH2 3904   2.622   6.344   5.195
 1316TIP3    H1 3905   2.600   6.430   5.159
 1316TIP3    H2 3906   2.630   6.359   5.289
 1317TIP3   OH2 3907   2.972   6.083   0.999
 1317TIP3    H1 3908   3.024   6.131   1.064
 1317TIP3    H2 3909   2.893   6.058   1.047
 1318TIP3   OH2 3910   0.758   4.727   1.360
 1318TIP3    H1 3911   0.785   4.663   1.294
 1318TIP3    H2 3912   0.699   4.678   1.417
 1319TIP3   OH2 3913   6.654   4.824   0.482
 1319TIP3    H1 3914   6.639   4.804   0.574
 1319TIP3    H2 3915   6.566   4.834   0.445
 1320TIP3   OH2 3916   1.168   3.346   5.558
 1320TIP3    H1 3917   1.127   3.312   5.477
 1320TIP3    H2 3918   1.122   3.429   5.574
 1321TIP3   OH2 3919   6.698   0.103   1.281
 1321TIP3    H1 3920   6.747   0.037   1.329
 1321TIP3    H2 3921   6.647   0.054   1.217
 1322TIP3   OH2 3922   8.099   0.847   2.500
 1322TIP3    H1 3923   8.106   0.830   2.594
 1322TIP3    H2 3924   8.014   0.812   2.476
 1323TIP3   OH2 3925   8.071   5.659   4.384
 1323TIP3    H1 3926   8.052   5.752   4.394
 1323TIP3    H2 3927   7.985   5.618   4.371
 1324TIP3   OH2 3928   2.992   6.752   4.030
 1324TIP3    H1 3929   2.946   6.824   4.072
 1324TIP3    H2 3930   3.040   6.710   4.102
 1325TIP3   OH2 3931   2.741   7.475   3.587
 1325TIP3    H1 3932   2.734   7.402   3.526
 1325TIP3    H2 3933   2.695   7.547   3.544
 1326TIP3   OH2 3934   4.641   5.827   0.992
 1326TIP3    H1 3935   4.614   5.769   1.063
 1326TIP3    H2 3936   4.584   5.803   0.919
 1327TIP3   OH2 3937   2.754   2.459   3.437
 1327TIP3    H1 3938   2.718   2.548   3.438
 1327TIP3    H2 3939   2.677   2.402   3.426
 1328TIP3   OH2 3940   7.838   7.403   6.484
 1328TIP3    H1 3941   7.754   7.387   6.443
 1328TIP3    H2 3942   7.883   7.319   6.482
 1329TIP3   OH2 3943   6.412   6.442   0.558
 1329TIP3    H1 3944   6.358   6.520   0.574
 1329TIP3    H2 3945   6.408   6.430   0.464
 1330TIP3   OH2 3946   6.951   1.374   5.173
 1330TIP3    H1 3947   6.886   1.442   5.185
 1330TIP3    H2 3948   7.010   1.384   5.248
 1331TIP3   OH2 3949   2.725   1.807   5.865
 1331TIP3    H1 3950   2.714   1.895   5.827
 1331TIP3    H2 3951   2.705   1.747   5.793
 1332TIP3   OH2 3952   4.744   0.142   0.059
 1332TIP3    H1 3953   4.694   0.222   0.042
 1332TIP3    H2 3954   4.770   0.150   0.151
 1333TIP3   OH2 3955   1.094   5.785   3.917
 1333TIP3    H1 3956   1.141   5.737   3.849
 1333TIP3    H2 3957   1.019   5.823   3.873
 1334TIP3   OH2 3958   4.021   4.228   0.769
 1334TIP3    H1 3959   3.930   4.259   0.769
 1334TIP3    H2 3960   4.064   4.280   0.837
 1335TIP3   OH2 3961   1.789   1.037   2.726
 1335TIP3    H1 3962   1.823   0.973   2.788
 1335TIP3    H2 3963   1.715   0.993   2.685
 1336TIP3   OH2 3964   1.777   7.490   3.968
 1336TIP3    H1 3965   1.705   7.553   3.964
 1336TIP3    H2 3966   1.762   7.441   4.049
 1337TIP3   OH2 3967   3.559   0.907   4.182
 1337TIP3    H1 3968   3.629   0.842   4.176
 1337TIP3    H2 3969   3.492   0.876   4.121
 1338TIP3   OH2 3970   5.802   5.728   3.948
 1338TIP3    H1 3971   5.717   5.768   3.928
 1338TIP3    H2 3972   5.860   5.802   3.962
 1339TIP3   OH2 3973   2.668   7.699   6.328
 1339TIP3    H1 3974   2.761   7.706   6.352
 1339TIP3    H2 3975   2.659   7.610   6.295
 1340TIP3   OH2 3976   1.653   5.860   5.276
 1340TIP3    H1 3977   1.558   5.859   5.286
 1340TIP3    H2 3978   1.669   5.798   5.205
 1341TIP3   OH2 3979   6.416   6.950   0.215
 1341TIP3    H1 3980   6.368   6.986   0.141
 1341TIP3    H2 3981   6.505   6.937   0.182
 1342TIP3   OH2 3982   3.827   5.139   6.604
 1342TIP3    H1 3983   3.851   5.229   6.582
 1342TIP3    H2 3984   3.851   5.088   6.527
 1343TIP3   OH2 3985   2.757   3.906   6.545
 1343TIP3    H1 3986   2.738   3.957   6.466
 1343TIP3    H2 3987   2.830   3.953   6.587
 1344TIP3   OH2 3988   7.169   3.619   0.843
 1344TIP3    H1 3989   7.220   3.544   0.873
 1344TIP3    H2 3990   7.207   3.694   0.889
 1345TIP3   OH2 3991   7.457   6.886   2.593
 1345TIP3    H1 3992   7.534   6.864   2.541
 1345TIP3    H2 3993   7.485   6.873   2.684
 1346TIP3   OH2 3994   8.152   1.450   0.958
 1346TIP3    H1 3995   8.177   1.411   1.042
 1346TIP3    H2 3996   8.193   1.394   0.892
 1347TIP3   OH2 3997   6.095   6.820   5.144
 1347TIP3    H1 3998   6.091   6.729   5.114
 1347TIP3    H2 3999   6.022   6.829   5.205
 1348TIP3   OH2 4000   7.662   1.696   5.736
 1348TIP3    H1 4001   7.604   1.649   5.676
 1348TIP3    H2 4002   7.717   1.750   5.679
 1349TIP3   OH2 4003   3.845   4.464   6.603
 1349TIP3    H1 4004   3.887   4.514   6.533
 1349TIP3    H2 4005   3.910   4.461   6.673
 1350TIP3   OH2 4006   8.126   0.211   0.143
 1350TIP3    H1 4007   8.056   0.260   0.186
 1350TIP3    H2 4008   8.123   0.240   0.052
 1351TIP3   OH2 4009   7.392   1.447   0.171
 1351TIP3    H1 4010   7.371   1.489   0.254
 1351TIP3    H2 4011   7.358   1.506   0.105
 1352TIP3   OH2 4012   4.632   1.097   3.690
 1352TIP3    H1 4013   4.662   1.104   3.599
 1352TIP3    H2 4014   4.538   1.081   3.683
 1353TIP3   OH2 4015   3.039   0.782   2.693
 1353TIP3    H1 4016   3.089   0.717   2.644
 1353TIP3    H2 4017   2.967   0.733   2.732
 1354TIP3   OH2 4018   2.787   2.930   1.958
 1354TIP3    H1 4019   2.842   2.894   2.029
 1354TIP3    H2 4020   2.794   2.865   1.888
 1355TIP3   OH2 4021   5.924   6.191   1.798
 1355TIP3    H1 4022   5.909   6.239   1.880
 1355TIP3    H2 4023   6.019   6.182   1.792
 1356TIP3   OH2 4024   6.126   5.012   2.779
 1356TIP3    H1 4025   6.190   5.069   2.736
 1356TIP3    H2 4026   6.137   5.030   2.873
 1357TIP3   OH2 4027   2.253   1.154   3.737
 1357TIP3    H1 4028   2.247   1.187   3.647
 1357TIP3    H2 4029   2.208   1.221   3.790
 1358TIP3   OH2 4030   2.375   6.902   0.033
 1358TIP3    H1 4031   2.342   6.829   0.084
 1358TIP3    H2 4032   2.456   6.927   0.077
 1359TIP3   OH2 4033   4.352   1.192   2.183
 1359TIP3    H1 4034   4.355   1.215   2.090
 1359TIP3    H2 4035   4.379   1.271   2.229
 1360TIP3   OH2 4036   1.708   4.579   4.454
 1360TIP3    H1 4037   1.784   4.556   4.507
 1360TIP3    H2 4038   1.662   4.644   4.507
 1361TIP3   OH2 4039   0.205   2.101   6.135
 1361TIP3    H1 4040   0.165   2.065   6.056
 1361TIP3    H2 4041   0.178   2.193   6.135
 1362TIP3   OH2 4042   7.522   6.524   0.065
 1362TIP3    H1 4043   7.502   6.512  -0.028
 1362TIP3    H2 4044   7.520   6.618   0.078
 1363TIP3   OH2 4045   4.711   1.901   5.949
 1363TIP3    H1 4046   4.732   1.981   5.899
 1363TIP3    H2 4047   4.704   1.931   6.040
 1364TIP3   OH2 4048   0.817   3.563   6.197
 1364TIP3    H1 4049   0.734   3.533   6.161
 1364TIP3    H2 4050   0.832   3.648   6.154
 1365TIP3   OH2 4051   2.339   6.354   6.478
 1365TIP3    H1 4052   2.299   6.437   6.501
 1365TIP3    H2 4053   2.331   6.348   6.382
 1366TIP3   OH2 4054   1.990   4.924   6.319
 1366TIP3    H1 4055   2.081   4.898   6.338
 1366TIP3    H2 4056   1.945   4.913   6.403
 1367TIP3   OH2 4057   1.306   2.546   5.187
 1367TIP3    H1 4058   1.391   2.580   5.157
 1367TIP3    H2 4059   1.244   2.615   5.164
 1368TIP3   OH2 4060   5.833   0.334   2.684
 1368TIP3    H1 4061   5.847   0.256   2.630
 1368TIP3    H2 4062   5.913   0.341   2.735
 1369TIP3   OH2 4063   3.231   0.189   3.195
 1369TIP3    H1 4064   3.305   0.223   3.246
 1369TIP3    H2 4065   3.272   0.146   3.120
 1370TIP3   OH2 4066   6.691   4.547   0.305
 1370TIP3    H1 4067   6.730   4.614   0.361
 1370TIP3    H2 4068   6.612   4.519   0.352
 1371TIP3   OH2 4069   3.255   0.463   0.185
 1371TIP3    H1 4070   3.248   0.553   0.152
 1371TIP3    H2 4071   3.168   0.425   0.171
 1372TIP3   OH2 4072   4.104   1.808   2.867
 1372TIP3    H1 4073   4.022   1.814   2.818
 1372TIP3    H2 4074   4.096   1.725   2.915
 1373TIP3   OH2 4075   7.936   3.840   6.613
 1373TIP3    H1 4076   7.920   3.934   6.604
 1373TIP3    H2 4077   7.857   3.798   6.578
 1374TIP3   OH2 4078   2.996   3.106   0.569
 1374TIP3    H1 4079   2.937   3.126   0.642
 1374TIP3    H2 4080   3.033   3.020   0.591
 1375TIP3   OH2 4081   3.011   4.242   3.132
 1375TIP3    H1 4082   2.915   4.240   3.136
 1375TIP3    H2 4083   3.037   4.150   3.124
 1376TIP3   OH2 4084   1.879   2.651   4.838
 1376TIP3    H1 4085   1.871   2.654   4.934
 1376TIP3    H2 4086   1.894   2.558   4.819
 1377TIP3   OH2 4087   0.169   3.602   3.685
 1377TIP3    H1 4088   0.182   3.662   3.759
 1377TIP3    H2 4089   0.155   3.659   3.610
 1378TIP3   OH2 4090   7.002   1.937   5.145
 1378TIP3    H1 4091   6.988   2.032   5.144
 1378TIP3    H2 4092   6.919   1.900   5.117
 1379TIP3   OH2 4093   0.266   3.384   3.831
 1379TIP3    H1 4094   0.255   3.436   3.910
 1379TIP3    H2 4095   0.238   3.443   3.760
 1380TIP3   OH2 4096   4.797   2.267   4.979
 1380TIP3    H1 4097   4.799   2.240   4.888
 1380TIP3    H2 4098   4.791   2.185   5.028
 1381TIP3   OH2 4099   0.772   1.689   1.484
 1381TIP3    H1 4100   0.733   1.606   1.513
 1381TIP3    H2 4101   0.705   1.755   1.505
 1382TIP3   OH2 4102   6.210   6.224   1.016
 1382TIP3    H1 4103   6.304   6.237   1.021
 1382TIP3    H2 4104   6.187   6.245   0.925
 1383TIP3   OH2 4105   7.498   5.405   5.956
 1383TIP3    H1 4106   7.449   5.450   5.887
 1383TIP3    H2 4107   7.441   5.408   6.032
 1384TIP3   OH2 4108   4.799   5.357   5.977
 1384TIP3    H1 4109   4.724   5.380   6.032
 1384TIP3    H2 4110   4.761   5.336   5.892
 1385TIP3   OH2 4111   5.628   3.737   3.972
 1385TIP3    H1 4112   5.583   3.692   3.900
 1385TIP3    H2 4113   5.686   3.799   3.928
 1386TIP3   OH2 4114   2.077   7.672   0.861
 1386TIP3    H1 4115   2.152   7.626   0.824
 1386TIP3    H2 4116   2.096   7.678   0.955
 1387TIP3   OH2 4117   1.225   6.154   6.499
 1387TIP3    H1 4118   1.208   6.084   6.563
 1387TIP3    H2 4119   1.257   6.107   6.422
 1388TIP3   OH2 4120   1.112   5.943   5.424
 1388TIP3    H1 4121   1.191   5.911   5.381
 1388TIP3    H2 4122   1.124   5.920   5.516
 1389TIP3   OH2 4123   1.474   7.683   5.318
 1389TIP3    H1 4124   1.545   7.746   5.310
 1389TIP3    H2 4125   1.518   7.600   5.340
 1390TIP3   OH2 4126   0.290   4.846   4.134
 1390TIP3    H1 4127   0.304   4.856   4.040
 1390TIP3    H2 4128   0.214   4.901   4.153
 1391TIP3   OH2 4129   3.453   0.320   0.039
 1391TIP3    H1 4130   3.387   0.376   0.080
 1391TIP3    H2 4131   3.535   0.347   0.079
 1392TIP3   OH2 4132   4.939   0.220   1.455
 1392TIP3    H1 4133   4.924   0.206   1.362
 1392TIP3    H2 4134   5.034   0.221   1.465
 1393TIP3   OH2 4135   6.623   4.961   3.991
 1393TIP3    H1 4136   6.539   4.970   4.036
 1393TIP3    H2 4137   6.678   4.914   4.054
 1394TIP3   OH2 4138   3.321   2.236   6.750
 1394TIP3    H1 4139   3.233   2.261   6.722
 1394TIP3    H2 4140   3.372   2.317   6.743
 1395TIP3   OH2 4141   1.444   2.068   5.926
 1395TIP3    H1 4142   1.400   1.997   5.972
 1395TIP3    H2 4143   1.538   2.050   5.939
 1396TIP3   OH2 4144   3.413   0.249   3.412
 1396TIP3    H1 4145   3.337   0.251   3.470
 1396TIP3    H2 4146   3.488   0.232   3.470
 1397TIP3   OH2 4147   6.327   6.517   4.957
 1397TIP3    H1 4148   6.360   6.588   4.902
 1397TIP3    H2 4149   6.289   6.455   4.894
 1398TIP3   OH2 4150   1.822   5.877   2.635
 1398TIP3    H1 4151   1.875   5.956   2.643
 1398TIP3    H2 4152   1.759   5.897   2.565
 1399TIP3   OH2 4153   4.223   1.254   5.765
 1399TIP3    H1 4154   4.196   1.290   5.849
 1399TIP3    H2 4155   4.304   1.300   5.744
 1400TIP3   OH2 4156   5.419   7.118   3.872
 1400TIP3    H1 4157   5.444   7.157   3.788
 1400TIP3    H2 4158   5.461   7.032   3.872
 1401TIP3   OH2 4159   8.067   1.924   5.221
 1401TIP3    H1 4160   7.976   1.947   5.237
 1401TIP3    H2 4161   8.079   1.838   5.262
 1402TIP3   OH2 4162   0.994   6.329   2.324
 1402TIP3    H1 4163   0.999   6.265   2.395
 1402TIP3    H2 4164   1.083   6.364   2.316
 1403TIP3   OH2 4165   6.501   3.566   4.381
 1403TIP3    H1 4166   6.451   3.629   4.433
 1403TIP3    H2 4167   6.590   3.602   4.377
 1404TIP3   OH2 4168   0.397   3.288   2.960
 1404TIP3    H1 4169   0.362   3.206   2.995
 1404TIP3    H2 4170   0.398   3.348   3.035
 1405TIP3   OH2 4171   7.514   6.171   5.977
 1405TIP3    H1 4172   7.504   6.205   6.066
 1405TIP3    H2 4173   7.559   6.241   5.929
 1406TIP3   OH2 4174   6.280   2.912   3.622
 1406TIP3    H1 4175   6.363   2.891   3.579
 1406TIP3    H2 4176   6.225   2.947   3.552
 1407TIP3   OH2 4177   0.865   4.599   1.821
 1407TIP3    H1 4178   0.820   4.536   1.878
 1407TIP3    H2 4179   0.872   4.554   1.737
 1408TIP3   OH2 4180   1.618   0.040   4.232
 1408TIP3    H1 4181   1.563  -0.036   4.213
 1408TIP3    H2 4182   1.689   0.035   4.169
 1409TIP3   OH2 4183   6.443   2.946   0.567
 1409TIP3    H1 4184   6.493   3.027   0.552
 1409TIP3    H2 4185   6.410   2.955   0.656
 1410TIP3   OH2 4186   6.387   4.596   5.270
 1410TIP3    H1 4187   6.427   4.669   5.222
 1410TIP3    H2 4188   6.422   4.518   5.228
 1411TIP3   OH2 4189   5.696   4.250   4.664
 1411TIP3    H1 4190   5.791   4.260   4.656
 1411TIP3    H2 4191   5.663   4.339   4.677
 1412TIP3   OH2 4192   6.129   1.845   2.688
 1412TIP3    H1 4193   6.154   1.763   2.731
 1412TIP3    H2 4194   6.191   1.910   2.722
 1413TIP3   OH2 4195   5.207   1.953   1.798
 1413TIP3    H1 4196   5.140   1.931   1.862
 1413TIP3    H2 4197   5.290   1.945   1.846
 1414TIP3   OH2 4198   7.594   1.488   6.178
 1414TIP3    H1 4199   7.516   1.530   6.213
 1414TIP3    H2 4200   7.661   1.556   6.180
 1415TIP3   OH2 4201   7.649   1.583   0.162
 1415TIP3    H1 4202   7.661   1.577   0.257
 1415TIP3    H2 4203   7.589   1.511   0.141
 1416TIP3   OH2 4204   1.028   4.977   5.880
 1416TIP3    H1 4205   0.975   4.996   5.804
 1416TIP3    H2 4206   1.027   5.058   5.932
 1417TIP3   OH2 4207   7.070   1.676   3.547
 1417TIP3    H1 4208   7.067   1.710   3.457
 1417TIP3    H2 4209   6.978   1.669   3.572
 1418TIP3   OH2 4210   4.118   3.954   5.243
 1418TIP3    H1 4211   4.175   4.031   5.240
 1418TIP3    H2 4212   4.167   3.890   5.296
 1419TIP3   OH2 4213   4.852   5.518   2.440
 1419TIP3    H1 4214   4.944   5.541   2.442
 1419TIP3    H2 4215   4.847   5.443   2.381
 1420TIP3   OH2 4216   6.235   3.535   4.591
 1420TIP3    H1 4217   6.236   3.618   4.543
 1420TIP3    H2 4218   6.280   3.553   4.673
 1421TIP3   OH2 4219   1.776   0.927   6.038
 1421TIP3    H1 4220   1.722   0.853   6.010
 1421TIP3    H2 4221   1.746   0.946   6.127
 1422TIP3   OH2 4222   5.807   4.559   3.756
 1422TIP3    H1 4223   5.879   4.555   3.693
 1422TIP3    H2 4224   5.729   4.542   3.704
 1423TIP3   OH2 4225   1.299   3.030   4.836
 1423TIP3    H1 4226   1.296   3.021   4.932
 1423TIP3    H2 4227   1.207   3.040   4.810
 1424TIP3   OH2 4228   4.061   1.209   4.849
 1424TIP3    H1 4229   4.005   1.220   4.927
 1424TIP3    H2 4230   4.002   1.224   4.775
 1425TIP3   OH2 4231   1.673   1.940   6.601
 1425TIP3    H1 4232   1.595   1.966   6.553
 1425TIP3    H2 4233   1.744   1.946   6.537
 1426TIP3   OH2 4234   0.764   2.114   2.115
 1426TIP3    H1 4235   0.848   2.131   2.073
 1426TIP3    H2 4236   0.788   2.068   2.196
 1427TIP3   OH2 4237   0.441   0.753   0.551
 1427TIP3    H1 4238   0.450   0.661   0.576
 1427TIP3    H2 4239   0.487   0.760   0.467
 1428TIP3   OH2 4240   5.948   6.256   2.095
 1428TIP3    H1 4241   5.953   6.351   2.091
 1428TIP3    H2 4242   6.023   6.230   2.149
 1429TIP3   OH2 4243   0.510   6.742   2.699
 1429TIP3    H1 4244   0.486   6.774   2.786
 1429TIP3    H2 4245   0.605   6.728   2.704
 1430TIP3   OH2 4246   1.441   0.126   4.871
 1430TIP3    H1 4247   1.457   0.091   4.783
 1430TIP3    H2 4248   1.515   0.093   4.923
 1431TIP3   OH2 4249   0.098   4.131   2.872
 1431TIP3    H1 4250   0.128   4.054   2.919
 1431TIP3    H2 4251   0.140   4.125   2.786
 1432TIP3   OH2 4252   0.967   2.575   3.760
 1432TIP3    H1 4253   0.953   2.539   3.673
 1432TIP3    H2 4254   0.958   2.670   3.748
 1433TIP3   OH2 4255   4.179   3.933   6.314
 1433TIP3    H1 4256   4.133   3.851   6.330
 1433TIP3    H2 4257   4.113   4.001   6.327
 1434TIP3   OH2 4258   2.796   2.282   2.669
 1434TIP3    H1 4259   2.789   2.371   2.704
 1434TIP3    H2 4260   2.788   2.294   2.574
 1435TIP3   OH2 4261   3.784   7.296   6.463
 1435TIP3    H1 4262   3.873   7.262   6.453
 1435TIP3    H2 4263   3.760   7.323   6.374
 1436TIP3   OH2 4264   7.834   4.221   5.422
 1436TIP3    H1 4265   7.850   4.199   5.330
 1436TIP3    H2 4266   7.816   4.315   5.421
 1437TIP3   OH2 4267   3.771   5.767   1.554
 1437TIP3    H1 4268   3.858   5.729   1.565
 1437TIP3    H2 4269   3.717   5.693   1.525
 1438TIP3   OH2 4270   4.255   1.879   5.052
 1438TIP3    H1 4271   4.206   1.852   4.974
 1438TIP3    H2 4272   4.271   1.973   5.038
 1439TIP3   OH2 4273   4.456   1.305   4.258
 1439TIP3    H1 4274   4.398   1.373   4.225
 1439TIP3    H2 4275   4.448   1.233   4.195
 1440TIP3   OH2 4276   3.095   6.951   5.419
 1440TIP3    H1 4277   3.037   7.025   5.437
 1440TIP3    H2 4278   3.049   6.900   5.353
 1441TIP3   OH2 4279   0.608   5.671   6.039
 1441TIP3    H1 4280   0.634   5.725   6.113
 1441TIP3    H2 4281   0.583   5.734   5.971
 1442TIP3   OH2 4282   5.655   4.588   3.025
 1442TIP3    H1 4283   5.563   4.567   3.009
 1442TIP3    H2 4284   5.655   4.680   3.052
 1443TIP3   OH2 4285   3.560   6.162   6.698
 1443TIP3    H1 4286   3.622   6.095   6.727
 1443TIP3    H2 4287   3.543   6.141   6.606
 1444TIP3   OH2 4288   7.118   7.600   2.122
 1444TIP3    H1 4289   7.167   7.603   2.204
 1444TIP3    H2 4290   7.184   7.576   2.056
 1445TIP3   OH2 4291   7.299   3.066   5.310
 1445TIP3    H1 4292   7.281   3.102   5.397
 1445TIP3    H2 4293   7.336   2.980   5.326
 1446TIP3   OH2 4294   5.180   0.527   2.728
 1446TIP3    H1 4295   5.165   0.621   2.719
 1446TIP3    H2 4296   5.243   0.518   2.799
 1447TIP3   OH2 4297   5.387   5.628   1.137
 1447TIP3    H1 4298   5.317   5.688   1.162
 1447TIP3    H2 4299   5.350   5.541   1.151
 1448TIP3   OH2 4300   7.871   7.277   6.082
 1448TIP3    H1 4301   7.792   7.279   6.137
 1448TIP3    H2 4302   7.849   7.216   6.011
 1449TIP3   OH2 4303   4.385   1.272   5.434
 1449TIP3    H1 4304   4.293   1.263   5.410
 1449TIP3    H2 4305   4.395   1.216   5.511
 1450TIP3   OH2 4306   5.415   3.352   4.006
 1450TIP3    H1 4307   5.329   3.367   3.968
 1450TIP3    H2 4308   5.402   3.366   4.100
 1451TIP3   OH2 4309   5.383   7.218   0.323
 1451TIP3    H1 4310   5.397   7.186   0.234
 1451TIP3    H2 4311   5.324   7.154   0.363
 1452TIP3   OH2 4312   2.792   6.008   2.298
 1452TIP3    H1 4313   2.828   5.931   2.255
 1452TIP3    H2 4314   2.835   6.082   2.254
 1453TIP3   OH2 4315   3.863   5.440   3.072
 1453TIP3    H1 4316   3.776   5.472   3.048
 1453TIP3    H2 4317   3.923   5.508   3.040
 1454TIP3   OH2 4318   1.361   2.330   3.967
 1454TIP3    H1 4319   1.403   2.346   4.052
 1454TIP3    H2 4320   1.309   2.251   3.981
 1455TIP3   OH2 4321   6.439   3.528   4.999
 1455TIP3    H1 4322   6.411   3.599   4.941
 1455TIP3    H2 4323   6.387   3.539   5.078
 1456TIP3   OH2 4324   1.360   7.434   2.330
 1456TIP3    H1 4325   1.432   7.432   2.392
 1456TIP3    H2 4326   1.391   7.489   2.259
 1457TIP3   OH2 4327   3.832   0.749   5.484
 1457TIP3    H1 4328   3.758   0.701   5.447
 1457TIP3    H2 4329   3.805   0.772   5.573
 1458TIP3   OH2 4330   6.907   0.970   1.817
 1458TIP3    H1 4331   6.921   0.910   1.744
 1458TIP3    H2 4332   6.852   0.921   1.879
 1459TIP3   OH2 4333   8.021   7.578   2.402
 1459TIP3    H1 4334   8.116   7.572   2.389
 1459TIP3    H2 4335   7.993   7.645   2.339
 1460TIP3   OH2 4336   4.623   3.233   2.130
 1460TIP3    H1 4337   4.595   3.283   2.206
 1460TIP3    H2 4338   4.647   3.299   2.065
 1461TIP3   OH2 4339   5.038   5.710   5.280
 1461TIP3    H1 4340   5.097   5.785   5.292
 1461TIP3    H2 4341   5.053   5.683   5.190
 1462TIP3   OH2 4342   2.493   5.125   3.212
 1462TIP3    H1 4343   2.527   5.047   3.255
 1462TIP3    H2 4344   2.506   5.195   3.275
 1463TIP3   OH2 4345   7.504   4.573   2.645
 1463TIP3    H1 4346   7.545   4.658   2.664
 1463TIP3    H2 4347   7.554   4.511   2.697
 1464TIP3   OH2 4348   3.184   4.100   5.390
 1464TIP3    H1 4349   3.216   4.169   5.331
 1464TIP3    H2 4350   3.260   4.045   5.407
 1465TIP3   OH2 4351   2.213   0.433   3.347
 1465TIP3    H1 4352   2.216   0.495   3.420
 1465TIP3    H2 4353   2.300   0.393   3.346
 1466TIP3   OH2 4354   5.931   0.477   1.299
 1466TIP3    H1 4355   5.995   0.547   1.314
 1466TIP3    H2 4356   5.955   0.440   1.214
 1467TIP3   OH2 4357   6.831   4.846   3.062
 1467TIP3    H1 4358   6.777   4.791   3.007
 1467TIP3    H2 4359   6.868   4.911   3.002
 1468TIP3   OH2 4360   7.383   6.767   3.109
 1468TIP3    H1 4361   7.295   6.780   3.074
 1468TIP3    H2 4362   7.369   6.750   3.202
 1469TIP3   OH2 4363   1.719   1.414   4.019
 1469TIP3    H1 4364   1.766   1.497   4.020
 1469TIP3    H2 4365   1.764   1.360   4.083
 1470TIP3   OH2 4366   6.520   1.696   5.251
 1470TIP3    H1 4367   6.539   1.644   5.329
 1470TIP3    H2 4368   6.462   1.765   5.282
 1471TIP3   OH2 4369   1.893   0.256   6.215
 1471TIP3    H1 4370   1.814   0.230   6.167
 1471TIP3    H2 4371   1.889   0.351   6.218
 1472TIP3   OH2 4372   2.700   3.247   3.666
 1472TIP3    H1 4373   2.761   3.320   3.676
 1472TIP3    H2 4374   2.649   3.249   3.747
 1473TIP3   OH2 4375   0.767   6.709   5.156
 1473TIP3    H1 4376   0.843   6.651   5.158
 1473TIP3    H2 4377   0.692   6.651   5.144
 1474TIP3   OH2 4378   8.233   2.801   0.614
 1474TIP3    H1 4379   8.242   2.798   0.710
 1474TIP3    H2 4380   8.193   2.717   0.592
 1475TIP3   OH2 4381   1.302   5.240   1.990
 1475TIP3    H1 4382   1.269   5.226   1.901
 1475TIP3    H2 4383   1.236   5.294   2.032
 1476TIP3   OH2 4384   2.360   0.056   1.168
 1476TIP3    H1 4385   2.441   0.009   1.152
 1476TIP3    H2 4386   2.347   0.053   1.263
 1477TIP3   OH2 4387   8.270   2.535   1.074
 1477TIP3    H1 4388   8.263   2.604   1.141
 1477TIP3    H2 4389   8.194   2.479   1.090
 1478TIP3   OH2 4390   4.031   7.127   3.619
 1478TIP3    H1 4391   4.035   7.047   3.566
 1478TIP3    H2 4392   3.990   7.192   3.561
 1479TIP3   OH2 4393   0.913   4.180   2.142
 1479TIP3    H1 4394   1.009   4.191   2.139
 1479TIP3    H2 4395   0.879   4.270   2.146
 1480TIP3   OH2 4396   5.346   4.123   3.954
 1480TIP3    H1 4397   5.342   4.060   3.882
 1480TIP3    H2 4398   5.421   4.096   4.006
 1481TIP3   OH2 4399   4.699   5.981   0.719
 1481TIP3    H1 4400   4.611   5.943   0.720
 1481TIP3    H2 4401   4.700   6.038   0.643
 1482TIP3   OH2 4402   2.434   5.525   0.072
 1482TIP3    H1 4403   2.444   5.609   0.028
 1482TIP3    H2 4404   2.419   5.462   0.001
 1483TIP3   OH2 4405   5.325   0.610  -0.016
 1483TIP3    H1 4406   5.343   0.666   0.059
 1483TIP3    H2 4407   5.391   0.541  -0.011
 1484TIP3   OH2 4408   6.467   4.634   0.766
 1484TIP3    H1 4409   6.431   4.549   0.789
 1484TIP3    H2 4410   6.391   4.687   0.743
 1485TIP3   OH2 4411   0.392   5.483   1.227
 1485TIP3    H1 4412   0.311   5.437   1.204
 1485TIP3    H2 4413   0.450   5.469   1.151
 1486TIP3   OH2 4414   7.906   0.886   3.029
 1486TIP3    H1 4415   7.916   0.981   3.024
 1486TIP3    H2 4416   7.844   0.865   2.959
 1487TIP3   OH2 4417   5.328   6.752   5.606
 1487TIP3    H1 4418   5.256   6.813   5.588
 1487TIP3    H2 4419   5.284   6.671   5.630
 1488TIP3   OH2 4420   1.936   4.024   3.823
 1488TIP3    H1 4421   1.937   4.041   3.917
 1488TIP3    H2 4422   1.843   4.023   3.800
 1489TIP3   OH2 4423   1.330   1.837   2.070
 1489TIP3    H1 4424   1.304   1.747   2.054
 1489TIP3    H2 4425   1.290   1.887   1.999
 1490TIP3   OH2 4426   0.044   6.085   6.621
 1490TIP3    H1 4427   0.084   6.034   6.691
 1490TIP3    H2 4428   0.101   6.161   6.612
 1491TIP3   OH2 4429   5.807   7.645   6.369
 1491TIP3    H1 4430   5.764   7.658   6.454
 1491TIP3    H2 4431   5.836   7.554   6.371
 1492TIP3   OH2 4432   2.436   0.139   0.043
 1492TIP3    H1 4433   2.515   0.085   0.049
 1492TIP3    H2 4434   2.446   0.188  -0.039
 1493TIP3   OH2 4435   2.713   4.717   2.682
 1493TIP3    H1 4436   2.781   4.656   2.714
 1493TIP3    H2 4437   2.713   4.788   2.746
 1494TIP3   OH2 4438   6.826   6.516   2.649
 1494TIP3    H1 4439   6.801   6.444   2.708
 1494TIP3    H2 4440   6.871   6.473   2.577
 1495TIP3   OH2 4441   4.685   2.083   5.747
 1495TIP3    H1 4442   4.679   2.157   5.686
 1495TIP3    H2 4443   4.648   2.009   5.699
 1496TIP3   OH2 4444   1.005   0.002   1.801
 1496TIP3    H1 4445   1.069  -0.069   1.796
 1496TIP3    H2 4446   1.056   0.077   1.833
 1497TIP3   OH2 4447   0.082   0.488   2.125
 1497TIP3    H1 4448   0.162   0.452   2.089
 1497TIP3    H2 4449   0.078   0.453   2.214
 1498TIP3   OH2 4450   8.105   7.053   3.774
 1498TIP3    H1 4451   8.165   6.990   3.814
 1498TIP3    H2 4452   8.021   7.008   3.770
 1499TIP3   OH2 4453   6.842   2.076   1.381
 1499TIP3    H1 4454   6.831   2.158   1.428
 1499TIP3    H2 4455   6.925   2.041   1.413
 1500TIP3   OH2 4456   2.215   6.022   5.655
 1500TIP3    H1 4457   2.127   5.987   5.663
 1500TIP3    H2 4458   2.206   6.094   5.592
 1501TIP3   OH2 4459   2.109   1.161   2.893
 1501TIP3    H1 4460   2.192   1.145   2.938
 1501TIP3    H2 4461   2.130   1.229   2.829
 1502TIP3   OH2 4462   3.738   7.471   6.731
 1502TIP3    H1 4463   3.812   7.479   6.791
 1502TIP3    H2 4464   3.704   7.560   6.723
 1503TIP3   OH2 4465   7.746   3.379   3.937
 1503TIP3    H1 4466   7.795   3.446   3.889
 1503TIP3    H2 4467   7.786   3.377   4.024
 1504TIP3   OH2 4468   0.526   0.017   0.192
 1504TIP3    H1 4469   0.450   0.067   0.220
 1504TIP3    H2 4470   0.493  -0.042   0.124
 1505TIP3   OH2 4471   4.593   6.239   3.218
 1505TIP3    H1 4472   4.533   6.230   3.291
 1505TIP3    H2 4473   4.571   6.324   3.179
 1506TIP3   OH2 4474   2.577   6.601   0.711
 1506TIP3    H1 4475   2.635   6.676   0.704
 1506TIP3    H2 4476   2.546   6.602   0.802
 1507TIP3   OH2 4477   7.565   0.895   3.365
 1507TIP3    H1 4478   7.519   0.879   3.282
 1507TIP3    H2 4479   7.558   0.813   3.413
 1508TIP3   OH2 4480   1.472   0.069   5.977
 1508TIP3    H1 4481   1.422   0.137   6.022
 1508TIP3    H2 4482   1.411   0.035   5.911
 1509TIP3   OH2 4483   3.892   4.057   2.922
 1509TIP3    H1 4484   3.894   4.148   2.891
 1509TIP3    H2 4485   3.980   4.024   2.902
 1510TIP3   OH2 4486   2.303   0.394   2.691
 1510TIP3    H1 4487   2.277   0.324   2.751
 1510TIP3    H2 4488   2.297   0.355   2.604
 1511TIP3   OH2 4489   0.030   6.080   4.145
 1511TIP3    H1 4490   0.087   6.154   4.165
 1511TIP3    H2 4491   0.007   6.043   4.231
 1512TIP3   OH2 4492   6.416   0.300   1.868
 1512TIP3    H1 4493   6.464   0.254   1.938
 1512TIP3    H2 4494   6.434   0.249   1.789
 1513TIP3   OH2 4495   2.447   4.914   0.245
 1513TIP3    H1 4496   2.447   4.965   0.326
 1513TIP3    H2 4497   2.471   4.977   0.177
 1514TIP3   OH2 4498   2.975   0.506   4.601
 1514TIP3    H1 4499   2.945   0.542   4.684
 1514TIP3    H2 4500   3.014   0.581   4.556
 1515TIP3   OH2 4501   3.342   6.667   3.686
 1515TIP3    H1 4502   3.256   6.657   3.726
 1515TIP3    H2 4503   3.400   6.612   3.739
 1516TIP3   OH2 4504   7.195   5.986   5.244
 1516TIP3    H1 4505   7.189   5.955   5.334
 1516TIP3    H2 4506   7.243   5.917   5.198
 1517TIP3   OH2 4507   0.123   3.128   3.802
 1517TIP3    H1 4508   0.070   3.115   3.723
 1517TIP3    H2 4509   0.164   3.213   3.790
 1518TIP3   OH2 4510   7.949   5.971   6.117
 1518TIP3    H1 4511   7.933   5.929   6.201
 1518TIP3    H2 4512   7.881   6.037   6.110
 1519TIP3   OH2 4513   0.477   0.205   4.913
 1519TIP3    H1 4514   0.440   0.187   4.999
 1519TIP3    H2 4515   0.527   0.127   4.892
 1520TIP3   OH2 4516   6.183   7.032   6.565
 1520TIP3    H1 4517   6.214   6.977   6.637
 1520TIP3    H2 4518   6.124   7.095   6.607
 1521TIP3   OH2 4519   2.214   1.212   0.927
 1521TIP3    H1 4520   2.234   1.262   1.006
 1521TIP3    H2 4521   2.120   1.196   0.933
 1522TIP3   OH2 4522   6.339   0.154   0.335
 1522TIP3    H1 4523   6.308   0.221   0.396
 1522TIP3    H2 4524   6.377   0.086   0.390
 1523TIP3   OH2 4525   6.860   3.867   3.109
 1523TIP3    H1 4526   6.952   3.858   3.085
 1523TIP3    H2 4527   6.813   3.835   3.032
 1524TIP3   OH2 4528   4.488   5.178   0.322
 1524TIP3    H1 4529   4.547   5.189   0.397
 1524TIP3    H2 4530   4.504   5.255   0.268
 1525TIP3   OH2 4531   0.275   4.560   2.110
 1525TIP3    H1 4532   0.208   4.493   2.096
 1525TIP3    H2 4533   0.316   4.536   2.193
 1526TIP3   OH2 4534   6.607   6.780   0.025
 1526TIP3    H1 4535   6.577   6.691   0.007
 1526TIP3    H2 4536   6.702   6.775   0.018
 1527TIP3   OH2 4537   3.294   6.724   1.689
 1527TIP3    H1 4538   3.341   6.733   1.606
 1527TIP3    H2 4539   3.346   6.661   1.739
 1528TIP3   OH2 4540   0.279   7.549   1.918
 1528TIP3    H1 4541   0.244   7.638   1.908
 1528TIP3    H2 4542   0.364   7.552   1.875
 1529TIP3   OH2 4543   1.552   0.592   2.745
 1529TIP3    H1 4544   1.468   0.567   2.784
 1529TIP3    H2 4545   1.608   0.516   2.759
 1530TIP3   OH2 4546   0.222   0.774   6.050
 1530TIP3    H1 4547   0.164   0.808   6.118
 1530TIP3    H2 4548   0.308   0.769   6.092
 1531TIP3   OH2 4549   5.110   2.273   1.940
 1531TIP3    H1 4550   5.050   2.200   1.922
 1531TIP3    H2 4551   5.130   2.309   1.854
 1532TIP3   OH2 4552   3.189   3.788   2.905
 1532TIP3    H1 4553   3.228   3.862   2.952
 1532TIP3    H2 4554   3.124   3.753   2.965
 1533TIP3   OH2 4555   4.474   6.422   0.794
 1533TIP3    H1 4556   4.568   6.402   0.802
 1533TIP3    H2 4557   4.433   6.338   0.774
 1534TIP3   OH2 4558   0.245   3.535   4.389
 1534TIP3    H1 4559   0.186   3.569   4.321
 1534TIP3    H2 4560   0.197   3.550   4.471
 1535TIP3   OH2 4561   7.471   6.432   6.233
 1535TIP3    H1 4562   7.552   6.472   6.202
 1535TIP3    H2 4563   7.459   6.467   6.321
 1536TIP3   OH2 4564   4.450   2.124   1.584
 1536TIP3    H1 4565   4.475   2.127   1.676
 1536TIP3    H2 4566   4.486   2.205   1.547
 1537TIP3   OH2 4567   5.738   2.448   5.502
 1537TIP3    H1 4568   5.739   2.446   5.598
 1537TIP3    H2 4569   5.783   2.529   5.479
 1538TIP3   OH2 4570   1.103   4.679   2.035
 1538TIP3    H1 4571   1.076   4.768   2.055
 1538TIP3    H2 4572   1.040   4.649   1.969
 1539TIP3   OH2 4573   5.521   7.447   3.444
 1539TIP3    H1 4574   5.543   7.497   3.522
 1539TIP3    H2 4575   5.577   7.483   3.375
 1540TIP3   OH2 4576   7.378   1.751   3.122
 1540TIP3    H1 4577   7.319   1.678   3.105
 1540TIP3    H2 4578   7.465   1.717   3.102
 1541TIP3   OH2 4579   2.183   6.103   6.394
 1541TIP3    H1 4580   2.266   6.095   6.346
 1541TIP3    H2 4581   2.174   6.197   6.410
 1542TIP3   OH2 4582   2.407   0.249   1.599
 1542TIP3    H1 4583   2.472   0.314   1.573
 1542TIP3    H2 4584   2.372   0.282   1.682
 1543TIP3   OH2 4585   6.546   7.714   6.583
 1543TIP3    H1 4586   6.602   7.656   6.634
 1543TIP3    H2 4587   6.457   7.689   6.608
 1544TIP3   OH2 4588   0.919   1.788   6.272
 1544TIP3    H1 4589   0.870   1.836   6.205
 1544TIP3    H2 4590   0.863   1.792   6.350
 1545TIP3   OH2 4591   6.382   7.669   4.230
 1545TIP3    H1 4592   6.300   7.711   4.205
 1545TIP3    H2 4593   6.398   7.606   4.160
 1546TIP3   OH2 4594   5.519   3.831   4.235
 1546TIP3    H1 4595   5.578   3.812   4.163
 1546TIP3    H2 4596   5.433   3.844   4.194
 1547TIP3   OH2 4597   5.690   7.294   1.559
 1547TIP3    H1 4598   5.724   7.352   1.627
 1547TIP3    H2 4599   5.613   7.254   1.598
 1548TIP3   OH2 4600   7.093   1.435   5.405
 1548TIP3    H1 4601   7.182   1.455   5.377
 1548TIP3    H2 4602   7.102   1.359   5.463
 1549TIP3   OH2 4603   5.157   7.244   3.567
 1549TIP3    H1 4604   5.147   7.184   3.494
 1549TIP3    H2 4605   5.068   7.277   3.583
 1550TIP3   OH2 4606   6.923   2.856   0.668
 1550TIP3    H1 4607   6.831   2.833   0.653
 1550TIP3    H2 4608   6.938   2.932   0.611
 1551TIP3   OH2 4609   1.465   6.463   0.085
 1551TIP3    H1 4610   1.464   6.398   0.155
 1551TIP3    H2 4611   1.557   6.472   0.062
 1552TIP3   OH2 4612   7.652   4.327   5.721
 1552TIP3    H1 4613   7.584   4.393   5.708
 1552TIP3    H2 4614   7.641   4.267   5.647
 1553TIP3   OH2 4615   2.718   6.767   2.511
 1553TIP3    H1 4616   2.712   6.863   2.507
 1553TIP3    H2 4617   2.639   6.737   2.467
 1554TIP3   OH2 4618   7.301   6.641   5.691
 1554TIP3    H1 4619   7.215   6.626   5.650
 1554TIP3    H2 4620   7.293   6.727   5.733
 1555TIP3   OH2 4621   7.379   4.829   3.676
 1555TIP3    H1 4622   7.337   4.782   3.604
 1555TIP3    H2 4623   7.379   4.921   3.647
 1556TIP3   OH2 4624   7.395   1.358   2.943
 1556TIP3    H1 4625   7.300   1.350   2.940
 1556TIP3    H2 4626   7.420   1.386   2.855
 1557TIP3   OH2 4627   1.382   6.062   3.336
 1557TIP3    H1 4628   1.392   5.983   3.283
 1557TIP3    H2 4629   1.316   6.039   3.401
 1558TIP3   OH2 4630   2.953   0.169   4.347
 1558TIP3    H1 4631   2.944   0.135   4.258
 1558TIP3    H2 4632   2.910   0.254   4.344
 1559TIP3   OH2 4633   1.502   3.647   0.549
 1559TIP3    H1 4634   1.549   3.585   0.604
 1559TIP3    H2 4635   1.452   3.593   0.488
 1560TIP3   OH2 4636   4.635   5.638   4.183
 1560TIP3    H1 4637   4.707   5.579   4.162
 1560TIP3    H2 4638   4.564   5.611   4.125
 1561TIP3   OH2 4639   5.656   4.334   2.411
 1561TIP3    H1 4640   5.747   4.350   2.437
 1561TIP3    H2 4641   5.659   4.253   2.360
 1562TIP3   OH2 4642   3.000   6.986   0.808
 1562TIP3    H1 4643   2.955   7.018   0.886
 1562TIP3    H2 4644   3.087   6.961   0.839
 1563TIP3   OH2 4645   3.529   0.822   0.826
 1563TIP3    H1 4646   3.534   0.909   0.866
 1563TIP3    H2 4647   3.503   0.764   0.897
 1564TIP3   OH2 4648   0.147   1.870   5.996
 1564TIP3    H1 4649   0.235   1.865   5.957
 1564TIP3    H2 4650   0.159   1.839   6.086
 1565TIP3   OH2 4651   0.251   7.017   2.611
 1565TIP3    H1 4652   0.326   7.029   2.552
 1565TIP3    H2 4653   0.286   7.035   2.698
 1566TIP3   OH2 4654   2.238   7.773   2.065
 1566TIP3    H1 4655   2.294   7.789   2.141
 1566TIP3    H2 4656   2.253   7.849   2.008
 1567TIP3   OH2 4657   2.196   2.441   1.070
 1567TIP3    H1 4658   2.225   2.361   1.027
 1567TIP3    H2 4659   2.210   2.509   1.004
 1568TIP3   OH2 4660   8.047   0.334   4.976
 1568TIP3    H1 4661   8.126   0.281   4.969
 1568TIP3    H2 4662   7.994   0.289   5.041
 1569TIP3   OH2 4663   6.006   2.413   5.195
 1569TIP3    H1 4664   6.019   2.399   5.289
 1569TIP3    H2 4665   5.936   2.478   5.190
 1570TIP3   OH2 4666   5.752   4.386   1.705
 1570TIP3    H1 4667   5.697   4.465   1.703
 1570TIP3    H2 4668   5.839   4.418   1.728
 1571TIP3   OH2 4669   0.268   3.668   5.987
 1571TIP3    H1 4670   0.204   3.737   5.998
 1571TIP3    H2 4671   0.352   3.709   6.008
 1572TIP3   OH2 4672   6.946   0.335   0.279
 1572TIP3    H1 4673   7.034   0.298   0.275
 1572TIP3    H2 4674   6.890   0.261   0.304
 1573TIP3   OH2 4675   0.892   7.236   3.508
 1573TIP3    H1 4676   0.867   7.161   3.455
 1573TIP3    H2 4677   0.810   7.280   3.528
 1574TIP3   OH2 4678   0.115   2.738   4.856
 1574TIP3    H1 4679   0.139   2.649   4.831
 1574TIP3    H2 4680   0.053   2.766   4.788
 1575TIP3   OH2 4681   8.110   6.486   3.434
 1575TIP3    H1 4682   8.160   6.558   3.474
 1575TIP3    H2 4683   8.020   6.519   3.430
 1576TIP3   OH2 4684   7.539   4.435   4.021
 1576TIP3    H1 4685   7.586   4.460   4.100
 1576TIP3    H2 4686   7.447   4.450   4.042
 1577TIP3   OH2 4687   1.041   3.881   5.869
 1577TIP3    H1 4688   1.101   3.946   5.833
 1577TIP3    H2 4689   1.094   3.802   5.880
 1578TIP3   OH2 4690   6.374   5.680   1.631
 1578TIP3    H1 4691   6.319   5.618   1.582
 1578TIP3    H2 4692   6.462   5.668   1.595
 1579TIP3   OH2 4693   0.407   1.313   0.606
 1579TIP3    H1 4694   0.489   1.350   0.575
 1579TIP3    H2 4695   0.432   1.230   0.648
 1580TIP3   OH2 4696   4.749   3.409   4.655
 1580TIP3    H1 4697   4.678   3.363   4.612
 1580TIP3    H2 4698   4.757   3.368   4.741
 1581TIP3   OH2 4699   0.269   4.898   0.651
 1581TIP3    H1 4700   0.303   4.838   0.584
 1581TIP3    H2 4701   0.314   4.981   0.634
 1582TIP3   OH2 4702   3.562   0.070   3.557
 1582TIP3    H1 4703   3.651   0.077   3.522
 1582TIP3    H2 4704   3.568  -0.001   3.622
 1583TIP3   OH2 4705   4.242   3.027   3.991
 1583TIP3    H1 4706   4.157   3.072   3.986
 1583TIP3    H2 4707   4.226   2.953   4.049
 1584TIP3   OH2 4708   4.310   2.869   0.231
 1584TIP3    H1 4709   4.321   2.788   0.181
 1584TIP3    H2 4710   4.298   2.936   0.165
 1585TIP3   OH2 4711   1.517   1.795   1.322
 1585TIP3    H1 4712   1.487   1.708   1.349
 1585TIP3    H2 4713   1.539   1.785   1.230
 1586TIP3   OH2 4714   5.857   7.442   5.282
 1586TIP3    H1 4715   5.944   7.441   5.322
 1586TIP3    H2 4716   5.859   7.516   5.221
 1587TIP3   OH2 4717   5.855   2.503   2.847
 1587TIP3    H1 4718   5.868   2.587   2.891
 1587TIP3    H2 4719   5.762   2.484   2.861
 1588TIP3   OH2 4720   4.342   4.336   3.993
 1588TIP3    H1 4721   4.296   4.273   3.937
 1588TIP3    H2 4722   4.303   4.325   4.079
 1589TIP3   OH2 4723   5.064   2.743   0.893
 1589TIP3    H1 4724   5.127   2.779   0.831
 1589TIP3    H2 4725   5.014   2.819   0.923
 1590TIP3   OH2 4726   2.775   2.538   2.223
 1590TIP3    H1 4727   2.754   2.496   2.140
 1590TIP3    H2 4728   2.721   2.493   2.288
 1591TIP3   OH2 4729   4.793   6.235   1.312
 1591TIP3    H1 4730   4.851   6.168   1.276
 1591TIP3    H2 4731   4.837   6.318   1.292
 1592TIP3   OH2 4732   5.587   6.831   0.031
 1592TIP3    H1 4733   5.655   6.898   0.039
 1592TIP3    H2 4734   5.586   6.789   0.117
 1593TIP3   OH2 4735   6.300   4.682   6.184
 1593TIP3    H1 4736   6.342   4.622   6.245
 1593TIP3    H2 4737   6.215   4.701   6.224
 1594TIP3   OH2 4738   4.701   6.341   3.554
 1594TIP3    H1 4739   4.631   6.401   3.580
 1594TIP3    H2 4740   4.730   6.373   3.469
 1595TIP3   OH2 4741   7.826   1.396   4.914
 1595TIP3    H1 4742   7.747   1.365   4.959
 1595TIP3    H2 4743   7.881   1.429   4.985
 1596TIP3   OH2 4744   0.248   3.318   4.671
 1596TIP3    H1 4745   0.306   3.256   4.627
 1596TIP3    H2 4746   0.299   3.399   4.678
 1597TIP3   OH2 4747   2.258   4.300   2.350
 1597TIP3    H1 4748   2.337   4.272   2.305
 1597TIP3    H2 4749   2.202   4.223   2.352
 1598TIP3   OH2 4750   0.758   5.383   1.969
 1598TIP3    H1 4751   0.790   5.418   1.886
 1598TIP3    H2 4752   0.663   5.392   1.963
 1599TIP3   OH2 4753   3.350   1.826   0.603
 1599TIP3    H1 4754   3.291   1.789   0.537
 1599TIP3    H2 4755   3.296   1.891   0.649
 1600TIP3   OH2 4756   0.636   0.158   6.507
 1600TIP3    H1 4757   0.637   0.112   6.423
 1600TIP3    H2 4758   0.612   0.091   6.571
 1601TIP3   OH2 4759   4.656   5.742   3.924
 1601TIP3    H1 4760   4.662   5.673   3.858
 1601TIP3    H2 4761   4.663   5.697   4.008
 1602TIP3   OH2 4762   5.148   2.223   4.450
 1602TIP3    H1 4763   5.233   2.180   4.459
 1602TIP3    H2 4764   5.089   2.173   4.507
 1603TIP3   OH2 4765   0.136   5.028   1.414
 1603TIP3    H1 4766   0.060   5.033   1.472
 1603TIP3    H2 4767   0.211   5.030   1.473
 1604TIP3   OH2 4768   7.055   6.277   3.129
 1604TIP3    H1 4769   7.083   6.348   3.187
 1604TIP3    H2 4770   7.120   6.276   3.059
 1605TIP3   OH2 4771   5.483   2.390   0.915
 1605TIP3    H1 4772   5.453   2.339   0.840
 1605TIP3    H2 4773   5.434   2.356   0.989
 1606TIP3   OH2 4774   5.947   0.021   5.313
 1606TIP3    H1 4775   5.936   0.097   5.255
 1606TIP3    H2 4776   5.881   0.033   5.381
 1607TIP3   OH2 4777   3.209   1.660   2.173
 1607TIP3    H1 4778   3.170   1.724   2.233
 1607TIP3    H2 4779   3.285   1.705   2.137
 1608TIP3   OH2 4780   1.043   2.998   4.748
 1608TIP3    H1 4781   1.048   3.046   4.665
 1608TIP3    H2 4782   1.057   2.906   4.723
 1609TIP3   OH2 4783   8.215   7.620   1.411
 1609TIP3    H1 4784   8.205   7.651   1.501
 1609TIP3    H2 4785   8.260   7.536   1.419
 1610TIP3   OH2 4786   3.737   5.079   2.889
 1610TIP3    H1 4787   3.833   5.082   2.882
 1610TIP3    H2 4788   3.719   5.088   2.982
 1611TIP3   OH2 4789   4.478   5.387   1.503
 1611TIP3    H1 4790   4.488   5.469   1.454
 1611TIP3    H2 4791   4.562   5.374   1.545
 1612TIP3   OH2 4792   3.751   2.084   5.499
 1612TIP3    H1 4793   3.724   2.082   5.591
 1612TIP3    H2 4794   3.751   1.992   5.473
 1613TIP3   OH2 4795   2.861   2.466   4.355
 1613TIP3    H1 4796   2.850   2.560   4.369
 1613TIP3    H2 4797   2.919   2.459   4.279
 1614TIP3   OH2 4798   7.926   4.938   2.685
 1614TIP3    H1 4799   7.954   4.935   2.777
 1614TIP3    H2 4800   8.005   4.917   2.635
 1615TIP3   OH2 4801   4.107   3.215   6.743
 1615TIP3    H1 4802   4.161   3.190   6.818
 1615TIP3    H2 4803   4.137   3.303   6.720
 1616TIP3   OH2 4804   2.211   4.348   3.145
 1616TIP3    H1 4805   2.197   4.394   3.228
 1616TIP3    H2 4806   2.156   4.394   3.082
 1617TIP3   OH2 4807   5.437   4.546   0.766
 1617TIP3    H1 4808   5.390   4.473   0.725
 1617TIP3    H2 4809   5.517   4.507   0.801
 1618TIP3   OH2 4810   2.961   1.078   4.981
 1618TIP3    H1 4811   3.014   1.124   4.916
 1618TIP3    H2 4812   2.959   1.137   5.056
 1619TIP3   OH2 4813   7.303   1.546   1.310
 1619TIP3    H1 4814   7.339   1.608   1.247
 1619TIP3    H2 4815   7.369   1.477   1.316
 1620TIP3   OH2 4816   1.979   0.415   1.767
 1620TIP3    H1 4817   1.944   0.483   1.709
 1620TIP3    H2 4818   1.905   0.387   1.820
 1621TIP3   OH2 4819   5.868   4.686   2.813
 1621TIP3    H1 4820   5.862   4.600   2.854
 1621TIP3    H2 4821   5.817   4.679   2.733
 1622TIP3   OH2 4822   2.891   3.494   1.291
 1622TIP3    H1 4823   2.892   3.419   1.350
 1622TIP3    H2 4824   2.861   3.459   1.208
 1623TIP3   OH2 4825   5.689   0.277   2.921
 1623TIP3    H1 4826   5.744   0.279   2.843
 1623TIP3    H2 4827   5.751   0.285   2.994
 1624TIP3   OH2 4828   6.170   1.286   5.112
 1624TIP3    H1 4829   6.118   1.264   5.190
 1624TIP3    H2 4830   6.250   1.233   5.121
 1625TIP3   OH2 4831   7.547   7.441   6.459
 1625TIP3    H1 4832   7.583   7.487   6.535
 1625TIP3    H2 4833   7.453   7.460   6.462
 1626TIP3   OH2 4834   1.335   0.728   1.185
 1626TIP3    H1 4835   1.391   0.688   1.119
 1626TIP3    H2 4836   1.344   0.672   1.262
 1627TIP3   OH2 4837   2.149   0.571   5.676
 1627TIP3    H1 4838   2.148   0.666   5.676
 1627TIP3    H2 4839   2.185   0.547   5.761
 1628TIP3   OH2 4840   5.327   4.125   1.357
 1628TIP3    H1 4841   5.325   4.153   1.266
 1628TIP3    H2 4842   5.374   4.042   1.356
 1629TIP3   OH2 4843   0.175   5.297   0.158
 1629TIP3    H1 4844   0.092   5.293   0.204
 1629TIP3    H2 4845   0.207   5.207   0.158
 1630TIP3   OH2 4846   7.337   5.502   5.541
 1630TIP3    H1 4847   7.357   5.564   5.471
 1630TIP3    H2 4848   7.277   5.550   5.599
 1631TIP3   OH2 4849   3.552   3.374   2.667
 1631TIP3    H1 4850   3.472   3.385   2.719
 1631TIP3    H2 4851   3.539   3.432   2.593
 1632TIP3   OH2 4852   6.111   6.095   5.366
 1632TIP3    H1 4853   6.038   6.056   5.317
 1632TIP3    H2 4854   6.142   6.025   5.423
 1633TIP3   OH2 4855   4.586   1.536   0.700
 1633TIP3    H1 4856   4.672   1.568   0.730
 1633TIP3    H2 4857   4.601   1.443   0.683
 1634TIP3   OH2 4858   3.745   0.849   0.515
 1634TIP3    H1 4859   3.751   0.842   0.610
 1634TIP3    H2 4860   3.658   0.886   0.500
 1635TIP3   OH2 4861   5.517   0.574   4.123
 1635TIP3    H1 4862   5.454   0.639   4.092
 1635TIP3    H2 4863   5.469   0.524   4.190
 1636TIP3   OH2 4864   1.244   3.389   3.849
 1636TIP3    H1 4865   1.192   3.310   3.866
 1636TIP3    H2 4866   1.329   3.356   3.820
 1637TIP3   OH2 4867   5.331   1.126   2.821
 1637TIP3    H1 4868   5.280   1.045   2.824
 1637TIP3    H2 4869   5.405   1.110   2.880
 1638TIP3   OH2 4870   7.730   1.674   3.674
 1638TIP3    H1 4871   7.721   1.706   3.764
 1638TIP3    H2 4872   7.679   1.736   3.621
 1639TIP3   OH2 4873   6.539   0.405   5.656
 1639TIP3    H1 4874   6.466   0.466   5.655
 1639TIP3    H2 4875   6.522   0.348   5.732
 1640TIP3   OH2 4876   7.644   6.014   4.848
 1640TIP3    H1 4877   7.664   5.940   4.905
 1640TIP3    H2 4878   7.650   6.091   4.905
 1641TIP3   OH2 4879   4.427   3.528   4.215
 1641TIP3    H1 4880   4.474   3.597   4.170
 1641TIP3    H2 4881   4.365   3.574   4.272
 1642TIP3   OH2 4882   8.187   0.022   4.106
 1642TIP3    H1 4883   8.116   0.063   4.156
 1642TIP3    H2 4884   8.264   0.075   4.127
 1643TIP3   OH2 4885   0.763   0.745   4.801
 1643TIP3    H1 4886   0.673   0.775   4.792
 1643TIP3    H2 4887   0.787   0.769   4.890
 1644TIP3   OH2 4888   2.498   0.727   1.930
 1644TIP3    H1 4889   2.409   0.692   1.930
 1644TIP3    H2 4890   2.540   0.688   2.006
 1645TIP3   OH2 4891   4.864   1.098   6.230
 1645TIP3    H1 4892   4.781   1.109   6.276
 1645TIP3    H2 4893   4.839   1.093   6.137
 1646TIP3   OH2 4894   1.896   6.821   3.083
 1646TIP3    H1 4895   1.864   6.749   3.138
 1646TIP3    H2 4896   1.991   6.818   3.093
 1647TIP3   OH2 4897   7.257   1.201   0.729
 1647TIP3    H1 4898   7.191   1.270   0.724
 1647TIP3    H2 4899   7.209   1.120   0.713
 1648TIP3   OH2 4900   0.121   2.374   6.117
 1648TIP3    H1 4901   0.044   2.419   6.152
 1648TIP3    H2 4902   0.189   2.440   6.117
 1649TIP3   OH2 4903   4.765   4.253   5.385
 1649TIP3    H1 4904   4.828   4.264   5.456
 1649TIP3    H2 4905   4.726   4.167   5.401
 1650TIP3   OH2 4906   3.425   4.544   5.900
 1650TIP3    H1 4907   3.504   4.570   5.947
 1650TIP3    H2 4908   3.369   4.622   5.904
 1651TIP3   OH2 4909   4.800   5.346   2.864
 1651TIP3    H1 4910   4.870   5.313   2.920
 1651TIP3    H2 4911   4.832   5.334   2.775
 1652TIP3   OH2 4912   7.171   0.049   1.763
 1652TIP3    H1 4913   7.180  -0.018   1.695
 1652TIP3    H2 4914   7.206   0.129   1.724
 1653TIP3   OH2 4915   6.695   4.388   3.659
 1653TIP3    H1 4916   6.752   4.321   3.695
 1653TIP3    H2 4917   6.690   4.455   3.727
 1654TIP3   OH2 4918   0.460   3.119   4.083
 1654TIP3    H1 4919   0.385   3.168   4.117
 1654TIP3    H2 4920   0.452   3.032   4.124
 1655TIP3   OH2 4921   2.022   6.807   6.726
 1655TIP3    H1 4922   1.933   6.829   6.697
 1655TIP3    H2 4923   2.078   6.830   6.651
 1656TIP3   OH2 4924   3.206   6.394   5.396
 1656TIP3    H1 4925   3.151   6.420   5.470
 1656TIP3    H2 4926   3.150   6.405   5.319
 1657TIP3   OH2 4927   7.008   6.822   4.492
 1657TIP3    H1 4928   7.091   6.860   4.522
 1657TIP3    H2 4929   6.970   6.889   4.435
 1658TIP3   OH2 4930   1.082   6.703   5.009
 1658TIP3    H1 4931   1.081   6.790   4.969
 1658TIP3    H2 4932   1.048   6.645   4.941
 1659TIP3   OH2 4933   6.462   6.788   4.577
 1659TIP3    H1 4934   6.473   6.714   4.519
 1659TIP3    H2 4935   6.546   6.835   4.573
 1660TIP3   OH2 4936   7.194   1.027   5.333
 1660TIP3    H1 4937   7.176   1.013   5.240
 1660TIP3    H2 4938   7.108   1.040   5.373
 1661TIP3   OH2 4939   3.139   6.238   3.225
 1661TIP3    H1 4940   3.181   6.160   3.261
 1661TIP3    H2 4941   3.208   6.284   3.178
 1662TIP3   OH2 4942   2.434   1.790   6.606
 1662TIP3    H1 4943   2.447   1.832   6.521
 1662TIP3    H2 4944   2.341   1.801   6.625
 1663TIP3   OH2 4945   5.726   1.663   1.984
 1663TIP3    H1 4946   5.658   1.640   2.047
 1663TIP3    H2 4947   5.755   1.750   2.012
 1664TIP3   OH2 4948   7.955   1.437   2.993
 1664TIP3    H1 4949   7.913   1.499   3.053
 1664TIP3    H2 4950   7.905   1.445   2.911
 1665TIP3   OH2 4951   0.605   4.152   4.462
 1665TIP3    H1 4952   0.633   4.231   4.509
 1665TIP3    H2 4953   0.515   4.171   4.435
 1666TIP3   OH2 4954   0.577   6.256   0.405
 1666TIP3    H1 4955   0.624   6.340   0.397
 1666TIP3    H2 4956   0.485   6.279   0.394
 1667TIP3   OH2 4957   2.127   0.264   1.332
 1667TIP3    H1 4958   2.082   0.230   1.410
 1667TIP3    H2 4959   2.089   0.214   1.260
 1668TIP3   OH2 4960   6.304   5.179   4.661
 1668TIP3    H1 4961   6.249   5.238   4.712
 1668TIP3    H2 4962   6.390   5.221   4.658
 1669TIP3   OH2 4963   0.125   5.348   4.970
 1669TIP3    H1 4964   0.174   5.298   5.035
 1669TIP3    H2 4965   0.045   5.375   5.017
 1670TIP3   OH2 4966   4.794   2.421   2.087
 1670TIP3    H1 4967   4.802   2.442   1.994
 1670TIP3    H2 4968   4.884   2.408   2.117
 1671TIP3   OH2 4969   0.219   1.522   4.528
 1671TIP3    H1 4970   0.197   1.591   4.590
 1671TIP3    H2 4971   0.209   1.562   4.442
 1672TIP3   OH2 4972   4.606   4.916   6.690
 1672TIP3    H1 4973   4.513   4.905   6.671
 1672TIP3    H2 4974   4.629   4.840   6.744
 1673TIP3   OH2 4975   3.009   6.066   6.211
 1673TIP3    H1 4976   2.971   6.067   6.299
 1673TIP3    H2 4977   2.997   5.977   6.180
 1674TIP3   OH2 4978   7.758   5.599   1.297
 1674TIP3    H1 4979   7.742   5.604   1.391
 1674TIP3    H2 4980   7.675   5.569   1.260
 1675TIP3   OH2 4981   6.744   5.179   4.086
 1675TIP3    H1 4982   6.804   5.250   4.064
 1675TIP3    H2 4983   6.707   5.152   4.002
 1676TIP3   OH2 4984   2.063   4.974   0.221
 1676TIP3    H1 4985   2.102   5.055   0.190
 1676TIP3    H2 4986   2.113   4.905   0.177
 1677TIP3   OH2 4987   4.077   2.766   3.936
 1677TIP3    H1 4988   4.109   2.775   4.026
 1677TIP3    H2 4989   4.073   2.671   3.922
 1678TIP3   OH2 4990   3.693   1.316   6.382
 1678TIP3    H1 4991   3.772   1.336   6.332
 1678TIP3    H2 4992   3.723   1.259   6.453
 1679TIP3   OH2 4993   4.880   7.318   2.585
 1679TIP3    H1 4994   4.970   7.324   2.618
 1679TIP3    H2 4995   4.890   7.300   2.491
 1680TIP3   OH2 4996   2.373   6.496   4.924
 1680TIP3    H1 4997   2.385   6.583   4.886
 1680TIP3    H2 4998   2.385   6.435   4.851
 1681TIP3   OH2 4999   7.398   5.103   5.226
 1681TIP3    H1 5000   7.448   5.117   5.306
 1681TIP3    H2 5001   7.357   5.187   5.207
 1682TIP3   OH2 5002   0.168   3.847   0.456
 1682TIP3    H1 5003   0.075   3.865   0.473
 1682TIP3    H2 5004   0.204   3.931   0.429
 1683TIP3   OH2 5005   1.384   5.844   5.215
 1683TIP3    H1 5006   1.401   5.844   5.121
 1683TIP3    H2 5007   1.291   5.821   5.223
 1684TIP3   OH2 5008   5.031   4.898   1.334
 1684TIP3    H1 5009   5.019   4.863   1.423
 1684TIP3    H2 5010   5.050   4.821   1.281
 1685TIP3   OH2 5011   2.602   4.834   1.922
 1685TIP3    H1 5012   2.510   4.859   1.918
 1685TIP3    H2 5013   2.617   4.784   1.841
 1686TIP3   OH2 5014   0.815   6.857   0.447
 1686TIP3    H1 5015   0.863   6.803   0.510
 1686TIP3    H2 5016   0.799   6.798   0.373
 1687TIP3   OH2 5017   7.834   5.517   3.582
 1687TIP3    H1 5018   7.768   5.496   3.516
 1687TIP3    H2 5019   7.890   5.439   3.585
 1688TIP3   OH2 5020   5.607   4.107   5.825
 1688TIP3    H1 5021   5.667   4.037   5.799
 1688TIP3    H2 5022   5.661   4.166   5.878
 1689TIP3   OH2 5023   8.294   1.950   5.651
 1689TIP3    H1 5024   8.201   1.969   5.668
 1689TIP3    H2 5025   8.305   1.859   5.678
 1690TIP3   OH2 5026   2.840   4.353   0.702
 1690TIP3    H1 5027   2.886   4.304   0.633
 1690TIP3    H2 5028   2.805   4.431   0.657
 1691TIP3   OH2 5029   5.640   7.096   0.214
 1691TIP3    H1 5030   5.597   7.030   0.269
 1691TIP3    H2 5031   5.702   7.046   0.160
 1692TIP3   OH2 5032   2.075   5.904   3.136
 1692TIP3    H1 5033   2.166   5.917   3.109
 1692TIP3    H2 5034   2.028   5.977   3.097
 1693TIP3   OH2 5035   0.167   3.789   5.667
 1693TIP3    H1 5036   0.171   3.842   5.746
 1693TIP3    H2 5037   0.149   3.700   5.699
 1694TIP3   OH2 5038   0.576   5.692   1.998
 1694TIP3    H1 5039   0.560   5.735   1.913
 1694TIP3    H2 5040   0.542   5.603   1.986
 1695TIP3   OH2 5041   7.301   4.670   2.419
 1695TIP3    H1 5042   7.341   4.679   2.506
 1695TIP3    H2 5043   7.226   4.613   2.434
 1696TIP3   OH2 5044   1.977   3.774   5.934
 1696TIP3    H1 5045   2.033   3.763   5.857
 1696TIP3    H2 5046   1.968   3.686   5.970
 1697TIP3   OH2 5047   3.514   7.483   3.716
 1697TIP3    H1 5048   3.452   7.515   3.781
 1697TIP3    H2 5049   3.563   7.561   3.690
 1698TIP3   OH2 5050   5.921   0.279   3.042
 1698TIP3    H1 5051   5.964   0.222   3.106
 1698TIP3    H2 5052   5.990   0.299   2.979
 1699TIP3   OH2 5053   7.326   2.110   6.279
 1699TIP3    H1 5054   7.270   2.095   6.355
 1699TIP3    H2 5055   7.369   2.026   6.265
 1700TIP3   OH2 5056   5.225   4.737   4.192
 1700TIP3    H1 5057   5.278   4.704   4.264
 1700TIP3    H2 5058   5.141   4.692   4.201
 1701TIP3   OH2 5059   7.064   2.637   2.559
 1701TIP3    H1 5060   7.004   2.627   2.633
 1701TIP3    H2 5061   7.143   2.674   2.598
 1702TIP3   OH2 5062   5.317   5.286   6.246
 1702TIP3    H1 5063   5.332   5.374   6.209
 1702TIP3    H2 5064   5.365   5.287   6.328
 1703TIP3   OH2 5065   4.371   3.603   0.963
 1703TIP3    H1 5066   4.277   3.621   0.961
 1703TIP3    H2 5067   4.382   3.541   1.035
 1704TIP3   OH2 5068   2.058   2.908   2.237
 1704TIP3    H1 5069   2.030   2.879   2.150
 1704TIP3    H2 5070   1.984   2.960   2.269
 1705TIP3   OH2 5071   6.841   4.630   5.493
 1705TIP3    H1 5072   6.863   4.537   5.500
 1705TIP3    H2 5073   6.915   4.668   5.447
 1706TIP3   OH2 5074   0.279   5.688   1.697
 1706TIP3    H1 5075   0.332   5.737   1.760
 1706TIP3    H2 5076   0.335   5.614   1.672
 1707TIP3   OH2 5077   0.137   6.789   5.066
 1707TIP3    H1 5078   0.228   6.762   5.052
 1707TIP3    H2 5079   0.129   6.799   5.160
 1708TIP3   OH2 5080   2.795   3.763   0.224
 1708TIP3    H1 5081   2.881   3.802   0.210
 1708TIP3    H2 5082   2.789   3.694   0.158
 1709TIP3   OH2 5083   7.212   0.118   0.287
 1709TIP3    H1 5084   7.277   0.052   0.265
 1709TIP3    H2 5085   7.263   0.196   0.310
 1710TIP3   OH2 5086   6.826   5.221   1.920
 1710TIP3    H1 5087   6.874   5.241   2.000
 1710TIP3    H2 5088   6.852   5.132   1.897
 1711TIP3   OH2 5089   1.898   4.853   0.424
 1711TIP3    H1 5090   1.966   4.884   0.364
 1711TIP3    H2 5091   1.931   4.768   0.455
 1712TIP3   OH2 5092   6.803   4.539   4.090
 1712TIP3    H1 5093   6.863   4.494   4.149
 1712TIP3    H2 5094   6.854   4.555   4.011
 1713TIP3   OH2 5095   4.109   2.010   0.226
 1713TIP3    H1 5096   4.055   2.033   0.302
 1713TIP3    H2 5097   4.090   2.079   0.162
 1714TIP3   OH2 5098   4.958   0.824   2.890
 1714TIP3    H1 5099   4.928   0.796   2.804
 1714TIP3    H2 5100   4.897   0.782   2.952
 1715TIP3   OH2 5101   1.001   3.835   4.890
 1715TIP3    H1 5102   1.033   3.836   4.799
 1715TIP3    H2 5103   0.981   3.926   4.909
 1716TIP3   OH2 5104   4.783   3.865   3.964
 1716TIP3    H1 5105   4.693   3.879   3.934
 1716TIP3    H2 5106   4.815   3.952   3.988
 1717TIP3   OH2 5107   1.383   1.960   0.846
 1717TIP3    H1 5108   1.410   1.900   0.776
 1717TIP3    H2 5109   1.291   1.976   0.828
 1718TIP3   OH2 5110   4.804   6.204   2.496
 1718TIP3    H1 5111   4.738   6.188   2.564
 1718TIP3    H2 5112   4.762   6.177   2.415
 1719TIP3   OH2 5113   3.167   4.398   4.061
 1719TIP3    H1 5114   3.219   4.431   3.988
 1719TIP3    H2 5115   3.094   4.460   4.068
 1720TIP3   OH2 5116   0.137   6.503   1.966
 1720TIP3    H1 5117   0.188   6.441   2.019
 1720TIP3    H2 5118   0.057   6.517   2.016
 1721TIP3   OH2 5119   7.272   6.878   5.807
 1721TIP3    H1 5120   7.177   6.891   5.804
 1721TIP3    H2 5121   7.308   6.966   5.801
 1722TIP3   OH2 5122   0.109   7.027   5.637
 1722TIP3    H1 5123   0.092   7.091   5.706
 1722TIP3    H2 5124   0.022   6.994   5.614
 1723TIP3   OH2 5125   3.329   3.201   0.899
 1723TIP3    H1 5126   3.351   3.260   0.827
 1723TIP3    H2 5127   3.297   3.258   0.969
 1724TIP3   OH2 5128   2.562   6.355   2.968
 1724TIP3    H1 5129   2.524   6.281   2.921
 1724TIP3    H2 5130   2.656   6.336   2.972
 1725TIP3   OH2 5131   2.821   1.201   4.283
 1725TIP3    H1 5132   2.840   1.211   4.190
 1725TIP3    H2 5133   2.726   1.189   4.287
 1726TIP3   OH2 5134   5.324   6.924   0.033
 1726TIP3    H1 5135   5.276   6.854   0.078
 1726TIP3    H2 5136   5.415   6.895   0.034
 1727TIP3   OH2 5137   0.567   2.700   0.950
 1727TIP3    H1 5138   0.569   2.693   1.045
 1727TIP3    H2 5139   0.614   2.781   0.931
 1728TIP3   OH2 5140   6.374   4.982   4.444
 1728TIP3    H1 5141   6.322   5.041   4.389
 1728TIP3    H2 5142   6.379   5.026   4.528
 1729TIP3   OH2 5143   3.930   6.543   5.346
 1729TIP3    H1 5144   4.013   6.503   5.318
 1729TIP3    H2 5145   3.947   6.637   5.344
 1730TIP3   OH2 5146   4.097   3.955   0.736
 1730TIP3    H1 5147   4.141   3.976   0.654
 1730TIP3    H2 5148   4.057   4.037   0.764
 1731TIP3   OH2 5149   7.427   2.705   0.857
 1731TIP3    H1 5150   7.432   2.772   0.925
 1731TIP3    H2 5151   7.369   2.639   0.893
 1732TIP3   OH2 5152   6.321   0.284   3.416
 1732TIP3    H1 5153   6.383   0.335   3.364
 1732TIP3    H2 5154   6.361   0.198   3.423
 1733TIP3   OH2 5155   0.041   1.880   0.875
 1733TIP3    H1 5156   0.010   1.794   0.844
 1733TIP3    H2 5157   0.025   1.878   0.969
 1734TIP3   OH2 5158   6.070   7.698   4.221
 1734TIP3    H1 5159   6.017   7.778   4.229
 1734TIP3    H2 5160   6.060   7.654   4.306
 1735TIP3   OH2 5161   0.201   5.830   5.247
 1735TIP3    H1 5162   0.188   5.798   5.337
 1735TIP3    H2 5163   0.289   5.869   5.249
 1736TIP3   OH2 5164   2.102   2.865   1.505
 1736TIP3    H1 5165   2.157   2.793   1.474
 1736TIP3    H2 5166   2.060   2.831   1.584
 1737TIP3   OH2 5167   5.540   0.450   0.089
 1737TIP3    H1 5168   5.573   0.425   0.175
 1737TIP3    H2 5169   5.583   0.390   0.028
 1738TIP3   OH2 5170   6.948   7.513   5.136
 1738TIP3    H1 5171   6.858   7.543   5.130
 1738TIP3    H2 5172   6.977   7.502   5.046
 1739TIP3   OH2 5173   6.979   5.891   2.742
 1739TIP3    H1 5174   7.013   5.876   2.654
 1739TIP3    H2 5175   6.939   5.978   2.738
 1740TIP3   OH2 5176   3.495   7.108   0.654
 1740TIP3    H1 5177   3.563   7.141   0.595
 1740TIP3    H2 5178   3.439   7.184   0.670
 1741TIP3   OH2 5179   5.031   1.141   4.630
 1741TIP3    H1 5180   5.095   1.212   4.643
 1741TIP3    H2 5181   5.007   1.147   4.537
 1742TIP3   OH2 5182   4.150   7.674   6.141
 1742TIP3    H1 5183   4.192   7.729   6.207
 1742TIP3    H2 5184   4.173   7.715   6.057
 1743TIP3   OH2 5185   0.324   2.540   4.091
 1743TIP3    H1 5186   0.255   2.482   4.122
 1743TIP3    H2 5187   0.294   2.570   4.006
 1744TIP3   OH2 5188   4.193   2.132   6.226
 1744TIP3    H1 5189   4.267   2.146   6.286
 1744TIP3    H2 5190   4.203   2.201   6.160
 1745TIP3   OH2 5191   1.583   0.502   5.331
 1745TIP3    H1 5192   1.604   0.595   5.345
 1745TIP3    H2 5193   1.519   0.482   5.398
 1746TIP3   OH2 5194   4.327   5.574   0.484
 1746TIP3    H1 5195   4.384   5.648   0.463
 1746TIP3    H2 5196   4.241   5.614   0.500
 1747TIP3   OH2 5197   1.473   5.994   0.724
 1747TIP3    H1 5198   1.456   5.998   0.818
 1747TIP3    H2 5199   1.472   6.085   0.695
 1748TIP3   OH2 5200   2.083   1.255   4.424
 1748TIP3    H1 5201   2.170   1.260   4.385
 1748TIP3    H2 5202   2.095   1.201   4.503
 1749TIP3   OH2 5203   1.524   6.677   0.491
 1749TIP3    H1 5204   1.508   6.766   0.524
 1749TIP3    H2 5205   1.547   6.690   0.399
 1750TIP3   OH2 5206   4.181   0.613   6.375
 1750TIP3    H1 5207   4.223   0.662   6.305
 1750TIP3    H2 5208   4.252   0.592   6.435
 1751TIP3   OH2 5209   2.796   2.990   3.671
 1751TIP3    H1 5210   2.882   2.981   3.631
 1751TIP3    H2 5211   2.767   3.078   3.646
 1752TIP3   OH2 5212   6.953   7.744   2.941
 1752TIP3    H1 5213   7.025   7.744   3.004
 1752TIP3    H2 5214   6.947   7.653   2.912
 1753TIP3   OH2 5215   2.146   1.449   0.276
 1753TIP3    H1 5216   2.181   1.524   0.324
 1753TIP3    H2 5217   2.055   1.441   0.307
 1754TIP3   OH2 5218   2.556   4.180   6.579
 1754TIP3    H1 5219   2.535   4.237   6.505
 1754TIP3    H2 5220   2.583   4.097   6.539
 1755TIP3   OH2 5221   6.353   3.556   5.254
 1755TIP3    H1 5222   6.265   3.521   5.240
 1755TIP3    H2 5223   6.339   3.637   5.304
 1756TIP3   OH2 5224   6.164   3.120   2.547
 1756TIP3    H1 5225   6.176   3.171   2.466
 1756TIP3    H2 5226   6.139   3.033   2.516
 1757TIP3   OH2 5227   4.768   7.515   2.353
 1757TIP3    H1 5228   4.855   7.483   2.378
 1757TIP3    H2 5229   4.719   7.437   2.329
 1758TIP3   OH2 5230   7.857   1.858   2.758
 1758TIP3    H1 5231   7.810   1.793   2.810
 1758TIP3    H2 5232   7.822   1.942   2.787
 1759TIP3   OH2 5233   0.663   3.719   3.524
 1759TIP3    H1 5234   0.689   3.753   3.439
 1759TIP3    H2 5235   0.716   3.768   3.587
 1760TIP3   OH2 5236   5.687   5.350   1.376
 1760TIP3    H1 5237   5.724   5.362   1.464
 1760TIP3    H2 5238   5.712   5.430   1.329
 1761TIP3   OH2 5239   7.312   1.553   6.261
 1761TIP3    H1 5240   7.271   1.532   6.177
 1761TIP3    H2 5241   7.297   1.475   6.315
 1762TIP3   OH2 5242   5.856   6.623   5.412
 1762TIP3    H1 5243   5.825   6.712   5.397
 1762TIP3    H2 5244   5.885   6.592   5.326
 1763TIP3   OH2 5245   5.685   6.534   1.992
 1763TIP3    H1 5246   5.723   6.571   1.912
 1763TIP3    H2 5247   5.673   6.441   1.972
 1764TIP3   OH2 5248   1.439   2.866   4.673
 1764TIP3    H1 5249   1.402   2.944   4.715
 1764TIP3    H2 5250   1.379   2.846   4.601
 1765TIP3   OH2 5251   5.924   2.164   5.382
 1765TIP3    H1 5252   5.838   2.163   5.341
 1765TIP3    H2 5253   5.920   2.233   5.447
 1766TIP3   OH2 5254   4.916   3.739   0.646
 1766TIP3    H1 5255   4.983   3.723   0.580
 1766TIP3    H2 5256   4.849   3.789   0.600
 1767TIP3   OH2 5257   8.011   1.619   2.036
 1767TIP3    H1 5258   7.962   1.583   1.963
 1767TIP3    H2 5259   7.974   1.706   2.050
 1768TIP3   OH2 5260   2.998   3.512   1.725
 1768TIP3    H1 5261   2.982   3.586   1.667
 1768TIP3    H2 5262   2.911   3.477   1.746
 1769TIP3   OH2 5263   0.367   5.076   6.078
 1769TIP3    H1 5264   0.328   5.130   6.147
 1769TIP3    H2 5265   0.418   5.138   6.025
 1770TIP3   OH2 5266   0.394   1.064   1.975
 1770TIP3    H1 5267   0.415   0.982   1.931
 1770TIP3    H2 5268   0.330   1.107   1.919
 1771TIP3   OH2 5269   5.655   1.546   3.517
 1771TIP3    H1 5270   5.688   1.629   3.554
 1771TIP3    H2 5271   5.581   1.523   3.573
 1772TIP3   OH2 5272   4.917   1.378   2.169
 1772TIP3    H1 5273   4.945   1.351   2.257
 1772TIP3    H2 5274   4.992   1.424   2.133
 1773TIP3   OH2 5275   2.416   6.203   6.006
 1773TIP3    H1 5276   2.405   6.231   5.915
 1773TIP3    H2 5277   2.391   6.110   6.005
 1774TIP3   OH2 5278   1.763   0.405   5.127
 1774TIP3    H1 5279   1.739   0.495   5.150
 1774TIP3    H2 5280   1.786   0.364   5.210
 1775TIP3   OH2 5281   4.974   2.503   2.417
 1775TIP3    H1 5282   4.891   2.551   2.420
 1775TIP3    H2 5283   5.024   2.548   2.349
 1776TIP3   OH2 5284   4.511   1.617   0.970
 1776TIP3    H1 5285   4.489   1.709   0.960
 1776TIP3    H2 5286   4.518   1.583   0.881
 1777TIP3   OH2 5287   1.109   2.354   5.069
 1777TIP3    H1 5288   1.102   2.287   5.137
 1777TIP3    H2 5289   1.180   2.411   5.098
 1778TIP3   OH2 5290   3.588   5.738   2.495
 1778TIP3    H1 5291   3.664   5.795   2.510
 1778TIP3    H2 5292   3.559   5.760   2.407
 1779TIP3   OH2 5293   2.546   7.109   4.441
 1779TIP3    H1 5294   2.492   7.052   4.386
 1779TIP3    H2 5295   2.608   7.149   4.380
 1780TIP3   OH2 5296   7.492   6.190   2.354
 1780TIP3    H1 5297   7.405   6.199   2.392
 1780TIP3    H2 5298   7.487   6.238   2.271
 1781TIP3   OH2 5299   0.058   0.331   4.003
 1781TIP3    H1 5300   0.089   0.378   3.925
 1781TIP3    H2 5301   0.108   0.250   4.004
 1782TIP3   OH2 5302   3.726   3.954   2.242
 1782TIP3    H1 5303   3.720   3.948   2.147
 1782TIP3    H2 5304   3.636   3.948   2.272
 1783TIP3   OH2 5305   4.925   0.447   2.648
 1783TIP3    H1 5306   4.917   0.368   2.701
 1783TIP3    H2 5307   5.016   0.476   2.661
 1784TIP3   OH2 5308   4.539   6.924   2.166
 1784TIP3    H1 5309   4.481   6.930   2.090
 1784TIP3    H2 5310   4.484   6.951   2.240
 1785TIP3   OH2 5311   2.963   0.507   0.352
 1785TIP3    H1 5312   2.964   0.597   0.320
 1785TIP3    H2 5313   2.960   0.453   0.273
 1786TIP3   OH2 5314   4.601   5.405   2.677
 1786TIP3    H1 5315   4.657   5.430   2.751
 1786TIP3    H2 5316   4.625   5.465   2.607
 1787TIP3   OH2 5317   1.623   1.774   3.935
 1787TIP3    H1 5318   1.704   1.724   3.949
 1787TIP3    H2 5319   1.650   1.850   3.884
 1788TIP3   OH2 5320   0.823   0.690   0.379
 1788TIP3    H1 5321   0.742   0.698   0.327
 1788TIP3    H2 5322   0.889   0.661   0.316
 1789TIP3   OH2 5323   0.724   6.484   0.432
 1789TIP3    H1 5324   0.797   6.465   0.491
 1789TIP3    H2 5325   0.758   6.549   0.371
 1790TIP3   OH2 5326   0.418   5.173   0.623
 1790TIP3    H1 5327   0.491   5.208   0.572
 1790TIP3    H2 5328   0.340   5.200   0.575
 1791TIP3   OH2 5329   5.557   7.259   5.880
 1791TIP3    H1 5330   5.544   7.326   5.812
 1791TIP3    H2 5331   5.496   7.284   5.949
 1792TIP3   OH2 5332   3.234   0.042   3.831
 1792TIP3    H1 5333   3.272  -0.044   3.815
 1792TIP3    H2 5334   3.139   0.027   3.829
 1793TIP3   OH2 5335   3.311   1.545   1.086
 1793TIP3    H1 5336   3.319   1.558   0.992
 1793TIP3    H2 5337   3.385   1.489   1.109
 1794TIP3   OH2 5338   7.957   6.857   4.782
 1794TIP3    H1 5339   7.879   6.886   4.736
 1794TIP3    H2 5340   8.030   6.884   4.726
 1795TIP3   OH2 5341   5.795   4.318   0.120
 1795TIP3    H1 5342   5.728   4.373   0.078
 1795TIP3    H2 5343   5.777   4.230   0.088
 1796TIP3   OH2 5344   6.338   2.058   2.098
 1796TIP3    H1 5345   6.343   2.144   2.139
 1796TIP3    H2 5346   6.275   2.009   2.152
 1797TIP3   OH2 5347   0.197   0.990   4.814
 1797TIP3    H1 5348   0.141   0.913   4.823
 1797TIP3    H2 5349   0.137   1.064   4.819
 1798TIP3   OH2 5350   5.975   1.996   4.822
 1798TIP3    H1 5351   5.905   2.050   4.786
 1798TIP3    H2 5352   6.016   2.050   4.889
 1799TIP3   OH2 5353   5.645   4.105   2.837
 1799TIP3    H1 5354   5.623   4.179   2.780
 1799TIP3    H2 5355   5.648   4.030   2.778
 1800TIP3   OH2 5356   3.440   2.481   2.322
 1800TIP3    H1 5357   3.433   2.387   2.307
 1800TIP3    H2 5358   3.494   2.489   2.401
 1801TIP3   OH2 5359   3.375   6.659   4.420
 1801TIP3    H1 5360   3.404   6.726   4.483
 1801TIP3    H2 5361   3.436   6.667   4.347
 1802TIP3   OH2 5362   4.036   2.081   3.954
 1802TIP3    H1 5363   4.016   1.988   3.939
 1802TIP3    H2 5364   4.076   2.082   4.041
 1803TIP3   OH2 5365   0.586   1.492   3.379
 1803TIP3    H1 5366   0.522   1.501   3.450
 1803TIP3    H2 5367   0.671   1.490   3.423
 1804TIP3   OH2 5368   8.250   7.302   2.165
 1804TIP3    H1 5369   8.203   7.285   2.246
 1804TIP3    H2 5370   8.242   7.221   2.115
 1805TIP3   OH2 5371   5.986   3.679   5.670
 1805TIP3    H1 5372   6.011   3.651   5.758
 1805TIP3    H2 5373   5.934   3.606   5.636
 1806TIP3   OH2 5374   0.894   1.565   3.399
 1806TIP3    H1 5375   0.962   1.600   3.341
 1806TIP3    H2 5376   0.894   1.624   3.474
 1807TIP3   OH2 5377   5.416   1.371   6.513
 1807TIP3    H1 5378   5.390   1.462   6.529
 1807TIP3    H2 5379   5.465   1.374   6.430
 1808TIP3   OH2 5380   3.200   6.017   2.701
 1808TIP3    H1 5381   3.143   5.957   2.748
 1808TIP3    H2 5382   3.140   6.079   2.659
 1809TIP3   OH2 5383   1.285   7.453   5.190
 1809TIP3    H1 5384   1.202   7.449   5.238
 1809TIP3    H2 5385   1.302   7.363   5.163
 1810TIP3   OH2 5386   4.098   7.517   6.530
 1810TIP3    H1 5387   4.185   7.545   6.502
 1810TIP3    H2 5388   4.046   7.516   6.450
 1811TIP3   OH2 5389   0.791   3.950   1.704
 1811TIP3    H1 5390   0.728   3.925   1.773
 1811TIP3    H2 5391   0.736   3.986   1.635
 1812TIP3   OH2 5392   6.990   5.434   1.261
 1812TIP3    H1 5393   7.067   5.488   1.280
 1812TIP3    H2 5394   6.945   5.428   1.346
 1813TIP3   OH2 5395   3.935   6.398   2.188
 1813TIP3    H1 5396   3.940   6.375   2.095
 1813TIP3    H2 5397   3.884   6.479   2.189
 1814TIP3   OH2 5398   7.619   3.704   4.561
 1814TIP3    H1 5399   7.541   3.745   4.597
 1814TIP3    H2 5400   7.643   3.760   4.487
 1815TIP3   OH2 5401   0.990   0.471   6.339
 1815TIP3    H1 5402   1.072   0.437   6.375
 1815TIP3    H2 5403   0.921   0.425   6.387
 1816TIP3   OH2 5404   2.436   3.308   1.349
 1816TIP3    H1 5405   2.500   3.259   1.297
 1816TIP3    H2 5406   2.436   3.264   1.434
 1817TIP3   OH2 5407   7.328   0.600   1.697
 1817TIP3    H1 5408   7.343   0.633   1.786
 1817TIP3    H2 5409   7.245   0.552   1.703
 1818TIP3   OH2 5410   7.402   1.904   1.312
 1818TIP3    H1 5411   7.351   1.846   1.255
 1818TIP3    H2 5412   7.389   1.991   1.275
 1819TIP3   OH2 5413   1.110   0.000   1.506
 1819TIP3    H1 5414   1.047   0.072   1.501
 1819TIP3    H2 5415   1.194   0.043   1.520
 1820TIP3   OH2 5416   5.594   1.321   4.862
 1820TIP3    H1 5417   5.680   1.283   4.845
 1820TIP3    H2 5418   5.551   1.322   4.777
 1821TIP3   OH2 5419   6.037   3.321   6.099
 1821TIP3    H1 5420   6.020   3.284   6.012
 1821TIP3    H2 5421   6.045   3.415   6.084
 1822TIP3   OH2 5422   0.518   3.163   3.387
 1822TIP3    H1 5423   0.561   3.148   3.303
 1822TIP3    H2 5424   0.578   3.219   3.436
 1823TIP3   OH2 5425   3.608   0.337   2.971
 1823TIP3    H1 5426   3.652   0.402   3.027
 1823TIP3    H2 5427   3.578   0.270   3.032
 1824TIP3   OH2 5428   6.659   6.856   0.758
 1824TIP3    H1 5429   6.737   6.807   0.783
 1824TIP3    H2 5430   6.587   6.794   0.770
 1825TIP3   OH2 5431   1.365   3.000   0.782
 1825TIP3    H1 5432   1.368   2.911   0.817
 1825TIP3    H2 5433   1.291   2.999   0.720
 1826TIP3   OH2 5434   7.063   2.638   2.045
 1826TIP3    H1 5435   7.082   2.547   2.068
 1826TIP3    H2 5436   7.029   2.633   1.956
 1827TIP3   OH2 5437   6.483   0.669   6.635
 1827TIP3    H1 5438   6.530   0.617   6.569
 1827TIP3    H2 5439   6.412   0.710   6.586
 1828TIP3   OH2 5440   7.501   6.955   6.102
 1828TIP3    H1 5441   7.514   6.969   6.196
 1828TIP3    H2 5442   7.435   7.020   6.077
 1829TIP3   OH2 5443   3.237   5.245   1.564
 1829TIP3    H1 5444   3.149   5.209   1.559
 1829TIP3    H2 5445   3.293   5.167   1.572
 1830TIP3   OH2 5446   8.209   6.373   0.691
 1830TIP3    H1 5447   8.129   6.405   0.648
 1830TIP3    H2 5448   8.184   6.362   0.783
 1831TIP3   OH2 5449   1.277   4.717   4.412
 1831TIP3    H1 5450   1.286   4.641   4.354
 1831TIP3    H2 5451   1.184   4.737   4.411
 1832TIP3   OH2 5452   0.856   0.428   5.879
 1832TIP3    H1 5453   0.768   0.450   5.848
 1832TIP3    H2 5454   0.903   0.399   5.801
 1833TIP3   OH2 5455   1.122   5.433   2.533
 1833TIP3    H1 5456   1.156   5.376   2.464
 1833TIP3    H2 5457   1.057   5.487   2.488
 1834TIP3   OH2 5458   6.793   2.427   0.762
 1834TIP3    H1 5459   6.730   2.383   0.819
 1834TIP3    H2 5460   6.857   2.465   0.821
 1835TIP3   OH2 5461   1.865   1.747   4.266
 1835TIP3    H1 5462   1.792   1.687   4.250
 1835TIP3    H2 5463   1.918   1.703   4.332
 1836TIP3   OH2 5464   1.037   1.011   5.235
 1836TIP3    H1 5465   1.065   0.968   5.316
 1836TIP3    H2 5466   1.099   0.982   5.169
 1837TIP3   OH2 5467   6.571   5.345   2.782
 1837TIP3    H1 5468   6.616   5.269   2.745
 1837TIP3    H2 5469   6.526   5.312   2.859
 1838TIP3   OH2 5470   0.243   0.393   4.943
 1838TIP3    H1 5471   0.216   0.468   4.996
 1838TIP3    H2 5472   0.331   0.372   4.974
 1839TIP3   OH2 5473   6.999   5.361   1.727
 1839TIP3    H1 5474   7.093   5.343   1.721
 1839TIP3    H2 5475   6.975   5.335   1.816
 1840TIP3   OH2 5476   1.384   0.414   5.039
 1840TIP3    H1 5477   1.429   0.339   5.079
 1840TIP3    H2 5478   1.353   0.466   5.113
 1841TIP3   OH2 5479   7.746   7.716   2.083
 1841TIP3    H1 5480   7.800   7.789   2.054
 1841TIP3    H2 5481   7.748   7.721   2.179
 1842TIP3   OH2 5482   4.399   6.988   6.385
 1842TIP3    H1 5483   4.473   7.012   6.329
 1842TIP3    H2 5484   4.418   7.030   6.469
 1843TIP3   OH2 5485   5.085   6.738   0.514
 1843TIP3    H1 5486   5.181   6.741   0.521
 1843TIP3    H2 5487   5.065   6.786   0.434
 1844TIP3   OH2 5488   0.163   3.089   5.648
 1844TIP3    H1 5489   0.112   3.034   5.590
 1844TIP3    H2 5490   0.254   3.075   5.621
 1845TIP3   OH2 5491   5.805   4.875   5.705
 1845TIP3    H1 5492   5.802   4.808   5.773
 1845TIP3    H2 5493   5.811   4.827   5.623
 1846TIP3   OH2 5494   5.003   3.855   5.097
 1846TIP3    H1 5495   4.982   3.891   5.182
 1846TIP3    H2 5496   4.951   3.906   5.035
 1847TIP3   OH2 5497   7.714   3.596   6.031
 1847TIP3    H1 5498   7.765   3.669   5.995
 1847TIP3    H2 5499   7.780   3.538   6.069
 1848TIP3   OH2 5500   7.402   2.260   4.618
 1848TIP3    H1 5501   7.399   2.253   4.522
 1848TIP3    H2 5502   7.444   2.180   4.647
 1849TIP3   OH2 5503   0.268   3.168   2.546
 1849TIP3    H1 5504   0.249   3.090   2.598
 1849TIP3    H2 5505   0.269   3.137   2.455
 1850TIP3   OH2 5506   4.421   6.327   2.641
 1850TIP3    H1 5507   4.410   6.232   2.638
 1850TIP3    H2 5508   4.480   6.343   2.714
 1851TIP3   OH2 5509   7.337   3.488   4.659
 1851TIP3    H1 5510   7.316   3.448   4.575
 1851TIP3    H2 5511   7.265   3.550   4.674
 1852TIP3   OH2 5512   4.187   0.427   4.237
 1852TIP3    H1 5513   4.210   0.346   4.282
 1852TIP3    H2 5514   4.097   0.414   4.208
 1853TIP3   OH2 5515   5.567   5.999   3.038
 1853TIP3    H1 5516   5.537   6.056   2.968
 1853TIP3    H2 5517   5.580   6.057   3.113
 1854TIP3   OH2 5518   3.665   2.890   2.226
 1854TIP3    H1 5519   3.595   2.952   2.205
 1854TIP3    H2 5520   3.722   2.938   2.287
 1855TIP3   OH2 5521   3.540   0.919   3.847
 1855TIP3    H1 5522   3.633   0.897   3.841
 1855TIP3    H2 5523   3.518   0.951   3.759
 1856TIP3   OH2 5524   3.119   7.321   2.260
 1856TIP3    H1 5525   3.088   7.282   2.342
 1856TIP3    H2 5526   3.041   7.330   2.206
 1857TIP3   OH2 5527   0.914   1.879   4.762
 1857TIP3    H1 5528   0.955   1.800   4.727
 1857TIP3    H2 5529   0.905   1.862   4.856
 1858TIP3   OH2 5530   1.606   3.714   4.376
 1858TIP3    H1 5531   1.639   3.680   4.459
 1858TIP3    H2 5532   1.513   3.690   4.376
 1859TIP3   OH2 5533   8.157   1.173   2.764
 1859TIP3    H1 5534   8.076   1.152   2.718
 1859TIP3    H2 5535   8.193   1.248   2.716
 1860TIP3   OH2 5536   7.022   3.838   2.334
 1860TIP3    H1 5537   7.062   3.751   2.335
 1860TIP3    H2 5538   7.096   3.898   2.338
 1861TIP3   OH2 5539   3.319   6.843   1.137
 1861TIP3    H1 5540   3.326   6.748   1.137
 1861TIP3    H2 5541   3.393   6.874   1.188
 1862TIP3   OH2 5542   4.502   0.219   2.277
 1862TIP3    H1 5543   4.479   0.162   2.203
 1862TIP3    H2 5544   4.589   0.252   2.256
 1863TIP3   OH2 5545   4.631   5.490   3.768
 1863TIP3    H1 5546   4.666   5.451   3.849
 1863TIP3    H2 5547   4.537   5.498   3.784
 1864TIP3   OH2 5548   2.751   1.983   1.041
 1864TIP3    H1 5549   2.695   2.050   1.000
 1864TIP3    H2 5550   2.768   2.018   1.129
 1865TIP3   OH2 5551   1.135   5.140   2.591
 1865TIP3    H1 5552   1.152   5.219   2.642
 1865TIP3    H2 5553   1.156   5.068   2.650
 1866TIP3   OH2 5554   5.280   5.439   1.668
 1866TIP3    H1 5555   5.333   5.437   1.588
 1866TIP3    H2 5556   5.268   5.532   1.687
 1867TIP3   OH2 5557   5.722   2.034   3.576
 1867TIP3    H1 5558   5.706   1.972   3.505
 1867TIP3    H2 5559   5.777   2.102   3.537
 1868TIP3   OH2 5560   3.667   6.478   3.220
 1868TIP3    H1 5561   3.658   6.456   3.312
 1868TIP3    H2 5562   3.728   6.412   3.186
 1869TIP3   OH2 5563   0.120   2.255   0.307
 1869TIP3    H1 5564   0.140   2.162   0.316
 1869TIP3    H2 5565   0.169   2.297   0.377
 1870TIP3   OH2 5566   5.835   2.391   4.506
 1870TIP3    H1 5567   5.761   2.336   4.528
 1870TIP3    H2 5568   5.865   2.427   4.590
 1871TIP3   OH2 5569   5.129   6.308   1.026
 1871TIP3    H1 5570   5.220   6.291   1.002
 1871TIP3    H2 5571   5.091   6.222   1.040
 1872TIP3   OH2 5572   5.974   6.581   1.863
 1872TIP3    H1 5573   5.945   6.659   1.816
 1872TIP3    H2 5574   6.035   6.538   1.804
 1873TIP3   OH2 5575   7.053   5.581   1.575
 1873TIP3    H1 5576   7.052   5.492   1.612
 1873TIP3    H2 5577   6.966   5.592   1.536
 1874TIP3   OH2 5578   3.753   6.058   0.793
 1874TIP3    H1 5579   3.768   6.152   0.801
 1874TIP3    H2 5580   3.669   6.043   0.837
 1875TIP3   OH2 5581   4.300   4.311   4.261
 1875TIP3    H1 5582   4.249   4.312   4.342
 1875TIP3    H2 5583   4.374   4.369   4.279
 1876TIP3   OH2 5584   3.626   3.357   4.810
 1876TIP3    H1 5585   3.537   3.349   4.775
 1876TIP3    H2 5586   3.616   3.337   4.903
 1877TIP3   OH2 5587   5.973   5.157   3.326
 1877TIP3    H1 5588   5.923   5.172   3.246
 1877TIP3    H2 5589   5.959   5.064   3.346
 1878TIP3   OH2 5590   6.961   1.189   1.473
 1878TIP3    H1 5591   6.950   1.118   1.410
 1878TIP3    H2 5592   7.034   1.161   1.529
 1879TIP3   OH2 5593   4.333   4.130   5.211
 1879TIP3    H1 5594   4.344   4.208   5.266
 1879TIP3    H2 5595   4.421   4.092   5.206
 1880TIP3   OH2 5596   6.542   1.626   5.523
 1880TIP3    H1 5597   6.503   1.634   5.610
 1880TIP3    H2 5598   6.524   1.535   5.498
 1881TIP3   OH2 5599   4.215   3.545   1.932
 1881TIP3    H1 5600   4.225   3.454   1.906
 1881TIP3    H2 5601   4.209   3.543   2.027
 1882TIP3   OH2 5602   7.296   4.456   3.742
 1882TIP3    H1 5603   7.384   4.461   3.780
 1882TIP3    H2 5604   7.310   4.428   3.652
 1883TIP3   OH2 5605   4.761   3.724   2.842
 1883TIP3    H1 5606   4.700   3.724   2.769
 1883TIP3    H2 5607   4.734   3.651   2.897
 1884TIP3   OH2 5608   4.511   2.510   2.011
 1884TIP3    H1 5609   4.597   2.492   2.048
 1884TIP3    H2 5610   4.526   2.584   1.952
 1885TIP3   OH2 5611   1.085   0.890   0.176
 1885TIP3    H1 5612   1.072   0.802   0.140
 1885TIP3    H2 5613   1.180   0.899   0.186
 1886TIP3   OH2 5614   5.063  -0.015   0.491
 1886TIP3    H1 5615   4.996  -0.032   0.557
 1886TIP3    H2 5616   5.122   0.048   0.534
 1887TIP3   OH2 5617   3.171   1.875   6.654
 1887TIP3    H1 5618   3.153   1.821   6.577
 1887TIP3    H2 5619   3.259   1.909   6.639
 1888TIP3   OH2 5620   1.421   5.066   2.647
 1888TIP3    H1 5621   1.445   4.978   2.620
 1888TIP3    H2 5622   1.443   5.070   2.740
 1889TIP3   OH2 5623   2.151   3.731   4.102
 1889TIP3    H1 5624   2.106   3.798   4.152
 1889TIP3    H2 5625   2.200   3.779   4.034
 1890TIP3   OH2 5626   2.149   2.107   0.417
 1890TIP3    H1 5627   2.091   2.139   0.485
 1890TIP3    H2 5628   2.195   2.185   0.385
 1891TIP3   OH2 5629   6.323   5.910   1.067
 1891TIP3    H1 5630   6.403   5.923   1.118
 1891TIP3    H2 5631   6.353   5.914   0.976
 1892TIP3   OH2 5632   8.188   5.267   5.478
 1892TIP3    H1 5633   8.181   5.173   5.494
 1892TIP3    H2 5634   8.102   5.302   5.503
 1893TIP3   OH2 5635   5.297   1.123   6.526
 1893TIP3    H1 5636   5.231   1.109   6.458
 1893TIP3    H2 5637   5.300   1.218   6.537
 1894TIP3   OH2 5638   3.653   4.601   1.588
 1894TIP3    H1 5639   3.615   4.540   1.651
 1894TIP3    H2 5640   3.734   4.560   1.560
 1895TIP3   OH2 5641   7.928   6.610   3.720
 1895TIP3    H1 5642   7.892   6.679   3.664
 1895TIP3    H2 5643   7.876   6.533   3.698
 1896TIP3   OH2 5644   4.104   3.905   0.103
 1896TIP3    H1 5645   4.070   3.984   0.060
 1896TIP3    H2 5646   4.048   3.894   0.180
 1897TIP3   OH2 5647   3.667   0.674   3.805
 1897TIP3    H1 5648   3.687   0.745   3.744
 1897TIP3    H2 5649   3.577   0.649   3.784
 1898TIP3   OH2 5650   3.881   1.734   2.717
 1898TIP3    H1 5651   3.851   1.784   2.640
 1898TIP3    H2 5652   3.808   1.675   2.737
 1899TIP3   OH2 5653   4.399   6.122   0.798
 1899TIP3    H1 5654   4.325   6.065   0.777
 1899TIP3    H2 5655   4.439   6.082   0.876
 1900TIP3   OH2 5656   7.877   6.121   0.176
 1900TIP3    H1 5657   7.922   6.045   0.138
 1900TIP3    H2 5658   7.804   6.085   0.225
 1901TIP3   OH2 5659   3.811   1.889   1.994
 1901TIP3    H1 5660   3.897   1.925   1.972
 1901TIP3    H2 5661   3.768   1.873   1.910
 1902TIP3   OH2 5662   6.840   2.278   5.959
 1902TIP3    H1 5663   6.805   2.233   5.882
 1902TIP3    H2 5664   6.845   2.211   6.026
 1903TIP3   OH2 5665   2.080   7.511   2.499
 1903TIP3    H1 5666   2.052   7.423   2.525
 1903TIP3    H2 5667   2.000   7.554   2.469
 1904TIP3   OH2 5668   4.426   4.979   2.120
 1904TIP3    H1 5669   4.334   4.960   2.102
 1904TIP3    H2 5670   4.460   4.899   2.160
 1905TIP3   OH2 5671   2.370   6.967   2.240
 1905TIP3    H1 5672   2.375   6.993   2.148
 1905TIP3    H2 5673   2.293   7.012   2.273
 1906TIP3   OH2 5674   5.687   1.509   5.099
 1906TIP3    H1 5675   5.607   1.477   5.057
 1906TIP3    H2 5676   5.735   1.551   5.028
 1907TIP3   OH2 5677   7.374   5.957   1.803
 1907TIP3    H1 5678   7.286   5.929   1.781
 1907TIP3    H2 5679   7.419   5.963   1.719
 1908TIP3   OH2 5680   7.748   1.489   2.365
 1908TIP3    H1 5681   7.669   1.481   2.418
 1908TIP3    H2 5682   7.779   1.578   2.380
 1909TIP3   OH2 5683   7.742   6.284   3.192
 1909TIP3    H1 5684   7.714   6.374   3.173
 1909TIP3    H2 5685   7.827   6.295   3.235
 1910TIP3   OH2 5686   7.913   4.302   4.024
 1910TIP3    H1 5687   7.977   4.232   4.028
 1910TIP3    H2 5688   7.880   4.300   3.934
 1911TIP3   OH2 5689   2.862   3.821   2.813
 1911TIP3    H1 5690   2.778   3.793   2.776
 1911TIP3    H2 5691   2.924   3.754   2.785
 1912TIP3   OH2 5692   5.614   7.404   3.738
 1912TIP3    H1 5693   5.633   7.372   3.827
 1912TIP3    H2 5694   5.684   7.368   3.685
 1913TIP3   OH2 5695   1.949   2.279   2.526
 1913TIP3    H1 5696   1.888   2.221   2.572
 1913TIP3    H2 5697   1.913   2.288   2.438
 1914TIP3   OH2 5698   2.959   0.197   2.761
 1914TIP3    H1 5699   2.915   0.193   2.846
 1914TIP3    H2 5700   3.050   0.174   2.780
 1915TIP3   OH2 5701   4.660   0.926   2.390
 1915TIP3    H1 5702   4.709   0.907   2.310
 1915TIP3    H2 5703   4.726   0.930   2.459
 1916TIP3   OH2 5704   4.209   4.935   4.188
 1916TIP3    H1 5705   4.201   4.861   4.249
 1916TIP3    H2 5706   4.173   4.902   4.106
 1917TIP3   OH2 5707   2.303   1.838   4.428
 1917TIP3    H1 5708   2.352   1.850   4.510
 1917TIP3    H2 5709   2.288   1.927   4.396
 1918TIP3   OH2 5710   3.937   4.005   4.250
 1918TIP3    H1 5711   3.903   3.930   4.201
 1918TIP3    H2 5712   3.954   3.971   4.338
 1919TIP3   OH2 5713   3.103   2.637   0.023
 1919TIP3    H1 5714   3.019   2.666  -0.012
 1919TIP3    H2 5715   3.080   2.580   0.097
 1920TIP3   OH2 5716   2.609   0.464   2.389
 1920TIP3    H1 5717   2.581   0.376   2.413
 1920TIP3    H2 5718   2.702   0.467   2.412
 1921TIP3   OH2 5719   5.660   7.366   4.191
 1921TIP3    H1 5720   5.693   7.348   4.103
 1921TIP3    H2 5721   5.573   7.404   4.177
 1922TIP3   OH2 5722   5.891   5.247   5.134
 1922TIP3    H1 5723   5.881   5.186   5.207
 1922TIP3    H2 5724   5.986   5.258   5.125
 1923TIP3   OH2 5725   2.334   7.119   2.026
 1923TIP3    H1 5726   2.244   7.153   2.029
 1923TIP3    H2 5727   2.338   7.070   1.944
 1924TIP3   OH2 5728   3.515   1.420   0.033
 1924TIP3    H1 5729   3.525   1.512   0.007
 1924TIP3    H2 5730   3.599   1.398   0.073
 1925TIP3   OH2 5731   0.026   4.908   0.801
 1925TIP3    H1 5732   0.099   4.889   0.742
 1925TIP3    H2 5733  -0.013   4.988   0.767
 1926TIP3   OH2 5734   1.416   0.215   0.422
 1926TIP3    H1 5735   1.454   0.298   0.448
 1926TIP3    H2 5736   1.322   0.232   0.418
 1927TIP3   OH2 5737   5.073   5.324   4.498
 1927TIP3    H1 5738   5.061   5.266   4.422
 1927TIP3    H2 5739   5.018   5.285   4.566
 1928TIP3   OH2 5740   5.558   4.958   5.498
 1928TIP3    H1 5741   5.511   4.995   5.573
 1928TIP3    H2 5742   5.611   4.888   5.535
 1929TIP3   OH2 5743   3.966   3.689   4.300
 1929TIP3    H1 5744   3.959   3.735   4.384
 1929TIP3    H2 5745   3.875   3.679   4.271
 1930TIP3   OH2 5746   6.932   2.739   1.560
 1930TIP3    H1 5747   6.903   2.648   1.561
 1930TIP3    H2 5748   6.997   2.744   1.631
 1931TIP3   OH2 5749   6.176   2.622   4.309
 1931TIP3    H1 5750   6.252   2.629   4.252
 1931TIP3    H2 5751   6.167   2.528   4.325
 1932TIP3   OH2 5752   7.850   0.822   3.561
 1932TIP3    H1 5753   7.822   0.730   3.567
 1932TIP3    H2 5754   7.926   0.828   3.618
 1933TIP3   OH2 5755   4.683   0.760   6.162
 1933TIP3    H1 5756   4.766   0.763   6.209
 1933TIP3    H2 5757   4.690   0.830   6.096
 1934TIP3   OH2 5758   2.377   6.162   2.904
 1934TIP3    H1 5759   2.287   6.140   2.926
 1934TIP3    H2 5760   2.390   6.125   2.817
 1935TIP3   OH2 5761   1.547   5.338   2.792
 1935TIP3    H1 5762   1.532   5.271   2.858
 1935TIP3    H2 5763   1.589   5.410   2.840
 1936TIP3   OH2 5764   6.926   0.769   0.309
 1936TIP3    H1 5765   6.937   0.746   0.401
 1936TIP3    H2 5766   7.001   0.825   0.289
 1937TIP3   OH2 5767   7.492   1.463   2.436
 1937TIP3    H1 5768   7.434   1.387   2.447
 1937TIP3    H2 5769   7.455   1.510   2.362
 1938TIP3   OH2 5770   1.002   7.614   5.201
 1938TIP3    H1 5771   0.944   7.688   5.218
 1938TIP3    H2 5772   1.085   7.638   5.243
 1939TIP3   OH2 5773   4.953   6.221   6.703
 1939TIP3    H1 5774   5.014   6.244   6.773
 1939TIP3    H2 5775   5.007   6.222   6.624
 1940TIP3   OH2 5776   5.174   4.463   1.738
 1940TIP3    H1 5777   5.191   4.519   1.813
 1940TIP3    H2 5778   5.208   4.377   1.763
 1941TIP3   OH2 5779   7.081   0.448   1.721
 1941TIP3    H1 5780   7.056   0.443   1.813
 1941TIP3    H2 5781   6.999   0.467   1.675
 1942TIP3   OH2 5782   7.507   4.958   2.676
 1942TIP3    H1 5783   7.441   5.001   2.622
 1942TIP3    H2 5784   7.529   5.023   2.743
 1943TIP3   OH2 5785   5.964   6.690   4.566
 1943TIP3    H1 5786   6.011   6.609   4.546
 1943TIP3    H2 5787   6.005   6.722   4.647
 1944TIP3   OH2 5788   5.989   7.373   4.968
 1944TIP3    H1 5789   6.021   7.349   5.055
 1944TIP3    H2 5790   5.893   7.372   4.977
 1945TIP3   OH2 5791   3.281   4.618   1.303
 1945TIP3    H1 5792   3.345   4.555   1.335
 1945TIP3    H2 5793   3.302   4.699   1.349
 1946TIP3   OH2 5794   8.246   0.582   2.566
 1946TIP3    H1 5795   8.191   0.525   2.511
 1946TIP3    H2 5796   8.189   0.606   2.640
 1947TIP3   OH2 5797   3.567   4.487   2.517
 1947TIP3    H1 5798   3.548   4.579   2.538
 1947TIP3    H2 5799   3.531   4.474   2.430
 1948TIP3   OH2 5800   6.917   1.909   3.302
 1948TIP3    H1 5801   6.889   1.836   3.248
 1948TIP3    H2 5802   6.876   1.893   3.387
 1949TIP3   OH2 5803   1.112   2.423   1.603
 1949TIP3    H1 5804   1.200   2.449   1.575
 1949TIP3    H2 5805   1.116   2.421   1.698
 1950TIP3   OH2 5806   1.559   1.391   5.146
 1950TIP3    H1 5807   1.491   1.345   5.097
 1950TIP3    H2 5808   1.592   1.458   5.086
 1951TIP3   OH2 5809   0.614   7.652   5.632
 1951TIP3    H1 5810   0.648   7.578   5.582
 1951TIP3    H2 5811   0.546   7.690   5.575
 1952TIP3   OH2 5812   1.466   5.446   0.251
 1952TIP3    H1 5813   1.543   5.455   0.194
 1952TIP3    H2 5814   1.421   5.368   0.218
 1953TIP3   OH2 5815   5.368   2.305   1.150
 1953TIP3    H1 5816   5.302   2.288   1.217
 1953TIP3    H2 5817   5.451   2.281   1.190
 1954TIP3   OH2 5818   0.074   2.506   3.744
 1954TIP3    H1 5819   0.065   2.573   3.676
 1954TIP3    H2 5820   0.049   2.551   3.825
 1955TIP3   OH2 5821   8.198   1.435   0.668
 1955TIP3    H1 5822   8.125   1.495   0.653
 1955TIP3    H2 5823   8.162   1.348   0.653
 1956TIP3   OH2 5824   8.075   1.941   1.795
 1956TIP3    H1 5825   7.992   1.893   1.791
 1956TIP3    H2 5826   8.137   1.879   1.833
 1957TIP3   OH2 5827   1.257   6.083   3.713
 1957TIP3    H1 5828   1.236   6.177   3.716
 1957TIP3    H2 5829   1.208   6.046   3.787
 1958TIP3   OH2 5830   7.174   7.346   0.902
 1958TIP3    H1 5831   7.226   7.374   0.978
 1958TIP3    H2 5832   7.136   7.262   0.929
 1959TIP3   OH2 5833   7.468   5.528   4.001
 1959TIP3    H1 5834   7.444   5.618   3.981
 1959TIP3    H2 5835   7.451   5.479   3.920
 1960TIP3   OH2 5836   2.293   5.914   0.226
 1960TIP3    H1 5837   2.340   5.990   0.260
 1960TIP3    H2 5838   2.291   5.928   0.131
 1961TIP3   OH2 5839   3.927   2.817   3.609
 1961TIP3    H1 5840   3.901   2.902   3.574
 1961TIP3    H2 5841   3.996   2.787   3.549
 1962TIP3   OH2 5842   1.853   0.763   6.701
 1962TIP3    H1 5843   1.918   0.806   6.646
 1962TIP3    H2 5844   1.790   0.832   6.723
 1963TIP3   OH2 5845   5.261   7.546   5.381
 1963TIP3    H1 5846   5.336   7.593   5.418
 1963TIP3    H2 5847   5.226   7.606   5.315
 1964TIP3   OH2 5848   1.124   2.930   0.665
 1964TIP3    H1 5849   1.121   2.887   0.579
 1964TIP3    H2 5850   1.063   2.880   0.719
 1965TIP3   OH2 5851   7.169   5.555   2.960
 1965TIP3    H1 5852   7.120   5.480   2.925
 1965TIP3    H2 5853   7.201   5.525   3.045
 1966TIP3   OH2 5854   3.005   2.905   2.116
 1966TIP3    H1 5855   3.090   2.884   2.078
 1966TIP3    H2 5856   3.019   2.989   2.160
 1967TIP3   OH2 5857   1.615   3.289   4.468
 1967TIP3    H1 5858   1.523   3.316   4.469
 1967TIP3    H2 5859   1.662   3.359   4.513
 1968TIP3   OH2 5860   4.708   1.457   3.276
 1968TIP3    H1 5861   4.664   1.373   3.266
 1968TIP3    H2 5862   4.638   1.518   3.300
 1969TIP3   OH2 5863   3.278   3.319   3.517
 1969TIP3    H1 5864   3.189   3.346   3.491
 1969TIP3    H2 5865   3.299   3.376   3.590
 1970TIP3   OH2 5866   4.289   1.445   1.633
 1970TIP3    H1 5867   4.196   1.465   1.639
 1970TIP3    H2 5868   4.293   1.350   1.621
 1971TIP3   OH2 5869   4.087   3.006   1.164
 1971TIP3    H1 5870   4.170   3.037   1.128
 1971TIP3    H2 5871   4.076   2.918   1.128
 1972TIP3   OH2 5872   4.408   0.918   5.182
 1972TIP3    H1 5873   4.344   0.980   5.146
 1972TIP3    H2 5874   4.481   0.920   5.121
 1973TIP3   OH2 5875   5.343   6.688   6.463
 1973TIP3    H1 5876   5.328   6.613   6.521
 1973TIP3    H2 5877   5.335   6.764   6.520
 1974TIP3   OH2 5878   2.723   2.138   0.062
 1974TIP3    H1 5879   2.788   2.160   0.129
 1974TIP3    H2 5880   2.775   2.116  -0.015
 1975TIP3   OH2 5881   1.658   6.245   5.906
 1975TIP3    H1 5882   1.664   6.306   5.980
 1975TIP3    H2 5883   1.749   6.227   5.882
 1976TIP3   OH2 5884   2.016   6.435   3.030
 1976TIP3    H1 5885   1.950   6.496   3.062
 1976TIP3    H2 5886   2.073   6.419   3.105
 1977TIP3   OH2 5887   0.162   3.591   5.331
 1977TIP3    H1 5888   0.112   3.626   5.256
 1977TIP3    H2 5889   0.239   3.648   5.337
 1978TIP3   OH2 5890   0.440   3.810   0.098
 1978TIP3    H1 5891   0.501   3.850   0.037
 1978TIP3    H2 5892   0.454   3.716   0.088
 1979TIP3   OH2 5893   1.134   7.170   0.068
 1979TIP3    H1 5894   1.052   7.210   0.040
 1979TIP3    H2 5895   1.160   7.115  -0.006
 1980TIP3   OH2 5896   0.958   4.819   2.581
 1980TIP3    H1 5897   0.930   4.727   2.578
 1980TIP3    H2 5898   1.030   4.820   2.644
 1981TIP3   OH2 5899   1.117   1.848   5.414
 1981TIP3    H1 5900   1.126   1.937   5.448
 1981TIP3    H2 5901   1.107   1.860   5.319
 1982TIP3   OH2 5902   4.742   7.475   1.324
 1982TIP3    H1 5903   4.802   7.418   1.372
 1982TIP3    H2 5904   4.739   7.437   1.236
 1983TIP3   OH2 5905   3.897   6.296   3.205
 1983TIP3    H1 5906   3.968   6.356   3.229
 1983TIP3    H2 5907   3.940   6.210   3.200
 1984TIP3   OH2 5908   6.582   2.336   5.215
 1984TIP3    H1 5909   6.536   2.288   5.146
 1984TIP3    H2 5910   6.516   2.351   5.282
 1985TIP3   OH2 5911   2.933   0.305   3.799
 1985TIP3    H1 5912   2.938   0.236   3.733
 1985TIP3    H2 5913   2.945   0.386   3.749
 1986TIP3   OH2 5914   5.167   5.853   2.246
 1986TIP3    H1 5915   5.136   5.938   2.215
 1986TIP3    H2 5916   5.206   5.813   2.168
 1987TIP3   OH2 5917   5.158   5.340   2.422
 1987TIP3    H1 5918   5.210   5.405   2.374
 1987TIP3    H2 5919   5.182   5.354   2.514
 1988TIP3   OH2 5920   8.136   2.325   4.530
 1988TIP3    H1 5921   8.129   2.232   4.552
 1988TIP3    H2 5922   8.229   2.337   4.510
 1989TIP3   OH2 5923   0.348   0.570   0.065
 1989TIP3    H1 5924   0.382   0.606  -0.017
 1989TIP3    H2 5925   0.318   0.483   0.042
 1990TIP3   OH2 5926   6.645   2.636   3.864
 1990TIP3    H1 5927   6.560   2.676   3.883
 1990TIP3    H2 5928   6.709   2.704   3.886
 1991TIP3   OH2 5929   3.858   0.489   3.855
 1991TIP3    H1 5930   3.781   0.535   3.820
 1991TIP3    H2 5931   3.918   0.559   3.881
 1992TIP3   OH2 5932   0.097   7.258   4.657
 1992TIP3    H1 5933   0.028   7.268   4.723
 1992TIP3    H2 5934   0.178   7.248   4.707
 1993TIP3   OH2 5935   3.889   6.731   2.648
 1993TIP3    H1 5936   3.823   6.662   2.661
 1993TIP3    H2 5937   3.971   6.691   2.675
 1994TIP3   OH2 5938   3.486   7.253   3.502
 1994TIP3    H1 5939   3.493   7.317   3.573
 1994TIP3    H2 5940   3.496   7.305   3.422
 1995TIP3   OH2 5941   6.254   6.279   4.838
 1995TIP3    H1 5942   6.308   6.222   4.892
 1995TIP3    H2 5943   6.228   6.224   4.763
 1996TIP3   OH2 5944   0.753   7.596   4.544
 1996TIP3    H1 5945   0.779   7.660   4.611
 1996TIP3    H2 5946   0.697   7.644   4.484
 1997TIP3   OH2 5947   0.854   3.552   2.187
 1997TIP3    H1 5948   0.872   3.520   2.276
 1997TIP3    H2 5949   0.769   3.597   2.195
 1998TIP3   OH2 5950   2.475   5.821   3.946
 1998TIP3    H1 5951   2.498   5.899   3.997
 1998TIP3    H2 5952   2.410   5.852   3.883
 1999TIP3   OH2 5953   6.278   2.542   0.506
 1999TIP3    H1 5954   6.186   2.537   0.481
 1999TIP3    H2 5955   6.321   2.473   0.457
 2000TIP3   OH2 5956   2.201   5.924   1.659
 2000TIP3    H1 5957   2.172   5.980   1.586
 2000TIP3    H2 5958   2.296   5.918   1.648
 2001TIP3   OH2 5959   6.593   4.796   4.396
 2001TIP3    H1 5960   6.514   4.846   4.415
 2001TIP3    H2 5961   6.573   4.707   4.426
 2002TIP3   OH2 5962   3.555   0.118   3.168
 2002TIP3    H1 5963   3.580   0.147   3.255
 2002TIP3    H2 5964   3.542   0.024   3.177
 2003TIP3   OH2 5965   7.548   7.193   0.240
 2003TIP3    H1 5966   7.463   7.232   0.216
 2003TIP3    H2 5967   7.600   7.267   0.272
 2004TIP3   OH2 5968   6.594   1.976   2.927
 2004TIP3    H1 5969   6.683   2.012   2.927
 2004TIP3    H2 5970   6.568   1.976   2.835
 2005TIP3   OH2 5971   7.393   0.361   2.509
 2005TIP3    H1 5972   7.437   0.385   2.591
 2005TIP3    H2 5973   7.427   0.274   2.489
 2006TIP3   OH2 5974   0.250   7.151   3.091
 2006TIP3    H1 5975   0.234   7.148   3.185
 2006TIP3    H2 5976   0.163   7.160   3.053
 2007TIP3   OH2 5977   5.674   1.224   6.469
 2007TIP3    H1 5978   5.696   1.277   6.546
 2007TIP3    H2 5979   5.681   1.134   6.501
 2008TIP3   OH2 5980   3.662   2.391   0.382
 2008TIP3    H1 5981   3.666   2.441   0.300
 2008TIP3    H2 5982   3.721   2.438   0.441
 2009TIP3   OH2 5983   8.138   2.273   0.037
 2009TIP3    H1 5984   8.095   2.284  -0.048
 2009TIP3    H2 5985   8.082   2.211   0.084
 2010TIP3   OH2 5986   7.369   1.046   4.441
 2010TIP3    H1 5987   7.376   1.032   4.535
 2010TIP3    H2 5988   7.307   1.118   4.432
 2011TIP3   OH2 5989   7.112   5.793   4.814
 2011TIP3    H1 5990   7.203   5.761   4.816
 2011TIP3    H2 5991   7.114   5.866   4.751
 2012TIP3   OH2 5992   2.066   7.658   5.151
 2012TIP3    H1 5993   2.139   7.648   5.213
 2012TIP3    H2 5994   2.106   7.646   5.065
 2013TIP3   OH2 5995   2.470   3.904   3.557
 2013TIP3    H1 5996   2.516   3.948   3.629
 2013TIP3    H2 5997   2.408   3.846   3.601
 2014TIP3   OH2 5998   6.704   3.226   3.373
 2014TIP3    H1 5999   6.756   3.160   3.326
 2014TIP3    H2 6000   6.767   3.268   3.432
 2015TIP3   OH2 6001   2.369   3.592   6.399
 2015TIP3    H1 6002   2.341   3.504   6.423
 2015TIP3    H2 6003   2.464   3.588   6.400
 2016TIP3   OH2 6004   6.213   4.284   5.900
 2016TIP3    H1 6005   6.178   4.237   5.824
 2016TIP3    H2 6006   6.249   4.365   5.863
 2017TIP3   OH2 6007   0.766   4.162   0.343
 2017TIP3    H1 6008   0.787   4.174   0.436
 2017TIP3    H2 6009   0.700   4.093   0.343
 2018TIP3   OH2 6010   6.580   5.312   1.827
 2018TIP3    H1 6011   6.542   5.227   1.805
 2018TIP3    H2 6012   6.668   5.292   1.858
 2019TIP3   OH2 6013   6.515   5.216   3.363
 2019TIP3    H1 6014   6.527   5.146   3.427
 2019TIP3    H2 6015   6.421   5.216   3.344
 2020TIP3   OH2 6016   5.905   2.961   3.898
 2020TIP3    H1 6017   5.942   3.045   3.872
 2020TIP3    H2 6018   5.812   2.979   3.912
 2021TIP3   OH2 6019   0.912   3.791   2.488
 2021TIP3    H1 6020   0.830   3.788   2.537
 2021TIP3    H2 6021   0.887   3.822   2.401
 2022TIP3   OH2 6022   3.454   1.302   4.832
 2022TIP3    H1 6023   3.397   1.290   4.908
 2022TIP3    H2 6024   3.422   1.382   4.791
 2023TIP3   OH2 6025   5.919   1.914   2.531
 2023TIP3    H1 6026   6.000   1.897   2.577
 2023TIP3    H2 6027   5.897   1.831   2.489
 2024TIP3   OH2 6028   2.780   3.326   5.247
 2024TIP3    H1 6029   2.819   3.407   5.215
 2024TIP3    H2 6030   2.686   3.335   5.229
 2025TIP3   OH2 6031   1.875   4.951   2.862
 2025TIP3    H1 6032   1.957   4.948   2.813
 2025TIP3    H2 6033   1.850   5.043   2.862
 2026TIP3   OH2 6034   7.026   6.228   1.911
 2026TIP3    H1 6035   7.072   6.310   1.893
 2026TIP3    H2 6036   7.018   6.186   1.825
 2027TIP3   OH2 6037   6.478   0.707   2.447
 2027TIP3    H1 6038   6.439   0.762   2.379
 2027TIP3    H2 6039   6.573   0.714   2.432
 2028TIP3   OH2 6040   3.652   1.653   4.768
 2028TIP3    H1 6041   3.616   1.721   4.711
 2028TIP3    H2 6042   3.618   1.675   4.855
 2029TIP3   OH2 6043   3.024   2.144   1.096
 2029TIP3    H1 6044   2.996   2.076   1.035
 2029TIP3    H2 6045   2.943   2.185   1.125
 2030TIP3   OH2 6046   5.976   5.011   2.331
 2030TIP3    H1 6047   6.020   5.069   2.268
 2030TIP3    H2 6048   6.029   4.931   2.329
 2031TIP3   OH2 6049   4.307   3.796   5.398
 2031TIP3    H1 6050   4.247   3.733   5.436
 2031TIP3    H2 6051   4.373   3.811   5.465
 2032TIP3   OH2 6052   6.742   2.157   2.091
 2032TIP3    H1 6053   6.778   2.245   2.090
 2032TIP3    H2 6054   6.733   2.136   2.184
 2033TIP3   OH2 6055   5.126   0.788   4.385
 2033TIP3    H1 6056   5.150   0.751   4.470
 2033TIP3    H2 6057   5.186   0.862   4.373
 2034TIP3   OH2 6058   1.080   6.177   1.401
 2034TIP3    H1 6059   1.042   6.092   1.423
 2034TIP3    H2 6060   1.005   6.234   1.388
 2035TIP3   OH2 6061   7.177   4.735   6.480
 2035TIP3    H1 6062   7.262   4.692   6.487
 2035TIP3    H2 6063   7.198   4.826   6.462
 2036TIP3   OH2 6064   3.660   6.094   2.634
 2036TIP3    H1 6065   3.728   6.133   2.690
 2036TIP3    H2 6066   3.700   6.013   2.602
 2037TIP3   OH2 6067   6.425   3.185   5.834
 2037TIP3    H1 6068   6.476   3.264   5.847
 2037TIP3    H2 6069   6.434   3.137   5.917
 2038TIP3   OH2 6070   6.404   7.310   3.425
 2038TIP3    H1 6071   6.336   7.363   3.466
 2038TIP3    H2 6072   6.463   7.375   3.386
 2039TIP3   OH2 6073   1.978   5.610   2.649
 2039TIP3    H1 6074   1.948   5.701   2.648
 2039TIP3    H2 6075   1.928   5.570   2.720
 2040TIP3   OH2 6076   7.673   1.442   2.090
 2040TIP3    H1 6077   7.715   1.510   2.143
 2040TIP3    H2 6078   7.631   1.490   2.018
 2041TIP3   OH2 6079   3.979   0.816   1.452
 2041TIP3    H1 6080   3.993   0.801   1.359
 2041TIP3    H2 6081   3.914   0.886   1.455
 2042TIP3   OH2 6082   4.368   1.427   2.329
 2042TIP3    H1 6083   4.420   1.483   2.271
 2042TIP3    H2 6084   4.356   1.479   2.408
 2043TIP3   OH2 6085   6.638   6.533   0.983
 2043TIP3    H1 6086   6.679   6.618   0.968
 2043TIP3    H2 6087   6.712   6.474   0.998
 2044TIP3   OH2 6088   3.128   2.623   4.964
 2044TIP3    H1 6089   3.079   2.627   4.882
 2044TIP3    H2 6090   3.215   2.592   4.939
 2045TIP3   OH2 6091   6.776   0.649   2.646
 2045TIP3    H1 6092   6.719   0.585   2.690
 2045TIP3    H2 6093   6.794   0.609   2.561
 2046TIP3   OH2 6094   7.178   1.832   6.159
 2046TIP3    H1 6095   7.197   1.746   6.121
 2046TIP3    H2 6096   7.199   1.894   6.090
 2047TIP3   OH2 6097   1.593   4.032   1.177
 2047TIP3    H1 6098   1.560   4.119   1.199
 2047TIP3    H2 6099   1.666   4.047   1.117
 2048TIP3   OH2 6100   6.494   6.871   3.036
 2048TIP3    H1 6101   6.455   6.953   3.006
 2048TIP3    H2 6102   6.515   6.823   2.956
 2049TIP3   OH2 6103   5.124   1.522   3.452
 2049TIP3    H1 6104   5.129   1.508   3.547
 2049TIP3    H2 6105   5.092   1.438   3.418
 2050TIP3   OH2 6106   7.523   5.024   5.691
 2050TIP3    H1 6107   7.600   5.073   5.721
 2050TIP3    H2 6108   7.480   5.083   5.630
 2051TIP3   OH2 6109   1.680   1.713   1.554
 2051TIP3    H1 6110   1.621   1.688   1.625
 2051TIP3    H2 6111   1.623   1.727   1.479
 2052TIP3   OH2 6112   7.102   5.812   3.387
 2052TIP3    H1 6113   7.081   5.874   3.318
 2052TIP3    H2 6114   7.169   5.856   3.439
 2053TIP3   OH2 6115   5.155   1.921   0.781
 2053TIP3    H1 6116   5.120   1.833   0.770
 2053TIP3    H2 6117   5.145   1.939   0.875
 2054TIP3   OH2 6118   4.689   7.571   6.397
 2054TIP3    H1 6119   4.764   7.589   6.342
 2054TIP3    H2 6120   4.713   7.605   6.483
 2055TIP3   OH2 6121   4.955   1.017   0.279
 2055TIP3    H1 6122   4.872   1.047   0.243
 2055TIP3    H2 6123   4.980   0.943   0.224
 2056TIP3   OH2 6124   0.491   0.742   4.862
 2056TIP3    H1 6125   0.460   0.824   4.902
 2056TIP3    H2 6126   0.458   0.746   4.772
 2057TIP3   OH2 6127   0.249   0.534   1.551
 2057TIP3    H1 6128   0.340   0.535   1.524
 2057TIP3    H2 6129   0.202   0.495   1.476
 2058TIP3   OH2 6130   6.485   7.699   4.622
 2058TIP3    H1 6131   6.532   7.701   4.705
 2058TIP3    H2 6132   6.396   7.724   4.644
 2059TIP3   OH2 6133   4.457   5.179   2.711
 2059TIP3    H1 6134   4.427   5.221   2.791
 2059TIP3    H2 6135   4.534   5.230   2.685
 2060TIP3   OH2 6136   6.575   6.176   3.738
 2060TIP3    H1 6137   6.608   6.115   3.672
 2060TIP3    H2 6138   6.576   6.261   3.695
 2061TIP3   OH2 6139   6.521   2.928   1.505
 2061TIP3    H1 6140   6.573   2.858   1.466
 2061TIP3    H2 6141   6.544   2.927   1.598
 2062TIP3   OH2 6142   7.720   0.927   6.387
 2062TIP3    H1 6143   7.703   1.003   6.443
 2062TIP3    H2 6144   7.638   0.910   6.342
 2063TIP3   OH2 6145   7.493   1.027   1.667
 2063TIP3    H1 6146   7.469   1.078   1.744
 2063TIP3    H2 6147   7.568   0.974   1.695
 2064TIP3   OH2 6148   0.226   3.229   6.249
 2064TIP3    H1 6149   0.285   3.175   6.197
 2064TIP3    H2 6150   0.140   3.216   6.209
 2065TIP3   OH2 6151   5.185   4.685   1.192
 2065TIP3    H1 6152   5.097   4.671   1.157
 2065TIP3    H2 6153   5.209   4.601   1.232
 2066TIP3   OH2 6154   5.880   5.468   6.649
 2066TIP3    H1 6155   5.856   5.383   6.685
 2066TIP3    H2 6156   5.807   5.492   6.591
 2067TIP3   OH2 6157   1.985   4.846   4.193
 2067TIP3    H1 6158   2.054   4.820   4.131
 2067TIP3    H2 6159   1.904   4.832   4.145
 2068TIP3   OH2 6160   0.054   0.035   4.556
 2068TIP3    H1 6161   0.089   0.011   4.470
 2068TIP3    H2 6162   0.123   0.087   4.597
 2069TIP3   OH2 6163   3.575   4.368   4.442
 2069TIP3    H1 6164   3.520   4.330   4.511
 2069TIP3    H2 6165   3.648   4.307   4.433
 2070TIP3   OH2 6166   6.927   7.106   5.157
 2070TIP3    H1 6167   6.909   7.128   5.066
 2070TIP3    H2 6168   7.022   7.117   5.165
 2071TIP3   OH2 6169   0.806   1.783   4.212
 2071TIP3    H1 6170   0.712   1.783   4.194
 2071TIP3    H2 6171   0.813   1.763   4.305
 2072TIP3   OH2 6172   1.523   4.319   5.728
 2072TIP3    H1 6173   1.598   4.301   5.785
 2072TIP3    H2 6174   1.496   4.234   5.695
 2073TIP3   OH2 6175   1.297   4.820   6.420
 2073TIP3    H1 6176   1.300   4.873   6.499
 2073TIP3    H2 6177   1.208   4.783   6.419
 2074TIP3   OH2 6178   3.692   5.839   6.530
 2074TIP3    H1 6179   3.732   5.925   6.512
 2074TIP3    H2 6180   3.636   5.822   6.454
 2075TIP3   OH2 6181   4.362   5.693   0.987
 2075TIP3    H1 6182   4.276   5.668   0.953
 2075TIP3    H2 6183   4.375   5.638   1.064
 2076TIP3   OH2 6184   3.264   7.088   1.602
 2076TIP3    H1 6185   3.276   7.099   1.508
 2076TIP3    H2 6186   3.279   7.175   1.639
 2077TIP3   OH2 6187   1.842   7.661   0.174
 2077TIP3    H1 6188   1.760   7.708   0.159
 2077TIP3    H2 6189   1.905   7.704   0.116
 2078TIP3   OH2 6190   2.527   2.098   4.430
 2078TIP3    H1 6191   2.497   2.050   4.507
 2078TIP3    H2 6192   2.459   2.162   4.413
 2079TIP3   OH2 6193   5.413   3.795   5.643
 2079TIP3    H1 6194   5.507   3.775   5.645
 2079TIP3    H2 6195   5.410   3.891   5.646
 2080TIP3   OH2 6196   4.550   4.131   6.687
 2080TIP3    H1 6197   4.552   4.093   6.599
 2080TIP3    H2 6198   4.640   4.127   6.717
 2081TIP3   OH2 6199   4.392   6.932   2.493
 2081TIP3    H1 6200   4.390   6.842   2.526
 2081TIP3    H2 6201   4.482   6.960   2.507
 2082TIP3   OH2 6202   2.163   2.633   0.871
 2082TIP3    H1 6203   2.126   2.681   0.796
 2082TIP3    H2 6204   2.203   2.701   0.925
 2083TIP3   OH2 6205   0.749   6.893   5.347
 2083TIP3    H1 6206   0.825   6.942   5.314
 2083TIP3    H2 6207   0.738   6.821   5.285
 2084TIP3   OH2 6208   6.613   1.438   1.893
 2084TIP3    H1 6209   6.668   1.458   1.817
 2084TIP3    H2 6210   6.625   1.513   1.951
 2085TIP3   OH2 6211   6.651   1.384   4.590
 2085TIP3    H1 6212   6.738   1.383   4.550
 2085TIP3    H2 6213   6.668   1.396   4.684
 2086TIP3   OH2 6214   6.366   3.518   3.482
 2086TIP3    H1 6215   6.360   3.483   3.571
 2086TIP3    H2 6216   6.333   3.449   3.426
 2087TIP3   OH2 6217   3.314   7.309   0.694
 2087TIP3    H1 6218   3.255   7.267   0.632
 2087TIP3    H2 6219   3.305   7.257   0.774
 2088TIP3   OH2 6220   1.800   0.850   4.367
 2088TIP3    H1 6221   1.878   0.796   4.358
 2088TIP3    H2 6222   1.790   0.893   4.283
 2089TIP3   OH2 6223   0.255   4.016   4.954
 2089TIP3    H1 6224   0.309   3.984   4.882
 2089TIP3    H2 6225   0.243   4.110   4.935
 2090TIP3   OH2 6226   8.092   6.849   6.185
 2090TIP3    H1 6227   8.137   6.766   6.172
 2090TIP3    H2 6228   8.112   6.874   6.275
 2091TIP3   OH2 6229   3.563   1.415   0.792
 2091TIP3    H1 6230   3.560   1.476   0.719
 2091TIP3    H2 6231   3.476   1.374   0.792
 2092TIP3   OH2 6232   7.127   3.153   2.995
 2092TIP3    H1 6233   7.153   3.244   2.976
 2092TIP3    H2 6234   7.110   3.115   2.909
 2093TIP3   OH2 6235   5.564   4.472   5.921
 2093TIP3    H1 6236   5.603   4.389   5.947
 2093TIP3    H2 6237   5.578   4.477   5.827
 2094TIP3   OH2 6238   2.006   1.574   2.704
 2094TIP3    H1 6239   2.006   1.527   2.620
 2094TIP3    H2 6240   1.915   1.574   2.731
 2095TIP3   OH2 6241   4.232   2.357   4.687
 2095TIP3    H1 6242   4.290   2.351   4.763
 2095TIP3    H2 6243   4.270   2.296   4.624
 2096TIP3   OH2 6244   2.015   3.822   6.247
 2096TIP3    H1 6245   1.974   3.749   6.201
 2096TIP3    H2 6246   2.076   3.860   6.183
 2097TIP3   OH2 6247   1.279   2.876   2.267
 2097TIP3    H1 6248   1.258   2.798   2.318
 2097TIP3    H2 6249   1.239   2.860   2.181
 2098TIP3   OH2 6250   0.961   4.897   5.179
 2098TIP3    H1 6251   0.952   4.906   5.084
 2098TIP3    H2 6252   0.909   4.968   5.215
 2099TIP3   OH2 6253   1.254   7.015   2.900
 2099TIP3    H1 6254   1.347   7.015   2.875
 2099TIP3    H2 6255   1.229   7.108   2.896
 2100TIP3   OH2 6256   0.943   6.454   4.644
 2100TIP3    H1 6257   0.942   6.363   4.673
 2100TIP3    H2 6258   0.912   6.504   4.719
 2101TIP3   OH2 6259   3.469   3.984   4.792
 2101TIP3    H1 6260   3.438   3.985   4.883
 2101TIP3    H2 6261   3.511   3.899   4.782
 2102TIP3   OH2 6262   7.142   1.450   0.499
 2102TIP3    H1 6263   7.048   1.443   0.515
 2102TIP3    H2 6264   7.180   1.465   0.585
 2103TIP3   OH2 6265   0.895   2.681   3.439
 2103TIP3    H1 6266   0.820   2.623   3.455
 2103TIP3    H2 6267   0.886   2.751   3.503
 2104TIP3   OH2 6268   3.264   0.608   3.544
 2104TIP3    H1 6269   3.339   0.602   3.604
 2104TIP3    H2 6270   3.300   0.651   3.466
 2105TIP3   OH2 6271   6.011   6.984   0.466
 2105TIP3    H1 6272   5.990   7.077   0.476
 2105TIP3    H2 6273   5.973   6.942   0.544
 2106TIP3   OH2 6274   6.594   2.847   6.608
 2106TIP3    H1 6275   6.589   2.883   6.696
 2106TIP3    H2 6276   6.618   2.755   6.620
 2107TIP3   OH2 6277   1.597   4.839   6.610
 2107TIP3    H1 6278   1.664   4.904   6.586
 2107TIP3    H2 6279   1.550   4.823   6.528
 2108TIP3   OH2 6280   3.403   7.426   2.541
 2108TIP3    H1 6281   3.338   7.452   2.476
 2108TIP3    H2 6282   3.429   7.337   2.516
 2109TIP3   OH2 6283   0.357   4.693   3.616
 2109TIP3    H1 6284   0.378   4.679   3.708
 2109TIP3    H2 6285   0.262   4.682   3.612
 2110TIP3   OH2 6286   3.539   3.036   4.344
 2110TIP3    H1 6287   3.596   3.094   4.394
 2110TIP3    H2 6288   3.592   3.007   4.270
 2111TIP3   OH2 6289   5.032   3.136   2.993
 2111TIP3    H1 6290   5.046   3.097   2.907
 2111TIP3    H2 6291   5.022   3.062   3.053
 2112TIP3   OH2 6292   4.959   6.779   4.117
 2112TIP3    H1 6293   4.961   6.817   4.205
 2112TIP3    H2 6294   5.026   6.710   4.119
 2113TIP3   OH2 6295   1.258   5.871   2.719
 2113TIP3    H1 6296   1.179   5.851   2.768
 2113TIP3    H2 6297   1.330   5.847   2.778
 2114TIP3   OH2 6298   4.620   0.456   6.314
 2114TIP3    H1 6299   4.712   0.431   6.323
 2114TIP3    H2 6300   4.619   0.517   6.240
 2115TIP3   OH2 6301   5.478   1.261   6.249
 2115TIP3    H1 6302   5.559   1.262   6.301
 2115TIP3    H2 6303   5.503   1.215   6.168
 2116TIP3   OH2 6304   3.452   1.790   5.452
 2116TIP3    H1 6305   3.526   1.760   5.505
 2116TIP3    H2 6306   3.454   1.734   5.374
 2117TIP3   OH2 6307   4.646   1.441   2.196
 2117TIP3    H1 6308   4.642   1.350   2.165
 2117TIP3    H2 6309   4.740   1.462   2.195
 2118TIP3   OH2 6310   2.833   5.489   2.246
 2118TIP3    H1 6311   2.905   5.449   2.198
 2118TIP3    H2 6312   2.844   5.458   2.336
 2119TIP3   OH2 6313   0.115   1.412   6.124
 2119TIP3    H1 6314   0.042   1.425   6.064
 2119TIP3    H2 6315   0.169   1.345   6.084
 2120TIP3   OH2 6316   5.315   0.900   1.916
 2120TIP3    H1 6317   5.338   0.992   1.915
 2120TIP3    H2 6318   5.399   0.854   1.922
 2121TIP3   OH2 6319   1.140   5.228   3.119
 2121TIP3    H1 6320   1.226   5.258   3.149
 2121TIP3    H2 6321   1.128   5.143   3.161
 2122TIP3   OH2 6322   7.526   3.794   0.670
 2122TIP3    H1 6323   7.519   3.887   0.650
 2122TIP3    H2 6324   7.544   3.791   0.764
 2123TIP3   OH2 6325   0.650   1.458   1.551
 2123TIP3    H1 6326   0.600   1.428   1.475
 2123TIP3    H2 6327   0.598   1.427   1.626
 2124TIP3   OH2 6328   5.463   3.390   0.641
 2124TIP3    H1 6329   5.435   3.343   0.562
 2124TIP3    H2 6330   5.522   3.329   0.685
 2125TIP3   OH2 6331   4.471   2.677   4.567
 2125TIP3    H1 6332   4.381   2.654   4.591
 2125TIP3    H2 6333   4.523   2.600   4.592
 2126TIP3   OH2 6334   2.876   1.692   2.667
 2126TIP3    H1 6335   2.918   1.709   2.582
 2126TIP3    H2 6336   2.804   1.633   2.645
 2127TIP3   OH2 6337   1.731   7.268   3.403
 2127TIP3    H1 6338   1.657   7.302   3.353
 2127TIP3    H2 6339   1.749   7.183   3.364
 2128TIP3   OH2 6340   3.489   0.965   3.364
 2128TIP3    H1 6341   3.541   0.964   3.284
 2128TIP3    H2 6342   3.437   0.885   3.359
 2129TIP3   OH2 6343   0.511   2.038   3.416
 2129TIP3    H1 6344   0.597   2.077   3.403
 2129TIP3    H2 6345   0.481   2.074   3.500
 2130TIP3   OH2 6346   3.536   4.646   4.010
 2130TIP3    H1 6347   3.467   4.612   3.953
 2130TIP3    H2 6348   3.547   4.578   4.077
 2131TIP3   OH2 6349   0.640   5.485   6.324
 2131TIP3    H1 6350   0.589   5.528   6.256
 2131TIP3    H2 6351   0.578   5.469   6.395
 2132TIP3   OH2 6352   1.356   3.146   1.541
 2132TIP3    H1 6353   1.274   3.096   1.546
 2132TIP3    H2 6354   1.423   3.080   1.524
 2133TIP3   OH2 6355   6.063   1.449   6.589
 2133TIP3    H1 6356   6.148   1.465   6.630
 2133TIP3    H2 6357   6.035   1.535   6.559
 2134TIP3   OH2 6358   0.196   3.071   3.022
 2134TIP3    H1 6359   0.199   3.001   3.087
 2134TIP3    H2 6360   0.151   3.032   2.947
 2135TIP3   OH2 6361   5.888   1.647   1.075
 2135TIP3    H1 6362   5.877   1.620   0.984
 2135TIP3    H2 6363   5.836   1.583   1.125
 2136TIP3   OH2 6364   1.877   7.454   5.241
 2136TIP3    H1 6365   1.921   7.539   5.235
 2136TIP3    H2 6366   1.785   7.475   5.256
 2137TIP3   OH2 6367   7.771   4.842   2.184
 2137TIP3    H1 6368   7.709   4.774   2.160
 2137TIP3    H2 6369   7.834   4.798   2.241
 2138TIP3   OH2 6370   2.997   2.417   3.554
 2138TIP3    H1 6371   3.065   2.399   3.489
 2138TIP3    H2 6372   2.919   2.435   3.501
 2139TIP3   OH2 6373   4.530   5.202   1.820
 2139TIP3    H1 6374   4.586   5.161   1.886
 2139TIP3    H2 6375   4.460   5.243   1.870
 2140TIP3   OH2 6376   1.749   5.899   4.177
 2140TIP3    H1 6377   1.680   5.842   4.143
 2140TIP3    H2 6378   1.821   5.840   4.200
 2141TIP3   OH2 6379   7.856   0.721   4.142
 2141TIP3    H1 6380   7.847   0.644   4.198
 2141TIP3    H2 6381   7.950   0.737   4.137
 2142TIP3   OH2 6382   3.240   0.951   5.671
 2142TIP3    H1 6383   3.235   0.881   5.607
 2142TIP3    H2 6384   3.303   0.919   5.736
 2143TIP3   OH2 6385   1.521   4.710   0.889
 2143TIP3    H1 6386   1.607   4.743   0.915
 2143TIP3    H2 6387   1.530   4.685   0.797
 2144TIP3   OH2 6388   0.218   4.035   1.348
 2144TIP3    H1 6389   0.272   4.077   1.281
 2144TIP3    H2 6390   0.262   4.054   1.430
 2145TIP3   OH2 6391   6.590   1.610   1.193
 2145TIP3    H1 6392   6.612   1.668   1.265
 2145TIP3    H2 6393   6.580   1.668   1.117
 2146TIP3   OH2 6394   1.347   7.797   5.700
 2146TIP3    H1 6395   1.293   7.822   5.775
 2146TIP3    H2 6396   1.302   7.721   5.662
 2147TIP3   OH2 6397   7.876   7.580   0.246
 2147TIP3    H1 6398   7.799   7.551   0.296
 2147TIP3    H2 6399   7.898   7.506   0.191
 2148TIP3   OH2 6400   4.838   0.518   4.143
 2148TIP3    H1 6401   4.794   0.506   4.227
 2148TIP3    H2 6402   4.772   0.555   4.086
 2149TIP3   OH2 6403   3.080   3.642   1.976
 2149TIP3    H1 6404   3.057   3.726   1.936
 2149TIP3    H2 6405   3.033   3.577   1.924
 2150TIP3   OH2 6406   4.071   4.500   5.927
 2150TIP3    H1 6407   4.147   4.453   5.892
 2150TIP3    H2 6408   4.036   4.548   5.852
 2151TIP3   OH2 6409   4.674   5.550   0.861
 2151TIP3    H1 6410   4.695   5.637   0.827
 2151TIP3    H2 6411   4.589   5.529   0.825
 2152TIP3   OH2 6412   2.876   2.704   6.044
 2152TIP3    H1 6413   2.807   2.650   6.082
 2152TIP3    H2 6414   2.852   2.712   5.951
 2153TIP3   OH2 6415   3.685   7.478   3.320
 2153TIP3    H1 6416   3.672   7.397   3.271
 2153TIP3    H2 6417   3.673   7.547   3.255
 2154TIP3   OH2 6418   5.726   1.797   2.713
 2154TIP3    H1 6419   5.804   1.808   2.767
 2154TIP3    H2 6420   5.690   1.886   2.704
 2155TIP3   OH2 6421   8.059   3.701   0.657
 2155TIP3    H1 6422   8.082   3.609   0.673
 2155TIP3    H2 6423   7.965   3.700   0.639
 2156TIP3   OH2 6424   2.820   7.093   4.349
 2156TIP3    H1 6425   2.844   7.162   4.410
 2156TIP3    H2 6426   2.883   7.023   4.365
 2157TIP3   OH2 6427   6.483   6.558   2.038
 2157TIP3    H1 6428   6.455   6.617   1.968
 2157TIP3    H2 6429   6.562   6.516   2.004
 2158TIP3   OH2 6430   2.411   0.485   2.985
 2158TIP3    H1 6431   2.398   0.573   3.019
 2158TIP3    H2 6432   2.390   0.492   2.892
 2159TIP3   OH2 6433   1.118  -0.028   3.343
 2159TIP3    H1 6434   1.115   0.019   3.427
 2159TIP3    H2 6435   1.059   0.021   3.286
 2160TIP3   OH2 6436   2.734   4.095   0.792
 2160TIP3    H1 6437   2.788   4.172   0.772
 2160TIP3    H2 6438   2.710   4.107   0.884
 2161TIP3   OH2 6439   6.371   0.149   4.556
 2161TIP3    H1 6440   6.302   0.207   4.590
 2161TIP3    H2 6441   6.341   0.061   4.579
 2162TIP3   OH2 6442   2.707   1.504   3.798
 2162TIP3    H1 6443   2.669   1.572   3.742
 2162TIP3    H2 6444   2.752   1.445   3.738
 2163TIP3   OH2 6445   7.806   1.660   6.161
 2163TIP3    H1 6446   7.837   1.733   6.107
 2163TIP3    H2 6447   7.849   1.673   6.246
 2164TIP3   OH2 6448   5.897   7.768   3.236
 2164TIP3    H1 6449   5.930   7.843   3.186
 2164TIP3    H2 6450   5.976   7.721   3.263
 2165TIP3   OH2 6451   3.506   4.220   2.085
 2165TIP3    H1 6452   3.438   4.210   2.018
 2165TIP3    H2 6453   3.565   4.145   2.070
 2166TIP3   OH2 6454   8.142   6.119   1.339
 2166TIP3    H1 6455   8.180   6.032   1.331
 2166TIP3    H2 6456   8.210   6.178   1.306
 2167TIP3   OH2 6457   1.780   2.361   1.579
 2167TIP3    H1 6458   1.826   2.331   1.501
 2167TIP3    H2 6459   1.753   2.281   1.624
 2168TIP3   OH2 6460   6.596   7.308   4.054
 2168TIP3    H1 6461   6.552   7.359   3.987
 2168TIP3    H2 6462   6.571   7.349   4.137
 2169TIP3   OH2 6463   2.328   0.055   5.009
 2169TIP3    H1 6464   2.367   0.095   4.931
 2169TIP3    H2 6465   2.285   0.127   5.054
 2170TIP3   OH2 6466   2.519   6.885   3.388
 2170TIP3    H1 6467   2.488   6.821   3.324
 2170TIP3    H2 6468   2.461   6.873   3.464
 2171TIP3   OH2 6469   1.030   2.587   4.028
 2171TIP3    H1 6470   1.046   2.676   3.996
 2171TIP3    H2 6471   0.983   2.544   3.957
 2172TIP3   OH2 6472   7.707   7.095   6.297
 2172TIP3    H1 6473   7.698   7.119   6.205
 2172TIP3    H2 6474   7.799   7.111   6.318
 2173TIP3   OH2 6475   8.110   5.341   1.480
 2173TIP3    H1 6476   8.049   5.360   1.408
 2173TIP3    H2 6477   8.075   5.262   1.521
 2174TIP3   OH2 6478   7.091   0.075   3.499
 2174TIP3    H1 6479   7.075  -0.007   3.547
 2174TIP3    H2 6480   7.079   0.143   3.565
 2175TIP3   OH2 6481   6.323   6.630   2.494
 2175TIP3    H1 6482   6.337   6.703   2.434
 2175TIP3    H2 6483   6.244   6.587   2.461
 2176TIP3   OH2 6484   6.700   6.584   5.666
 2176TIP3    H1 6485   6.739   6.498   5.649
 2176TIP3    H2 6486   6.761   6.625   5.728
 2177TIP3   OH2 6487   2.706   5.972   1.778
 2177TIP3    H1 6488   2.744   5.936   1.698
 2177TIP3    H2 6489   2.776   5.965   1.843
 2178TIP3   OH2 6490   0.631   4.559   5.165
 2178TIP3    H1 6491   0.565   4.596   5.225
 2178TIP3    H2 6492   0.660   4.634   5.113
 2179TIP3   OH2 6493   1.985   5.796   3.370
 2179TIP3    H1 6494   1.921   5.727   3.353
 2179TIP3    H2 6495   2.022   5.816   3.284
 2180TIP3   OH2 6496   0.466   1.772   6.566
 2180TIP3    H1 6497   0.516   1.853   6.573
 2180TIP3    H2 6498   0.379   1.800   6.537
 2181TIP3   OH2 6499   8.226   4.382   6.272
 2181TIP3    H1 6500   8.294   4.422   6.327
 2181TIP3    H2 6501   8.223   4.437   6.194
 2182TIP3   OH2 6502   2.798   7.549   6.614
 2182TIP3    H1 6503   2.716   7.541   6.565
 2182TIP3    H2 6504   2.836   7.461   6.612
 2183TIP3   OH2 6505   0.612   5.214   2.569
 2183TIP3    H1 6506   0.702   5.183   2.562
 2183TIP3    H2 6507   0.560   5.149   2.522
 2184TIP3   OH2 6508   4.581   6.379   6.144
 2184TIP3    H1 6509   4.572   6.454   6.084
 2184TIP3    H2 6510   4.564   6.415   6.231
 2185TIP3   OH2 6511   2.221   5.200   0.144
 2185TIP3    H1 6512   2.201   5.207   0.051
 2185TIP3    H2 6513   2.308   5.240   0.153
 2186TIP3   OH2 6514   1.382   1.978   3.043
 2186TIP3    H1 6515   1.423   2.015   2.965
 2186TIP3    H2 6516   1.301   2.029   3.053
 2187TIP3   OH2 6517   1.568   7.023   6.598
 2187TIP3    H1 6518   1.612   6.944   6.630
 2187TIP3    H2 6519   1.589   7.090   6.663
 2188TIP3   OH2 6520   1.635   5.340   4.040
 2188TIP3    H1 6521   1.690   5.409   4.005
 2188TIP3    H2 6522   1.662   5.261   3.993
 2189TIP3   OH2 6523   3.977   6.748   1.092
 2189TIP3    H1 6524   3.884   6.758   1.112
 2189TIP3    H2 6525   3.986   6.781   1.002
 2190TIP3   OH2 6526   1.003   5.205   1.809
 2190TIP3    H1 6527   1.086   5.157   1.815
 2190TIP3    H2 6528   0.946   5.148   1.757
 2191TIP3   OH2 6529   3.811   7.054   5.974
 2191TIP3    H1 6530   3.779   7.001   5.902
 2191TIP3    H2 6531   3.735   7.064   6.032
 2192TIP3   OH2 6532   0.455   1.671   4.727
 2192TIP3    H1 6533   0.449   1.713   4.641
 2192TIP3    H2 6534   0.515   1.597   4.712
 2193TIP3   OH2 6535   5.901   2.948   5.339
 2193TIP3    H1 6536   5.883   2.936   5.246
 2193TIP3    H2 6537   5.817   2.974   5.377
 2194TIP3   OH2 6538   4.324   4.828   3.325
 2194TIP3    H1 6539   4.239   4.836   3.281
 2194TIP3    H2 6540   4.313   4.754   3.385
 2195TIP3   OH2 6541   3.620   6.688   4.959
 2195TIP3    H1 6542   3.676   6.637   5.017
 2195TIP3    H2 6543   3.533   6.685   5.000
 2196TIP3   OH2 6544   2.855   0.650   2.488
 2196TIP3    H1 6545   2.892   0.565   2.465
 2196TIP3    H2 6546   2.824   0.686   2.405
 2197TIP3   OH2 6547   0.279   5.919   5.857
 2197TIP3    H1 6548   0.205   5.870   5.822
 2197TIP3    H2 6549   0.248   6.009   5.864
 2198TIP3   OH2 6550   1.752   2.700   1.126
 2198TIP3    H1 6551   1.752   2.639   1.052
 2198TIP3    H2 6552   1.759   2.643   1.203
 2199TIP3   OH2 6553   7.523   6.484   5.610
 2199TIP3    H1 6554   7.501   6.459   5.520
 2199TIP3    H2 6555   7.444   6.526   5.643
 2200TIP3   OH2 6556   6.114   0.500   5.006
 2200TIP3    H1 6557   6.019   0.488   4.994
 2200TIP3    H2 6558   6.147   0.412   5.021
 2201TIP3   OH2 6559   7.066   0.712   5.238
 2201TIP3    H1 6560   7.124   0.642   5.207
 2201TIP3    H2 6561   7.028   0.678   5.318
 2202TIP3   OH2 6562   2.524   2.550   3.140
 2202TIP3    H1 6563   2.435   2.520   3.158
 2202TIP3    H2 6564   2.559   2.574   3.226
 2203TIP3   OH2 6565   1.240   5.294   2.337
 2203TIP3    H1 6566   1.328   5.265   2.361
 2203TIP3    H2 6567   1.197   5.215   2.304
 2204TIP3   OH2 6568   2.654   2.991   1.303
 2204TIP3    H1 6569   2.620   2.950   1.383
 2204TIP3    H2 6570   2.747   3.004   1.321
 2205TIP3   OH2 6571   0.736   2.434   4.937
 2205TIP3    H1 6572   0.760   2.393   5.020
 2205TIP3    H2 6573   0.736   2.528   4.956
 2206TIP3   OH2 6574   5.232   4.691   6.161
 2206TIP3    H1 6575   5.284   4.716   6.237
 2206TIP3    H2 6576   5.160   4.639   6.197
 2207TIP3   OH2 6577   7.604   1.302   5.375
 2207TIP3    H1 6578   7.694   1.299   5.408
 2207TIP3    H2 6579   7.564   1.221   5.407
 2208TIP3   OH2 6580   7.202   1.764   2.388
 2208TIP3    H1 6581   7.291   1.799   2.384
 2208TIP3    H2 6582   7.206   1.683   2.337
 2209TIP3   OH2 6583   0.195   6.138   6.012
 2209TIP3    H1 6584   0.235   6.154   6.097
 2209TIP3    H2 6585   0.107   6.106   6.032
 2210TIP3   OH2 6586   0.560   1.563   5.399
 2210TIP3    H1 6587   0.524   1.553   5.310
 2210TIP3    H2 6588   0.654   1.570   5.386
 2211TIP3   OH2 6589   4.511   5.085   5.880
 2211TIP3    H1 6590   4.588   5.126   5.843
 2211TIP3    H2 6591   4.441   5.149   5.868
 2212TIP3   OH2 6592   5.954   0.697   6.004
 2212TIP3    H1 6593   6.048   0.680   6.014
 2212TIP3    H2 6594   5.916   0.679   6.089
 2213TIP3   OH2 6595   6.853   0.497   2.415
 2213TIP3    H1 6596   6.850   0.411   2.457
 2213TIP3    H2 6597   6.852   0.479   2.321
 2214TIP3   OH2 6598   4.852   2.189   4.079
 2214TIP3    H1 6599   4.898   2.213   4.160
 2214TIP3    H2 6600   4.921   2.156   4.021
 2215TIP3   OH2 6601   7.332   2.787   0.607
 2215TIP3    H1 6602   7.398   2.755   0.669
 2215TIP3    H2 6603   7.273   2.840   0.660
 2216TIP3   OH2 6604   4.971   7.372   5.072
 2216TIP3    H1 6605   4.929   7.430   5.136
 2216TIP3    H2 6606   4.927   7.393   4.989
 2217TIP3   OH2 6607   3.956   3.889   4.492
 2217TIP3    H1 6608   4.030   3.900   4.551
 2217TIP3    H2 6609   3.880   3.918   4.543
 2218TIP3   OH2 6610   7.743   2.706   6.649
 2218TIP3    H1 6611   7.679   2.724   6.579
 2218TIP3    H2 6612   7.825   2.689   6.602
 2219TIP3   OH2 6613   7.234   0.743   4.786
 2219TIP3    H1 6614   7.190   0.808   4.731
 2219TIP3    H2 6615   7.327   0.754   4.767
 2220TIP3   OH2 6616   4.183   7.406   5.115
 2220TIP3    H1 6617   4.228   7.386   5.032
 2220TIP3    H2 6618   4.113   7.340   5.120
 2221TIP3   OH2 6619   4.384   0.021   1.102
 2221TIP3    H1 6620   4.410   0.060   1.018
 2221TIP3    H2 6621   4.440   0.063   1.167
 2222TIP3   OH2 6622   4.978   2.958   5.690
 2222TIP3    H1 6623   5.049   2.954   5.754
 2222TIP3    H2 6624   4.898   2.954   5.742
 2223TIP3   OH2 6625   6.366   2.778   2.616
 2223TIP3    H1 6626   6.374   2.824   2.532
 2223TIP3    H2 6627   6.408   2.693   2.601
 2224TIP3   OH2 6628   2.116   4.829   2.250
 2224TIP3    H1 6629   2.125   4.737   2.274
 2224TIP3    H2 6630   2.202   4.866   2.264
 2225TIP3   OH2 6631   7.243   2.005   3.539
 2225TIP3    H1 6632   7.314   2.064   3.514
 2225TIP3    H2 6633   7.230   1.949   3.462
 2226TIP3   OH2 6634   4.101   0.905   1.923
 2226TIP3    H1 6635   4.143   0.845   1.984
 2226TIP3    H2 6636   4.017   0.865   1.903
 2227TIP3   OH2 6637   5.088   3.066   2.355
 2227TIP3    H1 6638   5.079   2.997   2.421
 2227TIP3    H2 6639   5.007   3.061   2.304
 2228TIP3   OH2 6640   4.542   0.210   3.652
 2228TIP3    H1 6641   4.469   0.232   3.710
 2228TIP3    H2 6642   4.591   0.143   3.699
 2229TIP3   OH2 6643   7.540   1.980   5.395
 2229TIP3    H1 6644   7.537   2.056   5.453
 2229TIP3    H2 6645   7.628   1.943   5.407
 2230TIP3   OH2 6646   4.157   4.905   5.697
 2230TIP3    H1 6647   4.177   4.998   5.685
 2230TIP3    H2 6648   4.115   4.879   5.614
 2231TIP3   OH2 6649   6.345   5.496   4.974
 2231TIP3    H1 6650   6.338   5.587   4.947
 2231TIP3    H2 6651   6.340   5.499   5.070
 2232TIP3   OH2 6652   2.536   0.553   2.685
 2232TIP3    H1 6653   2.611   0.495   2.700
 2232TIP3    H2 6654   2.467   0.494   2.657
 2233TIP3   OH2 6655   0.546   0.965   3.813
 2233TIP3    H1 6656   0.454   0.948   3.794
 2233TIP3    H2 6657   0.592   0.939   3.732
 2234TIP3   OH2 6658   8.154   1.328   4.070
 2234TIP3    H1 6659   8.141   1.419   4.097
 2234TIP3    H2 6660   8.247   1.311   4.084
 2235TIP3   OH2 6661   7.405   7.321   6.211
 2235TIP3    H1 6662   7.353   7.269   6.272
 2235TIP3    H2 6663   7.489   7.332   6.255
 2236TIP3   OH2 6664   2.019   5.648   1.488
 2236TIP3    H1 6665   2.016   5.682   1.577
 2236TIP3    H2 6666   2.074   5.570   1.494
 2237TIP3   OH2 6667   6.974   1.212   3.591
 2237TIP3    H1 6668   6.888   1.234   3.627
 2237TIP3    H2 6669   6.995   1.128   3.632
 2238TIP3   OH2 6670   6.849   6.648   1.499
 2238TIP3    H1 6671   6.778   6.674   1.440
 2238TIP3    H2 6672   6.836   6.703   1.577
 2239TIP3   OH2 6673   1.648   6.904   1.471
 2239TIP3    H1 6674   1.651   6.954   1.389
 2239TIP3    H2 6675   1.732   6.858   1.474
 2240TIP3   OH2 6676   4.073   6.091   3.181
 2240TIP3    H1 6677   4.059   6.038   3.260
 2240TIP3    H2 6678   4.159   6.065   3.150
 2241TIP3   OH2 6679   2.223   4.194   6.343
 2241TIP3    H1 6680   2.272   4.161   6.267
 2241TIP3    H2 6681   2.140   4.147   6.339
 2242TIP3   OH2 6682   4.477   3.242   5.308
 2242TIP3    H1 6683   4.537   3.302   5.264
 2242TIP3    H2 6684   4.535   3.185   5.359
 2243TIP3   OH2 6685   6.364   4.390   2.662
 2243TIP3    H1 6686   6.352   4.305   2.620
 2243TIP3    H2 6687   6.288   4.441   2.633
 2244TIP3   OH2 6688   1.001   2.059   3.434
 2244TIP3    H1 6689   0.988   1.981   3.379
 2244TIP3    H2 6690   0.917   2.104   3.433
 2245TIP3   OH2 6691   6.282   0.670   6.014
 2245TIP3    H1 6692   6.290   0.736   5.945
 2245TIP3    H2 6693   6.299   0.718   6.095
 2246TIP3   OH2 6694   1.511   1.963   5.671
 2246TIP3    H1 6695   1.486   2.025   5.738
 2246TIP3    H2 6696   1.591   1.999   5.633
 2247TIP3   OH2 6697   6.495   6.368   6.132
 2247TIP3    H1 6698   6.580   6.382   6.173
 2247TIP3    H2 6699   6.513   6.371   6.038
 2248TIP3   OH2 6700   2.096   2.484   2.553
 2248TIP3    H1 6701   2.030   2.548   2.524
 2248TIP3    H2 6702   2.050   2.400   2.552
 2249TIP3   OH2 6703   1.197   2.704   1.155
 2249TIP3    H1 6704   1.239   2.622   1.179
 2249TIP3    H2 6705   1.268   2.769   1.154
 2250TIP3   OH2 6706   1.919   4.047   5.919
 2250TIP3    H1 6707   1.864   4.052   5.841
 2250TIP3    H2 6708   1.935   3.954   5.932
 2251TIP3   OH2 6709   2.001   3.017   4.502
 2251TIP3    H1 6710   2.030   3.093   4.452
 2251TIP3    H2 6711   2.072   2.954   4.494
 2252TIP3   OH2 6712   0.362   3.544   1.287
 2252TIP3    H1 6713   0.331   3.605   1.354
 2252TIP3    H2 6714   0.410   3.477   1.336
 2253TIP3   OH2 6715   0.133   4.040   1.947
 2253TIP3    H1 6716   0.108   3.985   1.872
 2253TIP3    H2 6717   0.052   4.052   1.996
 2254TIP3   OH2 6718   5.497   2.821   6.112
 2254TIP3    H1 6719   5.481   2.891   6.175
 2254TIP3    H2 6720   5.536   2.751   6.164
 2255TIP3   OH2 6721   4.742   1.536   2.930
 2255TIP3    H1 6722   4.799   1.482   2.875
 2255TIP3    H2 6723   4.783   1.534   3.016
 2256TIP3   OH2 6724   7.102   1.351   5.694
 2256TIP3    H1 6725   7.151   1.426   5.726
 2256TIP3    H2 6726   7.010   1.375   5.707
 2257TIP3   OH2 6727   1.144   1.157   1.474
 2257TIP3    H1 6728   1.074   1.219   1.495
 2257TIP3    H2 6729   1.166   1.116   1.558
 2258TIP3   OH2 6730   0.713   5.883   0.235
 2258TIP3    H1 6731   0.662   5.889   0.315
 2258TIP3    H2 6732   0.784   5.946   0.247
 2259TIP3   OH2 6733   5.461   5.077   5.821
 2259TIP3    H1 6734   5.547   5.118   5.809
 2259TIP3    H2 6735   5.478   5.004   5.881
 2260TIP3   OH2 6736   7.658   2.574   0.660
 2260TIP3    H1 6737   7.569   2.537   0.660
 2260TIP3    H2 6738   7.704   2.524   0.593
 2261TIP3   OH2 6739   1.108   1.525   3.609
 2261TIP3    H1 6740   1.053   1.458   3.568
 2261TIP3    H2 6741   1.173   1.547   3.542
 2262TIP3   OH2 6742   0.223   1.763   1.735
 2262TIP3    H1 6743   0.310   1.791   1.706
 2262TIP3    H2 6744   0.184   1.723   1.657
 2263TIP3   OH2 6745   5.428   5.069   4.119
 2263TIP3    H1 6746   5.479   5.010   4.174
 2263TIP3    H2 6747   5.337   5.053   4.145
 2264TIP3   OH2 6748   3.831   5.867   2.558
 2264TIP3    H1 6749   3.891   5.793   2.569
 2264TIP3    H2 6750   3.885   5.936   2.519
 2265TIP3   OH2 6751   6.241   6.246   3.424
 2265TIP3    H1 6752   6.150   6.218   3.409
 2265TIP3    H2 6753   6.232   6.333   3.462
 2266TIP3   OH2 6754   0.652   4.449   2.431
 2266TIP3    H1 6755   0.624   4.417   2.517
 2266TIP3    H2 6756   0.683   4.371   2.386
 2267TIP3   OH2 6757   4.902   3.420   6.661
 2267TIP3    H1 6758   4.867   3.336   6.690
 2267TIP3    H2 6759   4.869   3.483   6.724
 2268TIP3   OH2 6760   7.147   6.736   2.967
 2268TIP3    H1 6761   7.085   6.664   2.958
 2268TIP3    H2 6762   7.166   6.764   2.878
 2269TIP3   OH2 6763   5.474   0.102   2.999
 2269TIP3    H1 6764   5.532   0.060   3.064
 2269TIP3    H2 6765   5.533   0.153   2.944
 2270TIP3   OH2 6766   7.607   6.095   3.580
 2270TIP3    H1 6767   7.702   6.100   3.569
 2270TIP3    H2 6768   7.573   6.085   3.492
 2271TIP3   OH2 6769   0.263   0.889   3.487
 2271TIP3    H1 6770   0.243   0.982   3.498
 2271TIP3    H2 6771   0.194   0.844   3.535
 2272TIP3   OH2 6772   4.925   7.034   1.289
 2272TIP3    H1 6773   4.939   6.954   1.239
 2272TIP3    H2 6774   4.893   7.097   1.225
 2273TIP3   OH2 6775   5.807   0.417   4.572
 2273TIP3    H1 6776   5.871   0.348   4.587
 2273TIP3    H2 6777   5.829   0.485   4.636
 2274TIP3   OH2 6778   8.164   3.035   0.383
 2274TIP3    H1 6779   8.212   3.091   0.443
 2274TIP3    H2 6780   8.171   2.947   0.421
 2275TIP3   OH2 6781   3.006   1.231   1.937
 2275TIP3    H1 6782   2.991   1.169   1.866
 2275TIP3    H2 6783   3.038   1.310   1.893
 2276TIP3   OH2 6784   3.892   3.645   0.038
 2276TIP3    H1 6785   3.868   3.560   0.075
 2276TIP3    H2 6786   3.902   3.702   0.114
 2277TIP3   OH2 6787   0.742   7.092   2.956
 2277TIP3    H1 6788   0.717   7.184   2.966
 2277TIP3    H2 6789   0.828   7.096   2.914
 2278TIP3   OH2 6790   4.330   6.621   6.713
 2278TIP3    H1 6791   4.312   6.713   6.695
 2278TIP3    H2 6792   4.260   6.573   6.669
 2279TIP3   OH2 6793   1.551   5.223   5.459
 2279TIP3    H1 6794   1.641   5.215   5.429
 2279TIP3    H2 6795   1.540   5.152   5.523
 2280TIP3   OH2 6796   0.785   3.219   5.470
 2280TIP3    H1 6797   0.726   3.197   5.398
 2280TIP3    H2 6798   0.863   3.254   5.428
 2281TIP3   OH2 6799   3.723   5.029   4.196
 2281TIP3    H1 6800   3.712   5.010   4.289
 2281TIP3    H2 6801   3.717   4.943   4.153
 2282TIP3   OH2 6802   3.141   5.553   1.481
 2282TIP3    H1 6803   3.230   5.535   1.511
 2282TIP3    H2 6804   3.086   5.489   1.526
 2283TIP3   OH2 6805   7.568   4.527   1.055
 2283TIP3    H1 6806   7.655   4.557   1.029
 2283TIP3    H2 6807   7.532   4.598   1.107
 2284TIP3   OH2 6808   3.568   1.189   2.142
 2284TIP3    H1 6809   3.499   1.249   2.111
 2284TIP3    H2 6810   3.650   1.229   2.112
 2285TIP3   OH2 6811   6.117   3.070   3.457
 2285TIP3    H1 6812   6.156   3.146   3.414
 2285TIP3    H2 6813   6.079   3.019   3.386
 2286TIP3   OH2 6814   4.447   2.144   4.319
 2286TIP3    H1 6815   4.492   2.172   4.239
 2286TIP3    H2 6816   4.503   2.077   4.356
 2287TIP3   OH2 6817   1.665   0.570   5.679
 2287TIP3    H1 6818   1.703   0.648   5.639
 2287TIP3    H2 6819   1.730   0.501   5.663
 2288TIP3   OH2 6820   7.098   1.291   2.967
 2288TIP3    H1 6821   7.044   1.331   2.899
 2288TIP3    H2 6822   7.041   1.288   3.044
 2289TIP3   OH2 6823   3.863   4.916   0.252
 2289TIP3    H1 6824   3.872   5.006   0.284
 2289TIP3    H2 6825   3.945   4.899   0.204
 2290TIP3   OH2 6826   3.221   6.629   0.456
 2290TIP3    H1 6827   3.197   6.720   0.439
 2290TIP3    H2 6828   3.166   6.604   0.531
 2291TIP3   OH2 6829   5.142   2.278   0.431
 2291TIP3    H1 6830   5.072   2.229   0.473
 2291TIP3    H2 6831   5.111   2.369   0.432
 2292TIP3   OH2 6832   4.284   6.701   1.039
 2292TIP3    H1 6833   4.225   6.721   1.111
 2292TIP3    H2 6834   4.356   6.653   1.079
 2293TIP3   OH2 6835   3.417   6.545   5.124
 2293TIP3    H1 6836   3.470   6.488   5.179
 2293TIP3    H2 6837   3.380   6.487   5.057
 2294TIP3   OH2 6838   1.652   7.468   2.492
 2294TIP3    H1 6839   1.701   7.512   2.562
 2294TIP3    H2 6840   1.720   7.440   2.430
 2295TIP3   OH2 6841   1.608   7.051   3.828
 2295TIP3    H1 6842   1.620   7.051   3.923
 2295TIP3    H2 6843   1.695   7.033   3.793
 2296TIP3   OH2 6844   2.074   6.436   5.585
 2296TIP3    H1 6845   2.110   6.368   5.529
 2296TIP3    H2 6846   2.087   6.517   5.535
 2297TIP3   OH2 6847   1.373   7.314   3.776
 2297TIP3    H1 6848   1.421   7.293   3.697
 2297TIP3    H2 6849   1.434   7.295   3.847
 2298TIP3   OH2 6850   5.416   5.077   0.075
 2298TIP3    H1 6851   5.344   5.133   0.104
 2298TIP3    H2 6852   5.392   4.989   0.103
 2299TIP3   OH2 6853   8.180   7.237   0.195
 2299TIP3    H1 6854   8.254   7.278   0.152
 2299TIP3    H2 6855   8.209   7.222   0.285
 2300TIP3   OH2 6856   5.221   6.923   1.053
 2300TIP3    H1 6857   5.231   6.839   1.008
 2300TIP3    H2 6858   5.202   6.985   0.983
 2301TIP3   OH2 6859   1.870   0.782   0.107
 2301TIP3    H1 6860   1.926   0.724   0.057
 2301TIP3    H2 6861   1.781   0.753   0.087
 2302TIP3   OH2 6862   4.630   1.944   4.405
 2302TIP3    H1 6863   4.708   1.909   4.362
 2302TIP3    H2 6864   4.604   1.876   4.467
 2303TIP3   OH2 6865   3.147   4.408   5.290
 2303TIP3    H1 6866   3.193   4.432   5.210
 2303TIP3    H2 6867   3.110   4.491   5.322
 2304TIP3   OH2 6868   4.782   1.018   3.914
 2304TIP3    H1 6869   4.832   0.944   3.880
 2304TIP3    H2 6870   4.709   1.028   3.853
 2305TIP3   OH2 6871   1.537   4.573   5.957
 2305TIP3    H1 6872   1.469   4.581   6.024
 2305TIP3    H2 6873   1.614   4.540   6.003
 2306TIP3   OH2 6874   5.202   7.523   0.508
 2306TIP3    H1 6875   5.119   7.570   0.521
 2306TIP3    H2 6876   5.187   7.470   0.430
 2307TIP3   OH2 6877   5.158   1.639   4.566
 2307TIP3    H1 6878   5.130   1.548   4.576
 2307TIP3    H2 6879   5.124   1.684   4.643
 2308TIP3   OH2 6880   7.995   0.566   4.853
 2308TIP3    H1 6881   8.072   0.622   4.843
 2308TIP3    H2 6882   8.024   0.497   4.913
 2309TIP3   OH2 6883   1.294   2.008   3.895
 2309TIP3    H1 6884   1.260   1.996   3.806
 2309TIP3    H2 6885   1.253   1.938   3.946
 2310TIP3   OH2 6886   3.547   3.834   1.326
 2310TIP3    H1 6887   3.528   3.744   1.302
 2310TIP3    H2 6888   3.520   3.885   1.249
 2311TIP3   OH2 6889   6.926   0.568   5.776
 2311TIP3    H1 6890   7.015   0.566   5.740
 2311TIP3    H2 6891   6.896   0.657   5.758
 2312TIP3   OH2 6892   0.780   5.175   0.058
 2312TIP3    H1 6893   0.865   5.148   0.092
 2312TIP3    H2 6894   0.793   5.265   0.029
 2313TIP3   OH2 6895   7.599   3.454   6.547
 2313TIP3    H1 6896   7.569   3.541   6.519
 2313TIP3    H2 6897   7.646   3.420   6.471
 2314TIP3   OH2 6898   1.617   3.641   6.437
 2314TIP3    H1 6899   1.635   3.574   6.370
 2314TIP3    H2 6900   1.685   3.629   6.503
 2315TIP3   OH2 6901   5.493   7.484   0.907
 2315TIP3    H1 6902   5.486   7.449   0.996
 2315TIP3    H2 6903   5.465   7.575   0.915
 2316TIP3   OH2 6904   6.285   5.158   6.115
 2316TIP3    H1 6905   6.276   5.063   6.101
 2316TIP3    H2 6906   6.207   5.182   6.165
 2317TIP3   OH2 6907   2.709   4.086   6.371
 2317TIP3    H1 6908   2.646   4.073   6.300
 2317TIP3    H2 6909   2.776   4.143   6.333
 2318TIP3   OH2 6910   4.146   7.344   6.105
 2318TIP3    H1 6911   4.180   7.308   6.186
 2318TIP3    H2 6912   4.195   7.426   6.092
 2319TIP3   OH2 6913   1.076   4.460   6.609
 2319TIP3    H1 6914   1.024   4.380   6.601
 2319TIP3    H2 6915   1.158   4.431   6.649
 2320TIP3   OH2 6916   7.937   2.755   5.041
 2320TIP3    H1 6917   7.961   2.785   5.129
 2320TIP3    H2 6918   7.905   2.833   4.997
 2321TIP3   OH2 6919   3.056   2.456   6.091
 2321TIP3    H1 6920   3.117   2.487   6.023
 2321TIP3    H2 6921   2.976   2.506   6.076
 2322TIP3   OH2 6922   4.243   3.276   2.865
 2322TIP3    H1 6923   4.211   3.281   2.775
 2322TIP3    H2 6924   4.225   3.185   2.891
 2323TIP3   OH2 6925   3.761   6.736   3.303
 2323TIP3    H1 6926   3.739   6.648   3.274
 2323TIP3    H2 6927   3.851   6.730   3.335
 2324TIP3   OH2 6928   6.508   1.280   0.031
 2324TIP3    H1 6929   6.413   1.276   0.042
 2324TIP3    H2 6930   6.527   1.215  -0.037
 2325TIP3   OH2 6931   0.411   3.873   4.792
 2325TIP3    H1 6932   0.403   3.819   4.870
 2325TIP3    H2 6933   0.468   3.823   4.734
 2326TIP3   OH2 6934   4.200   3.477   6.688
 2326TIP3    H1 6935   4.145   3.510   6.760
 2326TIP3    H2 6936   4.287   3.510   6.708
 2327TIP3   OH2 6937   2.623   1.379   1.648
 2327TIP3    H1 6938   2.684   1.397   1.576
 2327TIP3    H2 6939   2.608   1.284   1.644
 2328TIP3   OH2 6940   0.532   3.265   5.106
 2328TIP3    H1 6941   0.539   3.360   5.096
 2328TIP3    H2 6942   0.470   3.237   5.039
 2329TIP3   OH2 6943   5.226   5.691   6.558
 2329TIP3    H1 6944   5.294   5.726   6.500
 2329TIP3    H2 6945   5.162   5.762   6.566
 2330TIP3   OH2 6946   5.883   7.752   3.871
 2330TIP3    H1 6947   5.817   7.705   3.821
 2330TIP3    H2 6948   5.926   7.810   3.807
 2331TIP3   OH2 6949   1.056   2.730   4.671
 2331TIP3    H1 6950   0.973   2.683   4.668
 2331TIP3    H2 6951   1.113   2.673   4.724
 2332TIP3   OH2 6952   0.502   5.824   2.586
 2332TIP3    H1 6953   0.590   5.788   2.575
 2332TIP3    H2 6954   0.492   5.884   2.512
 2333TIP3   OH2 6955   5.280   3.567   3.059
 2333TIP3    H1 6956   5.349   3.570   3.126
 2333TIP3    H2 6957   5.288   3.479   3.020
 2334TIP3   OH2 6958   3.222   3.603   2.420
 2334TIP3    H1 6959   3.262   3.554   2.492
 2334TIP3    H2 6960   3.181   3.679   2.462
 2335TIP3   OH2 6961   0.067   4.222   3.233
 2335TIP3    H1 6962   0.035   4.312   3.239
 2335TIP3    H2 6963   0.124   4.222   3.156
 2336TIP3   OH2 6964   3.409   6.845   4.645
 2336TIP3    H1 6965   3.487   6.820   4.695
 2336TIP3    H2 6966   3.336   6.804   4.691
 2337TIP3   OH2 6967   3.283   5.371   1.813
 2337TIP3    H1 6968   3.218   5.434   1.844
 2337TIP3    H2 6969   3.251   5.343   1.728
 2338TIP3   OH2 6970   7.592   4.981   1.413
 2338TIP3    H1 6971   7.687   4.993   1.414
 2338TIP3    H2 6972   7.560   5.043   1.478
 2339TIP3   OH2 6973   4.133   5.734   1.848
 2339TIP3    H1 6974   4.164   5.653   1.887
 2339TIP3    H2 6975   4.039   5.720   1.837
 2340TIP3   OH2 6976   6.257   5.616   6.761
 2340TIP3    H1 6977   6.205   5.663   6.695
 2340TIP3    H2 6978   6.340   5.663   6.765
 2341TIP3   OH2 6979   8.094   1.262   1.542
 2341TIP3    H1 6980   8.181   1.230   1.564
 2341TIP3    H2 6981   8.035   1.214   1.599
 2342TIP3   OH2 6982   3.691   0.461   4.379
 2342TIP3    H1 6983   3.658   0.515   4.308
 2342TIP3    H2 6984   3.786   0.472   4.376
 2343TIP3   OH2 6985   6.827   6.106   2.703
 2343TIP3    H1 6986   6.742   6.150   2.694
 2343TIP3    H2 6987   6.888   6.159   2.653
 2344TIP3   OH2 6988   0.647   4.062   3.076
 2344TIP3    H1 6989   0.675   4.143   3.118
 2344TIP3    H2 6990   0.724   4.033   3.027
 2345TIP3   OH2 6991   3.536   4.968   3.128
 2345TIP3    H1 6992   3.590   4.906   3.178
 2345TIP3    H2 6993   3.579   5.052   3.140
 2346TIP3   OH2 6994   6.270   6.125   6.003
 2346TIP3    H1 6995   6.325   6.047   6.001
 2346TIP3    H2 6996   6.284   6.163   6.090
 2347TIP3   OH2 6997   3.992   4.767   5.478
 2347TIP3    H1 6998   4.065   4.737   5.424
 2347TIP3    H2 6999   3.917   4.770   5.418
 2348TIP3   OH2 7000   1.853   0.336   4.414
 2348TIP3    H1 7001   1.880   0.301   4.329
 2348TIP3    H2 7002   1.757   0.334   4.411
 2349TIP3   OH2 7003   2.041   3.101   3.193
 2349TIP3    H1 7004   1.988   3.181   3.187
 2349TIP3    H2 7005   2.038   3.077   3.285
 2350TIP3   OH2 7006   6.004   3.048   5.568
 2350TIP3    H1 7007   5.926   3.086   5.609
 2350TIP3    H2 7008   5.974   3.021   5.482
 2351TIP3   OH2 7009   1.366   7.485   3.022
 2351TIP3    H1 7010   1.303   7.553   2.998
 2351TIP3    H2 7011   1.324   7.403   2.996
 2352TIP3   OH2 7012   0.431   6.487   4.293
 2352TIP3    H1 7013   0.451   6.509   4.202
 2352TIP3    H2 7014   0.503   6.432   4.321
 2353TIP3   OH2 7015   4.328   4.761   2.005
 2353TIP3    H1 7016   4.251   4.721   2.045
 2353TIP3    H2 7017   4.380   4.687   1.975
 2354TIP3   OH2 7018   6.495   4.375   5.096
 2354TIP3    H1 7019   6.545   4.438   5.044
 2354TIP3    H2 7020   6.562   4.319   5.135
 2355TIP3   OH2 7021   2.453   6.618   1.870
 2355TIP3    H1 7022   2.445   6.706   1.906
 2355TIP3    H2 7023   2.497   6.567   1.938
 2356TIP3   OH2 7024   5.922   4.050   5.142
 2356TIP3    H1 7025   5.981   4.102   5.088
 2356TIP3    H2 7026   5.841   4.045   5.092
 2357TIP3   OH2 7027   7.840   1.797   5.925
 2357TIP3    H1 7028   7.802   1.730   5.868
 2357TIP3    H2 7029   7.778   1.870   5.922
 2358TIP3   OH2 7030   0.644   1.115   1.768
 2358TIP3    H1 7031   0.644   1.059   1.846
 2358TIP3    H2 7032   0.585   1.187   1.791
 2359TIP3   OH2 7033   6.209   5.971   1.996
 2359TIP3    H1 7034   6.209   6.038   1.928
 2359TIP3    H2 7035   6.196   6.020   2.077
 2360TIP3   OH2 7036   8.222   5.914   4.904
 2360TIP3    H1 7037   8.178   5.835   4.935
 2360TIP3    H2 7038   8.151   5.971   4.874
 2361TIP3   OH2 7039   6.048   7.234   5.738
 2361TIP3    H1 7040   6.025   7.310   5.686
 2361TIP3    H2 7041   6.007   7.249   5.823
 2362TIP3   OH2 7042   0.728   4.287   3.201
 2362TIP3    H1 7043   0.783   4.354   3.242
 2362TIP3    H2 7044   0.667   4.335   3.146
 2363TIP3   OH2 7045   2.429   5.621   4.955
 2363TIP3    H1 7046   2.451   5.531   4.978
 2363TIP3    H2 7047   2.462   5.673   5.028
 2364TIP3   OH2 7048   7.318   0.999   1.176
 2364TIP3    H1 7049   7.376   1.019   1.249
 2364TIP3    H2 7050   7.347   1.056   1.105
 2365TIP3   OH2 7051   7.996   6.243   1.721
 2365TIP3    H1 7052   7.983   6.155   1.755
 2365TIP3    H2 7053   7.907   6.279   1.712
 2366TIP3   OH2 7054   2.470   5.822   3.408
 2366TIP3    H1 7055   2.425   5.771   3.476
 2366TIP3    H2 7056   2.553   5.776   3.395
 2367TIP3   OH2 7057   2.543   5.208   4.281
 2367TIP3    H1 7058   2.467   5.263   4.265
 2367TIP3    H2 7059   2.538   5.140   4.214
 2368TIP3   OH2 7060   4.115   5.285   6.250
 2368TIP3    H1 7061   4.091   5.350   6.184
 2368TIP3    H2 7062   4.201   5.254   6.222
 2369TIP3   OH2 7063   2.387   5.388   4.708
 2369TIP3    H1 7064   2.444   5.417   4.780
 2369TIP3    H2 7065   2.397   5.455   4.641
 2370TIP3   OH2 7066   4.675   6.624   4.976
 2370TIP3    H1 7067   4.616   6.571   4.922
 2370TIP3    H2 7068   4.740   6.562   5.009
 2371TIP3   OH2 7069   8.233   6.243   1.898
 2371TIP3    H1 7070   8.168   6.202   1.840
 2371TIP3    H2 7071   8.292   6.289   1.839
 2372TIP3   OH2 7072   4.778   5.363   4.778
 2372TIP3    H1 7073   4.814   5.298   4.717
 2372TIP3    H2 7074   4.769   5.316   4.861
 2373TIP3   OH2 7075   2.195   4.685   5.442
 2373TIP3    H1 7076   2.182   4.701   5.535
 2373TIP3    H2 7077   2.127   4.622   5.419
 2374TIP3   OH2 7078   8.028   1.655   5.341
 2374TIP3    H1 7079   8.038   1.559   5.344
 2374TIP3    H2 7080   8.095   1.687   5.401
 2375TIP3   OH2 7081   4.540   5.157   5.235
 2375TIP3    H1 7082   4.505   5.113   5.157
 2375TIP3    H2 7083   4.534   5.251   5.214
 2376TIP3   OH2 7084   0.800   2.033   1.322
 2376TIP3    H1 7085   0.748   1.985   1.387
 2376TIP3    H2 7086   0.826   2.114   1.366
 2377TIP3   OH2 7087   2.755   2.385   0.311
 2377TIP3    H1 7088   2.827   2.342   0.356
 2377TIP3    H2 7089   2.775   2.479   0.316
 2378TIP3   OH2 7090   0.591   0.336   4.692
 2378TIP3    H1 7091   0.589   0.289   4.775
 2378TIP3    H2 7092   0.620   0.271   4.628
 2379TIP3   OH2 7093   3.735   0.836   0.178
 2379TIP3    H1 7094   3.655   0.879   0.208
 2379TIP3    H2 7095   3.756   0.773   0.247
 2380TIP3   OH2 7096   5.761   1.846   1.191
 2380TIP3    H1 7097   5.719   1.780   1.247
 2380TIP3    H2 7098   5.804   1.796   1.122
 2381TIP3   OH2 7099   5.128   1.450   1.032
 2381TIP3    H1 7100   5.188   1.375   1.033
 2381TIP3    H2 7101   5.117   1.473   1.124
 2382TIP3   OH2 7102   0.254   2.935   4.010
 2382TIP3    H1 7103   0.217   3.007   3.960
 2382TIP3    H2 7104   0.228   2.953   4.101
 2383TIP3   OH2 7105   5.642   2.502   1.222
 2383TIP3    H1 7106   5.639   2.407   1.228
 2383TIP3    H2 7107   5.632   2.533   1.312
 2384TIP3   OH2 7108   7.621   2.964   1.077
 2384TIP3    H1 7109   7.596   3.055   1.093
 2384TIP3    H2 7110   7.711   2.969   1.045
 2385TIP3   OH2 7111   6.222   5.398   2.285
 2385TIP3    H1 7112   6.306   5.403   2.239
 2385TIP3    H2 7113   6.185   5.314   2.257
 2386TIP3   OH2 7114   4.423   6.544   3.366
 2386TIP3    H1 7115   4.361   6.480   3.400
 2386TIP3    H2 7116   4.463   6.583   3.444
 2387TIP3   OH2 7117   7.352   2.121   2.976
 2387TIP3    H1 7118   7.347   2.152   2.886
 2387TIP3    H2 7119   7.422   2.056   2.976
 2388TIP3   OH2 7120   7.696   3.498   3.086
 2388TIP3    H1 7121   7.684   3.569   3.024
 2388TIP3    H2 7122   7.732   3.540   3.164
 2389TIP3   OH2 7123   7.512   7.511   5.376
 2389TIP3    H1 7124   7.504   7.436   5.319
 2389TIP3    H2 7125   7.512   7.474   5.465
 2390TIP3   OH2 7126   7.207   3.130   0.723
 2390TIP3    H1 7127   7.210   3.198   0.656
 2390TIP3    H2 7128   7.295   3.093   0.723
 2391TIP3   OH2 7129   3.788   2.728   5.171
 2391TIP3    H1 7130   3.785   2.648   5.222
 2391TIP3    H2 7131   3.796   2.698   5.080
 2392TIP3   OH2 7132   4.151   0.141   5.245
 2392TIP3    H1 7133   4.169   0.051   5.216
 2392TIP3    H2 7134   4.131   0.132   5.338
 2393TIP3   OH2 7135   5.955   3.433   2.214
 2393TIP3    H1 7136   5.883   3.485   2.249
 2393TIP3    H2 7137   5.966   3.463   2.124
 2394TIP3   OH2 7138   4.152   6.283   0.642
 2394TIP3    H1 7139   4.143   6.328   0.726
 2394TIP3    H2 7140   4.108   6.341   0.579
 2395TIP3   OH2 7141   4.840   6.706   5.437
 2395TIP3    H1 7142   4.878   6.794   5.449
 2395TIP3    H2 7143   4.784   6.715   5.360
 2396TIP3   OH2 7144   5.490   3.158   2.614
 2396TIP3    H1 7145   5.550   3.153   2.688
 2396TIP3    H2 7146   5.432   3.082   2.625
 2397TIP3   OH2 7147   1.364   0.329   5.776
 2397TIP3    H1 7148   1.448   0.340   5.733
 2397TIP3    H2 7149   1.357   0.235   5.794
 2398TIP3   OH2 7150   4.207   4.106   5.888
 2398TIP3    H1 7151   4.295   4.085   5.917
 2398TIP3    H2 7152   4.182   4.183   5.939
 2399TIP3   OH2 7153   5.264   2.795   4.603
 2399TIP3    H1 7154   5.356   2.819   4.600
 2399TIP3    H2 7155   5.246   2.780   4.696
 2400TIP3   OH2 7156   0.937   6.315   1.144
 2400TIP3    H1 7157   0.935   6.377   1.217
 2400TIP3    H2 7158   1.026   6.319   1.111
 2401TIP3   OH2 7159   5.630   5.960   6.611
 2401TIP3    H1 7160   5.698   6.026   6.600
 2401TIP3    H2 7161   5.670   5.879   6.577
 2402TIP3   OH2 7162   7.031   5.631   4.466
 2402TIP3    H1 7163   7.001   5.561   4.408
 2402TIP3    H2 7164   7.070   5.584   4.541
 2403TIP3   OH2 7165   1.231   5.752   1.625
 2403TIP3    H1 7166   1.152   5.793   1.659
 2403TIP3    H2 7167   1.281   5.729   1.704
 2404TIP3   OH2 7168   2.548   3.362   6.068
 2404TIP3    H1 7169   2.484   3.410   6.014
 2404TIP3    H2 7170   2.495   3.304   6.122
 2405TIP3   OH2 7171   0.670   6.978   1.111
 2405TIP3    H1 7172   0.740   7.024   1.156
 2405TIP3    H2 7173   0.590   7.007   1.156
 2406TIP3   OH2 7174   6.857   5.554   0.705
 2406TIP3    H1 7175   6.770   5.523   0.729
 2406TIP3    H2 7176   6.870   5.632   0.760
 2407TIP3   OH2 7177   0.397   3.789   5.169
 2407TIP3    H1 7178   0.376   3.796   5.262
 2407TIP3    H2 7179   0.452   3.866   5.152
 2408TIP3   OH2 7180   1.335   0.859   0.583
 2408TIP3    H1 7181   1.256   0.897   0.545
 2408TIP3    H2 7182   1.326   0.873   0.677
 2409TIP3   OH2 7183   1.900   4.062   0.180
 2409TIP3    H1 7184   1.850   3.989   0.142
 2409TIP3    H2 7185   1.839   4.136   0.179
 2410TIP3   OH2 7186   8.237   6.133   2.148
 2410TIP3    H1 7187   8.246   6.184   2.067
 2410TIP3    H2 7188   8.318   6.082   2.153
 2411TIP3   OH2 7189   8.015   3.910   0.883
 2411TIP3    H1 7190   7.995   3.822   0.916
 2411TIP3    H2 7191   8.108   3.906   0.861
 2412TIP3   OH2 7192   0.143   2.838   5.449
 2412TIP3    H1 7193   0.174   2.913   5.399
 2412TIP3    H2 7194   0.161   2.762   5.393
 2413TIP3   OH2 7195   5.947   4.548   4.228
 2413TIP3    H1 7196   6.012   4.606   4.269
 2413TIP3    H2 7197   5.928   4.589   4.144
 2414TIP3   OH2 7198   6.903   5.713   3.579
 2414TIP3    H1 7199   6.973   5.736   3.518
 2414TIP3    H2 7200   6.865   5.798   3.604
 2415TIP3   OH2 7201   1.134   4.569   1.167
 2415TIP3    H1 7202   1.177   4.525   1.240
 2415TIP3    H2 7203   1.194   4.640   1.143
 2416TIP3   OH2 7204   3.574   0.603   4.123
 2416TIP3    H1 7205   3.494   0.645   4.090
 2416TIP3    H2 7206   3.615   0.566   4.045
 2417TIP3   OH2 7207   3.743   1.985   3.703
 2417TIP3    H1 7208   3.758   1.892   3.720
 2417TIP3    H2 7209   3.657   2.003   3.740
 2418TIP3   OH2 7210   7.147   3.995   0.559
 2418TIP3    H1 7211   7.242   4.003   0.568
 2418TIP3    H2 7212   7.113   4.001   0.648
 2419TIP3   OH2 7213   2.256   4.881   6.226
 2419TIP3    H1 7214   2.291   4.966   6.255
 2419TIP3    H2 7215   2.194   4.903   6.156
 2420TIP3   OH2 7216   1.220   5.956   0.512
 2420TIP3    H1 7217   1.154   5.895   0.476
 2420TIP3    H2 7218   1.250   6.006   0.436
 2421TIP3   OH2 7219   7.045   4.763   0.294
 2421TIP3    H1 7220   7.133   4.756   0.257
 2421TIP3    H2 7221   7.028   4.677   0.332
 2422TIP3   OH2 7222   0.998   5.268   5.013
 2422TIP3    H1 7223   0.931   5.256   4.946
 2422TIP3    H2 7224   1.081   5.270   4.965
 2423TIP3   OH2 7225   2.031   1.437   5.299
 2423TIP3    H1 7226   2.092   1.394   5.359
 2423TIP3    H2 7227   2.037   1.530   5.320
 2424TIP3   OH2 7228   1.177   6.108   1.901
 2424TIP3    H1 7229   1.252   6.084   1.846
 2424TIP3    H2 7230   1.119   6.157   1.843
 2425TIP3   OH2 7231   5.011   6.487   6.512
 2425TIP3    H1 7232   4.953   6.462   6.439
 2425TIP3    H2 7233   4.975   6.569   6.544
 2426TIP3   OH2 7234   3.010   0.869   1.239
 2426TIP3    H1 7235   3.066   0.885   1.163
 2426TIP3    H2 7236   2.939   0.932   1.230
 2427TIP3   OH2 7237   5.503   3.586   1.732
 2427TIP3    H1 7238   5.486   3.520   1.664
 2427TIP3    H2 7239   5.415   3.609   1.764
 2428TIP3   OH2 7240   2.128   3.266   6.077
 2428TIP3    H1 7241   2.057   3.273   6.141
 2428TIP3    H2 7242   2.173   3.350   6.082
 2429TIP3   OH2 7243   1.368   4.831   1.567
 2429TIP3    H1 7244   1.354   4.900   1.632
 2429TIP3    H2 7245   1.401   4.757   1.618
 2430TIP3   OH2 7246   3.226   5.190   2.040
 2430TIP3    H1 7247   3.167   5.264   2.056
 2430TIP3    H2 7248   3.273   5.213   1.960
 2431TIP3   OH2 7249   1.429   7.501   4.842
 2431TIP3    H1 7250   1.455   7.544   4.761
 2431TIP3    H2 7251   1.488   7.536   4.908
 2432TIP3   OH2 7252   1.719   0.848   5.596
 2432TIP3    H1 7253   1.685   0.935   5.619
 2432TIP3    H2 7254   1.811   0.863   5.576
 2433TIP3   OH2 7255   7.222   6.995   4.525
 2433TIP3    H1 7256   7.272   7.000   4.606
 2433TIP3    H2 7257   7.280   7.031   4.458
 2434TIP3   OH2 7258   5.899   5.977   3.126
 2434TIP3    H1 7259   5.970   5.929   3.083
 2434TIP3    H2 7260   5.822   5.921   3.116
 2435TIP3   OH2 7261   0.701   2.764   4.784
 2435TIP3    H1 7262   0.730   2.705   4.714
 2435TIP3    H2 7263   0.682   2.846   4.740
 2436TIP3   OH2 7264   3.685   5.164   2.319
 2436TIP3    H1 7265   3.673   5.246   2.271
 2436TIP3    H2 7266   3.596   5.130   2.331
 2437TIP3   OH2 7267   3.931   5.732   0.125
 2437TIP3    H1 7268   3.945   5.782   0.205
 2437TIP3    H2 7269   3.998   5.664   0.127
 2438TIP3   OH2 7270   0.765   4.295   5.083
 2438TIP3    H1 7271   0.694   4.352   5.112
 2438TIP3    H2 7272   0.816   4.278   5.162
 2439TIP3   OH2 7273   4.502   3.352   2.835
 2439TIP3    H1 7274   4.411   3.327   2.852
 2439TIP3    H2 7275   4.549   3.269   2.835
 2440TIP3   OH2 7276   5.065   4.737   0.118
 2440TIP3    H1 7277   5.152   4.765   0.088
 2440TIP3    H2 7278   5.012   4.736   0.039
 2441TIP3   OH2 7279   6.660   2.824   0.666
 2441TIP3    H1 7280   6.580   2.852   0.622
 2441TIP3    H2 7281   6.629   2.769   0.738
 2442TIP3   OH2 7282   2.587   7.773   4.814
 2442TIP3    H1 7283   2.525   7.700   4.812
 2442TIP3    H2 7284   2.581   7.812   4.726
 2443TIP3   OH2 7285   3.349   2.387   4.957
 2443TIP3    H1 7286   3.401   2.458   4.920
 2443TIP3    H2 7287   3.370   2.311   4.902
 2444TIP3   OH2 7288   2.200   6.310   5.382
 2444TIP3    H1 7289   2.280   6.257   5.386
 2444TIP3    H2 7290   2.211   6.364   5.304
 2445TIP3   OH2 7291   5.860   3.946   1.630
 2445TIP3    H1 7292   5.922   4.018   1.619
 2445TIP3    H2 7293   5.863   3.898   1.547
 2446TIP3   OH2 7294   0.650   4.714   0.706
 2446TIP3    H1 7295   0.617   4.683   0.790
 2446TIP3    H2 7296   0.572   4.730   0.653
 2447TIP3   OH2 7297   5.959   5.116   5.515
 2447TIP3    H1 7298   5.928   5.040   5.564
 2447TIP3    H2 7299   5.880   5.170   5.504
 2448TIP3   OH2 7300   1.593   2.549   3.956
 2448TIP3    H1 7301   1.526   2.617   3.947
 2448TIP3    H2 7302   1.654   2.583   4.021
 2449TIP3   OH2 7303   5.155   3.158   0.024
 2449TIP3    H1 7304   5.199   3.241   0.039
 2449TIP3    H2 7305   5.182   3.102   0.097
 2450TIP3   OH2 7306   6.527   1.547   1.525
 2450TIP3    H1 7307   6.537   1.499   1.443
 2450TIP3    H2 7308   6.555   1.636   1.505
 2451TIP3   OH2 7309   0.198   0.303   5.750
 2451TIP3    H1 7310   0.166   0.214   5.741
 2451TIP3    H2 7311   0.122   0.358   5.730
 2452TIP3   OH2 7312   1.363   3.246   3.139
 2452TIP3    H1 7313   1.294   3.298   3.097
 2452TIP3    H2 7314   1.318   3.165   3.166
 2453TIP3   OH2 7315   4.647   2.608   3.009
 2453TIP3    H1 7316   4.712   2.596   2.940
 2453TIP3    H2 7317   4.698   2.610   3.090
 2454TIP3   OH2 7318   7.818   3.841   0.206
 2454TIP3    H1 7319   7.820   3.821   0.112
 2454TIP3    H2 7320   7.823   3.936   0.211
 2455TIP3   OH2 7321   7.834   0.049   2.255
 2455TIP3    H1 7322   7.871   0.038   2.168
 2455TIP3    H2 7323   7.742   0.068   2.240
 2456TIP3   OH2 7324   6.042   4.346   0.316
 2456TIP3    H1 7325   6.076   4.267   0.274
 2456TIP3    H2 7326   6.116   4.380   0.366
 2457TIP3   OH2 7327   4.396   2.543   2.886
 2457TIP3    H1 7328   4.477   2.554   2.935
 2457TIP3    H2 7329   4.360   2.460   2.919
 2458TIP3   OH2 7330   6.336   1.388   1.938
 2458TIP3    H1 7331   6.368   1.360   2.024
 2458TIP3    H2 7332   6.398   1.457   1.912
 2459TIP3   OH2 7333   2.227   3.543   6.138
 2459TIP3    H1 7334   2.274   3.579   6.213
 2459TIP3    H2 7335   2.291   3.540   6.067
 2460TIP3   OH2 7336   2.267   2.375   2.348
 2460TIP3    H1 7337   2.204   2.431   2.393
 2460TIP3    H2 7338   2.344   2.431   2.335
 2461TIP3   OH2 7339   0.148   2.077   3.593
 2461TIP3    H1 7340   0.100   1.996   3.611
 2461TIP3    H2 7341   0.240   2.052   3.599
 2462TIP3   OH2 7342   5.712   1.256   4.429
 2462TIP3    H1 7343   5.792   1.211   4.456
 2462TIP3    H2 7344   5.742   1.334   4.383
 2463TIP3   OH2 7345   5.934   1.868   5.871
 2463TIP3    H1 7346   5.853   1.816   5.880
 2463TIP3    H2 7347   5.998   1.806   5.836
 2464TIP3   OH2 7348   7.742   0.156   3.454
 2464TIP3    H1 7349   7.805   0.122   3.390
 2464TIP3    H2 7350   7.657   0.134   3.417
 2465TIP3   OH2 7351   5.812   1.037   2.066
 2465TIP3    H1 7352   5.886   1.033   2.127
 2465TIP3    H2 7353   5.836   0.979   1.995
 2466TIP3   OH2 7354   4.017   1.377   5.613
 2466TIP3    H1 7355   4.084   1.332   5.665
 2466TIP3    H2 7356   3.964   1.423   5.678
 2467TIP3   OH2 7357   0.823   6.861   4.024
 2467TIP3    H1 7358   0.782   6.816   3.949
 2467TIP3    H2 7359   0.893   6.913   3.985
 2468TIP3   OH2 7360   1.408   3.872   0.676
 2468TIP3    H1 7361   1.312   3.877   0.667
 2468TIP3    H2 7362   1.432   3.798   0.620
 2469TIP3   OH2 7363   6.554   6.173   4.669
 2469TIP3    H1 7364   6.508   6.128   4.741
 2469TIP3    H2 7365   6.633   6.121   4.655
 2470TIP3   OH2 7366   1.968   3.526   0.025
 2470TIP3    H1 7367   1.960   3.606  -0.028
 2470TIP3    H2 7368   1.967   3.557   0.116
 2471TIP3   OH2 7369   6.932   6.876   1.311
 2471TIP3    H1 7370   6.837   6.875   1.309
 2471TIP3    H2 7371   6.955   6.968   1.304
 2472TIP3   OH2 7372   5.172   1.994   2.674
 2472TIP3    H1 7373   5.166   1.924   2.740
 2472TIP3    H2 7374   5.089   1.988   2.627
 2473TIP3   OH2 7375   5.363   6.405   1.273
 2473TIP3    H1 7376   5.333   6.320   1.241
 2473TIP3    H2 7377   5.282   6.453   1.292
 2474TIP3   OH2 7378   1.468   4.344   0.504
 2474TIP3    H1 7379   1.416   4.284   0.558
 2474TIP3    H2 7380   1.434   4.332   0.416
 2475TIP3   OH2 7381   3.628   1.089   5.732
 2475TIP3    H1 7382   3.544   1.068   5.773
 2475TIP3    H2 7383   3.664   1.160   5.784
 2476TIP3   OH2 7384   3.210   6.005   3.549
 2476TIP3    H1 7385   3.196   6.012   3.643
 2476TIP3    H2 7386   3.122   6.001   3.512
 2477TIP3   OH2 7387   5.214   6.430   2.079
 2477TIP3    H1 7388   5.257   6.481   2.010
 2477TIP3    H2 7389   5.135   6.396   2.038
 2478TIP3   OH2 7390   6.650   0.853   1.559
 2478TIP3    H1 7391   6.716   0.865   1.491
 2478TIP3    H2 7392   6.643   0.939   1.601
 2479TIP3   OH2 7393   8.247   3.214   0.880
 2479TIP3    H1 7394   8.172   3.179   0.832
 2479TIP3    H2 7395   8.323   3.172   0.840
 2480TIP3   OH2 7396   7.359   0.037   4.277
 2480TIP3    H1 7397   7.292   0.106   4.278
 2480TIP3    H2 7398   7.320  -0.034   4.228
 2481TIP3   OH2 7399   7.828   5.908   6.355
 2481TIP3    H1 7400   7.811   5.933   6.445
 2481TIP3    H2 7401   7.742   5.906   6.313
 2482TIP3   OH2 7402   3.458   7.250   3.918
 2482TIP3    H1 7403   3.486   7.270   4.007
 2482TIP3    H2 7404   3.490   7.325   3.866
 2483TIP3   OH2 7405   4.985   6.089   1.706
 2483TIP3    H1 7406   5.008   6.135   1.625
 2483TIP3    H2 7407   4.900   6.049   1.688
 2484TIP3   OH2 7408   3.012   2.443   4.131
 2484TIP3    H1 7409   2.963   2.513   4.088
 2484TIP3    H2 7410   3.036   2.383   4.061
 2485TIP3   OH2 7411   5.291   3.964   5.982
 2485TIP3    H1 7412   5.369   3.941   6.031
 2485TIP3    H2 7413   5.306   4.055   5.954
 2486TIP3   OH2 7414   6.966   3.503   1.069
 2486TIP3    H1 7415   7.042   3.450   1.044
 2486TIP3    H2 7416   6.907   3.441   1.112
 2487TIP3   OH2 7417   6.277   0.875   5.846
 2487TIP3    H1 7418   6.190   0.850   5.815
 2487TIP3    H2 7419   6.279   0.970   5.837
 2488TIP3   OH2 7420   1.056   6.422   1.667
 2488TIP3    H1 7421   1.091   6.441   1.755
 2488TIP3    H2 7422   1.059   6.327   1.660
 2489TIP3   OH2 7423   3.697   3.968   1.005
 2489TIP3    H1 7424   3.767   3.947   1.067
 2489TIP3    H2 7425   3.620   3.983   1.061
 2490TIP3   OH2 7426   3.585   1.912   0.457
 2490TIP3    H1 7427   3.607   1.845   0.392
 2490TIP3    H2 7428   3.519   1.871   0.513
 2491TIP3   OH2 7429   4.532   6.483   3.910
 2491TIP3    H1 7430   4.464   6.525   3.962
 2491TIP3    H2 7431   4.612   6.531   3.934
 2492TIP3   OH2 7432   2.341   0.008   1.444
 2492TIP3    H1 7433   2.252  -0.014   1.471
 2492TIP3    H2 7434   2.352   0.100   1.469
 2493TIP3   OH2 7435   5.290   0.739   3.153
 2493TIP3    H1 7436   5.373   0.750   3.198
 2493TIP3    H2 7437   5.303   0.664   3.095
 2494TIP3   OH2 7438   0.545   3.413   6.728
 2494TIP3    H1 7439   0.484   3.347   6.695
 2494TIP3    H2 7440   0.632   3.377   6.709
 2495TIP3   OH2 7441   2.449   6.070   0.914
 2495TIP3    H1 7442   2.459   6.012   0.838
 2495TIP3    H2 7443   2.421   6.153   0.876
 2496TIP3   OH2 7444   7.628   1.876   6.452
 2496TIP3    H1 7445   7.691   1.942   6.424
 2496TIP3    H2 7446   7.572   1.861   6.375
 2497TIP3   OH2 7447   3.380   2.766   4.688
 2497TIP3    H1 7448   3.306   2.708   4.669
 2497TIP3    H2 7449   3.410   2.796   4.602
 2498TIP3   OH2 7450   4.521   4.971   2.454
 2498TIP3    H1 7451   4.574   4.914   2.511
 2498TIP3    H2 7452   4.507   4.919   2.375
 2499TIP3   OH2 7453   3.585   1.631   1.892
 2499TIP3    H1 7454   3.622   1.715   1.863
 2499TIP3    H2 7455   3.511   1.616   1.833
 2500TIP3   OH2 7456   3.754   2.564   3.111
 2500TIP3    H1 7457   3.819   2.514   3.160
 2500TIP3    H2 7458   3.760   2.531   3.021
 2501TIP3   OH2 7459   1.485   7.445   6.175
 2501TIP3    H1 7460   1.453   7.356   6.187
 2501TIP3    H2 7461   1.569   7.446   6.223
 2502TIP3   OH2 7462   7.482   3.745   1.224
 2502TIP3    H1 7463   7.538   3.720   1.297
 2502TIP3    H2 7464   7.542   3.766   1.153
 2503TIP3   OH2 7465   4.721   5.504   5.335
 2503TIP3    H1 7466   4.697   5.533   5.423
 2503TIP3    H2 7467   4.800   5.450   5.348
 2504TIP3   OH2 7468   6.358   4.511   5.775
 2504TIP3    H1 7469   6.394   4.590   5.735
 2504TIP3    H2 7470   6.434   4.454   5.789
 2505TIP3   OH2 7471   0.111   6.367   1.719
 2505TIP3    H1 7472   0.043   6.413   1.669
 2505TIP3    H2 7473   0.125   6.423   1.796
 2506TIP3   OH2 7474   6.416   5.024   2.093
 2506TIP3    H1 7475   6.474   4.960   2.052
 2506TIP3    H2 7476   6.349   5.043   2.026
 2507TIP3   OH2 7477   0.266   7.093   1.410
 2507TIP3    H1 7478   0.322   7.025   1.373
 2507TIP3    H2 7479   0.240   7.145   1.334
 2508TIP3   OH2 7480   7.285   3.745   5.834
 2508TIP3    H1 7481   7.379   3.744   5.815
 2508TIP3    H2 7482   7.272   3.823   5.888
 2509TIP3   OH2 7483   5.864   1.572   2.850
 2509TIP3    H1 7484   5.785   1.526   2.819
 2509TIP3    H2 7485   5.836   1.616   2.930
 2510TIP3   OH2 7486   0.572   1.291   2.260
 2510TIP3    H1 7487   0.486   1.295   2.218
 2510TIP3    H2 7488   0.578   1.202   2.294
 2511TIP3   OH2 7489   1.331   7.652   2.510
 2511TIP3    H1 7490   1.328   7.630   2.603
 2511TIP3    H2 7491   1.292   7.575   2.467
 2512TIP3   OH2 7492   5.414   2.743   3.912
 2512TIP3    H1 7493   5.420   2.767   4.004
 2512TIP3    H2 7494   5.419   2.827   3.865
 2513TIP3   OH2 7495   8.214   5.728   6.501
 2513TIP3    H1 7496   8.289   5.786   6.488
 2513TIP3    H2 7497   8.194   5.694   6.414
 2514TIP3   OH2 7498   1.965   2.410   4.968
 2514TIP3    H1 7499   2.019   2.334   4.989
 2514TIP3    H2 7500   1.976   2.468   5.043
 2515TIP3   OH2 7501   1.355   0.714   3.138
 2515TIP3    H1 7502   1.305   0.667   3.204
 2515TIP3    H2 7503   1.309   0.798   3.128
 2516TIP3   OH2 7504   4.309   0.881   2.614
 2516TIP3    H1 7505   4.327   0.899   2.522
 2516TIP3    H2 7506   4.263   0.797   2.614
 2517TIP3   OH2 7507   3.681   5.786   3.188
 2517TIP3    H1 7508   3.660   5.851   3.121
 2517TIP3    H2 7509   3.663   5.702   3.145
 2518TIP3   OH2 7510   1.932   7.626   5.534
 2518TIP3    H1 7511   1.922   7.532   5.552
 2518TIP3    H2 7512   1.848   7.664   5.555
 2519TIP3   OH2 7513   7.498   2.615   5.919
 2519TIP3    H1 7514   7.465   2.548   5.859
 2519TIP3    H2 7515   7.448   2.694   5.898
 2520TIP3   OH2 7516   6.265   1.336   0.545
 2520TIP3    H1 7517   6.244   1.294   0.462
 2520TIP3    H2 7518   6.265   1.430   0.525
 2521TIP3   OH2 7519   0.216   7.777   5.177
 2521TIP3    H1 7520   0.298   7.728   5.184
 2521TIP3    H2 7521   0.149   7.714   5.199
 2522TIP3   OH2 7522   1.804   3.052   2.711
 2522TIP3    H1 7523   1.724   3.000   2.704
 2522TIP3    H2 7524   1.812   3.071   2.804
 2523TIP3   OH2 7525   6.653   2.137   4.410
 2523TIP3    H1 7526   6.728   2.192   4.385
 2523TIP3    H2 7527   6.577   2.184   4.375
 2524TIP3   OH2 7528   6.879   5.925   5.677
 2524TIP3    H1 7529   6.922   6.001   5.637
 2524TIP3    H2 7530   6.943   5.890   5.739
 2525TIP3   OH2 7531   0.335   0.259   1.535
 2525TIP3    H1 7532   0.360   0.301   1.617
 2525TIP3    H2 7533   0.244   0.286   1.521
 2526TIP3   OH2 7534   0.039   3.996   5.515
 2526TIP3    H1 7535   0.086   3.928   5.563
 2526TIP3    H2 7536   0.071   3.990   5.426
 2527TIP3   OH2 7537   4.444   1.733   0.551
 2527TIP3    H1 7538   4.507   1.803   0.570
 2527TIP3    H2 7539   4.473   1.659   0.604
 2528TIP3   OH2 7540   3.327   1.526   0.246
 2528TIP3    H1 7541   3.357   1.477   0.322
 2528TIP3    H2 7542   3.382   1.494   0.174
 2529TIP3   OH2 7543   5.804   2.085   5.711
 2529TIP3    H1 7544   5.851   2.168   5.724
 2529TIP3    H2 7545   5.853   2.021   5.762
 2530TIP3   OH2 7546   0.883   1.736   3.617
 2530TIP3    H1 7547   0.803   1.782   3.591
 2530TIP3    H2 7548   0.899   1.763   3.707
 2531TIP3   OH2 7549   0.469   2.845   4.202
 2531TIP3    H1 7550   0.535   2.807   4.260
 2531TIP3    H2 7551   0.386   2.812   4.236
 2532TIP3   OH2 7552   4.176   3.455   1.664
 2532TIP3    H1 7553   4.116   3.528   1.683
 2532TIP3    H2 7554   4.129   3.402   1.600
 2533TIP3   OH2 7555   2.975   3.485   4.781
 2533TIP3    H1 7556   2.989   3.414   4.718
 2533TIP3    H2 7557   2.986   3.565   4.730
 2534TIP3   OH2 7558   6.070   3.535   1.659
 2534TIP3    H1 7559   6.111   3.557   1.575
 2534TIP3    H2 7560   6.097   3.605   1.718
 2535TIP3   OH2 7561   6.681   7.617   2.379
 2535TIP3    H1 7562   6.711   7.674   2.450
 2535TIP3    H2 7563   6.641   7.542   2.423
 2536TIP3   OH2 7564   5.093   7.551   0.046
 2536TIP3    H1 7565   5.143   7.615  -0.004
 2536TIP3    H2 7566   5.055   7.602   0.118
 2537TIP3   OH2 7567   6.110   0.370   4.091
 2537TIP3    H1 7568   6.145   0.286   4.120
 2537TIP3    H2 7569   6.047   0.395   4.158
 2538TIP3   OH2 7570   0.744   3.228   2.493
 2538TIP3    H1 7571   0.667   3.275   2.524
 2538TIP3    H2 7572   0.799   3.218   2.570
 2539TIP3   OH2 7573   1.274   3.466   6.465
 2539TIP3    H1 7574   1.291   3.559   6.480
 2539TIP3    H2 7575   1.334   3.421   6.525
 2540TIP3   OH2 7576   6.947   7.133   5.943
 2540TIP3    H1 7577   6.953   7.149   5.849
 2540TIP3    H2 7578   7.034   7.152   5.977
 2541TIP3   OH2 7579   4.995   6.052   5.536
 2541TIP3    H1 7580   5.065   5.999   5.574
 2541TIP3    H2 7581   4.941   5.990   5.488
 2542TIP3   OH2 7582   0.902   1.000   3.528
 2542TIP3    H1 7583   0.917   1.094   3.539
 2542TIP3    H2 7584   0.988   0.964   3.506
 2543TIP3   OH2 7585   2.642   3.663   5.880
 2543TIP3    H1 7586   2.705   3.717   5.832
 2543TIP3    H2 7587   2.671   3.573   5.865
 2544TIP3   OH2 7588   6.925   5.296   6.602
 2544TIP3    H1 7589   6.864   5.224   6.615
 2544TIP3    H2 7590   7.007   5.265   6.641
 2545TIP3   OH2 7591   1.326   1.378   1.767
 2545TIP3    H1 7592   1.353   1.340   1.851
 2545TIP3    H2 7593   1.231   1.369   1.767
 2546TIP3   OH2 7594   2.143   5.163   3.310
 2546TIP3    H1 7595   2.199   5.190   3.383
 2546TIP3    H2 7596   2.144   5.067   3.313
 2547TIP3   OH2 7597   5.142   3.894   2.051
 2547TIP3    H1 7598   5.157   3.988   2.057
 2547TIP3    H2 7599   5.229   3.855   2.060
 2548TIP3   OH2 7600   1.712   2.076   1.053
 2548TIP3    H1 7601   1.794   2.117   1.025
 2548TIP3    H2 7602   1.645   2.118   1.000
 2549TIP3   OH2 7603   8.051   5.951   4.076
 2549TIP3    H1 7604   8.016   6.025   4.126
 2549TIP3    H2 7605   8.146   5.965   4.076
 2550TIP3   OH2 7606   8.158   3.208   3.290
 2550TIP3    H1 7607   8.240   3.241   3.255
 2550TIP3    H2 7608   8.170   3.114   3.297
 2551TIP3   OH2 7609   3.188   6.373   6.478
 2551TIP3    H1 7610   3.221   6.334   6.559
 2551TIP3    H2 7611   3.094   6.385   6.493
 2552TIP3   OH2 7612   2.175   3.646   0.743
 2552TIP3    H1 7613   2.103   3.698   0.708
 2552TIP3    H2 7614   2.245   3.710   0.759
 2553TIP3   OH2 7615   5.917   2.569   1.925
 2553TIP3    H1 7616   5.854   2.639   1.936
 2553TIP3    H2 7617   5.966   2.592   1.846
 2554TIP3   OH2 7618   0.197   5.732   5.499
 2554TIP3    H1 7619   0.158   5.735   5.587
 2554TIP3    H2 7620   0.220   5.640   5.487
 2555TIP3   OH2 7621   6.108   1.427   4.097
 2555TIP3    H1 7622   6.072   1.365   4.160
 2555TIP3    H2 7623   6.122   1.376   4.017
 2556TIP3   OH2 7624   0.983   3.518   3.107
 2556TIP3    H1 7625   1.043   3.588   3.131
 2556TIP3    H2 7626   0.927   3.507   3.184
 2557TIP3   OH2 7627   6.719   4.849   3.318
 2557TIP3    H1 7628   6.804   4.833   3.360
 2557TIP3    H2 7629   6.739   4.849   3.224
 2558TIP3   OH2 7630   1.228   0.298   0.710
 2558TIP3    H1 7631   1.140   0.279   0.679
 2558TIP3    H2 7632   1.239   0.392   0.698
 2559TIP3   OH2 7633   8.119   3.331   4.470
 2559TIP3    H1 7634   8.025   3.339   4.487
 2559TIP3    H2 7635   8.160   3.357   4.553
 2560TIP3   OH2 7636   6.614   3.880   4.158
 2560TIP3    H1 7637   6.658   3.903   4.240
 2560TIP3    H2 7638   6.672   3.819   4.115
 2561TIP3   OH2 7639   7.207   4.581   5.470
 2561TIP3    H1 7640   7.204   4.510   5.406
 2561TIP3    H2 7641   7.237   4.540   5.551
 2562TIP3   OH2 7642   7.350   5.781   0.227
 2562TIP3    H1 7643   7.303   5.726   0.165
 2562TIP3    H2 7644   7.358   5.866   0.182
 2563TIP3   OH2 7645   2.971   7.324   6.288
 2563TIP3    H1 7646   2.881   7.303   6.261
 2563TIP3    H2 7647   3.016   7.345   6.206
 2564TIP3   OH2 7648   0.037   1.798   4.580
 2564TIP3    H1 7649  -0.014   1.722   4.556
 2564TIP3    H2 7650   0.082   1.773   4.661
 2565TIP3   OH2 7651   5.930   4.107   3.530
 2565TIP3    H1 7652   6.018   4.125   3.565
 2565TIP3    H2 7653   5.897   4.035   3.584
 2566TIP3   OH2 7654   5.301   2.169   1.384
 2566TIP3    H1 7655   5.384   2.197   1.423
 2566TIP3    H2 7656   5.241   2.160   1.458
 2567TIP3   OH2 7657   4.455   3.550   0.036
 2567TIP3    H1 7658   4.472   3.632  -0.011
 2567TIP3    H2 7659   4.390   3.505  -0.019
 2568TIP3   OH2 7660   5.711   4.333   5.018
 2568TIP3    H1 7661   5.760   4.392   5.075
 2568TIP3    H2 7662   5.631   4.381   4.997
 2569TIP3   OH2 7663   7.344   5.781   5.626
 2569TIP3    H1 7664   7.409   5.828   5.679
 2569TIP3    H2 7665   7.393   5.750   5.550
 2570TIP3   OH2 7666   6.754   3.738   1.263
 2570TIP3    H1 7667   6.737   3.806   1.328
 2570TIP3    H2 7668   6.764   3.657   1.314
 2571TIP3   OH2 7669   1.743   7.073   4.511
 2571TIP3    H1 7670   1.709   7.009   4.573
 2571TIP3    H2 7671   1.668   7.099   4.458
 2572TIP3   OH2 7672   0.260   2.053   1.176
 2572TIP3    H1 7673   0.182   2.090   1.134
 2572TIP3    H2 7674   0.324   2.123   1.174
 2573TIP3   OH2 7675   8.101   1.168   3.027
 2573TIP3    H1 7676   8.124   1.176   2.934
 2573TIP3    H2 7677   8.058   1.251   3.048
 2574TIP3   OH2 7678   2.240   3.821   1.349
 2574TIP3    H1 7679   2.159   3.774   1.370
 2574TIP3    H2 7680   2.303   3.751   1.329
 2575TIP3   OH2 7681   2.280   2.080   2.268
 2575TIP3    H1 7682   2.284   2.172   2.293
 2575TIP3    H2 7683   2.276   2.033   2.352
 2576TIP3   OH2 7684   2.913   5.237   0.658
 2576TIP3    H1 7685   2.973   5.263   0.587
 2576TIP3    H2 7686   2.971   5.219   0.732
 2577TIP3   OH2 7687   4.388   6.599   1.319
 2577TIP3    H1 7688   4.317   6.574   1.378
 2577TIP3    H2 7689   4.427   6.676   1.359
 2578TIP3   OH2 7690   6.271   2.862   6.221
 2578TIP3    H1 7691   6.222   2.937   6.187
 2578TIP3    H2 7692   6.204   2.797   6.241
 2579TIP3   OH2 7693   2.788   1.891   5.451
 2579TIP3    H1 7694   2.847   1.915   5.522
 2579TIP3    H2 7695   2.815   1.947   5.378
 2580TIP3   OH2 7696   0.073   6.116   3.412
 2580TIP3    H1 7697  -0.021   6.100   3.416
 2580TIP3    H2 7698   0.096   6.108   3.320
 2581TIP3   OH2 7699   0.424   5.935   3.325
 2581TIP3    H1 7700   0.473   5.930   3.407
 2581TIP3    H2 7701   0.462   6.011   3.280
 2582TIP3   OH2 7702   0.534   5.849   5.867
 2582TIP3    H1 7703   0.585   5.911   5.816
 2582TIP3    H2 7704   0.444   5.879   5.859
 2583TIP3   OH2 7705   0.482   1.985   5.648
 2583TIP3    H1 7706   0.442   2.022   5.569
 2583TIP3    H2 7707   0.498   2.061   5.705
 2584TIP3   OH2 7708   4.118   0.933   0.134
 2584TIP3    H1 7709   4.062   0.901   0.205
 2584TIP3    H2 7710   4.195   0.877   0.137
 2585TIP3   OH2 7711   6.919   5.471   0.459
 2585TIP3    H1 7712   6.929   5.514   0.544
 2585TIP3    H2 7713   7.003   5.487   0.414
 2586TIP3   OH2 7714   6.130   3.909   4.746
 2586TIP3    H1 7715   6.131   3.986   4.803
 2586TIP3    H2 7716   6.162   3.941   4.661
 2587TIP3   OH2 7717   0.738   0.065   2.196
 2587TIP3    H1 7718   0.786   0.015   2.262
 2587TIP3    H2 7719   0.718   0.001   2.127
 2588TIP3   OH2 7720   0.566   6.641   6.551
 2588TIP3    H1 7721   0.475   6.635   6.582
 2588TIP3    H2 7722   0.616   6.668   6.627
 2589TIP3   OH2 7723   6.488   3.868   3.053
 2589TIP3    H1 7724   6.524   3.880   2.965
 2589TIP3    H2 7725   6.473   3.957   3.085
 2590TIP3   OH2 7726   4.595   2.416   3.934
 2590TIP3    H1 7727   4.566   2.506   3.946
 2590TIP3    H2 7728   4.677   2.424   3.885
 2591TIP3   OH2 7729   6.018   4.879   4.968
 2591TIP3    H1 7730   6.093   4.908   4.916
 2591TIP3    H2 7731   5.992   4.796   4.928
 2592TIP3   OH2 7732   4.184   0.384   6.592
 2592TIP3    H1 7733   4.237   0.370   6.514
 2592TIP3    H2 7734   4.232   0.338   6.661
 2593TIP3   OH2 7735   1.837   1.268   3.671
 2593TIP3    H1 7736   1.909   1.286   3.731
 2593TIP3    H2 7737   1.790   1.351   3.664
 2594TIP3   OH2 7738   6.783   0.764   4.538
 2594TIP3    H1 7739   6.749   0.780   4.626
 2594TIP3    H2 7740   6.858   0.707   4.551
 2595TIP3   OH2 7741   3.673   7.049   2.164
 2595TIP3    H1 7742   3.729   6.981   2.202
 2595TIP3    H2 7743   3.730   7.094   2.102
 2596TIP3   OH2 7744   7.681   6.638   4.718
 2596TIP3    H1 7745   7.690   6.543   4.728
 2596TIP3    H2 7746   7.722   6.675   4.796
 2597TIP3   OH2 7747   6.495   2.834   3.427
 2597TIP3    H1 7748   6.588   2.857   3.418
 2597TIP3    H2 7749   6.495   2.749   3.470
 2598TIP3   OH2 7750   4.287   1.875   4.118
 2598TIP3    H1 7751   4.382   1.870   4.116
 2598TIP3    H2 7752   4.269   1.961   4.157
 2599TIP3   OH2 7753   8.013   0.459   0.451
 2599TIP3    H1 7754   7.987   0.551   0.461
 2599TIP3    H2 7755   8.085   0.461   0.389
 2600TIP3   OH2 7756   8.090   2.406   1.957
 2600TIP3    H1 7757   8.116   2.314   1.961
 2600TIP3    H2 7758   7.997   2.404   1.933
 2601TIP3   OH2 7759   1.062   5.737   0.393
 2601TIP3    H1 7760   1.013   5.683   0.331
 2601TIP3    H2 7761   0.999   5.757   0.462
 2602TIP3   OH2 7762   5.712   4.072   4.970
 2602TIP3    H1 7763   5.704   4.141   5.036
 2602TIP3    H2 7764   5.693   4.116   4.887
 2603TIP3   OH2 7765   6.071   4.546   2.683
 2603TIP3    H1 7766   6.064   4.476   2.748
 2603TIP3    H2 7767   5.996   4.603   2.701
 2604TIP3   OH2 7768   7.516   2.103   0.007
 2604TIP3    H1 7769   7.598   2.108  -0.042
 2604TIP3    H2 7770   7.511   2.187   0.053
 2605TIP3   OH2 7771   5.837   1.007   5.849
 2605TIP3    H1 7772   5.841   0.919   5.810
 2605TIP3    H2 7773   5.911   1.009   5.909
 2606TIP3   OH2 7774   6.274   1.287   4.469
 2606TIP3    H1 7775   6.215   1.253   4.402
 2606TIP3    H2 7776   6.225   1.358   4.511
 2607TIP3   OH2 7777   5.064   5.528   1.072
 2607TIP3    H1 7778   5.068   5.621   1.098
 2607TIP3    H2 7779   5.140   5.488   1.116
 2608TIP3   OH2 7780   2.214   2.641   5.430
 2608TIP3    H1 7781   2.249   2.616   5.344
 2608TIP3    H2 7782   2.203   2.558   5.477
 2609TIP3   OH2 7783   6.568   2.375   4.631
 2609TIP3    H1 7784   6.514   2.298   4.648
 2609TIP3    H2 7785   6.657   2.347   4.655
 2610TIP3   OH2 7786   5.747   4.299   5.997
 2610TIP3    H1 7787   5.764   4.259   6.082
 2610TIP3    H2 7788   5.827   4.348   5.977
 2611TIP3   OH2 7789   3.727   3.476   1.526
 2611TIP3    H1 7790   3.661   3.533   1.565
 2611TIP3    H2 7791   3.769   3.434   1.601
 2612TIP3   OH2 7792   6.364   4.889   0.162
 2612TIP3    H1 7793   6.338   4.979   0.139
 2612TIP3    H2 7794   6.459   4.887   0.147
 2613TIP3   OH2 7795   7.471   1.862   2.340
 2613TIP3    H1 7796   7.509   1.849   2.253
 2613TIP3    H2 7797   7.546   1.862   2.399
 2614TIP3   OH2 7798   0.853   4.130   2.865
 2614TIP3    H1 7799   0.819   4.042   2.845
 2614TIP3    H2 7800   0.913   4.116   2.938
 2615TIP3   OH2 7801   4.818   3.389   5.465
 2615TIP3    H1 7802   4.878   3.316   5.478
 2615TIP3    H2 7803   4.826   3.410   5.372
 2616TIP3   OH2 7804   1.754   4.700   0.774
 2616TIP3    H1 7805   1.735   4.608   0.792
 2616TIP3    H2 7806   1.773   4.702   0.681
 2617TIP3   OH2 7807   5.168   2.415   4.809
 2617TIP3    H1 7808   5.168   2.477   4.882
 2617TIP3    H2 7809   5.195   2.467   4.734
 2618TIP3   OH2 7810   1.197   2.917   1.978
 2618TIP3    H1 7811   1.115   2.966   1.989
 2618TIP3    H2 7812   1.175   2.849   1.914
 2619TIP3   OH2 7813   4.412   4.203   2.493
 2619TIP3    H1 7814   4.339   4.248   2.450
 2619TIP3    H2 7815   4.482   4.268   2.493
 2620TIP3   OH2 7816   7.887   0.691   1.662
 2620TIP3    H1 7817   7.940   0.691   1.741
 2620TIP3    H2 7818   7.806   0.736   1.686
 2621TIP3   OH2 7819   3.245   0.865   5.391
 2621TIP3    H1 7820   3.328   0.876   5.437
 2621TIP3    H2 7821   3.267   0.877   5.298
 2622TIP3   OH2 7822   8.127   0.768   4.167
 2622TIP3    H1 7823   8.167   0.838   4.116
 2622TIP3    H2 7824   8.199   0.709   4.190
 2623TIP3   OH2 7825   0.486   6.079   5.645
 2623TIP3    H1 7826   0.565   6.065   5.696
 2623TIP3    H2 7827   0.487   6.011   5.578
 2624TIP3   OH2 7828   1.837   0.654   5.318
 2624TIP3    H1 7829   1.761   0.697   5.278
 2624TIP3    H2 7830   1.912   0.692   5.272
 2625TIP3   OH2 7831   7.479   0.397   5.167
 2625TIP3    H1 7832   7.472   0.383   5.073
 2625TIP3    H2 7833   7.396   0.438   5.191
 2626TIP3   OH2 7834   0.590   2.392   3.457
 2626TIP3    H1 7835   0.536   2.428   3.387
 2626TIP3    H2 7836   0.564   2.441   3.535
 2627TIP3   OH2 7837   4.608   2.037   1.136
 2627TIP3    H1 7838   4.600   1.957   1.186
 2627TIP3    H2 7839   4.700   2.040   1.109
 2628TIP3   OH2 7840   7.874   6.142   4.246
 2628TIP3    H1 7841   7.794   6.136   4.298
 2628TIP3    H2 7842   7.942   6.105   4.301
 2629TIP3   OH2 7843   6.942   3.355   3.144
 2629TIP3    H1 7844   7.034   3.364   3.117
 2629TIP3    H2 7845   6.947   3.315   3.231
 2630TIP3   OH2 7846   3.227   4.449   0.021
 2630TIP3    H1 7847   3.177   4.530   0.014
 2630TIP3    H2 7848   3.244   4.440   0.115
 2631TIP3   OH2 7849   2.920   3.509   4.401
 2631TIP3    H1 7850   2.839   3.557   4.419
 2631TIP3    H2 7851   2.986   3.553   4.454
 2632TIP3   OH2 7852   0.856   5.949   3.583
 2632TIP3    H1 7853   0.949   5.973   3.586
 2632TIP3    H2 7854   0.814   6.021   3.538
 2633TIP3   OH2 7855   1.047   1.828   4.095
 2633TIP3    H1 7856   0.972   1.813   4.152
 2633TIP3    H2 7857   1.117   1.773   4.130
 2634TIP3   OH2 7858   1.214   4.781   5.481
 2634TIP3    H1 7859   1.192   4.730   5.560
 2634TIP3    H2 7860   1.302   4.752   5.457
 2635TIP3   OH2 7861   2.382   2.979   0.201
 2635TIP3    H1 7862   2.407   2.888   0.181
 2635TIP3    H2 7863   2.425   3.032   0.134
 2636TIP3   OH2 7864   5.094   7.373   4.399
 2636TIP3    H1 7865   5.010   7.357   4.442
 2636TIP3    H2 7866   5.103   7.302   4.335
 2637TIP3   OH2 7867   4.053   0.187   4.529
 2637TIP3    H1 7868   3.999   0.109   4.542
 2637TIP3    H2 7869   3.990   0.259   4.522
 2638TIP3   OH2 7870   0.064   3.893   2.968
 2638TIP3    H1 7871  -0.026   3.866   2.949
 2638TIP3    H2 7872   0.117   3.843   2.905
 2639TIP3   OH2 7873   0.180   4.387   3.491
 2639TIP3    H1 7874   0.202   4.399   3.583
 2639TIP3    H2 7875   0.086   4.366   3.491
 2640TIP3   OH2 7876   2.777   4.343   0.418
 2640TIP3    H1 7877   2.717   4.412   0.446
 2640TIP3    H2 7878   2.761   4.334   0.324
 2641TIP3   OH2 7879   2.940   1.358   4.033
 2641TIP3    H1 7880   2.920   1.449   4.053
 2641TIP3    H2 7881   3.005   1.362   3.963
 2642TIP3   OH2 7882   1.216   6.146   0.738
 2642TIP3    H1 7883   1.274   6.152   0.814
 2642TIP3    H2 7884   1.259   6.082   0.681
 2643TIP3   OH2 7885   4.652   7.234   6.621
 2643TIP3    H1 7886   4.556   7.228   6.623
 2643TIP3    H2 7887   4.675   7.280   6.701
 2644TIP3   OH2 7888   5.025   0.659   0.395
 2644TIP3    H1 7889   5.092   0.598   0.426
 2644TIP3    H2 7890   5.000   0.708   0.473
 2645TIP3   OH2 7891   7.857   7.079   4.948
 2645TIP3    H1 7892   7.920   7.037   4.890
 2645TIP3    H2 7893   7.908   7.144   4.996
 2646TIP3   OH2 7894   3.626   4.812   2.240
 2646TIP3    H1 7895   3.638   4.851   2.326
 2646TIP3    H2 7896   3.554   4.862   2.201
 2647TIP3   OH2 7897   2.938   1.359   5.016
 2647TIP3    H1 7898   2.920   1.327   5.104
 2647TIP3    H2 7899   2.853   1.357   4.972
 2648TIP3   OH2 7900   2.624   5.088   5.439
 2648TIP3    H1 7901   2.532   5.094   5.464
 2648TIP3    H2 7902   2.629   5.012   5.382
 2649TIP3   OH2 7903   3.573   6.838   6.106
 2649TIP3    H1 7904   3.562   6.795   6.191
 2649TIP3    H2 7905   3.590   6.930   6.128
 2650TIP3   OH2 7906   3.835   2.014   3.045
 2650TIP3    H1 7907   3.826   1.920   3.060
 2650TIP3    H2 7908   3.749   2.050   3.066
 2651TIP3   OH2 7909   5.262   2.853   5.516
 2651TIP3    H1 7910   5.331   2.796   5.481
 2651TIP3    H2 7911   5.216   2.798   5.579
 2652TIP3   OH2 7912   2.733   6.106   3.840
 2652TIP3    H1 7913   2.654   6.159   3.833
 2652TIP3    H2 7914   2.726   6.042   3.769
 2653TIP3   OH2 7915   3.987   3.631   1.431
 2653TIP3    H1 7916   3.963   3.633   1.339
 2653TIP3    H2 7917   3.915   3.586   1.474
 2654TIP3   OH2 7918   4.149   4.824   2.870
 2654TIP3    H1 7919   4.217   4.877   2.911
 2654TIP3    H2 7920   4.183   4.806   2.782
 2655TIP3   OH2 7921   0.261   6.581   0.736
 2655TIP3    H1 7922   0.333   6.643   0.735
 2655TIP3    H2 7923   0.185   6.633   0.709
 2656TIP3   OH2 7924   8.017   2.459   5.439
 2656TIP3    H1 7925   8.082   2.454   5.508
 2656TIP3    H2 7926   7.956   2.388   5.458
 2657TIP3   OH2 7927   5.212   4.192   0.075
 2657TIP3    H1 7928   5.158   4.264   0.042
 2657TIP3    H2 7929   5.242   4.146  -0.004
 2658TIP3   OH2 7930   4.548   5.986   3.819
 2658TIP3    H1 7931   4.597   6.066   3.838
 2658TIP3    H2 7932   4.565   5.928   3.893
 2659TIP3   OH2 7933   2.335   6.443   3.086
 2659TIP3    H1 7934   2.425   6.427   3.057
 2659TIP3    H2 7935   2.289   6.467   3.006
 2660TIP3   OH2 7936   4.093   4.222   4.671
 2660TIP3    H1 7937   4.163   4.162   4.696
 2660TIP3    H2 7938   4.012   4.179   4.699
 2661TIP3   OH2 7939   0.629   3.950   5.385
 2661TIP3    H1 7940   0.660   3.866   5.350
 2661TIP3    H2 7941   0.594   3.997   5.309
 2662TIP3   OH2 7942   7.853   5.755   2.697
 2662TIP3    H1 7943   7.788   5.781   2.762
 2662TIP3    H2 7944   7.801   5.737   2.618
 2663TIP3   OH2 7945   1.378   3.624   6.227
 2663TIP3    H1 7946   1.470   3.647   6.216
 2663TIP3    H2 7947   1.364   3.550   6.169
 2664TIP3   OH2 7948   7.571   1.128   2.647
 2664TIP3    H1 7949   7.521   1.052   2.677
 2664TIP3    H2 7950   7.631   1.093   2.582
 2665TIP3   OH2 7951   5.414   5.533   5.402
 2665TIP3    H1 7952   5.501   5.574   5.405
 2665TIP3    H2 7953   5.371   5.563   5.482
 2666TIP3   OH2 7954   1.077   5.466   1.509
 2666TIP3    H1 7955   1.156   5.430   1.548
 2666TIP3    H2 7956   1.084   5.444   1.416
 2667TIP3   OH2 7957   7.838   5.684   6.011
 2667TIP3    H1 7958   7.810   5.765   5.969
 2667TIP3    H2 7959   7.887   5.713   6.088
 2668TIP3   OH2 7960   3.851   3.850   5.195
 2668TIP3    H1 7961   3.900   3.911   5.250
 2668TIP3    H2 7962   3.908   3.773   5.189
 2669TIP3   OH2 7963   4.139   0.126   3.629
 2669TIP3    H1 7964   4.167   0.195   3.569
 2669TIP3    H2 7965   4.045   0.140   3.641
 2670TIP3   OH2 7966   3.138   0.257   4.815
 2670TIP3    H1 7967   3.179   0.173   4.795
 2670TIP3    H2 7968   3.145   0.308   4.734
 2671TIP3   OH2 7969   0.021   3.583   1.974
 2671TIP3    H1 7970   0.100   3.578   2.027
 2671TIP3    H2 7971   0.052   3.580   1.884
 2672TIP3   OH2 7972   2.110   4.630   3.560
 2672TIP3    H1 7973   2.165   4.592   3.628
 2672TIP3    H2 7974   2.020   4.613   3.589
 2673TIP3   OH2 7975   3.557   6.116   1.002
 2673TIP3    H1 7976   3.567   6.208   1.027
 2673TIP3    H2 7977   3.483   6.116   0.942
 2674TIP3   OH2 7978   4.178   4.411   3.356
 2674TIP3    H1 7979   4.266   4.428   3.389
 2674TIP3    H2 7980   4.119   4.440   3.426
 2675TIP3   OH2 7981   6.493   3.621   6.219
 2675TIP3    H1 7982   6.438   3.643   6.144
 2675TIP3    H2 7983   6.554   3.555   6.186
 2676TIP3   OH2 7984   3.670   2.358   4.883
 2676TIP3    H1 7985   3.616   2.435   4.900
 2676TIP3    H2 7986   3.680   2.356   4.788
 2677TIP3   OH2 7987   5.814   1.176   5.640
 2677TIP3    H1 7988   5.824   1.131   5.724
 2677TIP3    H2 7989   5.720   1.172   5.622
 2678TIP3   OH2 7990   7.053   1.003   1.079
 2678TIP3    H1 7991   7.000   0.957   1.145
 2678TIP3    H2 7992   7.143   0.983   1.103
 2679TIP3   OH2 7993   4.940   0.836   6.272
 2679TIP3    H1 7994   4.901   0.919   6.245
 2679TIP3    H2 7995   4.970   0.796   6.190
 2680TIP3   OH2 7996   6.805   5.217   1.177
 2680TIP3    H1 7997   6.733   5.171   1.134
 2680TIP3    H2 7998   6.801   5.306   1.141
 2681TIP3   OH2 7999   2.728   5.858   1.546
 2681TIP3    H1 8000   2.754   5.781   1.494
 2681TIP3    H2 8001   2.763   5.933   1.497
 2682TIP3   OH2 8002   3.095   6.662   3.448
 2682TIP3    H1 8003   3.173   6.607   3.456
 2682TIP3    H2 8004   3.104   6.726   3.518
 2683TIP3   OH2 8005   3.833   7.091   3.090
 2683TIP3    H1 8006   3.792   7.037   3.022
 2683TIP3    H2 8007   3.905   7.135   3.044
 2684TIP3   OH2 8008   7.643   4.567   0.034
 2684TIP3    H1 8009   7.616   4.476   0.043
 2684TIP3    H2 8010   7.634   4.586  -0.059
 2685TIP3   OH2 8011   2.446   0.812   2.722
 2685TIP3    H1 8012   2.471   0.720   2.731
 2685TIP3    H2 8013   2.508   0.859   2.779
 2686TIP3   OH2 8014   4.277   5.221   4.975
 2686TIP3    H1 8015   4.186   5.248   4.990
 2686TIP3    H2 8016   4.315   5.290   4.921
 2687TIP3   OH2 8017   4.262   2.279   3.035
 2687TIP3    H1 8018   4.207   2.201   3.030
 2687TIP3    H2 8019   4.342   2.250   3.078
 2688TIP3   OH2 8020   7.027   4.335   3.843
 2688TIP3    H1 8021   7.113   4.373   3.825
 2688TIP3    H2 8022   7.045   4.263   3.904
 2689TIP3   OH2 8023   2.758   7.648   0.145
 2689TIP3    H1 8024   2.849   7.656   0.116
 2689TIP3    H2 8025   2.747   7.717   0.210
 2690TIP3   OH2 8026   6.342   5.978   1.634
 2690TIP3    H1 8027   6.250   6.001   1.645
 2690TIP3    H2 8028   6.373   5.959   1.722
 2691TIP3   OH2 8029   0.920   5.859   2.396
 2691TIP3    H1 8030   1.005   5.818   2.381
 2691TIP3    H2 8031   0.867   5.834   2.320
 2692TIP3   OH2 8032   6.408   4.698   2.462
 2692TIP3    H1 8033   6.504   4.699   2.454
 2692TIP3    H2 8034   6.389   4.757   2.535
 2693TIP3   OH2 8035   6.621   5.070   5.133
 2693TIP3    H1 8036   6.648   5.003   5.070
 2693TIP3    H2 8037   6.659   5.043   5.216
 2694TIP3   OH2 8038   5.349   0.597   5.480
 2694TIP3    H1 8039   5.324   0.551   5.561
 2694TIP3    H2 8040   5.318   0.687   5.493
 2695TIP3   OH2 8041   3.319   6.060   4.336
 2695TIP3    H1 8042   3.321   6.130   4.400
 2695TIP3    H2 8043   3.401   6.069   4.287
 2696TIP3   OH2 8044   6.761   0.392   2.103
 2696TIP3    H1 8045   6.771   0.314   2.157
 2696TIP3    H2 8046   6.669   0.416   2.111
 2697TIP3   OH2 8047   5.937   6.766   6.240
 2697TIP3    H1 8048   5.870   6.725   6.295
 2697TIP3    H2 8049   5.944   6.707   6.165
 2698TIP3   OH2 8050   3.530   3.049   0.974
 2698TIP3    H1 8051   3.587   3.074   0.900
 2698TIP3    H2 8052   3.463   3.117   0.977
 2699TIP3   OH2 8053   3.916   0.079   5.945
 2699TIP3    H1 8054   3.887   0.144   5.881
 2699TIP3    H2 8055   3.986   0.122   5.993
 2700TIP3   OH2 8056   7.192   5.797   4.111
 2700TIP3    H1 8057   7.152   5.710   4.116
 2700TIP3    H2 8058   7.199   5.826   4.202
 2701TIP3   OH2 8059   0.747   1.776   6.496
 2701TIP3    H1 8060   0.655   1.748   6.498
 2701TIP3    H2 8061   0.775   1.771   6.587
 2702TIP3   OH2 8062   7.436   6.411   5.327
 2702TIP3    H1 8063   7.353   6.366   5.315
 2702TIP3    H2 8064   7.502   6.341   5.327
 2703TIP3   OH2 8065   2.840   7.423   3.173
 2703TIP3    H1 8066   2.748   7.421   3.200
 2703TIP3    H2 8067   2.875   7.504   3.212
 2704TIP3   OH2 8068   4.808   1.624   0.452
 2704TIP3    H1 8069   4.778   1.691   0.512
 2704TIP3    H2 8070   4.842   1.672   0.376
 2705TIP3   OH2 8071   6.832   3.048   3.111
 2705TIP3    H1 8072   6.928   3.050   3.107
 2705TIP3    H2 8073   6.804   3.125   3.061
 2706TIP3   OH2 8074   4.895   6.588   6.245
 2706TIP3    H1 8075   4.922   6.638   6.168
 2706TIP3    H2 8076   4.799   6.592   6.243
 2707TIP3   OH2 8077   2.061   7.027   5.753
 2707TIP3    H1 8078   2.048   6.974   5.832
 2707TIP3    H2 8079   2.114   7.101   5.782
 2708TIP3   OH2 8080   5.419   2.284   0.315
 2708TIP3    H1 8081   5.429   2.378   0.299
 2708TIP3    H2 8082   5.326   2.273   0.332
 2709TIP3   OH2 8083   5.447   5.107   3.315
 2709TIP3    H1 8084   5.514   5.041   3.331
 2709TIP3    H2 8085   5.368   5.070   3.354
 2710TIP3   OH2 8086   5.109   5.431   6.012
 2710TIP3    H1 8087   5.108   5.345   6.053
 2710TIP3    H2 8088   5.020   5.444   5.979
 2711TIP3   OH2 8089   0.395   5.489   3.004
 2711TIP3    H1 8090   0.383   5.545   3.081
 2711TIP3    H2 8091   0.307   5.477   2.969
 2712TIP3   OH2 8092   7.411   0.127   5.291
 2712TIP3    H1 8093   7.328   0.086   5.269
 2712TIP3    H2 8094   7.419   0.200   5.230
 2713TIP3   OH2 8095   2.340   5.307   6.428
 2713TIP3    H1 8096   2.397   5.357   6.371
 2713TIP3    H2 8097   2.353   5.216   6.401
 2714TIP3   OH2 8098   6.068   1.999   2.248
 2714TIP3    H1 8099   6.125   1.927   2.275
 2714TIP3    H2 8100   5.979   1.966   2.264
 2715TIP3   OH2 8101   4.840   5.320   3.415
 2715TIP3    H1 8102   4.748   5.297   3.428
 2715TIP3    H2 8103   4.844   5.414   3.436
 2716TIP3   OH2 8104   1.820   4.295   0.555
 2716TIP3    H1 8105   1.767   4.317   0.478
 2716TIP3    H2 8106   1.910   4.316   0.530
 2717TIP3   OH2 8107   3.480   4.075   5.997
 2717TIP3    H1 8108   3.458   4.030   6.078
 2717TIP3    H2 8109   3.576   4.075   5.994
 2718TIP3   OH2 8110   0.515   6.484   5.676
 2718TIP3    H1 8111   0.523   6.405   5.622
 2718TIP3    H2 8112   0.571   6.549   5.632
 2719TIP3   OH2 8113   1.192   0.058   2.590
 2719TIP3    H1 8114   1.145   0.019   2.664
 2719TIP3    H2 8115   1.133   0.126   2.558
 2720TIP3   OH2 8116   1.616   2.783   4.882
 2720TIP3    H1 8117   1.553   2.812   4.816
 2720TIP3    H2 8118   1.691   2.752   4.832
 2721TIP3   OH2 8119   6.370   1.452   0.854
 2721TIP3    H1 8120   6.309   1.395   0.901
 2721TIP3    H2 8121   6.347   1.440   0.761
 2722TIP3   OH2 8122   6.137   1.402   3.376
 2722TIP3    H1 8123   6.065   1.412   3.438
 2722TIP3    H2 8124   6.119   1.321   3.329
 2723TIP3   OH2 8125   7.609   7.479   0.373
 2723TIP3    H1 8126   7.604   7.422   0.450
 2723TIP3    H2 8127   7.594   7.567   0.407
 2724TIP3   OH2 8128   0.259   6.236   5.733
 2724TIP3    H1 8129   0.212   6.176   5.675
 2724TIP3    H2 8130   0.350   6.210   5.725
 2725TIP3   OH2 8131   3.258   6.642   6.565
 2725TIP3    H1 8132   3.203   6.678   6.635
 2725TIP3    H2 8133   3.204   6.572   6.527
 2726TIP3   OH2 8134   4.264   4.453   2.764
 2726TIP3    H1 8135   4.283   4.367   2.803
 2726TIP3    H2 8136   4.350   4.495   2.757
 2727TIP3   OH2 8137   6.183   7.326   4.133
 2727TIP3    H1 8138   6.107   7.352   4.183
 2727TIP3    H2 8139   6.182   7.230   4.136
 2728TIP3   OH2 8140   3.687   7.084   1.188
 2728TIP3    H1 8141   3.660   7.174   1.206
 2728TIP3    H2 8142   3.749   7.092   1.116
 2729TIP3   OH2 8143   0.288   3.399   3.521
 2729TIP3    H1 8144   0.364   3.456   3.534
 2729TIP3    H2 8145   0.215   3.448   3.559
 2730TIP3   OH2 8146   2.921   2.059   6.440
 2730TIP3    H1 8147   2.827   2.063   6.455
 2730TIP3    H2 8148   2.951   2.149   6.449
 2731TIP3   OH2 8149   1.742   6.752   3.709
 2731TIP3    H1 8150   1.746   6.776   3.802
 2731TIP3    H2 8151   1.770   6.832   3.663
 2732TIP3   OH2 8152   7.274   5.490   4.318
 2732TIP3    H1 8153   7.247   5.400   4.339
 2732TIP3    H2 8154   7.192   5.537   4.306
 2733TIP3   OH2 8155   0.344   1.071   4.585
 2733TIP3    H1 8156   0.315   1.039   4.670
 2733TIP3    H2 8157   0.264   1.076   4.533
 2734TIP3   OH2 8158   1.692   6.790   6.635
 2734TIP3    H1 8159   1.670   6.790   6.728
 2734TIP3    H2 8160   1.653   6.710   6.601
 2735TIP3   OH2 8161   6.053   5.105   1.384
 2735TIP3    H1 8162   6.048   5.190   1.342
 2735TIP3    H2 8163   5.977   5.057   1.351
 2736TIP3   OH2 8164   3.122   4.326   3.441
 2736TIP3    H1 8165   3.089   4.370   3.362
 2736TIP3    H2 8166   3.083   4.239   3.438
 2737TIP3   OH2 8167   7.841   7.332   1.652
 2737TIP3    H1 8168   7.849   7.237   1.641
 2737TIP3    H2 8169   7.881   7.350   1.737
 2738TIP3   OH2 8170   2.976   0.471   1.505
 2738TIP3    H1 8171   3.036   0.466   1.581
 2738TIP3    H2 8172   2.906   0.410   1.526
 2739TIP3   OH2 8173   0.494   6.360   2.860
 2739TIP3    H1 8174   0.567   6.337   2.803
 2739TIP3    H2 8175   0.432   6.406   2.803
 2740TIP3   OH2 8176   7.562   4.352   5.979
 2740TIP3    H1 8177   7.637   4.378   5.926
 2740TIP3    H2 8178   7.517   4.434   5.999
 2741TIP3   OH2 8179   0.733   6.877   4.349
 2741TIP3    H1 8180   0.664   6.857   4.413
 2741TIP3    H2 8181   0.798   6.809   4.363
 2742TIP3   OH2 8182   2.761   5.227   3.854
 2742TIP3    H1 8183   2.809   5.144   3.848
 2742TIP3    H2 8184   2.792   5.266   3.936
 2743TIP3   OH2 8185   1.748   0.691   5.000
 2743TIP3    H1 8186   1.697   0.628   4.949
 2743TIP3    H2 8187   1.701   0.773   4.991
 2744TIP3   OH2 8188   4.186   1.002   5.633
 2744TIP3    H1 8189   4.270   0.981   5.592
 2744TIP3    H2 8190   4.193   1.094   5.656
 2745TIP3   OH2 8191   7.097   3.878   3.442
 2745TIP3    H1 8192   7.096   3.931   3.522
 2745TIP3    H2 8193   7.130   3.793   3.470
 2746TIP3   OH2 8194   1.894   1.235   0.208
 2746TIP3    H1 8195   1.888   1.175   0.282
 2746TIP3    H2 8196   1.804   1.265   0.195
 2747TIP3   OH2 8197   4.432   0.600   0.331
 2747TIP3    H1 8198   4.377   0.649   0.392
 2747TIP3    H2 8199   4.522   0.620   0.357
 2748TIP3   OH2 8200   1.057   0.439   5.048
 2748TIP3    H1 8201   1.134   0.483   5.085
 2748TIP3    H2 8202   1.052   0.470   4.958
 2749TIP3   OH2 8203   1.864   0.152   4.094
 2749TIP3    H1 8204   1.949   0.168   4.134
 2749TIP3    H2 8205   1.843   0.234   4.048
 2750TIP3   OH2 8206   6.821   0.176   4.012
 2750TIP3    H1 8207   6.907   0.217   4.018
 2750TIP3    H2 8208   6.766   0.229   4.070
 2751TIP3   OH2 8209   1.678   7.261   2.173
 2751TIP3    H1 8210   1.661   7.352   2.200
 2751TIP3    H2 8211   1.592   7.221   2.169
 2752TIP3   OH2 8212   6.536   1.971   2.435
 2752TIP3    H1 8213   6.597   2.043   2.449
 2752TIP3    H2 8214   6.525   1.931   2.521
 2753TIP3   OH2 8215   0.854   6.623   4.429
 2753TIP3    H1 8216   0.879   6.589   4.515
 2753TIP3    H2 8217   0.789   6.560   4.396
 2754TIP3   OH2 8218   1.389   5.833   0.965
 2754TIP3    H1 8219   1.375   5.920   1.003
 2754TIP3    H2 8220   1.301   5.804   0.939
 2755TIP3   OH2 8221   5.805   6.966   3.263
 2755TIP3    H1 8222   5.714   6.937   3.261
 2755TIP3    H2 8223   5.800   7.062   3.259
 2756TIP3   OH2 8224   6.866   4.396   2.885
 2756TIP3    H1 8225   6.932   4.327   2.897
 2756TIP3    H2 8226   6.785   4.349   2.866
 2757TIP3   OH2 8227   3.693   2.938   4.132
 2757TIP3    H1 8228   3.757   2.867   4.141
 2757TIP3    H2 8229   3.722   2.987   4.055
 2758TIP3   OH2 8230   7.956   6.490   3.111
 2758TIP3    H1 8231   7.957   6.487   3.015
 2758TIP3    H2 8232   8.048   6.490   3.136
 2759TIP3   OH2 8233   1.969   1.732   1.489
 2759TIP3    H1 8234   1.998   1.735   1.580
 2759TIP3    H2 8235   1.873   1.738   1.494
 2760TIP3   OH2 8236   0.707   0.560   4.567
 2760TIP3    H1 8237   0.669   0.480   4.603
 2760TIP3    H2 8238   0.700   0.624   4.637
 2761TIP3   OH2 8239   1.660   5.836   3.697
 2761TIP3    H1 8240   1.676   5.909   3.637
 2761TIP3    H2 8241   1.728   5.845   3.763
 2762TIP3   OH2 8242   6.221   3.242   0.516
 2762TIP3    H1 8243   6.190   3.153   0.531
 2762TIP3    H2 8244   6.260   3.268   0.599
 2763TIP3   OH2 8245   2.288   6.039   0.555
 2763TIP3    H1 8246   2.232   6.055   0.631
 2763TIP3    H2 8247   2.376   6.033   0.591
 2764TIP3   OH2 8248   1.356   5.526   6.610
 2764TIP3    H1 8249   1.322   5.478   6.686
 2764TIP3    H2 8250   1.354   5.463   6.538
 2765TIP3   OH2 8251   0.379   5.316   5.628
 2765TIP3    H1 8252   0.332   5.351   5.703
 2765TIP3    H2 8253   0.458   5.370   5.621
 2766TIP3   OH2 8254   2.162   2.957   1.862
 2766TIP3    H1 8255   2.131   2.883   1.913
 2766TIP3    H2 8256   2.082   2.996   1.826
 2767TIP3   OH2 8257   4.897   1.361   0.645
 2767TIP3    H1 8258   4.871   1.434   0.589
 2767TIP3    H2 8259   4.817   1.309   0.656
 2768TIP3   OH2 8260   5.248   3.616   1.849
 2768TIP3    H1 8261   5.213   3.692   1.802
 2768TIP3    H2 8262   5.205   3.619   1.935
 2769TIP3   OH2 8263   4.569   7.089   5.454
 2769TIP3    H1 8264   4.664   7.086   5.467
 2769TIP3    H2 8265   4.535   7.013   5.502
 2770TIP3   OH2 8266   7.245   5.092   2.666
 2770TIP3    H1 8267   7.271   5.093   2.758
 2770TIP3    H2 8268   7.169   5.034   2.662
 2771TIP3   OH2 8269   4.844   5.860   1.338
 2771TIP3    H1 8270   4.852   5.939   1.391
 2771TIP3    H2 8271   4.795   5.799   1.393
 2772TIP3   OH2 8272   2.018   6.705   2.427
 2772TIP3    H1 8273   2.092   6.762   2.405
 2772TIP3    H2 8274   2.056   6.632   2.475
 2773TIP3   OH2 8275   5.225   2.106   5.654
 2773TIP3    H1 8276   5.261   2.035   5.707
 2773TIP3    H2 8277   5.130   2.095   5.660
 2774TIP3   OH2 8278   4.557   0.828   6.566
 2774TIP3    H1 8279   4.481   0.875   6.601
 2774TIP3    H2 8280   4.629   0.890   6.576
 2775TIP3   OH2 8281   5.628   1.655   6.566
 2775TIP3    H1 8282   5.604   1.686   6.653
 2775TIP3    H2 8283   5.659   1.565   6.581
 2776TIP3   OH2 8284   2.407   2.861   0.815
 2776TIP3    H1 8285   2.391   2.869   0.721
 2776TIP3    H2 8286   2.487   2.810   0.822
 2777TIP3   OH2 8287   5.053   6.362   2.342
 2777TIP3    H1 8288   5.012   6.306   2.408
 2777TIP3    H2 8289   5.128   6.310   2.310
 2778TIP3   OH2 8290   1.883   0.528   6.284
 2778TIP3    H1 8291   1.917   0.557   6.199
 2778TIP3    H2 8292   1.801   0.577   6.295
 2779TIP3   OH2 8293   2.291   4.635   6.526
 2779TIP3    H1 8294   2.329   4.548   6.542
 2779TIP3    H2 8295   2.250   4.659   6.610
 2780TIP3   OH2 8296   4.228   5.722   3.860
 2780TIP3    H1 8297   4.263   5.747   3.774
 2780TIP3    H2 8298   4.135   5.745   3.855
 2781TIP3   OH2 8299   7.276   6.998   2.316
 2781TIP3    H1 8300   7.235   7.082   2.292
 2781TIP3    H2 8301   7.367   7.008   2.290
 2782TIP3   OH2 8302   5.460   1.737   5.339
 2782TIP3    H1 8303   5.548   1.773   5.342
 2782TIP3    H2 8304   5.402   1.813   5.328
 2783TIP3   OH2 8305   5.657   6.621   4.609
 2783TIP3    H1 8306   5.750   6.644   4.612
 2783TIP3    H2 8307   5.613   6.690   4.659
 2784TIP3   OH2 8308   8.264   0.370   3.637
 2784TIP3    H1 8309   8.184   0.319   3.647
 2784TIP3    H2 8310   8.242   0.456   3.675
 2785TIP3   OH2 8311   2.812   5.572   6.416
 2785TIP3    H1 8312   2.900   5.540   6.398
 2785TIP3    H2 8313   2.771   5.502   6.466
 2786TIP3   OH2 8314   4.453   7.787   5.365
 2786TIP3    H1 8315   4.495   7.784   5.451
 2786TIP3    H2 8316   4.410   7.702   5.356
 2787TIP3   OH2 8317   2.618   1.012   4.201
 2787TIP3    H1 8318   2.615   0.918   4.219
 2787TIP3    H2 8319   2.689   1.023   4.139
 2788TIP3   OH2 8320   5.831   6.667   4.999
 2788TIP3    H1 8321   5.915   6.669   4.953
 2788TIP3    H2 8322   5.802   6.758   4.999
 2789TIP3   OH2 8323   3.345   4.896   0.103
 2789TIP3    H1 8324   3.398   4.844   0.043
 2789TIP3    H2 8325   3.391   4.889   0.187
 2790TIP3   OH2 8326   6.315   6.317   2.038
 2790TIP3    H1 8327   6.350   6.405   2.052
 2790TIP3    H2 8328   6.377   6.259   2.082
 2791TIP3   OH2 8329   2.327   4.997   2.296
 2791TIP3    H1 8330   2.281   5.081   2.297
 2791TIP3    H2 8331   2.418   5.020   2.314
 2792TIP3   OH2 8332   2.644   0.361   0.385
 2792TIP3    H1 8333   2.646   0.424   0.313
 2792TIP3    H2 8334   2.712   0.297   0.363
 2793TIP3   OH2 8335   5.183   5.929   2.793
 2793TIP3    H1 8336   5.181   5.965   2.881
 2793TIP3    H2 8337   5.274   5.938   2.765
 2794TIP3   OH2 8338   5.475   6.890   2.979
 2794TIP3    H1 8339   5.514   6.839   2.908
 2794TIP3    H2 8340   5.403   6.937   2.937
 2795TIP3   OH2 8341   7.921   2.380   5.694
 2795TIP3    H1 8342   7.973   2.449   5.735
 2795TIP3    H2 8343   7.830   2.410   5.703
 2796TIP3   OH2 8344   5.267   4.865   6.654
 2796TIP3    H1 8345   5.298   4.954   6.667
 2796TIP3    H2 8346   5.336   4.810   6.691
 2797TIP3   OH2 8347   1.465   3.757   5.539
 2797TIP3    H1 8348   1.405   3.760   5.465
 2797TIP3    H2 8349   1.460   3.666   5.570
 2798TIP3   OH2 8350   4.270   3.885   5.016
 2798TIP3    H1 8351   4.306   3.964   4.974
 2798TIP3    H2 8352   4.234   3.917   5.099
 2799TIP3   OH2 8353   1.829   3.593   6.616
 2799TIP3    H1 8354   1.867   3.581   6.703
 2799TIP3    H2 8355   1.898   3.638   6.566
 2800TIP3   OH2 8356   0.930   4.350   4.875
 2800TIP3    H1 8357   0.979   4.268   4.864
 2800TIP3    H2 8358   0.869   4.331   4.947
 2801TIP3   OH2 8359   2.588   1.356   0.880
 2801TIP3    H1 8360   2.597   1.265   0.850
 2801TIP3    H2 8361   2.533   1.349   0.958
 2802TIP3   OH2 8362   3.327   7.090   5.389
 2802TIP3    H1 8363   3.256   7.026   5.397
 2802TIP3    H2 8364   3.283   7.171   5.363
 2803TIP3   OH2 8365   1.577   3.401   3.240
 2803TIP3    H1 8366   1.514   3.333   3.214
 2803TIP3    H2 8367   1.619   3.366   3.318
 2804TIP3   OH2 8368   7.236   3.647   1.544
 2804TIP3    H1 8369   7.156   3.695   1.526
 2804TIP3    H2 8370   7.305   3.712   1.539
 2805TIP3   OH2 8371   0.927   2.656   1.170
 2805TIP3    H1 8372   0.884   2.635   1.253
 2805TIP3    H2 8373   1.020   2.645   1.188
 2806TIP3   OH2 8374   0.308   1.745   0.809
 2806TIP3    H1 8375   0.316   1.655   0.840
 2806TIP3    H2 8376   0.287   1.795   0.888
 2807TIP3   OH2 8377   3.866   4.760   2.820
 2807TIP3    H1 8378   3.773   4.762   2.844
 2807TIP3    H2 8379   3.907   4.822   2.880
 2808TIP3   OH2 8380   1.459   4.824   3.857
 2808TIP3    H1 8381   1.382   4.775   3.883
 2808TIP3    H2 8382   1.527   4.798   3.920
 2809TIP3   OH2 8383   8.023   0.287   0.878
 2809TIP3    H1 8384   7.949   0.234   0.907
 2809TIP3    H2 8385   8.067   0.233   0.812
 2810TIP3   OH2 8386   6.091   5.855   4.438
 2810TIP3    H1 8387   6.063   5.774   4.482
 2810TIP3    H2 8388   6.083   5.923   4.505
 2811TIP3   OH2 8389   1.892   0.126   5.187
 2811TIP3    H1 8390   1.925   0.194   5.245
 2811TIP3    H2 8391   1.950   0.051   5.202
 2812TIP3   OH2 8392   1.834   5.090   3.555
 2812TIP3    H1 8393   1.818   5.030   3.628
 2812TIP3    H2 8394   1.827   5.036   3.477
 2813TIP3   OH2 8395   7.111   5.545   3.381
 2813TIP3    H1 8396   7.062   5.514   3.305
 2813TIP3    H2 8397   7.104   5.640   3.377
 2814TIP3   OH2 8398   5.593   5.404   5.664
 2814TIP3    H1 8399   5.524   5.410   5.599
 2814TIP3    H2 8400   5.659   5.348   5.624
 2815TIP3   OH2 8401   2.925   7.366   4.037
 2815TIP3    H1 8402   2.919   7.304   3.965
 2815TIP3    H2 8403   3.019   7.381   4.048
 2816TIP3   OH2 8404   3.910   4.545   4.981
 2816TIP3    H1 8405   3.833   4.599   4.997
 2816TIP3    H2 8406   3.971   4.568   5.051
 2817TIP3   OH2 8407   6.286   6.162   2.915
 2817TIP3    H1 8408   6.240   6.147   2.833
 2817TIP3    H2 8409   6.289   6.258   2.924
 2818TIP3   OH2 8410   5.340   3.105   5.895
 2818TIP3    H1 8411   5.259   3.151   5.915
 2818TIP3    H2 8412   5.400   3.173   5.866
 2819TIP3   OH2 8413   7.543   3.280   2.760
 2819TIP3    H1 8414   7.588   3.320   2.685
 2819TIP3    H2 8415   7.613   3.263   2.823
 2820TIP3   OH2 8416   2.874   5.563   5.961
 2820TIP3    H1 8417   2.852   5.614   5.884
 2820TIP3    H2 8418   2.789   5.537   5.998
 2821TIP3   OH2 8419   0.317   2.608   3.451
 2821TIP3    H1 8420   0.307   2.536   3.514
 2821TIP3    H2 8421   0.296   2.687   3.501
 2822TIP3   OH2 8422   4.378   5.419   3.794
 2822TIP3    H1 8423   4.389   5.366   3.873
 2822TIP3    H2 8424   4.285   5.413   3.774
 2823TIP3   OH2 8425   5.994   5.283   4.394
 2823TIP3    H1 8426   6.040   5.218   4.341
 2823TIP3    H2 8427   6.011   5.366   4.351
 2824TIP3   OH2 8428   6.709   1.366   2.200
 2824TIP3    H1 8429   6.683   1.448   2.242
 2824TIP3    H2 8430   6.694   1.382   2.106
 2825TIP3   OH2 8431   1.826   1.352   0.920
 2825TIP3    H1 8432   1.893   1.393   0.866
 2825TIP3    H2 8433   1.863   1.266   0.942
 2826TIP3   OH2 8434   1.249   1.424   0.294
 2826TIP3    H1 8435   1.201   1.379   0.226
 2826TIP3    H2 8436   1.195   1.416   0.372
 2827TIP3   OH2 8437   6.527   3.108   4.414
 2827TIP3    H1 8438   6.552   3.089   4.323
 2827TIP3    H2 8439   6.471   3.185   4.409
 2828TIP3   OH2 8440   4.032   2.934   2.931
 2828TIP3    H1 8441   4.115   2.920   2.886
 2828TIP3    H2 8442   3.999   2.845   2.948
 2829TIP3   OH2 8443   1.352   6.920   1.180
 2829TIP3    H1 8444   1.271   6.870   1.195
 2829TIP3    H2 8445   1.386   6.886   1.097
 2830TIP3   OH2 8446   4.163   3.217   1.839
 2830TIP3    H1 8447   4.178   3.298   1.791
 2830TIP3    H2 8448   4.099   3.170   1.785
 2831TIP3   OH2 8449   1.125   5.537   3.697
 2831TIP3    H1 8450   1.166   5.533   3.610
 2831TIP3    H2 8451   1.125   5.447   3.728
 2832TIP3   OH2 8452   2.729   1.889   4.603
 2832TIP3    H1 8453   2.782   1.968   4.600
 2832TIP3    H2 8454   2.785   1.823   4.643
 2833TIP3   OH2 8455   2.604   4.646   0.220
 2833TIP3    H1 8456   2.567   4.558   0.207
 2833TIP3    H2 8457   2.595   4.662   0.314
 2834TIP3   OH2 8458   7.289   7.338   3.852
 2834TIP3    H1 8459   7.338   7.352   3.771
 2834TIP3    H2 8460   7.308   7.416   3.905
 2835TIP3   OH2 8461   6.145   3.264   1.708
 2835TIP3    H1 8462   6.128   3.354   1.681
 2835TIP3    H2 8463   6.129   3.211   1.630
 2836TIP3   OH2 8464   1.936   4.164   2.517
 2836TIP3    H1 8465   1.861   4.106   2.528
 2836TIP3    H2 8466   1.981   4.131   2.440
 2837TIP3   OH2 8467   4.384   0.968   5.458
 2837TIP3    H1 8468   4.468   1.002   5.429
 2837TIP3    H2 8469   4.351   0.917   5.384
 2838TIP3   OH2 8470   7.185   2.473   5.042
 2838TIP3    H1 8471   7.270   2.486   4.999
 2838TIP3    H2 8472   7.121   2.482   4.972
 2839TIP3   OH2 8473   3.650   3.372   5.418
 2839TIP3    H1 8474   3.719   3.321   5.376
 2839TIP3    H2 8475   3.691   3.456   5.437
 2840TIP3   OH2 8476   5.584   0.603   0.714
 2840TIP3    H1 8477   5.602   0.601   0.620
 2840TIP3    H2 8478   5.539   0.686   0.728
 2841TIP3   OH2 8479   1.404   7.193   2.136
 2841TIP3    H1 8480   1.338   7.138   2.094
 2841TIP3    H2 8481   1.357   7.271   2.163
 2842TIP3   OH2 8482   3.488   6.243   0.471
 2842TIP3    H1 8483   3.418   6.307   0.458
 2842TIP3    H2 8484   3.554   6.265   0.406
 2843TIP3   OH2 8485   0.143   6.854   4.786
 2843TIP3    H1 8486   0.128   6.816   4.872
 2843TIP3    H2 8487   0.217   6.914   4.799
 2844TIP3   OH2 8488   4.834   5.363   0.753
 2844TIP3    H1 8489   4.781   5.425   0.802
 2844TIP3    H2 8490   4.923   5.395   0.762
 2845TIP3   OH2 8491   7.935   5.003   0.829
 2845TIP3    H1 8492   7.942   5.097   0.818
 2845TIP3    H2 8493   7.966   4.986   0.918
 2846TIP3   OH2 8494   6.631   5.753   5.671
 2846TIP3    H1 8495   6.666   5.664   5.661
 2846TIP3    H2 8496   6.673   5.785   5.751
 2847TIP3   OH2 8497   5.443   5.181   5.125
 2847TIP3    H1 8498   5.504   5.114   5.155
 2847TIP3    H2 8499   5.384   5.135   5.065
 2848TIP3   OH2 8500   4.205   1.566   0.932
 2848TIP3    H1 8501   4.173   1.579   0.842
 2848TIP3    H2 8502   4.296   1.539   0.922
 2849TIP3   OH2 8503   4.686   5.068   4.991
 2849TIP3    H1 8504   4.596   5.071   4.960
 2849TIP3    H2 8505   4.690   4.989   5.046
 2850TIP3   OH2 8506   5.235   7.538   3.692
 2850TIP3    H1 8507   5.224   7.513   3.784
 2850TIP3    H2 8508   5.225   7.633   3.692
 2851TIP3   OH2 8509   5.146   1.384   4.690
 2851TIP3    H1 8510   5.054   1.408   4.698
 2851TIP3    H2 8511   5.183   1.399   4.777
 2852TIP3   OH2 8512   0.474   6.879   3.546
 2852TIP3    H1 8513   0.535   6.806   3.545
 2852TIP3    H2 8514   0.511   6.940   3.610
 2853TIP3   OH2 8515   0.235   2.745   4.302
 2853TIP3    H1 8516   0.175   2.783   4.366
 2853TIP3    H2 8517   0.186   2.673   4.262
 2854TIP3   OH2 8518   7.507   4.204   3.305
 2854TIP3    H1 8519   7.497   4.243   3.392
 2854TIP3    H2 8520   7.428   4.151   3.294
 2855TIP3   OH2 8521   5.159   0.456   1.166
 2855TIP3    H1 8522   5.238   0.432   1.213
 2855TIP3    H2 8523   5.150   0.390   1.098
 2856TIP3   OH2 8524   7.903   3.937   4.193
 2856TIP3    H1 8525   7.890   3.870   4.127
 2856TIP3    H2 8526   7.818   3.979   4.203
 2857TIP3   OH2 8527   0.917   0.538   6.624
 2857TIP3    H1 8528   0.836   0.495   6.597
 2857TIP3    H2 8529   0.927   0.611   6.563
 2858TIP3   OH2 8530   6.539   4.238   4.271
 2858TIP3    H1 8531   6.503   4.191   4.195
 2858TIP3    H2 8532   6.462   4.275   4.315
 2859TIP3   OH2 8533   2.817   3.506   6.089
 2859TIP3    H1 8534   2.724   3.507   6.111
 2859TIP3    H2 8535   2.820   3.474   5.999
 2860TIP3   OH2 8536   2.499   2.880   4.414
 2860TIP3    H1 8537   2.503   2.970   4.382
 2860TIP3    H2 8538   2.535   2.828   4.342
 2861TIP3   OH2 8539   3.502   6.723   2.290
 2861TIP3    H1 8540   3.450   6.720   2.371
 2861TIP3    H2 8541   3.505   6.815   2.267
 2862TIP3   OH2 8542   4.602   1.739   4.600
 2862TIP3    H1 8543   4.520   1.758   4.553
 2862TIP3    H2 8544   4.629   1.653   4.567
 2863TIP3   OH2 8545   5.941   5.302   5.795
 2863TIP3    H1 8546   6.022   5.252   5.784
 2863TIP3    H2 8547   5.965   5.391   5.769
 2864TIP3   OH2 8548   7.891   1.273   6.188
 2864TIP3    H1 8549   7.852   1.330   6.122
 2864TIP3    H2 8550   7.862   1.185   6.163
 2865TIP3   OH2 8551   1.361   5.901   2.458
 2865TIP3    H1 8552   1.327   5.892   2.547
 2865TIP3    H2 8553   1.385   5.993   2.451
 2866TIP3   OH2 8554   1.739   4.309   5.977
 2866TIP3    H1 8555   1.773   4.397   5.962
 2866TIP3    H2 8556   1.816   4.253   5.982
 2867TIP3   OH2 8557   0.325   1.215   2.490
 2867TIP3    H1 8558   0.333   1.244   2.399
 2867TIP3    H2 8559   0.397   1.153   2.502
 2868TIP3   OH2 8560   6.757   6.002   4.626
 2868TIP3    H1 8561   6.779   5.913   4.652
 2868TIP3    H2 8562   6.766   6.003   4.531
 2869TIP3   OH2 8563   6.777   7.025   6.257
 2869TIP3    H1 8564   6.689   7.049   6.287
 2869TIP3    H2 8565   6.832   7.099   6.284
 2870TIP3   OH2 8566   3.723   6.545   0.929
 2870TIP3    H1 8567   3.738   6.606   1.001
 2870TIP3    H2 8568   3.737   6.597   0.850
 2871TIP3   OH2 8569   2.478   4.277   5.594
 2871TIP3    H1 8570   2.572   4.263   5.583
 2871TIP3    H2 8571   2.448   4.308   5.509
 2872TIP3   OH2 8572   3.855   2.707   4.191
 2872TIP3    H1 8573   3.848   2.665   4.106
 2872TIP3    H2 8574   3.947   2.730   4.200
 2873TIP3   OH2 8575   0.926   0.594   4.435
 2873TIP3    H1 8576   0.864   0.604   4.507
 2873TIP3    H2 8577   0.913   0.672   4.381
 2874TIP3   OH2 8578   4.340   5.200   2.259
 2874TIP3    H1 8579   4.380   5.131   2.205
 2874TIP3    H2 8580   4.415   5.247   2.296
 2875TIP3   OH2 8581   5.230   2.510   6.528
 2875TIP3    H1 8582   5.273   2.595   6.516
 2875TIP3    H2 8583   5.297   2.447   6.503
 2876TIP3   OH2 8584   4.541   1.514   1.543
 2876TIP3    H1 8585   4.521   1.555   1.459
 2876TIP3    H2 8586   4.461   1.525   1.595
 2877TIP3   OH2 8587   5.443   3.059   0.588
 2877TIP3    H1 8588   5.410   3.124   0.525
 2877TIP3    H2 8589   5.418   2.975   0.551
 2878TIP3   OH2 8590   2.625   7.450   4.703
 2878TIP3    H1 8591   2.547   7.505   4.717
 2878TIP3    H2 8592   2.606   7.370   4.751
 2879TIP3   OH2 8593   0.449   0.578   0.867
 2879TIP3    H1 8594   0.441   0.542   0.779
 2879TIP3    H2 8595   0.536   0.618   0.869
 2880TIP3   OH2 8596   2.052   3.244   1.139
 2880TIP3    H1 8597   2.074   3.159   1.177
 2880TIP3    H2 8598   2.036   3.226   1.047
 2881TIP3   OH2 8599   4.485   3.960   0.525
 2881TIP3    H1 8600   4.574   3.928   0.509
 2881TIP3    H2 8601   4.471   3.947   0.619
 2882TIP3   OH2 8602   2.561   4.111   1.596
 2882TIP3    H1 8603   2.547   4.017   1.608
 2882TIP3    H2 8604   2.573   4.145   1.685
 2883TIP3   OH2 8605   4.139   3.538   4.165
 2883TIP3    H1 8606   4.067   3.582   4.210
 2883TIP3    H2 8607   4.193   3.501   4.236
 2884TIP3   OH2 8608   7.013   0.430   1.035
 2884TIP3    H1 8609   7.005   0.481   1.116
 2884TIP3    H2 8610   6.989   0.341   1.061
 2885TIP3   OH2 8611   6.571   5.391   3.940
 2885TIP3    H1 8612   6.539   5.320   3.886
 2885TIP3    H2 8613   6.518   5.467   3.915
 2886TIP3   OH2 8614   3.501   4.169   0.100
 2886TIP3    H1 8615   3.428   4.188   0.160
 2886TIP3    H2 8616   3.483   4.082   0.066
 2887TIP3   OH2 8617   3.237   4.790   5.211
 2887TIP3    H1 8618   3.177   4.736   5.263
 2887TIP3    H2 8619   3.256   4.865   5.267
 2888TIP3   OH2 8620   3.541   1.011   5.272
 2888TIP3    H1 8621   3.557   0.931   5.222
 2888TIP3    H2 8622   3.481   1.062   5.218
 2889TIP3   OH2 8623   3.160   2.111   5.806
 2889TIP3    H1 8624   3.214   2.144   5.734
 2889TIP3    H2 8625   3.223   2.076   5.870
 2890TIP3   OH2 8626   0.455   7.547   6.710
 2890TIP3    H1 8627   0.407   7.589   6.639
 2890TIP3    H2 8628   0.428   7.596   6.789
 2891TIP3   OH2 8629   0.314   0.155   3.436
 2891TIP3    H1 8630   0.251   0.151   3.508
 2891TIP3    H2 8631   0.339   0.064   3.420
 2892TIP3   OH2 8632   7.979   4.399   1.614
 2892TIP3    H1 8633   7.900   4.440   1.578
 2892TIP3    H2 8634   8.022   4.360   1.539
 2893TIP3   OH2 8635   3.634   0.904   4.824
 2893TIP3    H1 8636   3.621   0.954   4.743
 2893TIP3    H2 8637   3.655   0.815   4.794
 2894TIP3   OH2 8638   5.452   7.793   6.441
 2894TIP3    H1 8639   5.469   7.882   6.472
 2894TIP3    H2 8640   5.439   7.742   6.521
 2895TIP3   OH2 8641   2.391   5.836   3.114
 2895TIP3    H1 8642   2.447   5.910   3.092
 2895TIP3    H2 8643   2.397   5.829   3.209
 2896TIP3   OH2 8644   6.287   1.561   3.083
 2896TIP3    H1 8645   6.338   1.487   3.050
 2896TIP3    H2 8646   6.346   1.605   3.143
 2897TIP3   OH2 8647   0.527   4.303   2.631
 2897TIP3    H1 8648   0.465   4.278   2.562
 2897TIP3    H2 8649   0.475   4.300   2.712
 2898TIP3   OH2 8650   1.793   2.256   2.902
 2898TIP3    H1 8651   1.775   2.346   2.874
 2898TIP3    H2 8652   1.868   2.264   2.961
 2899TIP3   OH2 8653   7.449   7.463   2.549
 2899TIP3    H1 8654   7.365   7.506   2.565
 2899TIP3    H2 8655   7.427   7.370   2.540
 2900TIP3   OH2 8656   1.479   4.901   0.567
 2900TIP3    H1 8657   1.496   4.807   0.561
 2900TIP3    H2 8658   1.566   4.941   0.569
 2901TIP3   OH2 8659   2.574   4.688   4.830
 2901TIP3    H1 8660   2.631   4.751   4.874
 2901TIP3    H2 8661   2.486   4.721   4.846
 2902TIP3   OH2 8662   4.296   3.448   2.591
 2902TIP3    H1 8663   4.242   3.503   2.534
 2902TIP3    H2 8664   4.384   3.484   2.583
 2903TIP3   OH2 8665   7.504   5.684   6.266
 2903TIP3    H1 8666   7.485   5.753   6.329
 2903TIP3    H2 8667   7.469   5.718   6.183
 2904TIP3   OH2 8668   2.388   7.140   6.158
 2904TIP3    H1 8669   2.390   7.108   6.248
 2904TIP3    H2 8670   2.471   7.110   6.120
 2905TIP3   OH2 8671   0.832   1.026   0.162
 2905TIP3    H1 8672   0.804   1.044   0.072
 2905TIP3    H2 8673   0.924   1.003   0.155
 2906TIP3   OH2 8674   2.963   2.992   3.070
 2906TIP3    H1 8675   2.872   2.970   3.051
 2906TIP3    H2 8676   3.014   2.931   3.017
 2907TIP3   OH2 8677   2.375   3.592   5.521
 2907TIP3    H1 8678   2.423   3.576   5.439
 2907TIP3    H2 8679   2.376   3.507   5.566
 2908TIP3   OH2 8680   2.269   7.448   4.473
 2908TIP3    H1 8681   2.356   7.466   4.436
 2908TIP3    H2 8682   2.236   7.534   4.498
 2909TIP3   OH2 8683   7.875   3.569   3.796
 2909TIP3    H1 8684   7.966   3.578   3.766
 2909TIP3    H2 8685   7.827   3.634   3.746
 2910TIP3   OH2 8686   8.210   7.789   3.071
 2910TIP3    H1 8687   8.133   7.732   3.086
 2910TIP3    H2 8688   8.243   7.807   3.159
 2911TIP3   OH2 8689   5.413   0.443   2.556
 2911TIP3    H1 8690   5.413   0.517   2.495
 2911TIP3    H2 8691   5.326   0.444   2.595
 2912TIP3   OH2 8692   5.986   3.805   3.780
 2912TIP3    H1 8693   6.029   3.778   3.861
 2912TIP3    H2 8694   6.057   3.811   3.716
 2913TIP3   OH2 8695   2.407   2.247   6.242
 2913TIP3    H1 8696   2.421   2.156   6.270
 2913TIP3    H2 8697   2.475   2.263   6.177
 2914TIP3   OH2 8698   6.617   6.151   1.849
 2914TIP3    H1 8699   6.653   6.066   1.874
 2914TIP3    H2 8700   6.528   6.151   1.886
 2915TIP3   OH2 8701   8.146   7.053   5.999
 2915TIP3    H1 8702   8.126   6.984   6.062
 2915TIP3    H2 8703   8.240   7.045   5.982
 2916TIP3   OH2 8704   6.564   3.221   2.726
 2916TIP3    H1 8705   6.609   3.231   2.810
 2916TIP3    H2 8706   6.623   3.260   2.662
 2917TIP3   OH2 8707   7.742   5.752   3.666
 2917TIP3    H1 8708   7.757   5.659   3.651
 2917TIP3    H2 8709   7.817   5.780   3.719
 2918TIP3   OH2 8710   0.100   5.123   3.544
 2918TIP3    H1 8711   0.180   5.158   3.506
 2918TIP3    H2 8712   0.030   5.177   3.508
 2919TIP3   OH2 8713   5.237   4.327   3.518
 2919TIP3    H1 8714   5.255   4.392   3.450
 2919TIP3    H2 8715   5.272   4.245   3.482
 2920TIP3   OH2 8716   6.646   3.846   5.190
 2920TIP3    H1 8717   6.553   3.836   5.174
 2920TIP3    H2 8718   6.652   3.919   5.252
 2921TIP3   OH2 8719   2.897   0.847   4.275
 2921TIP3    H1 8720   2.983   0.860   4.236
 2921TIP3    H2 8721   2.848   0.926   4.255
 2922TIP3   OH2 8722   4.751   4.758   2.324
 2922TIP3    H1 8723   4.726   4.775   2.414
 2922TIP3    H2 8724   4.674   4.717   2.285
 2923TIP3   OH2 8725   5.417   2.514   4.142
 2923TIP3    H1 8726   5.485   2.470   4.091
 2923TIP3    H2 8727   5.432   2.607   4.127
 2924TIP3   OH2 8728   1.755   3.182   4.761
 2924TIP3    H1 8729   1.712   3.257   4.719
 2924TIP3    H2 8730   1.745   3.110   4.699
 2925TIP3   OH2 8731   1.851   7.634   2.373
 2925TIP3    H1 8732   1.773   7.688   2.357
 2925TIP3    H2 8733   1.893   7.625   2.288
 2926TIP3   OH2 8734   2.463   2.199   3.118
 2926TIP3    H1 8735   2.376   2.175   3.085
 2926TIP3    H2 8736   2.506   2.240   3.043
 2927TIP3   OH2 8737   1.213   0.729   2.216
 2927TIP3    H1 8738   1.309   0.727   2.219
 2927TIP3    H2 8739   1.187   0.639   2.239
 2928TIP3   OH2 8740   3.606   1.267   4.134
 2928TIP3    H1 8741   3.534   1.319   4.168
 2928TIP3    H2 8742   3.645   1.321   4.065
 2929TIP3   OH2 8743   0.738   6.400   4.310
 2929TIP3    H1 8744   0.755   6.327   4.369
 2929TIP3    H2 8745   0.821   6.413   4.264
 2930TIP3   OH2 8746   6.795   6.532   6.601
 2930TIP3    H1 8747   6.734   6.601   6.574
 2930TIP3    H2 8748   6.858   6.576   6.658
 2931TIP3   OH2 8749   4.127   3.004   1.435
 2931TIP3    H1 8750   4.169   2.921   1.456
 2931TIP3    H2 8751   4.119   3.004   1.340
 2932TIP3   OH2 8752   8.013   3.068   5.839
 2932TIP3    H1 8753   7.938   3.126   5.851
 2932TIP3    H2 8754   8.076   3.097   5.905
 2933TIP3   OH2 8755   0.319   0.707   2.311
 2933TIP3    H1 8756   0.261   0.722   2.385
 2933TIP3    H2 8757   0.287   0.765   2.242
 2934TIP3   OH2 8758   2.442   3.718   4.307
 2934TIP3    H1 8759   2.432   3.777   4.232
 2934TIP3    H2 8760   2.536   3.709   4.319
 2935TIP3   OH2 8761   0.344   7.238   4.775
 2935TIP3    H1 8762   0.428   7.269   4.809
 2935TIP3    H2 8763   0.339   7.147   4.804
 2936TIP3   OH2 8764   1.546   1.579   2.292
 2936TIP3    H1 8765   1.506   1.500   2.329
 2936TIP3    H2 8766   1.509   1.651   2.344
 2937TIP3   OH2 8767   3.729   7.186   0.208
 2937TIP3    H1 8768   3.783   7.189   0.130
 2937TIP3    H2 8769   3.785   7.143   0.274
 2938TIP3   OH2 8770   5.315   5.835   1.519
 2938TIP3    H1 8771   5.390   5.778   1.506
 2938TIP3    H2 8772   5.239   5.777   1.510
 2939TIP3   OH2 8773   6.229   6.653   0.582
 2939TIP3    H1 8774   6.224   6.706   0.503
 2939TIP3    H2 8775   6.147   6.670   0.628
 2940TIP3   OH2 8776   5.504   6.814   5.820
 2940TIP3    H1 8777   5.476   6.823   5.729
 2940TIP3    H2 8778   5.423   6.807   5.870
 2941TIP3   OH2 8779   5.912   1.740   5.004
 2941TIP3    H1 8780   5.944   1.697   5.084
 2941TIP3    H2 8781   5.981   1.801   4.980
 2942TIP3   OH2 8782   7.249   3.974   4.448
 2942TIP3    H1 8783   7.202   3.918   4.387
 2942TIP3    H2 8784   7.286   3.913   4.512
 2943TIP3   OH2 8785   3.401   0.776   6.359
 2943TIP3    H1 8786   3.382   0.846   6.422
 2943TIP3    H2 8787   3.425   0.702   6.414
 2944TIP3   OH2 8788   1.525   1.408   3.564
 2944TIP3    H1 8789   1.479   1.478   3.517
 2944TIP3    H2 8790   1.589   1.453   3.618
 2945TIP3   OH2 8791   1.174   2.097   0.263
 2945TIP3    H1 8792   1.241   2.165   0.267
 2945TIP3    H2 8793   1.144   2.086   0.353
 2946TIP3   OH2 8794   3.182   5.433   0.261
 2946TIP3    H1 8795   3.211   5.449   0.171
 2946TIP3    H2 8796   3.199   5.516   0.306
 2947TIP3   OH2 8797   7.494   1.304   3.183
 2947TIP3    H1 8798   7.472   1.328   3.093
 2947TIP3    H2 8799   7.495   1.388   3.230
 2948TIP3   OH2 8800   0.198   4.436   4.342
 2948TIP3    H1 8801   0.241   4.407   4.261
 2948TIP3    H2 8802   0.116   4.476   4.312
 2949TIP3   OH2 8803   0.718   0.724   1.722
 2949TIP3    H1 8804   0.700   0.657   1.788
 2949TIP3    H2 8805   0.769   0.679   1.655
 2950TIP3   OH2 8806   0.253   2.696   6.195
 2950TIP3    H1 8807   0.242   2.708   6.289
 2950TIP3    H2 8808   0.303   2.614   6.186
 2951TIP3   OH2 8809   1.767   0.321   2.761
 2951TIP3    H1 8810   1.840   0.285   2.811
 2951TIP3    H2 8811   1.695   0.259   2.775
 2952TIP3   OH2 8812   1.752   1.462   3.220
 2952TIP3    H1 8813   1.831   1.440   3.170
 2952TIP3    H2 8814   1.723   1.378   3.257
 2953TIP3   OH2 8815   5.708   5.301   1.999
 2953TIP3    H1 8816   5.800   5.327   1.993
 2953TIP3    H2 8817   5.691   5.256   1.916
 2954TIP3   OH2 8818   1.557   5.697   6.601
 2954TIP3    H1 8819   1.557   5.717   6.695
 2954TIP3    H2 8820   1.476   5.649   6.587
 2955TIP3   OH2 8821   7.266   4.597   0.171
 2955TIP3    H1 8822   7.277   4.529   0.237
 2955TIP3    H2 8823   7.211   4.556   0.104
 2956TIP3   OH2 8824   7.072   5.785   0.963
 2956TIP3    H1 8825   7.004   5.824   0.908
 2956TIP3    H2 8826   7.107   5.713   0.911
 2957TIP3   OH2 8827   3.233   5.455   1.038
 2957TIP3    H1 8828   3.253   5.423   0.950
 2957TIP3    H2 8829   3.232   5.376   1.092
 2958TIP3   OH2 8830   8.028   7.649   4.965
 2958TIP3    H1 8831   8.109   7.693   4.938
 2958TIP3    H2 8832   7.964   7.720   4.973
 2959TIP3   OH2 8833   6.839   0.795   6.370
 2959TIP3    H1 8834   6.774   0.769   6.304
 2959TIP3    H2 8835   6.879   0.713   6.398
 2960TIP3   OH2 8836   2.912   6.185   1.639
 2960TIP3    H1 8837   2.855   6.244   1.590
 2960TIP3    H2 8838   2.921   6.226   1.725
 2961TIP3   OH2 8839   7.618   2.062   1.903
 2961TIP3    H1 8840   7.643   2.147   1.867
 2961TIP3    H2 8841   7.593   2.080   1.993
 2962TIP3   OH2 8842   1.828   3.953   0.770
 2962TIP3    H1 8843   1.777   3.991   0.699
 2962TIP3    H2 8844   1.795   3.997   0.849
 2963TIP3   OH2 8845   2.470   7.052   5.195
 2963TIP3    H1 8846   2.542   7.115   5.197
 2963TIP3    H2 8847   2.468   7.020   5.105
 2964TIP3   OH2 8848   0.042   5.197   5.905
 2964TIP3    H1 8849   0.087   5.144   5.839
 2964TIP3    H2 8850   0.076   5.285   5.893
 2965TIP3   OH2 8851   3.932   2.582   6.798
 2965TIP3    H1 8852   3.877   2.509   6.768
 2965TIP3    H2 8853   3.970   2.617   6.718
 2966TIP3   OH2 8854   7.958   3.432   0.592
 2966TIP3    H1 8855   7.952   3.417   0.498
 2966TIP3    H2 8856   7.939   3.346   0.631
 2967TIP3   OH2 8857   4.819   7.036   3.214
 2967TIP3    H1 8858   4.768   6.964   3.177
 2967TIP3    H2 8859   4.774   7.115   3.185
 2968TIP3   OH2 8860   7.939   5.507   0.645
 2968TIP3    H1 8861   7.876   5.541   0.708
 2968TIP3    H2 8862   7.887   5.492   0.565
 2969TIP3   OH2 8863   1.172   3.273   2.006
 2969TIP3    H1 8864   1.147   3.361   2.032
 2969TIP3    H2 8865   1.107   3.249   1.939
 2970TIP3   OH2 8866   2.213   5.454   1.528
 2970TIP3    H1 8867   2.178   5.375   1.569
 2970TIP3    H2 8868   2.271   5.492   1.595
 2971TIP3   OH2 8869   3.509   3.420   6.389
 2971TIP3    H1 8870   3.529   3.400   6.298
 2971TIP3    H2 8871   3.422   3.383   6.404
 2972TIP3   OH2 8872   0.938   0.589   1.516
 2972TIP3    H1 8873   0.965   0.535   1.441
 2972TIP3    H2 8874   0.881   0.531   1.567
 2973TIP3   OH2 8875   3.775   0.893   2.394
 2973TIP3    H1 8876   3.824   0.811   2.401
 2973TIP3    H2 8877   3.823   0.955   2.449
 2974TIP3   OH2 8878   2.038   0.554   3.083
 2974TIP3    H1 8879   2.082   0.479   3.123
 2974TIP3    H2 8880   2.100   0.626   3.091
 2975TIP3   OH2 8881   2.050   6.334   4.629
 2975TIP3    H1 8882   2.092   6.402   4.576
 2975TIP3    H2 8883   2.066   6.253   4.581
 2976TIP3   OH2 8884   3.536   0.215   1.046
 2976TIP3    H1 8885   3.464   0.156   1.071
 2976TIP3    H2 8886   3.549   0.271   1.123
 2977TIP3   OH2 8887   6.125   2.156   1.691
 2977TIP3    H1 8888   6.153   2.233   1.739
 2977TIP3    H2 8889   6.193   2.091   1.708
 2978TIP3   OH2 8890   7.690   7.457   4.867
 2978TIP3    H1 8891   7.609   7.507   4.858
 2978TIP3    H2 8892   7.707   7.457   4.962
 2979TIP3   OH2 8893   6.964   0.668   4.268
 2979TIP3    H1 8894   6.974   0.756   4.234
 2979TIP3    H2 8895   7.009   0.670   4.353
 2980TIP3   OH2 8896   3.036   0.901   6.303
 2980TIP3    H1 8897   2.957   0.848   6.295
 2980TIP3    H2 8898   3.041   0.922   6.396
 2981TIP3   OH2 8899   1.821   7.390   0.273
 2981TIP3    H1 8900   1.807   7.474   0.229
 2981TIP3    H2 8901   1.799   7.408   0.365
 2982TIP3   OH2 8902   4.163   6.227   1.827
 2982TIP3    H1 8903   4.125   6.150   1.870
 2982TIP3    H2 8904   4.097   6.296   1.839
 2983TIP3   OH2 8905   5.957   5.310   0.510
 2983TIP3    H1 8906   5.979   5.347   0.595
 2983TIP3    H2 8907   5.967   5.383   0.449
 2984TIP3   OH2 8908   1.197   1.194   5.764
 2984TIP3    H1 8909   1.137   1.268   5.753
 2984TIP3    H2 8910   1.203   1.183   5.859
 2985TIP3   OH2 8911   2.446   4.239   3.529
 2985TIP3    H1 8912   2.534   4.253   3.494
 2985TIP3    H2 8913   2.459   4.185   3.607
 2986TIP3   OH2 8914   6.401   0.370   6.583
 2986TIP3    H1 8915   6.318   0.372   6.535
 2986TIP3    H2 8916   6.376   0.366   6.675
 2987TIP3   OH2 8917   1.040   2.102   2.829
 2987TIP3    H1 8918   0.988   2.157   2.770
 2987TIP3    H2 8919   1.118   2.080   2.778
 2988TIP3   OH2 8920   7.211   3.027   2.296
 2988TIP3    H1 8921   7.161   3.080   2.234
 2988TIP3    H2 8922   7.177   2.938   2.284
 2989TIP3   OH2 8923   0.350   4.175   2.052
 2989TIP3    H1 8924   0.273   4.129   2.019
 2989TIP3    H2 8925   0.373   4.130   2.133
 2990TIP3   OH2 8926   3.708   6.296   0.249
 2990TIP3    H1 8927   3.673   6.366   0.195
 2990TIP3    H2 8928   3.799   6.320   0.263
 2991TIP3   OH2 8929   0.531   5.516   0.995
 2991TIP3    H1 8930   0.482   5.500   0.914
 2991TIP3    H2 8931   0.619   5.483   0.977
 2992TIP3   OH2 8932   3.354   3.477   3.147
 2992TIP3    H1 8933   3.355   3.411   3.078
 2992TIP3    H2 8934   3.287   3.447   3.208
 2993TIP3   OH2 8935   3.969   0.369   2.301
 2993TIP3    H1 8936   3.968   0.347   2.208
 2993TIP3    H2 8937   3.950   0.287   2.346
 2994TIP3   OH2 8938   2.517   6.054   3.660
 2994TIP3    H1 8939   2.441   6.020   3.708
 2994TIP3    H2 8940   2.575   5.979   3.651
 2995TIP3   OH2 8941   1.625   4.169   5.147
 2995TIP3    H1 8942   1.626   4.118   5.066
 2995TIP3    H2 8943   1.709   4.150   5.188
 2996TIP3   OH2 8944   0.083   4.253   5.161
 2996TIP3    H1 8945   0.034   4.317   5.110
 2996TIP3    H2 8946   0.020   4.219   5.225
 2997TIP3   OH2 8947   3.585   4.106   2.675
 2997TIP3    H1 8948   3.636   4.123   2.754
 2997TIP3    H2 8949   3.644   4.056   2.619
 2998TIP3   OH2 8950   7.258   2.257   1.452
 2998TIP3    H1 8951   7.282   2.336   1.500
 2998TIP3    H2 8952   7.204   2.288   1.379
 2999TIP3   OH2 8953   6.558   1.593   6.591
 2999TIP3    H1 8954   6.569   1.688   6.583
 2999TIP3    H2 8955   6.570   1.560   6.502
 3000TIP3   OH2 8956   5.892   3.084   4.980
 3000TIP3    H1 8957   5.859   3.136   4.907
 3000TIP3    H2 8958   5.848   3.121   5.057
 3001TIP3   OH2 8959   3.662   2.730   2.593
 3001TIP3    H1 8960   3.572   2.750   2.620
 3001TIP3    H2 8961   3.700   2.685   2.669
 3002TIP3   OH2 8962   2.534   2.273   1.330
 3002TIP3    H1 8963   2.542   2.322   1.247
 3002TIP3    H2 8964   2.505   2.338   1.393
 3003TIP3   OH2 8965   6.813   2.314   0.172
 3003TIP3    H1 8966   6.834   2.222   0.160
 3003TIP3    H2 8967   6.897   2.357   0.185
 3004TIP3   OH2 8968   0.761   6.869   2.726
 3004TIP3    H1 8969   0.820   6.924   2.778
 3004TIP3    H2 8970   0.705   6.931   2.680
 3005TIP3   OH2 8971   2.736   5.840   3.607
 3005TIP3    H1 8972   2.690   5.758   3.591
 3005TIP3    H2 8973   2.829   5.817   3.607
 3006TIP3   OH2 8974   0.432   7.283   0.002
 3006TIP3    H1 8975   0.525   7.262  -0.003
 3006TIP3    H2 8976   0.428   7.378   0.007
 3007TIP3   OH2 8977   7.282   5.085   2.922
 3007TIP3    H1 8978   7.342   5.020   2.958
 3007TIP3    H2 8979   7.275   5.150   2.992
 3008TIP3   OH2 8980   4.340   6.832   4.119
 3008TIP3    H1 8981   4.417   6.868   4.076
 3008TIP3    H2 8982   4.354   6.737   4.117
 3009TIP3   OH2 8983   1.829   6.261   1.856
 3009TIP3    H1 8984   1.853   6.266   1.763
 3009TIP3    H2 8985   1.913   6.252   1.902
 3010TIP3   OH2 8986   0.812   7.318   3.826
 3010TIP3    H1 8987   0.757   7.324   3.748
 3010TIP3    H2 8988   0.763   7.262   3.886
 3011TIP3   OH2 8989   1.754   6.638   4.722
 3011TIP3    H1 8990   1.749   6.590   4.639
 3011TIP3    H2 8991   1.808   6.583   4.778
 3012TIP3   OH2 8992   5.215   1.380   5.438
 3012TIP3    H1 8993   5.154   1.310   5.461
 3012TIP3    H2 8994   5.293   1.362   5.492
 3013TIP3   OH2 8995   4.416   6.325   2.345
 3013TIP3    H1 8996   4.471   6.393   2.306
 3013TIP3    H2 8997   4.445   6.320   2.436
 3014TIP3   OH2 8998   0.912   0.787   6.458
 3014TIP3    H1 8999   0.856   0.842   6.403
 3014TIP3    H2 9000   1.000   0.799   6.423
 3015TIP3   OH2 9001   7.003   0.980   3.906
 3015TIP3    H1 9002   7.056   0.912   3.948
 3015TIP3    H2 9003   7.043   1.062   3.935
 3016TIP3   OH2 9004   3.901   5.377   1.386
 3016TIP3    H1 9005   3.931   5.447   1.444
 3016TIP3    H2 9006   3.910   5.297   1.438
 3017TIP3   OH2 9007   3.034   4.600   1.885
 3017TIP3    H1 9008   3.112   4.564   1.843
 3017TIP3    H2 9009   3.066   4.639   1.966
 3018TIP3   OH2 9010   2.590   2.622   0.722
 3018TIP3    H1 9011   2.593   2.549   0.660
 3018TIP3    H2 9012   2.535   2.590   0.794
 3019TIP3   OH2 9013   1.974   3.576   6.122
 3019TIP3    H1 9014   1.951   3.503   6.064
 3019TIP3    H2 9015   2.056   3.550   6.163
 3020TIP3   OH2 9016   3.611   3.261   3.154
 3020TIP3    H1 9017   3.593   3.210   3.233
 3020TIP3    H2 9018   3.706   3.252   3.142
 3021TIP3   OH2 9019   7.011   0.909   2.797
 3021TIP3    H1 9020   7.009   0.814   2.806
 3021TIP3    H2 9021   6.962   0.941   2.873
 3022TIP3   OH2 9022   5.034   3.592   1.569
 3022TIP3    H1 9023   4.954   3.597   1.621
 3022TIP3    H2 9024   5.035   3.673   1.519
 3023TIP3   OH2 9025   3.613   6.218   6.157
 3023TIP3    H1 9026   3.651   6.296   6.117
 3023TIP3    H2 9027   3.625   6.231   6.251
 3024TIP3   OH2 9028   3.328   5.891   0.696
 3024TIP3    H1 9029   3.347   5.981   0.672
 3024TIP3    H2 9030   3.411   5.856   0.728
 3025TIP3   OH2 9031   7.238   6.612   0.814
 3025TIP3    H1 9032   7.278   6.556   0.746
 3025TIP3    H2 9033   7.265   6.571   0.897
 3026TIP3   OH2 9034   1.433   2.842   3.418
 3026TIP3    H1 9035   1.357   2.899   3.409
 3026TIP3    H2 9036   1.398   2.761   3.454
 3027TIP3   OH2 9037   5.689   1.490   4.315
 3027TIP3    H1 9038   5.766   1.530   4.276
 3027TIP3    H2 9039   5.636   1.564   4.344
 3028TIP3   OH2 9040   1.990   2.900   4.861
 3028TIP3    H1 9041   1.940   2.827   4.825
 3028TIP3    H2 9042   1.952   2.977   4.819
 3029TIP3   OH2 9043   7.168   1.756   0.826
 3029TIP3    H1 9044   7.219   1.836   0.837
 3029TIP3    H2 9045   7.077   1.785   0.826
 3030TIP3   OH2 9046   2.264   4.040   1.533
 3030TIP3    H1 9047   2.324   4.017   1.604
 3030TIP3    H2 9048   2.259   3.961   1.480
 3031TIP3   OH2 9049   2.864   7.289   6.541
 3031TIP3    H1 9050   2.793   7.225   6.535
 3031TIP3    H2 9051   2.888   7.306   6.450
 3032TIP3   OH2 9052   7.632   4.397   2.816
 3032TIP3    H1 9053   7.726   4.403   2.833
 3032TIP3    H2 9054   7.595   4.369   2.900
 3033TIP3   OH2 9055   4.952   5.213   6.142
 3033TIP3    H1 9056   4.940   5.175   6.055
 3033TIP3    H2 9057   4.902   5.294   6.140
 3034TIP3   OH2 9058   0.269   4.673   2.519
 3034TIP3    H1 9059   0.323   4.624   2.457
 3034TIP3    H2 9060   0.239   4.607   2.582
 3035TIP3   OH2 9061   4.733   7.240   5.814
 3035TIP3    H1 9062   4.648   7.278   5.832
 3035TIP3    H2 9063   4.755   7.269   5.726
 3036TIP3   OH2 9064   6.709   4.818   5.264
 3036TIP3    H1 9065   6.782   4.851   5.315
 3036TIP3    H2 9066   6.710   4.723   5.278
 3037TIP3   OH2 9067   4.970   2.693   6.363
 3037TIP3    H1 9068   4.904   2.626   6.382
 3037TIP3    H2 9069   5.050   2.660   6.403
 3038TIP3   OH2 9070   0.571   5.407   0.665
 3038TIP3    H1 9071   0.637   5.441   0.727
 3038TIP3    H2 9072   0.578   5.464   0.589
 3039TIP3   OH2 9073   1.421   0.632   3.452
 3039TIP3    H1 9074   1.488   0.566   3.472
 3039TIP3    H2 9075   1.358   0.586   3.396
 3040TIP3   OH2 9076   0.031   5.587   0.105
 3040TIP3    H1 9077   0.074   5.503   0.118
 3040TIP3    H2 9078   0.061   5.641   0.178
 3041TIP3   OH2 9079   0.800   1.841   0.391
 3041TIP3    H1 9080   0.854   1.793   0.454
 3041TIP3    H2 9081   0.763   1.914   0.441
 3042TIP3   OH2 9082   7.688   5.775   4.963
 3042TIP3    H1 9083   7.680   5.694   4.912
 3042TIP3    H2 9084   7.718   5.747   5.049
 3043TIP3   OH2 9085   6.194   1.748   5.555
 3043TIP3    H1 9086   6.196   1.838   5.590
 3043TIP3    H2 9087   6.159   1.696   5.628
 3044TIP3   OH2 9088   3.576   7.049   2.772
 3044TIP3    H1 9089   3.664   7.017   2.793
 3044TIP3    H2 9090   3.552   7.104   2.847
 3045TIP3   OH2 9091   8.028   3.888   5.461
 3045TIP3    H1 9092   7.967   3.959   5.479
 3045TIP3    H2 9093   8.114   3.924   5.483
 3046TIP3   OH2 9094   5.194   3.041   1.599
 3046TIP3    H1 9095   5.191   3.134   1.577
 3046TIP3    H2 9096   5.276   3.030   1.647
 3047TIP3   OH2 9097   3.287   3.578   0.746
 3047TIP3    H1 9098   3.294   3.667   0.779
 3047TIP3    H2 9099   3.210   3.579   0.689
 3048TIP3   OH2 9100   3.641   0.625   5.326
 3048TIP3    H1 9101   3.668   0.669   5.246
 3048TIP3    H2 9102   3.627   0.534   5.300
 3049TIP3   OH2 9103   4.073   6.062   6.146
 3049TIP3    H1 9104   4.050   6.019   6.064
 3049TIP3    H2 9105   4.110   6.146   6.120
 3050TIP3   OH2 9106   8.091   7.524   5.226
 3050TIP3    H1 9107   8.069   7.596   5.284
 3050TIP3    H2 9108   8.101   7.565   5.140
 3051TIP3   OH2 9109   4.576   6.970   1.090
 3051TIP3    H1 9110   4.562   6.904   1.159
 3051TIP3    H2 9111   4.626   6.924   1.023
 3052TIP3   OH2 9112   7.766   5.433   5.956
 3052TIP3    H1 9113   7.793   5.524   5.968
 3052TIP3    H2 9114   7.671   5.438   5.943
 3053TIP3   OH2 9115   4.774   2.653   2.770
 3053TIP3    H1 9116   4.692   2.650   2.722
 3053TIP3    H2 9117   4.839   2.681   2.706
 3054TIP3   OH2 9118   4.587   5.830   3.115
 3054TIP3    H1 9119   4.632   5.907   3.149
 3054TIP3    H2 9120   4.657   5.774   3.083
 3055TIP3   OH2 9121   0.211   2.403   2.966
 3055TIP3    H1 9122   0.167   2.458   2.902
 3055TIP3    H2 9123   0.187   2.440   3.051
 3056TIP3   OH2 9124   6.586   1.967   4.070
 3056TIP3    H1 9125   6.567   2.022   3.995
 3056TIP3    H2 9126   6.530   2.000   4.140
 3057TIP3   OH2 9127   5.337   1.682   5.610
 3057TIP3    H1 9128   5.366   1.684   5.518
 3057TIP3    H2 9129   5.362   1.768   5.644
 3058TIP3   OH2 9130   1.951   1.764   4.584
 3058TIP3    H1 9131   1.979   1.772   4.675
 3058TIP3    H2 9132   1.874   1.820   4.577
 3059TIP3   OH2 9133   5.644   3.479   4.137
 3059TIP3    H1 9134   5.581   3.453   4.070
 3059TIP3    H2 9135   5.599   3.462   4.220
 3060TIP3   OH2 9136   1.463   6.787   3.203
 3060TIP3    H1 9137   1.380   6.764   3.244
 3060TIP3    H2 9138   1.464   6.738   3.121
 3061TIP3   OH2 9139   0.579   1.806   2.805
 3061TIP3    H1 9140   0.498   1.827   2.853
 3061TIP3    H2 9141   0.588   1.876   2.741
 3062TIP3   OH2 9142   1.612   2.581   1.621
 3062TIP3    H1 9143   1.594   2.581   1.715
 3062TIP3    H2 9144   1.682   2.516   1.610
 3063TIP3   OH2 9145   4.452   5.357   3.264
 3063TIP3    H1 9146   4.409   5.335   3.347
 3063TIP3    H2 9147   4.424   5.447   3.246
 3064TIP3   OH2 9148   2.742   3.642   2.333
 3064TIP3    H1 9149   2.774   3.553   2.350
 3064TIP3    H2 9150   2.754   3.654   2.239
 3065TIP3   OH2 9151   2.524   6.418   2.030
 3065TIP3    H1 9152   2.583   6.450   2.098
 3065TIP3    H2 9153   2.580   6.369   1.971
 3066TIP3   OH2 9154   3.474   1.130   3.641
 3066TIP3    H1 9155   3.414   1.201   3.663
 3066TIP3    H2 9156   3.533   1.169   3.576
 3067TIP3   OH2 9157   1.703   0.276   3.190
 3067TIP3    H1 9158   1.644   0.336   3.144
 3067TIP3    H2 9159   1.664   0.266   3.276
 3068TIP3   OH2 9160   7.916   5.424   2.710
 3068TIP3    H1 9161   8.003   5.405   2.745
 3068TIP3    H2 9162   7.878   5.338   2.693
 3069TIP3   OH2 9163   0.156   4.909   6.033
 3069TIP3    H1 9164   0.236   4.961   6.033
 3069TIP3    H2 9165   0.175   4.834   5.977
 3070TIP3   OH2 9166   3.729   2.389   6.740
 3070TIP3    H1 9167   3.698   2.302   6.766
 3070TIP3    H2 9168   3.698   2.399   6.650
 3071TIP3   OH2 9169   6.325   0.843   5.480
 3071TIP3    H1 9170   6.339   0.833   5.574
 3071TIP3    H2 9171   6.297   0.934   5.470
 3072TIP3   OH2 9172   7.941   3.500   6.172
 3072TIP3    H1 9173   7.973   3.515   6.261
 3072TIP3    H2 9174   8.015   3.524   6.116
 3073TIP3   OH2 9175   0.030   5.237   4.722
 3073TIP3    H1 9176   0.038   5.247   4.627
 3073TIP3    H2 9177   0.064   5.318   4.758
 3074TIP3   OH2 9178   7.594   3.339   4.651
 3074TIP3    H1 9179   7.540   3.417   4.665
 3074TIP3    H2 9180   7.531   3.267   4.643
 3075TIP3   OH2 9181   7.219   4.956   5.413
 3075TIP3    H1 9182   7.268   4.979   5.333
 3075TIP3    H2 9183   7.282   4.968   5.484
 3076TIP3   OH2 9184   1.596   7.584   0.676
 3076TIP3    H1 9185   1.567   7.604   0.765
 3076TIP3    H2 9186   1.661   7.515   0.687
 3077TIP3   OH2 9187   6.423   4.372   0.847
 3077TIP3    H1 9188   6.366   4.369   0.924
 3077TIP3    H2 9189   6.484   4.299   0.860
 3078TIP3   OH2 9190   4.097   5.502   1.966
 3078TIP3    H1 9191   4.049   5.456   1.898
 3078TIP3    H2 9192   4.092   5.445   2.042
 3079TIP3   OH2 9193   0.584   5.118   6.398
 3079TIP3    H1 9194   0.634   5.160   6.468
 3079TIP3    H2 9195   0.650   5.073   6.345
 3080TIP3   OH2 9196   1.516   4.694   2.969
 3080TIP3    H1 9197   1.606   4.718   2.947
 3080TIP3    H2 9198   1.474   4.776   2.996
 3081TIP3   OH2 9199   6.481   3.896   6.478
 3081TIP3    H1 9200   6.524   3.821   6.520
 3081TIP3    H2 9201   6.525   3.904   6.394
 3082TIP3   OH2 9202   2.268   2.373   6.453
 3082TIP3    H1 9203   2.335   2.353   6.519
 3082TIP3    H2 9204   2.304   2.339   6.371
 3083TIP3   OH2 9205   1.597   7.688   0.413
 3083TIP3    H1 9206   1.583   7.631   0.489
 3083TIP3    H2 9207   1.512   7.691   0.369
 3084TIP3   OH2 9208   8.169   1.543   2.513
 3084TIP3    H1 9209   8.112   1.540   2.437
 3084TIP3    H2 9210   8.136   1.616   2.566
 3085TIP3   OH2 9211   4.930   3.150   3.818
 3085TIP3    H1 9212   4.885   3.145   3.903
 3085TIP3    H2 9213   4.864   3.123   3.754
 3086TIP3   OH2 9214   6.765   3.294   6.295
 3086TIP3    H1 9215   6.685   3.241   6.300
 3086TIP3    H2 9216   6.818   3.264   6.369
 3087TIP3   OH2 9217   5.296   5.839   4.909
 3087TIP3    H1 9218   5.332   5.763   4.954
 3087TIP3    H2 9219   5.227   5.872   4.967
 3088TIP3   OH2 9220   2.380   4.786   5.280
 3088TIP3    H1 9221   2.358   4.769   5.188
 3088TIP3    H2 9222   2.312   4.741   5.330
 3089TIP3   OH2 9223   3.372   6.245   3.830
 3089TIP3    H1 9224   3.300   6.305   3.810
 3089TIP3    H2 9225   3.332   6.158   3.825
 3090TIP3   OH2 9226   4.503   7.126   1.352
 3090TIP3    H1 9227   4.447   7.200   1.329
 3090TIP3    H2 9228   4.567   7.121   1.281
 3091TIP3   OH2 9229   4.919   3.348   3.115
 3091TIP3    H1 9230   4.933   3.336   3.209
 3091TIP3    H2 9231   4.981   3.288   3.074
 3092TIP3   OH2 9232   5.933   2.304   5.775
 3092TIP3    H1 9233   5.961   2.333   5.862
 3092TIP3    H2 9234   5.945   2.382   5.720
 3093TIP3   OH2 9235   5.437   3.425   2.724
 3093TIP3    H1 9236   5.436   3.393   2.634
 3093TIP3    H2 9237   5.417   3.519   2.716
 3094TIP3   OH2 9238   7.443   2.430   3.127
 3094TIP3    H1 9239   7.518   2.488   3.119
 3094TIP3    H2 9240   7.373   2.485   3.163
 3095TIP3   OH2 9241   5.866   0.350   2.253
 3095TIP3    H1 9242   5.926   0.335   2.325
 3095TIP3    H2 9243   5.916   0.402   2.190
 3096TIP3   OH2 9244   7.996   5.207   3.225
 3096TIP3    H1 9245   7.950   5.126   3.248
 3096TIP3    H2 9246   7.937   5.250   3.162
 3097TIP3   OH2 9247   5.398   0.777   0.636
 3097TIP3    H1 9248   5.434   0.820   0.559
 3097TIP3    H2 9249   5.335   0.840   0.671
 3098TIP3   OH2 9250   2.750   1.371   1.143
 3098TIP3    H1 9251   2.666   1.407   1.169
 3098TIP3    H2 9252   2.786   1.435   1.081
 3099TIP3   OH2 9253   0.679   6.302   1.951
 3099TIP3    H1 9254   0.726   6.368   2.003
 3099TIP3    H2 9255   0.615   6.352   1.900
 3100TIP3   OH2 9256   1.442   6.615   6.367
 3100TIP3    H1 9257   1.478   6.628   6.280
 3100TIP3    H2 9258   1.411   6.524   6.367
 3101TIP3   OH2 9259   3.044   4.950   2.560
 3101TIP3    H1 9260   3.053   4.926   2.653
 3101TIP3    H2 9261   3.134   4.965   2.531
 3102TIP3   OH2 9262   6.383   1.552   2.285
 3102TIP3    H1 9263   6.338   1.565   2.368
 3102TIP3    H2 9264   6.461   1.606   2.291
 3103TIP3   OH2 9265   8.022   4.984   1.106
 3103TIP3    H1 9266   7.954   4.995   1.172
 3103TIP3    H2 9267   8.070   4.906   1.133
 3104TIP3   OH2 9268   5.636   1.903   0.646
 3104TIP3    H1 9269   5.542   1.893   0.632
 3104TIP3    H2 9270   5.646   1.915   0.741
 3105TIP3   OH2 9271   3.160   5.203   1.137
 3105TIP3    H1 9272   3.092   5.212   1.204
 3105TIP3    H2 9273   3.242   5.218   1.184
 3106TIP3   OH2 9274   0.269   3.805   6.310
 3106TIP3    H1 9275   0.352   3.833   6.350
 3106TIP3    H2 9276   0.236   3.738   6.370
 3107TIP3   OH2 9277   2.030   6.827   3.780
 3107TIP3    H1 9278   2.112   6.830   3.830
 3107TIP3    H2 9279   2.000   6.736   3.789
 3108TIP3   OH2 9280   4.287   0.314   6.350
 3108TIP3    H1 9281   4.344   0.376   6.304
 3108TIP3    H2 9282   4.336   0.232   6.348
 3109TIP3   OH2 9283   7.945   7.344   2.530
 3109TIP3    H1 9284   7.994   7.363   2.610
 3109TIP3    H2 9285   7.935   7.429   2.487
 3110TIP3   OH2 9286   4.709   0.088   5.108
 3110TIP3    H1 9287   4.734   0.000   5.135
 3110TIP3    H2 9288   4.791   0.137   5.106
 3111TIP3   OH2 9289   7.592   7.734   5.259
 3111TIP3    H1 9290   7.574   7.650   5.301
 3111TIP3    H2 9291   7.688   7.737   5.252
 3112TIP3   OH2 9292   4.560   6.559   3.134
 3112TIP3    H1 9293   4.557   6.641   3.086
 3112TIP3    H2 9294   4.512   6.576   3.215
 3113TIP3   OH2 9295   4.246   1.560   3.126
 3113TIP3    H1 9296   4.253   1.493   3.058
 3113TIP3    H2 9297   4.156   1.552   3.159
 3114TIP3   OH2 9298   4.762   5.761   5.244
 3114TIP3    H1 9299   4.735   5.671   5.259
 3114TIP3    H2 9300   4.856   5.762   5.261
 3115TIP3   OH2 9301   5.647   4.406   4.057
 3115TIP3    H1 9302   5.691   4.445   3.982
 3115TIP3    H2 9303   5.676   4.315   4.058
 3116TIP3   OH2 9304   3.878   3.284   5.928
 3116TIP3    H1 9305   3.861   3.193   5.954
 3116TIP3    H2 9306   3.949   3.312   5.986
 3117TIP3   OH2 9307   5.347   2.020   5.430
 3117TIP3    H1 9308   5.402   2.098   5.435
 3117TIP3    H2 9309   5.279   2.034   5.496
 3118TIP3   OH2 9310   7.918   0.403   1.890
 3118TIP3    H1 9311   7.993   0.346   1.904
 3118TIP3    H2 9312   7.953   0.492   1.900
 3119TIP3   OH2 9313   6.237   4.461   1.063
 3119TIP3    H1 9314   6.239   4.365   1.066
 3119TIP3    H2 9315   6.155   4.481   1.018
 3120TIP3   OH2 9316   4.369   5.865   0.491
 3120TIP3    H1 9317   4.288   5.906   0.459
 3120TIP3    H2 9318   4.439   5.915   0.449
 3121TIP3   OH2 9319   1.479   3.290   3.761
 3121TIP3    H1 9320   1.560   3.280   3.812
 3121TIP3    H2 9321   1.484   3.379   3.725
 3122TIP3   OH2 9322   5.932   5.962   0.129
 3122TIP3    H1 9323   6.012   6.006   0.098
 3122TIP3    H2 9324   5.962   5.876   0.157
 3123TIP3   OH2 9325   1.010   0.816   3.050
 3123TIP3    H1 9326   1.009   0.777   2.963
 3123TIP3    H2 9327   0.921   0.849   3.063
 3124TIP3   OH2 9328   1.653   4.046   3.719
 3124TIP3    H1 9329   1.581   4.067   3.659
 3124TIP3    H2 9330   1.653   4.116   3.783
 3125TIP3   OH2 9331   0.363   1.257   3.830
 3125TIP3    H1 9332   0.420   1.229   3.902
 3125TIP3    H2 9333   0.345   1.176   3.781
 3126TIP3   OH2 9334   1.469   6.290   0.318
 3126TIP3    H1 9335   1.545   6.315   0.371
 3126TIP3    H2 9336   1.484   6.197   0.298
 3127TIP3   OH2 9337   6.909   7.423   0.916
 3127TIP3    H1 9338   7.003   7.422   0.903
 3127TIP3    H2 9339   6.873   7.458   0.834
 3128TIP3   OH2 9340   4.538   4.356   5.210
 3128TIP3    H1 9341   4.527   4.447   5.236
 3128TIP3    H2 9342   4.588   4.316   5.281
 3129TIP3   OH2 9343   3.293   5.783   2.078
 3129TIP3    H1 9344   3.311   5.760   2.169
 3129TIP3    H2 9345   3.339   5.865   2.064
 3130TIP3   OH2 9346   6.834   0.532   1.609
 3130TIP3    H1 9347   6.742   0.542   1.588
 3130TIP3    H2 9348   6.869   0.622   1.609
 3131TIP3   OH2 9349   0.374   0.094   5.477
 3131TIP3    H1 9350   0.351   0.169   5.422
 3131TIP3    H2 9351   0.468   0.080   5.460
 3132TIP3   OH2 9352   4.302   2.121   0.588
 3132TIP3    H1 9353   4.325   2.183   0.518
 3132TIP3    H2 9354   4.268   2.176   0.658
 3133TIP3   OH2 9355   4.214   6.540   5.276
 3133TIP3    H1 9356   4.302   6.539   5.312
 3133TIP3    H2 9357   4.226   6.543   5.181
 3134TIP3   OH2 9358   7.936   7.343   3.099
 3134TIP3    H1 9359   7.903   7.255   3.115
 3134TIP3    H2 9360   7.863   7.389   3.058
 3135TIP3   OH2 9361   2.546   3.167   5.784
 3135TIP3    H1 9362   2.623   3.146   5.732
 3135TIP3    H2 9363   2.509   3.082   5.809
 3136TIP3   OH2 9364   4.040   3.007   3.210
 3136TIP3    H1 9365   4.039   3.103   3.217
 3136TIP3    H2 9366   4.040   2.990   3.116
 3137TIP3   OH2 9367   1.680   1.269   6.413
 3137TIP3    H1 9368   1.762   1.241   6.371
 3137TIP3    H2 9369   1.613   1.212   6.376
 3138TIP3   OH2 9370   5.623   7.084   6.473
 3138TIP3    H1 9371   5.664   7.032   6.404
 3138TIP3    H2 9372   5.530   7.084   6.451
 3139TIP3   OH2 9373   2.259   5.569   1.269
 3139TIP3    H1 9374   2.213   5.538   1.347
 3139TIP3    H2 9375   2.217   5.653   1.249
 3140TIP3   OH2 9376   7.096   0.337   6.366
 3140TIP3    H1 9377   7.189   0.313   6.367
 3140TIP3    H2 9378   7.065   0.309   6.280
 3141TIP3   OH2 9379   5.622   7.702   1.179
 3141TIP3    H1 9380   5.546   7.756   1.201
 3141TIP3    H2 9381   5.623   7.633   1.246
 3142TIP3   OH2 9382   7.458   6.215   0.002
 3142TIP3    H1 9383   7.531   6.260   0.044
 3142TIP3    H2 9384   7.384   6.276   0.010
 3143TIP3   OH2 9385   7.231   7.276   1.215
 3143TIP3    H1 9386   7.274   7.202   1.171
 3143TIP3    H2 9387   7.304   7.329   1.248
 3144TIP3   OH2 9388   6.366   3.735   2.607
 3144TIP3    H1 9389   6.441   3.676   2.595
 3144TIP3    H2 9390   6.307   3.715   2.534
 3145TIP3   OH2 9391   2.435   7.311   1.658
 3145TIP3    H1 9392   2.396   7.394   1.633
 3145TIP3    H2 9393   2.516   7.334   1.704
 3146TIP3   OH2 9394   4.917   1.807   2.492
 3146TIP3    H1 9395   4.991   1.756   2.459
 3146TIP3    H2 9396   4.845   1.744   2.496
 3147TIP3   OH2 9397   1.808   3.374   5.229
 3147TIP3    H1 9398   1.815   3.337   5.141
 3147TIP3    H2 9399   1.866   3.450   5.228
 3148TIP3   OH2 9400   2.624   7.150   6.510
 3148TIP3    H1 9401   2.559   7.194   6.566
 3148TIP3    H2 9402   2.616   7.057   6.532
 3149TIP3   OH2 9403   3.355   4.423   2.975
 3149TIP3    H1 9404   3.294   4.372   2.922
 3149TIP3    H2 9405   3.423   4.452   2.914
 3150TIP3   OH2 9406   3.473   6.658   1.450
 3150TIP3    H1 9407   3.504   6.748   1.453
 3150TIP3    H2 9408   3.543   6.610   1.406
 3151TIP3   OH2 9409   5.537   6.842   4.721
 3151TIP3    H1 9410   5.618   6.892   4.731
 3151TIP3    H2 9411   5.467   6.907   4.729
 3152TIP3   OH2 9412   2.317   7.344   1.201
 3152TIP3    H1 9413   2.386   7.308   1.257
 3152TIP3    H2 9414   2.349   7.332   1.112
 3153TIP3   OH2 9415   2.287   5.252   5.850
 3153TIP3    H1 9416   2.296   5.323   5.787
 3153TIP3    H2 9417   2.362   5.195   5.832
 3154TIP3   OH2 9418   4.438   1.703   0.090
 3154TIP3    H1 9419   4.502   1.720   0.021
 3154TIP3    H2 9420   4.486   1.654   0.157
 3155TIP3   OH2 9421   1.186   0.534   3.819
 3155TIP3    H1 9422   1.194   0.590   3.896
 3155TIP3    H2 9423   1.277   0.521   3.789
 3156TIP3   OH2 9424   1.286   3.874   2.709
 3156TIP3    H1 9425   1.277   3.949   2.650
 3156TIP3    H2 9426   1.347   3.816   2.664
 3157TIP3   OH2 9427   4.234   0.610   2.599
 3157TIP3    H1 9428   4.293   0.552   2.646
 3157TIP3    H2 9429   4.259   0.600   2.507
 3158TIP3   OH2 9430   7.752   4.832   3.516
 3158TIP3    H1 9431   7.765   4.872   3.601
 3158TIP3    H2 9432   7.699   4.754   3.534
 3159TIP3   OH2 9433   6.420   0.469   2.583
 3159TIP3    H1 9434   6.448   0.553   2.546
 3159TIP3    H2 9435   6.325   0.473   2.584
 3160TIP3   OH2 9436   1.644   2.430   2.101
 3160TIP3    H1 9437   1.577   2.448   2.167
 3160TIP3    H2 9438   1.724   2.468   2.137
 3161TIP3   OH2 9439   6.759   7.695   1.753
 3161TIP3    H1 9440   6.821   7.666   1.820
 3161TIP3    H2 9441   6.809   7.756   1.699
 3162TIP3   OH2 9442   5.172   4.938   0.349
 3162TIP3    H1 9443   5.198   5.013   0.402
 3162TIP3    H2 9444   5.112   4.973   0.284
 3163TIP3   OH2 9445   8.240   1.976   6.333
 3163TIP3    H1 9446   8.236   1.976   6.238
 3163TIP3    H2 9447   8.192   2.055   6.359
 3164TIP3   OH2 9448   0.044   7.082   5.030
 3164TIP3    H1 9449   0.073   6.994   5.008
 3164TIP3    H2 9450  -0.022   7.070   5.098
 3165TIP3   OH2 9451   6.694   3.168   0.821
 3165TIP3    H1 9452   6.694   3.247   0.876
 3165TIP3    H2 9453   6.681   3.096   0.882
 3166TIP3   OH2 9454   5.690   4.608   0.611
 3166TIP3    H1 9455   5.596   4.619   0.618
 3166TIP3    H2 9456   5.714   4.554   0.686
 3167TIP3   OH2 9457   0.921   0.218   6.640
 3167TIP3    H1 9458   0.862   0.164   6.587
 3167TIP3    H2 9459   0.866   0.251   6.711
 3168TIP3   OH2 9460   2.343   0.602   0.687
 3168TIP3    H1 9461   2.377   0.566   0.769
 3168TIP3    H2 9462   2.310   0.689   0.711
 3169TIP3   OH2 9463   6.679   6.977   4.514
 3169TIP3    H1 9464   6.764   6.932   4.514
 3169TIP3    H2 9465   6.698   7.064   4.551
 3170TIP3   OH2 9466   7.871   4.351   0.430
 3170TIP3    H1 9467   7.930   4.378   0.359
 3170TIP3    H2 9468   7.830   4.432   0.460
 3171TIP3   OH2 9469   5.053   7.507   5.561
 3171TIP3    H1 9470   5.055   7.597   5.592
 3171TIP3    H2 9471   5.123   7.502   5.495
 3172TIP3   OH2 9472   7.151   1.569   6.031
 3172TIP3    H1 9473   7.210   1.518   5.976
 3172TIP3    H2 9474   7.078   1.510   6.050
 3173TIP3   OH2 9475   2.678   6.893   1.026
 3173TIP3    H1 9476   2.595   6.859   0.994
 3173TIP3    H2 9477   2.661   6.986   1.045
 3174TIP3   OH2 9478   6.678   5.963   2.121
 3174TIP3    H1 9479   6.770   5.984   2.106
 3174TIP3    H2 9480   6.671   5.869   2.103
 3175TIP3   OH2 9481   7.242   1.218   0.061
 3175TIP3    H1 9482   7.293   1.279   0.113
 3175TIP3    H2 9483   7.287   1.215  -0.024
 3176TIP3   OH2 9484   0.262   7.573   5.475
 3176TIP3    H1 9485   0.186   7.551   5.422
 3176TIP3    H2 9486   0.295   7.655   5.438
 3177TIP3   OH2 9487   0.731   2.751   0.233
 3177TIP3    H1 9488   0.734   2.754   0.329
 3177TIP3    H2 9489   0.639   2.767   0.212
 3178TIP3   OH2 9490   7.686   3.030   4.706
 3178TIP3    H1 9491   7.619   3.078   4.658
 3178TIP3    H2 9492   7.702   2.951   4.654
 3179TIP3   OH2 9493   5.672   4.177   3.280
 3179TIP3    H1 9494   5.618   4.128   3.217
 3179TIP3    H2 9495   5.681   4.263   3.240
 3180TIP3   OH2 9496   0.153   1.082   0.933
 3180TIP3    H1 9497   0.238   1.068   0.975
 3180TIP3    H2 9498   0.126   0.995   0.905
 3181TIP3   OH2 9499   2.462   5.021   6.407
 3181TIP3    H1 9500   2.516   5.028   6.485
 3181TIP3    H2 9501   2.441   4.928   6.400
 3182TIP3   OH2 9502   2.131   4.402   6.086
 3182TIP3    H1 9503   2.058   4.351   6.123
 3182TIP3    H2 9504   2.173   4.442   6.163
 3183TIP3   OH2 9505   2.975   4.199   4.349
 3183TIP3    H1 9506   3.066   4.230   4.349
 3183TIP3    H2 9507   2.923   4.279   4.346
 3184TIP3   OH2 9508   0.738   2.793   0.495
 3184TIP3    H1 9509   0.789   2.828   0.568
 3184TIP3    H2 9510   0.717   2.703   0.522
 3185TIP3   OH2 9511   2.791   1.428   3.254
 3185TIP3    H1 9512   2.710   1.456   3.298
 3185TIP3    H2 9513   2.796   1.334   3.272
 3186TIP3   OH2 9514   1.660   2.936   3.296
 3186TIP3    H1 9515   1.719   2.934   3.371
 3186TIP3    H2 9516   1.580   2.895   3.328
 3187TIP3   OH2 9517   3.962   5.767   5.143
 3187TIP3    H1 9518   4.015   5.744   5.067
 3187TIP3    H2 9519   3.985   5.702   5.209
 3188TIP3   OH2 9520   7.046   4.886   2.658
 3188TIP3    H1 9521   7.017   4.922   2.575
 3188TIP3    H2 9522   6.996   4.805   2.669
 3189TIP3   OH2 9523   7.023   7.129   1.287
 3189TIP3    H1 9524   6.953   7.184   1.250
 3189TIP3    H2 9525   7.099   7.187   1.292
 3190TIP3   OH2 9526   1.080   7.321   6.161
 3190TIP3    H1 9527   1.001   7.333   6.109
 3190TIP3    H2 9528   1.067   7.375   6.239
 3191TIP3   OH2 9529   6.205   5.619   4.613
 3191TIP3    H1 9530   6.280   5.587   4.564
 3191TIP3    H2 9531   6.132   5.563   4.585
 3192TIP3   OH2 9532   2.532   7.482   4.391
 3192TIP3    H1 9533   2.571   7.467   4.477
 3192TIP3    H2 9534   2.597   7.450   4.329
 3193TIP3   OH2 9535   7.377   1.193   0.980
 3193TIP3    H1 9536   7.359   1.280   1.016
 3193TIP3    H2 9537   7.339   1.195   0.892
 3194TIP3   OH2 9538   4.807   6.921   1.605
 3194TIP3    H1 9539   4.822   6.845   1.549
 3194TIP3    H2 9540   4.819   6.997   1.548
 3195TIP3   OH2 9541   6.472   7.130   1.907
 3195TIP3    H1 9542   6.535   7.149   1.838
 3195TIP3    H2 9543   6.413   7.205   1.907
 3196TIP3   OH2 9544   1.519   3.765   1.848
 3196TIP3    H1 9545   1.570   3.779   1.768
 3196TIP3    H2 9546   1.449   3.705   1.822
 3197TIP3   OH2 9547   7.753   1.665   1.657
 3197TIP3    H1 9548   7.661   1.653   1.681
 3197TIP3    H2 9549   7.783   1.737   1.713
 3198TIP3   OH2 9550   1.776   1.584   5.354
 3198TIP3    H1 9551   1.828   1.506   5.371
 3198TIP3    H2 9552   1.839   1.654   5.343
 3199TIP3   OH2 9553   1.258   6.150   1.621
 3199TIP3    H1 9554   1.289   6.216   1.683
 3199TIP3    H2 9555   1.204   6.199   1.559
 3200TIP3   OH2 9556   6.743   0.848   1.011
 3200TIP3    H1 9557   6.747   0.818   1.101
 3200TIP3    H2 9558   6.736   0.943   1.017
 3201TIP3   OH2 9559   2.035   4.788   4.835
 3201TIP3    H1 9560   1.980   4.710   4.824
 3201TIP3    H2 9561   2.032   4.832   4.751
 3202TIP3   OH2 9562   4.087   5.983   5.878
 3202TIP3    H1 9563   4.009   5.950   5.835
 3202TIP3    H2 9564   4.127   5.906   5.918
 3203TIP3   OH2 9565   7.247   7.448   4.681
 3203TIP3    H1 9566   7.333   7.413   4.658
 3203TIP3    H2 9567   7.229   7.513   4.613
 3204TIP3   OH2 9568   0.547   4.937   4.110
 3204TIP3    H1 9569   0.457   4.938   4.142
 3204TIP3    H2 9570   0.549   5.005   4.042
 3205TIP3   OH2 9571   4.802   0.753   4.287
 3205TIP3    H1 9572   4.741   0.689   4.324
 3205TIP3    H2 9573   4.840   0.709   4.211
 3206TIP3   OH2 9574   0.084   3.264   2.759
 3206TIP3    H1 9575   0.021   3.294   2.825
 3206TIP3    H2 9576   0.080   3.169   2.762
 3207TIP3   OH2 9577   6.494   3.726   1.148
 3207TIP3    H1 9578   6.582   3.748   1.178
 3207TIP3    H2 9579   6.437   3.785   1.198
 3208TIP3   OH2 9580   2.405   3.494   1.733
 3208TIP3    H1 9581   2.338   3.535   1.678
 3208TIP3    H2 9582   2.462   3.566   1.758
 3209TIP3   OH2 9583   7.127   2.280   2.078
 3209TIP3    H1 9584   7.142   2.195   2.037
 3209TIP3    H2 9585   7.054   2.318   2.030
 3210TIP3   OH2 9586   7.183   5.727   2.196
 3210TIP3    H1 9587   7.153   5.690   2.113
 3210TIP3    H2 9588   7.238   5.658   2.234
 3211TIP3   OH2 9589   6.444   1.910   3.735
 3211TIP3    H1 9590   6.506   1.976   3.704
 3211TIP3    H2 9591   6.500   1.839   3.768
 3212TIP3   OH2 9592   2.772   4.047   0.483
 3212TIP3    H1 9593   2.738   4.109   0.419
 3212TIP3    H2 9594   2.843   4.095   0.527
 3213TIP3   OH2 9595   4.997   0.834   0.622
 3213TIP3    H1 9596   4.908   0.869   0.610
 3213TIP3    H2 9597   5.054   0.909   0.604
 3214TIP3   OH2 9598   7.906   0.970   0.998
 3214TIP3    H1 9599   7.908   1.063   0.976
 3214TIP3    H2 9600   7.931   0.925   0.918
 3215TIP3   OH2 9601   5.677   5.677   0.256
 3215TIP3    H1 9602   5.689   5.758   0.306
 3215TIP3    H2 9603   5.749   5.620   0.284
 3216TIP3   OH2 9604   5.013   2.082   0.624
 3216TIP3    H1 9605   5.077   2.057   0.691
 3216TIP3    H2 9606   5.016   2.012   0.560
 3217TIP3   OH2 9607   7.158   5.469   4.676
 3217TIP3    H1 9608   7.104   5.459   4.754
 3217TIP3    H2 9609   7.243   5.432   4.700
 3218TIP3   OH2 9610   5.812   6.986   2.636
 3218TIP3    H1 9611   5.875   7.042   2.680
 3218TIP3    H2 9612   5.726   7.019   2.663
 3219TIP3   OH2 9613   5.147   3.844   1.058
 3219TIP3    H1 9614   5.178   3.934   1.058
 3219TIP3    H2 9615   5.148   3.818   0.966
 3220TIP3   OH2 9616   2.484   7.659   0.999
 3220TIP3    H1 9617   2.558   7.683   1.056
 3220TIP3    H2 9618   2.422   7.731   1.008
 3221TIP3   OH2 9619   0.934   0.462   0.843
 3221TIP3    H1 9620   0.937   0.401   0.769
 3221TIP3    H2 9621   0.912   0.407   0.918
 3222TIP3   OH2 9622   3.922   5.736   3.329
 3222TIP3    H1 9623   3.981   5.704   3.260
 3222TIP3    H2 9624   3.844   5.764   3.282
 3223TIP3   OH2 9625   2.065   4.233   1.745
 3223TIP3    H1 9626   2.091   4.145   1.772
 3223TIP3    H2 9627   2.013   4.219   1.666
 3224TIP3   OH2 9628   6.290   1.180   0.316
 3224TIP3    H1 9629   6.386   1.176   0.318
 3224TIP3    H2 9630   6.269   1.219   0.232
 3225TIP3   OH2 9631   4.638   4.040   6.447
 3225TIP3    H1 9632   4.549   4.007   6.439
 3225TIP3    H2 9633   4.672   4.042   6.357
 3226TIP3   OH2 9634   3.190   6.020   3.849
 3226TIP3    H1 9635   3.105   5.976   3.842
 3226TIP3    H2 9636   3.210   6.020   3.942
 3227TIP3   OH2 9637   7.148   7.468   4.250
 3227TIP3    H1 9638   7.142   7.497   4.341
 3227TIP3    H2 9639   7.084   7.522   4.204
 3228TIP3   OH2 9640   5.474   3.967   6.549
 3228TIP3    H1 9641   5.492   3.925   6.464
 3228TIP3    H2 9642   5.410   4.035   6.529
 3229TIP3   OH2 9643   5.351   0.523   3.015
 3229TIP3    H1 9644   5.350   0.432   3.044
 3229TIP3    H2 9645   5.419   0.526   2.948
 3230TIP3   OH2 9646   3.101   1.249   3.284
 3230TIP3    H1 9647   3.160   1.203   3.343
 3230TIP3    H2 9648   3.014   1.218   3.308
 3231TIP3   OH2 9649   5.655   1.408   2.775
 3231TIP3    H1 9650   5.636   1.356   2.697
 3231TIP3    H2 9651   5.577   1.398   2.829
 3232TIP3   OH2 9652   4.305   3.131   2.299
 3232TIP3    H1 9653   4.375   3.115   2.235
 3232TIP3    H2 9654   4.227   3.094   2.258
 3233TIP3   OH2 9655   7.578   3.717   0.366
 3233TIP3    H1 9656   7.649   3.746   0.308
 3233TIP3    H2 9657   7.532   3.798   0.389
 3234TIP3   OH2 9658   6.721   6.045   3.954
 3234TIP3    H1 9659   6.680   6.114   3.902
 3234TIP3    H2 9660   6.812   6.042   3.924
 3235TIP3   OH2 9661   3.877   2.439   4.593
 3235TIP3    H1 9662   3.927   2.407   4.518
 3235TIP3    H2 9663   3.905   2.383   4.666
 3236TIP3   OH2 9664   0.170   6.588   6.010
 3236TIP3    H1 9665   0.190   6.543   5.927
 3236TIP3    H2 9666   0.209   6.675   6.000
 3237TIP3   OH2 9667   1.142   5.481   0.078
 3237TIP3    H1 9668   1.215   5.420   0.068
 3237TIP3    H2 9669   1.096   5.478  -0.007
 3238TIP3   OH2 9670   1.900   1.478   0.406
 3238TIP3    H1 9671   1.877   1.546   0.469
 3238TIP3    H2 9672   1.842   1.492   0.331
 3239TIP3   OH2 9673   4.818   3.666   3.200
 3239TIP3    H1 9674   4.846   3.630   3.116
 3239TIP3    H2 9675   4.815   3.590   3.259
 3240TIP3   OH2 9676   7.729   4.097   0.950
 3240TIP3    H1 9677   7.801   4.140   0.995
 3240TIP3    H2 9678   7.753   4.100   0.857
 3241TIP3   OH2 9679   2.433   0.331   6.137
 3241TIP3    H1 9680   2.474   0.245   6.149
 3241TIP3    H2 9681   2.460   0.381   6.214
 3242TIP3   OH2 9682   2.544   1.526   6.328
 3242TIP3    H1 9683   2.492   1.517   6.408
 3242TIP3    H2 9684   2.633   1.504   6.354
 3243TIP3   OH2 9685   7.683   7.134   1.029
 3243TIP3    H1 9686   7.756   7.171   0.979
 3243TIP3    H2 9687   7.700   7.160   1.120
 3244TIP3   OH2 9688   7.152   0.183   4.325
 3244TIP3    H1 9689   7.144   0.184   4.420
 3244TIP3    H2 9690   7.063   0.202   4.294
 3245TIP3   OH2 9691   3.067   2.161   5.507
 3245TIP3    H1 9692   3.005   2.105   5.553
 3245TIP3    H2 9693   3.142   2.104   5.488
 3246TIP3   OH2 9694   2.149   0.275   0.736
 3246TIP3    H1 9695   2.120   0.184   0.744
 3246TIP3    H2 9696   2.237   0.276   0.773
 3247TIP3   OH2 9697   4.842   0.359   0.230
 3247TIP3    H1 9698   4.860   0.408   0.311
 3247TIP3    H2 9699   4.896   0.280   0.237
 3248TIP3   OH2 9700   5.271   4.994   2.831
 3248TIP3    H1 9701   5.360   4.979   2.863
 3248TIP3    H2 9702   5.215   4.988   2.908
 3249TIP3   OH2 9703   3.183   7.072   3.494
 3249TIP3    H1 9704   3.153   7.052   3.405
 3249TIP3    H2 9705   3.278   7.067   3.490
 3250TIP3   OH2 9706   0.839   4.329   5.980
 3250TIP3    H1 9707   0.766   4.300   6.034
 3250TIP3    H2 9708   0.816   4.418   5.953
 3251TIP3   OH2 9709   7.142   4.285   2.791
 3251TIP3    H1 9710   7.202   4.282   2.717
 3251TIP3    H2 9711   7.191   4.249   2.864
 3252TIP3   OH2 9712   6.874   0.089   0.995
 3252TIP3    H1 9713   6.858   0.036   1.073
 3252TIP3    H2 9714   6.789   0.125   0.973
 3253TIP3   OH2 9715   2.135   5.457   2.913
 3253TIP3    H1 9716   2.120   5.384   2.973
 3253TIP3    H2 9717   2.191   5.517   2.963
 3254TIP3   OH2 9718   7.838   4.604   0.485
 3254TIP3    H1 9719   7.857   4.604   0.392
 3254TIP3    H2 9720   7.880   4.684   0.519
 3255TIP3   OH2 9721   6.773   1.933   5.277
 3255TIP3    H1 9722   6.721   1.907   5.353
 3255TIP3    H2 9723   6.864   1.924   5.305
 3256TIP3   OH2 9724   7.877   0.508   2.827
 3256TIP3    H1 9725   7.942   0.567   2.789
 3256TIP3    H2 9726   7.874   0.435   2.766
 3257TIP3   OH2 9727   8.157   3.492   3.990
 3257TIP3    H1 9728   8.191   3.410   4.025
 3257TIP3    H2 9729   8.082   3.513   4.047
 3258TIP3   OH2 9730   7.304   0.703   3.098
 3258TIP3    H1 9731   7.367   0.772   3.078
 3258TIP3    H2 9732   7.355   0.635   3.143
 3259TIP3   OH2 9733   5.631   3.745   2.125
 3259TIP3    H1 9734   5.679   3.827   2.121
 3259TIP3    H2 9735   5.554   3.759   2.070
 3260TIP3   OH2 9736   4.619   4.131   0.880
 3260TIP3    H1 9737   4.703   4.087   0.894
 3260TIP3    H2 9738   4.636   4.191   0.807
 3261TIP3   OH2 9739   7.674   2.064   2.427
 3261TIP3    H1 9740   7.584   2.089   2.449
 3261TIP3    H2 9741   7.712   2.034   2.510
 3262TIP3   OH2 9742   3.685   0.392   0.171
 3262TIP3    H1 9743   3.763   0.365   0.122
 3262TIP3    H2 9744   3.710   0.474   0.213
 3263TIP3   OH2 9745   6.231   4.618   3.753
 3263TIP3    H1 9746   6.153   4.590   3.706
 3263TIP3    H2 9747   6.298   4.554   3.728
 3264TIP3   OH2 9748   4.149   6.072   3.953
 3264TIP3    H1 9749   4.181   5.984   3.973
 3264TIP3    H2 9750   4.071   6.083   4.008
 3265TIP3   OH2 9751   8.137   1.645   3.353
 3265TIP3    H1 9752   8.056   1.600   3.328
 3265TIP3    H2 9753   8.191   1.643   3.274
 3266TIP3   OH2 9754   5.100   6.758   3.348
 3266TIP3    H1 9755   5.116   6.849   3.372
 3266TIP3    H2 9756   5.016   6.737   3.390
 3267TIP3   OH2 9757   0.579   3.932   1.960
 3267TIP3    H1 9758   0.631   3.853   1.973
 3267TIP3    H2 9759   0.589   3.981   2.041
 3268TIP3   OH2 9760   1.775   1.017   4.933
 3268TIP3    H1 9761   1.713   0.998   4.862
 3268TIP3    H2 9762   1.721   1.030   5.010
 3269TIP3   OH2 9763   5.373   3.072   2.225
 3269TIP3    H1 9764   5.318   3.095   2.300
 3269TIP3    H2 9765   5.327   3.107   2.150
 3270TIP3   OH2 9766   2.817   2.511   2.818
 3270TIP3    H1 9767   2.871   2.588   2.833
 3270TIP3    H2 9768   2.729   2.537   2.846
 3271TIP3   OH2 9769   8.072   1.916   1.506
 3271TIP3    H1 9770   8.085   1.934   1.600
 3271TIP3    H2 9771   8.059   1.822   1.502
 3272TIP3   OH2 9772   0.929   5.916   5.980
 3272TIP3    H1 9773   0.978   5.911   5.898
 3272TIP3    H2 9774   0.993   5.899   6.048
 3273TIP3   OH2 9775   0.967   0.574   4.830
 3273TIP3    H1 9776   0.885   0.616   4.802
 3273TIP3    H2 9777   1.036   0.630   4.795
 3274TIP3   OH2 9778   4.777   1.177   5.597
 3274TIP3    H1 9779   4.846   1.117   5.627
 3274TIP3    H2 9780   4.786   1.254   5.653
 3275TIP3   OH2 9781   4.528   1.066   2.768
 3275TIP3    H1 9782   4.502   1.139   2.712
 3275TIP3    H2 9783   4.449   1.044   2.817
 3276TIP3   OH2 9784   8.225   3.728   5.864
 3276TIP3    H1 9785   8.246   3.821   5.865
 3276TIP3    H2 9786   8.213   3.705   5.956
 3277TIP3   OH2 9787   8.091   1.008   3.434
 3277TIP3    H1 9788   8.060   0.948   3.502
 3277TIP3    H2 9789   8.102   0.953   3.357
 3278TIP3   OH2 9790   3.444   4.778   5.644
 3278TIP3    H1 9791   3.450   4.872   5.626
 3278TIP3    H2 9792   3.352   4.763   5.664
 3279TIP3   OH2 9793   5.478   0.118   6.172
 3279TIP3    H1 9794   5.443   0.041   6.218
 3279TIP3    H2 9795   5.402   0.174   6.159
 3280TIP3   OH2 9796   2.176   4.531   5.861
 3280TIP3    H1 9797   2.241   4.593   5.894
 3280TIP3    H2 9798   2.169   4.465   5.930
 3281TIP3   OH2 9799   6.966   1.218   0.067
 3281TIP3    H1 9800   6.969   1.222   0.163
 3281TIP3    H2 9801   7.057   1.232   0.039
 3282TIP3   OH2 9802   1.881   0.125   4.707
 3282TIP3    H1 9803   1.802   0.177   4.689
 3282TIP3    H2 9804   1.913   0.157   4.791
 3283TIP3   OH2 9805   5.143   7.116   3.922
 3283TIP3    H1 9806   5.233   7.113   3.890
 3283TIP3    H2 9807   5.091   7.076   3.852
 3284TIP3   OH2 9808   3.209   6.939   6.481
 3284TIP3    H1 9809   3.252   6.874   6.536
 3284TIP3    H2 9810   3.163   6.997   6.542
 3285TIP3   OH2 9811   0.920   6.701   0.639
 3285TIP3    H1 9812   1.008   6.692   0.601
 3285TIP3    H2 9813   0.914   6.629   0.702
 3286TIP3   OH2 9814   6.688   4.370   1.067
 3286TIP3    H1 9815   6.781   4.368   1.091
 3286TIP3    H2 9816   6.663   4.462   1.077
 3287TIP3   OH2 9817   5.752   0.596   2.474
 3287TIP3    H1 9818   5.822   0.569   2.534
 3287TIP3    H2 9819   5.694   0.520   2.470
 3288TIP3   OH2 9820   5.331   4.073   2.651
 3288TIP3    H1 9821   5.246   4.030   2.655
 3288TIP3    H2 9822   5.340   4.117   2.735
 3289TIP3   OH2 9823   4.520   4.618   5.352
 3289TIP3    H1 9824   4.522   4.708   5.384
 3289TIP3    H2 9825   4.609   4.585   5.367
 3290TIP3   OH2 9826   7.829   0.729   1.140
 3290TIP3    H1 9827   7.892   0.740   1.211
 3290TIP3    H2 9828   7.838   0.809   1.088
 3291TIP3   OH2 9829   1.476   3.269   0.852
 3291TIP3    H1 9830   1.429   3.185   0.849
 3291TIP3    H2 9831   1.425   3.322   0.914
 3292TIP3   OH2 9832   0.028   6.676   3.760
 3292TIP3    H1 9833  -0.011   6.692   3.674
 3292TIP3    H2 9834   0.023   6.760   3.805
 3293TIP3   OH2 9835   3.381   1.571   2.794
 3293TIP3    H1 9836   3.386   1.564   2.698
 3293TIP3    H2 9837   3.294   1.540   2.816
 3294TIP3   OH2 9838   3.679   7.142   6.738
 3294TIP3    H1 9839   3.732   7.064   6.729
 3294TIP3    H2 9840   3.632   7.129   6.821
 3295TIP3   OH2 9841   6.323   0.555   5.625
 3295TIP3    H1 9842   6.288   0.546   5.537
 3295TIP3    H2 9843   6.245   0.557   5.681
 3296TIP3   OH2 9844   0.711   1.403   6.663
 3296TIP3    H1 9845   0.725   1.318   6.621
 3296TIP3    H2 9846   0.709   1.383   6.757
 3297TIP3   OH2 9847   7.620   0.098   0.399
 3297TIP3    H1 9848   7.682   0.170   0.388
 3297TIP3    H2 9849   7.572   0.120   0.480
 3298TIP3   OH2 9850   4.128   5.735   3.176
 3298TIP3    H1 9851   4.218   5.702   3.180
 3298TIP3    H2 9852   4.137   5.829   3.165
 3299TIP3   OH2 9853   2.342   5.950   5.892
 3299TIP3    H1 9854   2.306   5.862   5.886
 3299TIP3    H2 9855   2.320   5.990   5.808
 3300TIP3   OH2 9856   2.536   5.370   3.335
 3300TIP3    H1 9857   2.629   5.349   3.341
 3300TIP3    H2 9858   2.522   5.392   3.243
 3301TIP3   OH2 9859   4.532   6.809   5.812
 3301TIP3    H1 9860   4.584   6.890   5.812
 3301TIP3    H2 9861   4.470   6.821   5.740
 3302TIP3   OH2 9862   7.764   3.271   4.893
 3302TIP3    H1 9863   7.816   3.217   4.833
 3302TIP3    H2 9864   7.727   3.339   4.838
 3303TIP3   OH2 9865   4.631   6.563   2.370
 3303TIP3    H1 9866   4.708   6.512   2.347
 3303TIP3    H2 9867   4.598   6.596   2.287
 3304TIP3   OH2 9868   5.375   6.732   0.576
 3304TIP3    H1 9869   5.419   6.771   0.500
 3304TIP3    H2 9870   5.445   6.714   0.638
 3305TIP3   OH2 9871   7.047   5.075   5.100
 3305TIP3    H1 9872   7.107   5.131   5.050
 3305TIP3    H2 9873   7.078   4.986   5.083
 3306TIP3   OH2 9874   0.926   7.715   6.591
 3306TIP3    H1 9875   0.863   7.660   6.638
 3306TIP3    H2 9876   1.007   7.664   6.592
 3307TIP3   OH2 9877   0.461   3.293   1.345
 3307TIP3    H1 9878   0.455   3.199   1.330
 3307TIP3    H2 9879   0.518   3.325   1.276
 3308TIP3   OH2 9880   5.960   3.836   0.749
 3308TIP3    H1 9881   5.894   3.904   0.741
 3308TIP3    H2 9882   5.984   3.814   0.659
 3309TIP3   OH2 9883   1.945   7.288   6.621
 3309TIP3    H1 9884   1.878   7.326   6.678
 3309TIP3    H2 9885   1.905   7.284   6.535
 3310TIP3   OH2 9886   4.893   7.617   3.274
 3310TIP3    H1 9887   4.817   7.671   3.295
 3310TIP3    H2 9888   4.968   7.674   3.293
 3311TIP3   OH2 9889   2.425   2.935   5.858
 3311TIP3    H1 9890   2.357   2.934   5.791
 3311TIP3    H2 9891   2.382   2.904   5.938
 3312TIP3   OH2 9892   0.226   4.424   4.629
 3312TIP3    H1 9893   0.240   4.443   4.536
 3312TIP3    H2 9894   0.261   4.501   4.674
 3313TIP3   OH2 9895   5.306   0.787   2.652
 3313TIP3    H1 9896   5.309   0.871   2.607
 3313TIP3    H2 9897   5.277   0.808   2.741
 3314TIP3   OH2 9898   4.452   7.554   4.375
 3314TIP3    H1 9899   4.420   7.577   4.462
 3314TIP3    H2 9900   4.377   7.565   4.317
 3315TIP3   OH2 9901   6.941   5.779   1.220
 3315TIP3    H1 9902   7.004   5.764   1.150
 3315TIP3    H2 9903   6.861   5.805   1.174
 3316TIP3   OH2 9904   6.522   6.933   1.059
 3316TIP3    H1 9905   6.520   7.006   0.997
 3316TIP3    H2 9906   6.459   6.870   1.024
 3317TIP3   OH2 9907   8.193   7.079   1.980
 3317TIP3    H1 9908   8.156   7.049   1.897
 3317TIP3    H2 9909   8.286   7.058   1.975
 3318TIP3   OH2 9910   3.950   4.629   5.707
 3318TIP3    H1 9911   3.977   4.693   5.641
 3318TIP3    H2 9912   3.922   4.553   5.656
 3319TIP3   OH2 9913   2.499   3.655   0.117
 3319TIP3    H1 9914   2.541   3.638   0.201
 3319TIP3    H2 9915   2.450   3.575   0.097
 3320TIP3   OH2 9916   1.198   2.163   0.528
 3320TIP3    H1 9917   1.105   2.184   0.528
 3320TIP3    H2 9918   1.231   2.202   0.610
 3321TIP3   OH2 9919   3.388   0.429   5.894
 3321TIP3    H1 9920   3.373   0.436   5.988
 3321TIP3    H2 9921   3.483   0.425   5.885
 3322TIP3   OH2 9922   4.737   4.591   0.179
 3322TIP3    H1 9923   4.714   4.665   0.122
 3322TIP3    H2 9924   4.659   4.578   0.233
 3323TIP3   OH2 9925   4.740   5.167   1.523
 3323TIP3    H1 9926   4.726   5.218   1.603
 3323TIP3    H2 9927   4.792   5.224   1.467
 3324TIP3   OH2 9928   2.776   3.769   1.272
 3324TIP3    H1 9929   2.799   3.795   1.183
 3324TIP3    H2 9930   2.808   3.679   1.280
 3325TIP3   OH2 9931   1.458   3.133   4.166
 3325TIP3    H1 9932   1.456   3.219   4.124
 3325TIP3    H2 9933   1.548   3.123   4.197
 3326TIP3   OH2 9934   0.989   6.447   0.038
 3326TIP3    H1 9935   0.980   6.362  -0.006
 3326TIP3    H2 9936   1.081   6.470   0.029
 3327TIP3   OH2 9937   7.314   2.425   1.675
 3327TIP3    H1 9938   7.331   2.519   1.677
 3327TIP3    H2 9939   7.357   2.391   1.754
 3328TIP3   OH2 9940   7.667   6.150   4.411
 3328TIP3    H1 9941   7.611   6.103   4.473
 3328TIP3    H2 9942   7.633   6.240   4.412
 3329TIP3   OH2 9943   4.087   1.119   1.332
 3329TIP3    H1 9944   3.993   1.108   1.346
 3329TIP3    H2 9945   4.103   1.083   1.245
 3330TIP3   OH2 9946   3.297   2.040   5.444
 3330TIP3    H1 9947   3.331   2.066   5.358
 3330TIP3    H2 9948   3.340   1.957   5.463
 3331TIP3   OH2 9949   1.324   2.544   5.559
 3331TIP3    H1 9950   1.302   2.603   5.487
 3331TIP3    H2 9951   1.275   2.577   5.634
 3332TIP3   OH2 9952   0.192   1.842   5.359
 3332TIP3    H1 9953   0.204   1.756   5.319
 3332TIP3    H2 9954   0.218   1.831   5.450
 3333TIP3   OH2 9955   3.650   3.548   3.219
 3333TIP3    H1 9956   3.643   3.479   3.153
 3333TIP3    H2 9957   3.576   3.606   3.201
 3334TIP3   OH2 9958   3.453   3.539   1.222
 3334TIP3    H1 9959   3.384   3.544   1.288
 3334TIP3    H2 9960   3.515   3.475   1.257
 3335TIP3   OH2 9961   1.533   4.583   5.671
 3335TIP3    H1 9962   1.513   4.621   5.756
 3335TIP3    H2 9963   1.528   4.489   5.684
 3336TIP3   OH2 9964   0.783   3.555   2.922
 3336TIP3    H1 9965   0.772   3.473   2.874
 3336TIP3    H2 9966   0.848   3.535   2.990
 3337TIP3   OH2 9967   1.370   0.581   1.416
 3337TIP3    H1 9968   1.357   0.662   1.465
 3337TIP3    H2 9969   1.407   0.520   1.479
 3338TIP3   OH2 9970   5.318   7.328   1.564
 3338TIP3    H1 9971   5.280   7.259   1.509
 3338TIP3    H2 9972   5.365   7.280   1.633
 3339TIP3   OH2 9973   0.323   7.401   0.885
 3339TIP3    H1 9974   0.378   7.477   0.905
 3339TIP3    H2 9975   0.291   7.372   0.970
 3340TIP3   OH2 9976   3.484   5.259   4.802
 3340TIP3    H1 9977   3.435   5.216   4.872
 3340TIP3    H2 9978   3.418   5.283   4.737
 3341TIP3   OH2 9979   1.769   3.824   0.077
 3341TIP3    H1 9980   1.690   3.774   0.096
 3341TIP3    H2 9981   1.839   3.777   0.123
 3342TIP3   OH2 9982   1.179   4.201   2.881
 3342TIP3    H1 9983   1.210   4.254   2.954
 3342TIP3    H2 9984   1.115   4.141   2.919
 3343TIP3   OH2 9985   7.084   4.420   1.528
 3343TIP3    H1 9986   7.002   4.376   1.549
 3343TIP3    H2 9987   7.117   4.373   1.451
 3344TIP3   OH2 9988   4.866   3.967   2.861
 3344TIP3    H1 9989   4.823   3.882   2.871
 3344TIP3    H2 9990   4.794   4.030   2.862
 3345TIP3   OH2 9991   5.766   1.167   0.633
 3345TIP3    H1 9992   5.860   1.183   0.647
 3345TIP3    H2 9993   5.729   1.166   0.721
 3346TIP3   OH2 9994   3.285   5.375   4.036
 3346TIP3    H1 9995   3.206   5.413   3.998
 3346TIP3    H2 9996   3.263   5.358   4.127
 3347TIP3   OH2 9997   1.719   4.697   2.787
 3347TIP3    H1 9998   1.648   4.713   2.725
 3347TIP3    H2 9999   1.777   4.772   2.777
 3348TIP3   OH210000   2.075   4.275   4.111
 3348TIP3    H110001   2.166   4.246   4.112
 3348TIP3    H210002   2.033   4.220   4.044
 3349TIP3   OH210003   4.724   6.584   1.061
 3349TIP3    H110004   4.641   6.556   1.101
 3349TIP3    H210005   4.787   6.518   1.088
 3350TIP3   OH210006   7.624   4.592   3.514
 3350TIP3    H110007   7.545   4.550   3.548
 3350TIP3    H210008   7.688   4.521   3.506
 3351TIP3   OH210009   3.226   0.927   5.048
 3351TIP3    H110010   3.246   0.844   5.005
 3351TIP3    H210011   3.130   0.928   5.054
 3352TIP3   OH210012   8.237   1.182   5.894
 3352TIP3    H110013   8.321   1.163   5.935
 3352TIP3    H210014   8.192   1.098   5.890
 3353TIP3   OH210015   7.992   7.291   3.909
 3353TIP3    H110016   8.003   7.261   3.818
 3353TIP3    H210017   7.898   7.285   3.925
 3354TIP3   OH210018   7.036   0.137   1.988
 3354TIP3    H110019   6.956   0.109   1.942
 3354TIP3    H210020   7.107   0.093   1.941
 3355TIP3   OH210021   0.476   7.727   2.485
 3355TIP3    H110022   0.399   7.671   2.471
 3355TIP3    H210023   0.448   7.813   2.454
 3356TIP3   OH210024   6.531   1.457   3.314
 3356TIP3    H110025   6.472   1.497   3.378
 3356TIP3    H210026   6.616   1.454   3.357
 3357TIP3   OH210027   4.830   7.728   3.973
 3357TIP3    H110028   4.754   7.733   3.914
 3357TIP3    H210029   4.904   7.754   3.918
 3358TIP3   OH210030   6.579   2.237   0.064
 3358TIP3    H110031   6.528   2.299   0.117
 3358TIP3    H210032   6.670   2.257   0.086
 3359TIP3   OH210033   7.188   4.920   4.188
 3359TIP3    H110034   7.185   4.959   4.101
 3359TIP3    H210035   7.223   4.832   4.174
 3360TIP3   OH210036   3.512   6.141   5.594
 3360TIP3    H110037   3.532   6.123   5.686
 3360TIP3    H210038   3.586   6.105   5.546
 3361TIP3   OH210039   3.086   1.628   2.880
 3361TIP3    H110040   3.042   1.656   2.799
 3361TIP3    H210041   3.014   1.602   2.938
 3362TIP3   OH210042   1.914   3.000   0.819
 3362TIP3    H110043   2.004   2.993   0.853
 3362TIP3    H210044   1.924   3.044   0.735
 3363TIP3   OH210045   2.997   5.609   6.666
 3363TIP3    H110046   3.007   5.563   6.583
 3363TIP3    H210047   3.081   5.598   6.710
 3364TIP3   OH210048   0.424   2.019   4.325
 3364TIP3    H110049   0.450   1.929   4.347
 3364TIP3    H210050   0.347   2.009   4.269
 3365TIP3   OH210051   1.982   2.583   5.646
 3365TIP3    H110052   1.932   2.664   5.649
 3365TIP3    H210053   1.973   2.546   5.734
 3366TIP3   OH210054   3.983   7.415   0.853
 3366TIP3    H110055   4.002   7.495   0.805
 3366TIP3    H210056   3.888   7.416   0.866
 3367TIP3   OH210057   2.257   4.169   0.260
 3367TIP3    H110058   2.216   4.239   0.210
 3367TIP3    H210059   2.273   4.100   0.196
 3368TIP3   OH210060   3.486   7.359   6.599
 3368TIP3    H110061   3.446   7.400   6.676
 3368TIP3    H210062   3.440   7.397   6.524
 3369TIP3   OH210063   0.840   1.266   6.288
 3369TIP3    H110064   0.861   1.203   6.357
 3369TIP3    H210065   0.850   1.216   6.206
 3370TIP3   OH210066   1.165   7.595   6.611
 3370TIP3    H110067   1.140   7.521   6.667
 3370TIP3    H210068   1.221   7.556   6.544
 3371TIP3   OH210069   5.475   0.934   6.341
 3371TIP3    H110070   5.441   1.008   6.391
 3371TIP3    H210071   5.397   0.883   6.317
 3372TIP3   OH210072   2.697   1.453   0.650
 3372TIP3    H110073   2.644   1.387   0.605
 3372TIP3    H210074   2.675   1.444   0.742
 3373TIP3   OH210075   6.905   5.362   5.923
 3373TIP3    H110076   6.978   5.424   5.913
 3373TIP3    H210077   6.938   5.281   5.883
 3374TIP3   OH210078   3.950   0.154   3.358
 3374TIP3    H110079   4.012   0.222   3.384
 3374TIP3    H210080   3.998   0.099   3.296
 3375TIP3   OH210081   5.460   6.427   3.529
 3375TIP3    H110082   5.446   6.334   3.542
 3375TIP3    H210083   5.555   6.436   3.521
 3376TIP3   OH210084   6.674   0.141   3.169
 3376TIP3    H110085   6.746   0.130   3.231
 3376TIP3    H210086   6.709   0.109   3.086
 3377TIP3   OH210087   7.171   1.540   2.044
 3377TIP3    H110088   7.175   1.490   1.963
 3377TIP3    H210089   7.131   1.624   2.018
 3378TIP3   OH210090   6.280   3.062   4.091
 3378TIP3    H110091   6.202   3.014   4.119
 3378TIP3    H210092   6.260   3.091   4.002
 3379TIP3   OH210093   2.659   1.649   6.760
 3379TIP3    H110094   2.732   1.710   6.757
 3379TIP3    H210095   2.591   1.689   6.705
 3380TIP3   OH210096   2.528   4.747   6.413
 3380TIP3    H110097   2.459   4.700   6.460
 3380TIP3    H210098   2.579   4.678   6.371
 3381TIP3   OH210099   1.933   3.729   3.780
 3381TIP3    H110100   1.935   3.822   3.800
 3381TIP3    H210101   1.925   3.686   3.866
 3382TIP3   OH210102   1.212   1.194   6.329
 3382TIP3    H110103   1.147   1.158   6.389
 3382TIP3    H210104   1.247   1.271   6.374
 3383TIP3   OH210105   1.395   7.712   0.865
 3383TIP3    H110106   1.319   7.731   0.810
 3383TIP3    H210107   1.395   7.783   0.930
 3384TIP3   OH210108   5.092   5.647   2.446
 3384TIP3    H110109   5.108   5.723   2.389
 3384TIP3    H210110   5.178   5.629   2.486
 3385TIP3   OH210111   5.242   5.883   5.349
 3385TIP3    H110112   5.328   5.853   5.320
 3385TIP3    H210113   5.261   5.958   5.406
 3386TIP3   OH210114   4.552   3.394   5.623
 3386TIP3    H110115   4.645   3.380   5.603
 3386TIP3    H210116   4.549   3.478   5.669
 3387TIP3   OH210117   4.784   1.121   4.896
 3387TIP3    H110118   4.762   1.113   4.803
 3387TIP3    H210119   4.875   1.091   4.901
 3388TIP3   OH210120   3.107   1.449   2.607
 3388TIP3    H110121   3.149   1.395   2.540
 3388TIP3    H210122   3.142   1.537   2.592
 3389TIP3   OH210123   1.288   1.592   5.322
 3389TIP3    H110124   1.365   1.628   5.364
 3389TIP3    H210125   1.254   1.527   5.384
 3390TIP3   OH210126   2.395   3.955   2.021
 3390TIP3    H110127   2.310   3.913   2.032
 3390TIP3    H210128   2.410   3.955   1.926
 3391TIP3   OH210129   3.041   6.983   5.112
 3391TIP3    H110130   3.114   7.039   5.086
 3391TIP3    H210131   3.082   6.905   5.148
 3392TIP3   OH210132   5.665   0.132   2.386
 3392TIP3    H110133   5.601   0.202   2.395
 3392TIP3    H210134   5.637   0.082   2.309
 3393TIP3   OH210135   2.071   7.353   6.339
 3393TIP3    H110136   2.055   7.277   6.282
 3393TIP3    H210137   2.149   7.329   6.389
 3394TIP3   OH210138   6.588   3.135   4.143
 3394TIP3    H110139   6.645   3.107   4.071
 3394TIP3    H210140   6.500   3.135   4.105
 3395TIP3   OH210141   3.076   4.947   1.941
 3395TIP3    H110142   3.124   5.017   1.985
 3395TIP3    H210143   3.069   4.878   2.007
 3396TIP3   OH210144   7.972   4.840   1.454
 3396TIP3    H110145   7.998   4.823   1.364
 3396TIP3    H210146   7.877   4.843   1.452
 3397TIP3   OH210147   7.522   1.888   6.716
 3397TIP3    H110148   7.544   1.878   6.623
 3397TIP3    H210149   7.558   1.809   6.757
 3398TIP3   OH210150   3.549   3.833   5.162
 3398TIP3    H110151   3.542   3.738   5.157
 3398TIP3    H210152   3.638   3.849   5.193
 3399TIP3   OH210153   5.153   7.075   0.822
 3399TIP3    H110154   5.132   7.152   0.769
 3399TIP3    H210155   5.087   7.010   0.795
 3400TIP3   OH210156   2.666   3.248   1.164
 3400TIP3    H110157   2.669   3.166   1.214
 3400TIP3    H210158   2.673   3.222   1.073
 3401TIP3   OH210159   3.772   4.832   1.439
 3401TIP3    H110160   3.757   4.752   1.489
 3401TIP3    H210161   3.743   4.903   1.497
 3402TIP3   OH210162   7.515   3.576   5.572
 3402TIP3    H110163   7.509   3.618   5.487
 3402TIP3    H210164   7.518   3.648   5.635
 3403TIP3   OH210165   6.234   7.741   4.532
 3403TIP3    H110166   6.148   7.702   4.519
 3403TIP3    H210167   6.284   7.718   4.453
 3404TIP3   OH210168   1.290   1.297   5.429
 3404TIP3    H110169   1.240   1.222   5.464
 3404TIP3    H210170   1.327   1.264   5.347
 3405TIP3   OH210171   5.706   5.753   3.078
 3405TIP3    H110172   5.642   5.824   3.066
 3405TIP3    H210173   5.745   5.742   2.992
 3406TIP3   OH210174   7.921   7.566   6.156
 3406TIP3    H110175   7.922   7.581   6.061
 3406TIP3    H210176   7.893   7.476   6.167
 3407TIP3   OH210177   1.960   4.195   6.193
 3407TIP3    H110178   1.868   4.183   6.213
 3407TIP3    H210179   1.979   4.129   6.125
 3408TIP3   OH210180   2.920   3.768   4.874
 3408TIP3    H110181   2.876   3.728   4.949
 3408TIP3    H210182   2.850   3.811   4.825
 3409TIP3   OH210183   1.561   7.238   5.583
 3409TIP3    H110184   1.512   7.277   5.655
 3409TIP3    H210185   1.591   7.154   5.617
 3410TIP3   OH210186   4.726   7.770   1.678
 3410TIP3    H110187   4.681   7.721   1.609
 3410TIP3    H210188   4.662   7.835   1.707
 3411TIP3   OH210189   3.355   5.081   4.993
 3411TIP3    H110190   3.311   5.135   5.059
 3411TIP3    H210191   3.286   5.052   4.934
 3412TIP3   OH210192   7.656   0.823   1.806
 3412TIP3    H110193   7.722   0.882   1.844
 3412TIP3    H210194   7.595   0.806   1.878
 3413TIP3   OH210195   7.379  -0.011   2.861
 3413TIP3    H110196   7.466  -0.047   2.845
 3413TIP3    H210197   7.395   0.077   2.895
 3414TIP3   OH210198   5.241   7.055   5.941
 3414TIP3    H110199   5.263   6.964   5.919
 3414TIP3    H210200   5.273   7.106   5.867
 3415TIP3   OH210201   2.305   3.058   5.416
 3415TIP3    H110202   2.378   3.024   5.468
 3415TIP3    H210203   2.335   3.051   5.325
 3416TIP3   OH210204   1.037   5.217   2.850
 3416TIP3    H110205   1.076   5.211   2.937
 3416TIP3    H210206   1.010   5.309   2.842
 3417TIP3   OH210207   7.762   6.183   2.152
 3417TIP3    H110208   7.790   6.091   2.157
 3417TIP3    H210209   7.841   6.232   2.175
 3418TIP3   OH210210   2.713   2.802   4.211
 3418TIP3    H110211   2.779   2.780   4.146
 3418TIP3    H210212   2.752   2.778   4.295
 3419TIP3   OH210213   4.042   0.154   5.500
 3419TIP3    H110214   4.079   0.090   5.560
 3419TIP3    H210215   3.983   0.207   5.554
 3420TIP3   OH210216   4.221   3.260   3.277
 3420TIP3    H110217   4.231   3.347   3.313
 3420TIP3    H210218   4.285   3.256   3.206
 3421TIP3   OH210219   8.305   1.949   6.746
 3421TIP3    H110220   8.250   1.891   6.800
 3421TIP3    H210221   8.250   2.026   6.730
 3422TIP3   OH210222   3.804   1.278   0.846
 3422TIP3    H110223   3.837   1.337   0.915
 3422TIP3    H210224   3.720   1.317   0.820
 3423TIP3   OH210225   0.475   1.508   4.053
 3423TIP3    H110226   0.476   1.414   4.037
 3423TIP3    H210227   0.502   1.548   3.970
 3424TIP3   OH210228   4.696   3.640   5.428
 3424TIP3    H110229   4.673   3.549   5.410
 3424TIP3    H210230   4.764   3.635   5.496
 3425TIP3   OH210231   6.940   4.270   2.283
 3425TIP3    H110232   6.997   4.210   2.331
 3425TIP3    H210233   6.978   4.277   2.196
 3426TIP3   OH210234   4.229   3.834   3.345
 3426TIP3    H110235   4.237   3.913   3.291
 3426TIP3    H210236   4.208   3.867   3.433
 3427TIP3   OH210237   2.358   1.046   2.598
 3427TIP3    H110238   2.396   0.971   2.645
 3427TIP3    H210239   2.267   1.049   2.627
 3428TIP3   OH210240   3.442   5.096   3.977
 3428TIP3    H110241   3.404   5.184   3.981
 3428TIP3    H210242   3.387   5.050   3.913
 3429TIP3   OH210243   4.921   0.204   4.772
 3429TIP3    H110244   4.833   0.188   4.806
 3429TIP3    H210245   4.945   0.290   4.806
 3430TIP3   OH210246   2.240   0.860   0.796
 3430TIP3    H110247   2.193   0.920   0.738
 3430TIP3    H210248   2.214   0.886   0.884
 3431TIP3   OH210249   7.187   5.244   4.362
 3431TIP3    H110250   7.253   5.205   4.420
 3431TIP3    H210251   7.152   5.169   4.313
 3432TIP3   OH210252   7.434   5.461   0.830
 3432TIP3    H110253   7.507   5.417   0.874
 3432TIP3    H210254   7.435   5.426   0.741
 3433TIP3   OH210255   3.405   5.624   4.129
 3433TIP3    H110256   3.389   5.555   4.064
 3433TIP3    H210257   3.366   5.590   4.210
 3434TIP3   OH210258   4.052   5.197   0.649
 3434TIP3    H110259   4.144   5.224   0.647
 3434TIP3    H210260   4.015   5.233   0.568
 3435TIP3   OH210261   3.019   5.697   1.291
 3435TIP3    H110262   2.926   5.672   1.298
 3435TIP3    H210263   3.060   5.656   1.367
 3436TIP3   OH210264   0.600   7.142   1.363
 3436TIP3    H110265   0.692   7.153   1.386
 3436TIP3    H210266   0.570   7.069   1.417
 3437TIP3   OH210267   4.607   4.431   3.020
 3437TIP3    H110268   4.585   4.501   2.959
 3437TIP3    H210269   4.538   4.436   3.087
 3438TIP3   OH210270   2.023   1.122   1.827
 3438TIP3    H110271   2.066   1.073   1.756
 3438TIP3    H210272   2.065   1.089   1.907
 3439TIP3   OH210273   0.323   6.313   0.423
 3439TIP3    H110274   0.239   6.269   0.433
 3439TIP3    H210275   0.301   6.406   0.426
 3440TIP3   OH210276   3.163   6.629   1.044
 3440TIP3    H110277   3.070   6.651   1.048
 3440TIP3    H210278   3.201   6.698   0.990
 3441TIP3   OH210279   2.626   2.442   2.465
 3441TIP3    H110280   2.592   2.356   2.442
 3441TIP3    H210281   2.548   2.496   2.478
 3442TIP3   OH210282   8.261   2.509   0.117
 3442TIP3    H110283   8.192   2.453   0.081
 3442TIP3    H210284   8.317   2.450   0.167
 3443TIP3   OH210285   1.733   6.438   0.226
 3443TIP3    H110286   1.746   6.356   0.274
 3443TIP3    H210287   1.821   6.463   0.198
 3444TIP3   OH210288   0.809   2.556   4.648
 3444TIP3    H110289   0.794   2.487   4.713
 3444TIP3    H210290   0.785   2.516   4.565
 3445TIP3   OH210291   2.868   5.545   4.216
 3445TIP3    H110292   2.801   5.602   4.256
 3445TIP3    H210293   2.912   5.504   4.291
 3446TIP3   OH210294   1.720   5.896   5.542
 3446TIP3    H110295   1.766   5.889   5.458
 3446TIP3    H210296   1.631   5.920   5.519
 3447TIP3   OH210297   4.511   3.943   1.863
 3447TIP3    H110298   4.586   3.989   1.827
 3447TIP3    H210299   4.542   3.853   1.877
 3448TIP3   OH210300   7.007   3.147   5.931
 3448TIP3    H110301   6.944   3.219   5.928
 3448TIP3    H210302   7.071   3.174   5.997
 3449TIP3   OH210303   7.536   5.593   4.785
 3449TIP3    H110304   7.505   5.667   4.732
 3449TIP3    H210305   7.472   5.524   4.768
 3450TIP3   OH210306   4.060   1.177   1.837
 3450TIP3    H110307   3.967   1.192   1.824
 3450TIP3    H210308   4.066   1.087   1.871
 3451TIP3   OH210309   2.594   2.075   5.832
 3451TIP3    H110310   2.501   2.093   5.814
 3451TIP3    H210311   2.635   2.075   5.745
 3452TIP3   OH210312   5.661   7.160   1.042
 3452TIP3    H110313   5.611   7.083   1.071
 3452TIP3    H210314   5.675   7.145   0.948
 3453TIP3   OH210315   7.141   0.239   3.708
 3453TIP3    H110316   7.135   0.227   3.803
 3453TIP3    H210317   7.101   0.325   3.692
 3454TIP3   OH210318   1.925   3.677   4.618
 3454TIP3    H110319   1.999   3.733   4.593
 3454TIP3    H210320   1.953   3.635   4.699
 3455TIP3   OH210321   2.541   2.624   2.856
 3455TIP3    H110322   2.514   2.625   2.948
 3455TIP3    H210323   2.465   2.653   2.807
 3456TIP3   OH210324   1.147   6.468   1.941
 3456TIP3    H110325   1.174   6.530   2.009
 3456TIP3    H210326   1.213   6.399   1.944
 3457TIP3   OH210327   3.203   5.877   6.331
 3457TIP3    H110328   3.248   5.878   6.246
 3457TIP3    H210329   3.180   5.786   6.346
 3458TIP3   OH210330   3.520   6.922   6.591
 3458TIP3    H110331   3.448   6.945   6.650
 3458TIP3    H210332   3.599   6.935   6.643
 3459TIP3   OH210333   3.852   7.524   2.038
 3459TIP3    H110334   3.779   7.503   1.980
 3459TIP3    H210335   3.840   7.617   2.058
 3460TIP3   OH210336   7.741   5.507   6.283
 3460TIP3    H110337   7.763   5.485   6.193
 3460TIP3    H210338   7.671   5.572   6.276
 3461TIP3   OH210339   6.496   7.433   1.470
 3461TIP3    H110340   6.434   7.369   1.504
 3461TIP3    H210341   6.538   7.469   1.548
 3462TIP3   OH210342   3.233   0.247   3.639
 3462TIP3    H110343   3.231   0.165   3.688
 3462TIP3    H210344   3.299   0.300   3.684
 3463TIP3   OH210345   4.943   4.717   1.558
 3463TIP3    H110346   4.911   4.768   1.632
 3463TIP3    H210347   4.878   4.647   1.546
 3464TIP3   OH210348   2.380   2.070   1.601
 3464TIP3    H110349   2.353   2.081   1.692
 3464TIP3    H210350   2.399   2.158   1.570
 3465TIP3   OH210351   1.274   7.741   2.181
 3465TIP3    H110352   1.351   7.783   2.141
 3465TIP3    H210353   1.227   7.813   2.223
 3466TIP3   OH210354   1.435   3.969   4.979
 3466TIP3    H110355   1.391   3.971   5.064
 3466TIP3    H210356   1.383   3.909   4.926
 3467TIP3   OH210357   7.943   2.271   4.337
 3467TIP3    H110358   7.875   2.240   4.395
 3467TIP3    H210359   8.009   2.309   4.395
 3468TIP3   OH210360   6.392   5.457   4.503
 3468TIP3    H110361   6.343   5.387   4.460
 3468TIP3    H210362   6.474   5.415   4.531
 3469TIP3   OH210363   1.161   7.195   0.680
 3469TIP3    H110364   1.222   7.267   0.663
 3469TIP3    H210365   1.114   7.184   0.598
 3470TIP3   OH210366   3.806   4.354   5.236
 3470TIP3    H110367   3.720   4.312   5.236
 3470TIP3    H210368   3.833   4.356   5.144
 3471TIP3   OH210369   2.044   7.779   0.610
 3471TIP3    H110370   2.059   7.775   0.705
 3471TIP3    H210371   2.045   7.873   0.590
 3472TIP3   OH210372   2.207   2.116   4.325
 3472TIP3    H110373   2.130   2.124   4.381
 3472TIP3    H210374   2.264   2.189   4.352
 3473TIP3   OH210375   6.011   1.312   2.825
 3473TIP3    H110376   5.998   1.358   2.908
 3473TIP3    H210377   5.941   1.247   2.823
 3474TIP3   OH210378   5.788   4.075   5.595
 3474TIP3    H110379   5.768   4.136   5.523
 3474TIP3    H210380   5.877   4.045   5.578
 3475TIP3   OH210381   4.543   5.793   1.951
 3475TIP3    H110382   4.482   5.803   2.025
 3475TIP3    H210383   4.548   5.698   1.938
 3476TIP3   OH210384   6.047   1.622   0.661
 3476TIP3    H110385   6.123   1.649   0.713
 3476TIP3    H210386   6.077   1.548   0.609
 3477TIP3   OH210387   6.959   6.988   3.298
 3477TIP3    H110388   6.887   6.957   3.242
 3477TIP3    H210389   6.944   7.082   3.306
 3478TIP3   OH210390   6.915   2.714   5.411
 3478TIP3    H110391   6.957   2.767   5.478
 3478TIP3    H210392   6.855   2.774   5.367
 3479TIP3   OH210393   7.048   1.903   3.990
 3479TIP3    H110394   7.024   1.987   3.951
 3479TIP3    H210395   7.118   1.869   3.933
 3480TIP3   OH210396   2.051   1.961   5.864
 3480TIP3    H110397   2.006   2.018   5.927
 3480TIP3    H210398   2.090   1.892   5.919
 3481TIP3   OH210399   5.906   7.677   5.132
 3481TIP3    H110400   5.910   7.770   5.153
 3481TIP3    H210401   5.836   7.671   5.067
 3482TIP3   OH210402   2.800   6.722   2.764
 3482TIP3    H110403   2.847   6.639   2.762
 3482TIP3    H210404   2.758   6.728   2.678
 3483TIP3   OH210405   5.602   6.568   6.625
 3483TIP3    H110406   5.592   6.646   6.679
 3483TIP3    H210407   5.568   6.497   6.678
 3484TIP3   OH210408   3.256   4.071   3.675
 3484TIP3    H110409   3.258   4.018   3.755
 3484TIP3    H210410   3.343   4.108   3.668
 3485TIP3   OH210411   4.613   4.090   2.728
 3485TIP3    H110412   4.521   4.112   2.716
 3485TIP3    H210413   4.618   3.997   2.709
 3486TIP3   OH210414   3.348   3.708   1.864
 3486TIP3    H110415   3.262   3.688   1.901
 3486TIP3    H210416   3.354   3.654   1.785
 3487TIP3   OH210417   7.238   0.818   6.586
 3487TIP3    H110418   7.231   0.750   6.652
 3487TIP3    H210419   7.227   0.772   6.502
 3488TIP3   OH210420   5.216   7.505   3.122
 3488TIP3    H110421   5.178   7.473   3.204
 3488TIP3    H210422   5.277   7.574   3.149
 3489TIP3   OH210423   0.458   6.972   0.274
 3489TIP3    H110424   0.401   6.935   0.207
 3489TIP3    H210425   0.457   6.908   0.345
 3490TIP3   OH210426   3.709   1.906   2.538
 3490TIP3    H110427   3.635   1.860   2.500
 3490TIP3    H210428   3.760   1.935   2.462
 3491TIP3   OH210429   2.244   1.603   2.547
 3491TIP3    H110430   2.255   1.508   2.554
 3491TIP3    H210431   2.200   1.627   2.629
 3492TIP3   OH210432   4.299   2.489   0.867
 3492TIP3    H110433   4.362   2.502   0.796
 3492TIP3    H210434   4.345   2.518   0.946
 3493TIP3   OH210435   6.792   4.714   1.855
 3493TIP3    H110436   6.733   4.692   1.782
 3493TIP3    H210437   6.871   4.747   1.813
 3494TIP3   OH210438   2.642   0.318   4.116
 3494TIP3    H110439   2.732   0.344   4.098
 3494TIP3    H210440   2.625   0.351   4.204
 3495TIP3   OH210441   0.712   3.902   5.640
 3495TIP3    H110442   0.702   3.958   5.563
 3495TIP3    H210443   0.800   3.923   5.673
 3496TIP3   OH210444   8.190   2.660   4.661
 3496TIP3    H110445   8.127   2.662   4.589
 3496TIP3    H210446   8.162   2.586   4.715
 3497TIP3   OH210447   7.304   6.060   4.845
 3497TIP3    H110448   7.252   6.129   4.885
 3497TIP3    H210449   7.348   6.017   4.919
 3498TIP3   OH210450   3.586   0.315   5.420
 3498TIP3    H110451   3.589   0.243   5.483
 3498TIP3    H210452   3.493   0.337   5.413
 3499TIP3   OH210453   7.999   4.547   0.935
 3499TIP3    H110454   8.093   4.556   0.951
 3499TIP3    H210455   7.993   4.484   0.863
 3500TIP3   OH210456   2.499   4.955   3.438
 3500TIP3    H110457   2.549   4.966   3.519
 3500TIP3    H210458   2.472   4.863   3.438
 3501TIP3   OH210459   3.950   6.348   2.556
 3501TIP3    H110460   3.903   6.282   2.607
 3501TIP3    H210461   3.881   6.405   2.521
 3502TIP3   OH210462   7.927   5.620   1.852
 3502TIP3    H110463   7.960   5.538   1.888
 3502TIP3    H210464   8.004   5.663   1.815
 3503TIP3   OH210465   8.165   4.320   2.497
 3503TIP3    H110466   8.251   4.354   2.475
 3503TIP3    H210467   8.173   4.291   2.588
 3504TIP3   OH210468   2.081   6.668   5.447
 3504TIP3    H110469   2.083   6.735   5.514
 3504TIP3    H210470   2.169   6.669   5.409
 3505TIP3   OH210471   0.577   0.603   2.395
 3505TIP3    H110472   0.599   0.674   2.456
 3505TIP3    H210473   0.490   0.625   2.363
 3506TIP3   OH210474   2.133   4.967   0.691
 3506TIP3    H110475   2.180   4.955   0.609
 3506TIP3    H210476   2.077   5.043   0.676
 3507TIP3   OH210477   3.161   7.525   1.996
 3507TIP3    H110478   3.108   7.446   1.986
 3507TIP3    H210479   3.105   7.585   2.045
 3508TIP3   OH210480   5.016   1.978   5.462
 3508TIP3    H110481   4.947   1.949   5.402
 3508TIP3    H210482   5.061   2.047   5.413
 3509TIP3   OH210483   6.535   6.622   0.264
 3509TIP3    H110484   6.533   6.673   0.183
 3509TIP3    H210485   6.591   6.673   0.322
 3510TIP3   OH210486   4.715   6.009   4.412
 3510TIP3    H110487   4.652   5.957   4.362
 3510TIP3    H210488   4.671   6.025   4.496
 3511TIP3   OH210489   1.315   0.921   0.895
 3511TIP3    H110490   1.351   0.834   0.908
 3511TIP3    H210491   1.235   0.922   0.948
 3512TIP3   OH210492   7.840   5.112   6.748
 3512TIP3    H110493   7.884   5.139   6.668
 3512TIP3    H210494   7.888   5.035   6.778
 3513TIP3   OH210495   5.321   2.993   6.657
 3513TIP3    H110496   5.329   2.993   6.753
 3513TIP3    H210497   5.380   3.063   6.628
 3514TIP3   OH210498   4.213   1.490   3.436
 3514TIP3    H110499   4.124   1.521   3.452
 3514TIP3    H210500   4.240   1.450   3.518
 3515TIP3   OH210501   0.536   6.600   0.618
 3515TIP3    H110502   0.609   6.549   0.584
 3515TIP3    H210503   0.540   6.589   0.713
 3516TIP3   OH210504   1.370   4.780   5.217
 3516TIP3    H110505   1.406   4.797   5.304
 3516TIP3    H210506   1.361   4.685   5.213
 3517TIP3   OH210507   7.459   2.237   3.907
 3517TIP3    H110508   7.478   2.314   3.961
 3517TIP3    H210509   7.450   2.271   3.818
 3518TIP3   OH210510   6.558   3.664   6.624
 3518TIP3    H110511   6.547   3.574   6.654
 3518TIP3    H210512   6.558   3.717   6.704
 3519TIP3   OH210513   5.533   3.670   5.375
 3519TIP3    H110514   5.581   3.665   5.458
 3519TIP3    H210515   5.495   3.758   5.375
 3520TIP3   OH210516   8.073   5.641   5.266
 3520TIP3    H110517   8.079   5.647   5.361
 3520TIP3    H210518   8.161   5.665   5.235
 3521TIP3   OH210519   3.868   7.553   3.100
 3521TIP3    H110520   3.955   7.516   3.113
 3521TIP3    H210521   3.846   7.532   3.009
 3522TIP3   OH210522   0.026   4.125   1.529
 3522TIP3    H110523   0.095   4.077   1.483
 3522TIP3    H210524  -0.003   4.191   1.466
 3523TIP3   OH210525   4.446   7.751   1.024
 3523TIP3    H110526   4.524   7.733   1.077
 3523TIP3    H210527   4.404   7.825   1.068
 3524TIP3   OH210528   2.522   0.879   6.521
 3524TIP3    H110529   2.466   0.863   6.445
 3524TIP3    H210530   2.461   0.909   6.589
 3525TIP3   OH210531   3.194   4.618   6.614
 3525TIP3    H110532   3.248   4.596   6.538
 3525TIP3    H210533   3.207   4.712   6.627
 3526TIP3   OH210534   7.559   4.973   4.762
 3526TIP3    H110535   7.496   4.994   4.831
 3526TIP3    H210536   7.540   4.882   4.740
 3527TIP3   OH210537   4.964   6.899   0.685
 3527TIP3    H110538   5.007   6.843   0.620
 3527TIP3    H210539   4.920   6.837   0.744
 3528TIP3   OH210540   0.512   5.809   1.072
 3528TIP3    H110541   0.457   5.820   1.150
 3528TIP3    H210542   0.522   5.714   1.063
 3529TIP3   OH210543   4.845   5.910   3.767
 3529TIP3    H110544   4.768   5.910   3.824
 3529TIP3    H210545   4.880   5.821   3.773
 3530TIP3   OH210546   1.789   2.867   1.381
 3530TIP3    H110547   1.832   2.919   1.313
 3530TIP3    H210548   1.832   2.782   1.378
 3531TIP3   OH210549   1.819   5.722   1.280
 3531TIP3    H110550   1.889   5.726   1.346
 3531TIP3    H210551   1.740   5.748   1.328
 3532TIP3   OH210552   5.792   6.924   2.342
 3532TIP3    H110553   5.853   6.997   2.330
 3532TIP3    H210554   5.783   6.915   2.436
 3533TIP3   OH210555   5.258   5.176   0.463
 3533TIP3    H110556   5.287   5.259   0.424
 3533TIP3    H210557   5.246   5.197   0.556
 3534TIP3   OH210558   1.647   1.958   6.285
 3534TIP3    H110559   1.707   2.031   6.270
 3534TIP3    H210560   1.672   1.892   6.222
 3535TIP3   OH210561   5.551   0.823   0.413
 3535TIP3    H110562   5.624   0.771   0.446
 3535TIP3    H210563   5.587   0.911   0.403
 3536TIP3   OH210564   4.705   4.339   3.987
 3536TIP3    H110565   4.745   4.259   3.953
 3536TIP3    H210566   4.779   4.394   4.012
 3537TIP3   OH210567   6.290   1.947   1.063
 3537TIP3    H110568   6.212   2.004   1.064
 3537TIP3    H210569   6.257   1.861   1.088
 3538TIP3   OH210570   6.199   0.123   4.134
 3538TIP3    H110571   6.115   0.084   4.110
 3538TIP3    H210572   6.264   0.057   4.110
 3539TIP3   OH210573   3.611   2.782   1.048
 3539TIP3    H110574   3.590   2.871   1.021
 3539TIP3    H210575   3.573   2.726   0.980
 3540TIP3   OH210576   6.394   1.330   4.165
 3540TIP3    H110577   6.325   1.265   4.175
 3540TIP3    H210578   6.390   1.383   4.244
 3541TIP3   OH210579   2.901   5.615   0.715
 3541TIP3    H110580   2.952   5.677   0.662
 3541TIP3    H210581   2.963   5.584   0.781
 3542TIP3   OH210582   7.924   5.095   1.332
 3542TIP3    H110583   7.910   5.187   1.355
 3542TIP3    H210584   7.963   5.057   1.410
 3543TIP3   OH210585   7.967   2.934   6.375
 3543TIP3    H110586   8.009   2.882   6.443
 3543TIP3    H210587   7.954   3.020   6.415
 3544TIP3   OH210588   1.263   6.248   2.566
 3544TIP3    H110589   1.287   6.194   2.491
 3544TIP3    H210590   1.347   6.282   2.598
 3545TIP3   OH210591   7.922   2.560   2.664
 3545TIP3    H110592   7.837   2.520   2.647
 3545TIP3    H210593   7.922   2.578   2.758
 3546TIP3   OH210594   5.339   1.688   2.702
 3546TIP3    H110595   5.389   1.695   2.784
 3546TIP3    H210596   5.265   1.631   2.724
 3547TIP3   OH210597   7.575   6.289   1.967
 3547TIP3    H110598   7.495   6.239   1.985
 3547TIP3    H210599   7.642   6.245   2.018
 3548TIP3   OH210600   4.158   4.211   3.843
 3548TIP3    H110601   4.109   4.228   3.924
 3548TIP3    H210602   4.101   4.244   3.773
 3549TIP3   OH210603   6.749   1.351   1.397
 3549TIP3    H110604   6.755   1.444   1.373
 3549TIP3    H210605   6.839   1.323   1.408
 3550TIP3   OH210606   5.036   6.047   3.448
 3550TIP3    H110607   5.019   5.953   3.445
 3550TIP3    H210608   4.980   6.079   3.518
 3551TIP3   OH210609   2.231   6.491   4.495
 3551TIP3    H110610   2.289   6.562   4.523
 3551TIP3    H210611   2.253   6.478   4.403
 3552TIP3   OH210612   6.051   7.771   0.814
 3552TIP3    H110613   6.145   7.761   0.831
 3552TIP3    H210614   6.024   7.687   0.778
 3553TIP3   OH210615   1.148   4.360   2.026
 3553TIP3    H110616   1.232   4.402   2.040
 3553TIP3    H210617   1.086   4.433   2.016
 3554TIP3   OH210618   5.219   3.357   4.641
 3554TIP3    H110619   5.218   3.419   4.713
 3554TIP3    H210620   5.140   3.378   4.590
 3555TIP3   OH210621   0.575   3.986   2.230
 3555TIP3    H110622   0.527   4.038   2.294
 3555TIP3    H210623   0.661   3.971   2.270
 3556TIP3   OH210624   5.456   6.183   3.626
 3556TIP3    H110625   5.402   6.124   3.679
 3556TIP3    H210626   5.541   6.140   3.622
 3557TIP3   OH210627   0.595   3.315   0.304
 3557TIP3    H110628   0.649   3.260   0.360
 3557TIP3    H210629   0.506   3.280   0.315
 3558TIP3   OH210630   6.278   7.206   6.160
 3558TIP3    H110631   6.258   7.113   6.166
 3558TIP3    H210632   6.313   7.229   6.247
 3559TIP3   OH210633   7.272   6.367   6.056
 3559TIP3    H110634   7.199   6.332   6.106
 3559TIP3    H210635   7.333   6.401   6.121
 3560TIP3   OH210636   3.389   2.432   0.735
 3560TIP3    H110637   3.449   2.380   0.681
 3560TIP3    H210638   3.345   2.491   0.673
 3561TIP3   OH210639   7.855   5.501   6.767
 3561TIP3    H110640   7.863   5.592   6.738
 3561TIP3    H210641   7.771   5.472   6.732
 3562TIP3   OH210642   6.860   3.634   3.257
 3562TIP3    H110643   6.862   3.557   3.200
 3562TIP3    H210644   6.834   3.706   3.199
 3563TIP3   OH210645   2.976   0.258   2.143
 3563TIP3    H110646   3.033   0.210   2.082
 3563TIP3    H210647   2.980   0.349   2.113
 3564TIP3   OH210648   4.233   4.422   6.622
 3564TIP3    H110649   4.205   4.337   6.656
 3564TIP3    H210650   4.166   4.446   6.558
 3565TIP3   OH210651   2.191   1.905   2.474
 3565TIP3    H110652   2.098   1.920   2.491
 3565TIP3    H210653   2.231   1.901   2.561
 3566TIP3   OH210654   1.084   4.068   0.505
 3566TIP3    H110655   1.165   4.116   0.518
 3566TIP3    H210656   1.091   4.031   0.417
 3567TIP3   OH210657   2.184   7.206   5.999
 3567TIP3    H110658   2.256   7.189   6.060
 3567TIP3    H210659   2.105   7.187   6.050
 3568TIP3   OH210660   3.012   0.464   6.386
 3568TIP3    H110661   3.077   0.394   6.396
 3568TIP3    H210662   3.062   0.538   6.350
 3569TIP3   OH210663   2.510   5.765   2.336
 3569TIP3    H110664   2.562   5.741   2.260
 3569TIP3    H210665   2.536   5.855   2.355
 3570TIP3   OH210666   4.479   2.695   3.667
 3570TIP3    H110667   4.514   2.688   3.756
 3570TIP3    H210668   4.403   2.752   3.675
 3571TIP3   OH210669   1.890   2.549   0.639
 3571TIP3    H110670   1.916   2.640   0.648
 3571TIP3    H210671   1.830   2.533   0.712
 3572TIP3   OH210672   1.375   1.334   1.511
 3572TIP3    H110673   1.303   1.289   1.466
 3572TIP3    H210674   1.342   1.349   1.600
 3573TIP3   OH210675   2.073   4.940   1.816
 3573TIP3    H110676   2.092   4.857   1.860
 3573TIP3    H210677   2.047   4.916   1.727
 3574TIP3   OH210678   0.276   1.019   0.455
 3574TIP3    H110679   0.219   0.948   0.484
 3574TIP3    H210680   0.344   1.025   0.522
 3575TIP3   OH210681   6.109   5.592   3.100
 3575TIP3    H110682   6.132   5.595   3.193
 3575TIP3    H210683   6.137   5.506   3.070
 3576TIP3   OH210684   3.505   1.754   4.085
 3576TIP3    H110685   3.557   1.676   4.066
 3576TIP3    H210686   3.432   1.750   4.024
 3577TIP3   OH210687   2.350   3.973   2.373
 3577TIP3    H110688   2.407   3.898   2.389
 3577TIP3    H210689   2.301   3.950   2.294
 3578TIP3   OH210690   1.445   4.347   2.536
 3578TIP3    H110691   1.395   4.290   2.478
 3578TIP3    H210692   1.461   4.294   2.614
 3579TIP3   OH210693   5.467   4.821   2.429
 3579TIP3    H110694   5.409   4.787   2.497
 3579TIP3    H210695   5.408   4.852   2.360
 3580TIP3   OH210696   3.212   0.574   0.935
 3580TIP3    H110697   3.198   0.484   0.963
 3580TIP3    H210698   3.162   0.582   0.854
 3581TIP3   OH210699   5.265   5.158   6.673
 3581TIP3    H110700   5.210   5.222   6.718
 3581TIP3    H210701   5.202   5.102   6.626
 3582TIP3   OH210702   5.771   1.541   6.182
 3582TIP3    H110703   5.747   1.605   6.249
 3582TIP3    H210704   5.687   1.504   6.153
 3583TIP3   OH210705   6.849   7.316   0.630
 3583TIP3    H110706   6.779   7.258   0.656
 3583TIP3    H210707   6.929   7.264   0.639
 3584TIP3   OH210708   3.551  -0.014   4.229
 3584TIP3    H110709   3.537   0.079   4.208
 3584TIP3    H210710   3.501  -0.061   4.163
 3585TIP3   OH210711   2.639   0.282   3.768
 3585TIP3    H110712   2.714   0.306   3.824
 3585TIP3    H210713   2.659   0.193   3.739
 3586TIP3   OH210714   0.812   3.513   6.469
 3586TIP3    H110715   0.729   3.545   6.505
 3586TIP3    H210716   0.804   3.526   6.375
 3587TIP3   OH210717   5.270   4.916   3.467
 3587TIP3    H110718   5.186   4.943   3.430
 3587TIP3    H210719   5.248   4.855   3.537
 3588TIP3   OH210720   8.176   1.590   3.628
 3588TIP3    H110721   8.087   1.602   3.662
 3588TIP3    H210722   8.165   1.580   3.534
 3589TIP3   OH210723   8.013   2.108   2.122
 3589TIP3    H110724   8.093   2.133   2.076
 3589TIP3    H210725   8.023   2.146   2.209
 3590TIP3   OH210726   7.120   1.666   3.039
 3590TIP3    H110727   7.061   1.653   2.965
 3590TIP3    H210728   7.062   1.665   3.115
 3591TIP3   OH210729   6.967   7.189   5.668
 3591TIP3    H110730   6.939   7.279   5.649
 3591TIP3    H210731   6.929   7.137   5.597
 3592TIP3   OH210732   1.535   0.154   6.360
 3592TIP3    H110733   1.470   0.182   6.296
 3592TIP3    H210734   1.523   0.214   6.434
 3593TIP3   OH210735   1.290   5.296   5.342
 3593TIP3    H110736   1.257   5.212   5.373
 3593TIP3    H210737   1.212   5.342   5.310
 3594TIP3   OH210738   4.748   6.012   1.596
 3594TIP3    H110739   4.712   5.948   1.657
 3594TIP3    H210740   4.672   6.046   1.549
 3595TIP3   OH210741   4.458   6.859   5.293
 3595TIP3    H110742   4.551   6.866   5.272
 3595TIP3    H210743   4.420   6.942   5.262
 3596TIP3   OH210744   6.824   4.452   4.594
 3596TIP3    H110745   6.752   4.473   4.535
 3596TIP3    H210746   6.810   4.508   4.671
 3597TIP3   OH210747   7.334   2.135   3.264
 3597TIP3    H110748   7.370   2.219   3.235
 3597TIP3    H210749   7.364   2.072   3.198
 3598TIP3   OH210750   4.758   0.572   2.369
 3598TIP3    H110751   4.753   0.510   2.296
 3598TIP3    H210752   4.783   0.518   2.444
 3599TIP3   OH210753   5.771   0.802   4.419
 3599TIP3    H110754   5.858   0.771   4.444
 3599TIP3    H210755   5.712   0.731   4.446
 3600TIP3   OH210756   5.144   3.665   1.276
 3600TIP3    H110757   5.106   3.713   1.349
 3600TIP3    H210758   5.185   3.733   1.222
 3601TIP3   OH210759   1.017   3.243   6.453
 3601TIP3    H110760   0.942   3.202   6.495
 3601TIP3    H210761   1.022   3.330   6.492
 3602TIP3   OH210762   2.389   1.944   4.977
 3602TIP3    H110763   2.441   2.022   4.997
 3602TIP3    H210764   2.445   1.891   4.920
 3603TIP3   OH210765   7.470   1.035   4.755
 3603TIP3    H110766   7.479   1.115   4.807
 3603TIP3    H210767   7.556   1.025   4.713
 3604TIP3   OH210768   2.814   6.612   6.180
 3604TIP3    H110769   2.849   6.700   6.168
 3604TIP3    H210770   2.878   6.555   6.137
 3605TIP3   OH210771   0.671   0.425   6.227
 3605TIP3    H110772   0.672   0.386   6.140
 3605TIP3    H210773   0.672   0.519   6.211
 3606TIP3   OH210774   0.364   2.243   1.705
 3606TIP3    H110775   0.451   2.253   1.667
 3606TIP3    H210776   0.379   2.240   1.800
 3607TIP3   OH210777   0.298   6.590   6.581
 3607TIP3    H110778   0.276   6.628   6.496
 3607TIP3    H210779   0.269   6.656   6.644
 3608TIP3   OH210780   0.131   5.918   3.895
 3608TIP3    H110781   0.101   5.833   3.928
 3608TIP3    H210782   0.153   5.968   3.974
 3609TIP3   OH210783   8.105   0.194   3.455
 3609TIP3    H110784   8.086   0.233   3.370
 3609TIP3    H210785   8.140   0.107   3.435
 3610TIP3   OH210786   1.380   5.081   0.753
 3610TIP3    H110787   1.459   5.099   0.804
 3610TIP3    H210788   1.405   5.009   0.695
 3611TIP3   OH210789   3.561  -0.007   4.715
 3611TIP3    H110790   3.564   0.082   4.679
 3611TIP3    H210791   3.623  -0.005   4.788
 3612TIP3   OH210792   6.149   1.303   0.969
 3612TIP3    H110793   6.077   1.341   0.920
 3612TIP3    H210794   6.112   1.283   1.055
 3613TIP3   OH210795   6.962   1.814   5.857
 3613TIP3    H110796   7.057   1.808   5.867
 3613TIP3    H210797   6.942   1.762   5.779
 3614TIP3   OH210798   8.006   0.012   4.317
 3614TIP3    H110799   8.056   0.087   4.350
 3614TIP3    H210800   8.010  -0.052   4.388
 3615TIP3   OH210801   6.317   7.074   4.761
 3615TIP3    H110802   6.346   7.141   4.699
 3615TIP3    H210803   6.382   7.077   4.831
 3616TIP3   OH210804   1.212   4.231   2.286
 3616TIP3    H110805   1.283   4.261   2.228
 3616TIP3    H210806   1.157   4.309   2.297
 3617TIP3   OH210807   5.021   0.775   3.320
 3617TIP3    H110808   4.965   0.700   3.303
 3617TIP3    H210809   5.102   0.755   3.273
 3618TIP3   OH210810   2.340   4.357   4.311
 3618TIP3    H110811   2.420   4.308   4.329
 3618TIP3    H210812   2.363   4.416   4.239
 3619TIP3   OH210813   5.812   3.641   4.461
 3619TIP3    H110814   5.720   3.617   4.477
 3619TIP3    H210815   5.806   3.721   4.409
 3620TIP3   OH210816   1.519   3.250   2.668
 3620TIP3    H110817   1.517   3.171   2.614
 3620TIP3    H210818   1.499   3.219   2.756
 3621TIP3   OH210819   6.495   0.976   0.063
 3621TIP3    H110820   6.529   0.979  -0.027
 3621TIP3    H210821   6.445   0.895   0.067
 3622TIP3   OH210822   2.718   6.849   6.283
 3622TIP3    H110823   2.710   6.759   6.250
 3622TIP3    H210824   2.680   6.847   6.370
 3623TIP3   OH210825   6.105   2.370   1.193
 3623TIP3    H110826   6.120   2.454   1.149
 3623TIP3    H210827   6.045   2.391   1.264
 3624TIP3   OH210828   3.357   6.067   2.411
 3624TIP3    H110829   3.451   6.080   2.394
 3624TIP3    H210830   3.315   6.079   2.326
 3625TIP3   OH210831   1.939   4.555   5.377
 3625TIP3    H110832   1.891   4.517   5.303
 3625TIP3    H210833   1.879   4.551   5.450
 3626TIP3   OH210834   0.871   1.747   3.120
 3626TIP3    H110835   0.856   1.841   3.110
 3626TIP3    H210836   0.787   1.706   3.099
 3627TIP3   OH210837   7.787   1.423   5.989
 3627TIP3    H110838   7.720   1.440   6.055
 3627TIP3    H210839   7.852   1.492   6.002
 3628TIP3   OH210840   1.705   1.876   4.506
 3628TIP3    H110841   1.645   1.843   4.572
 3628TIP3    H210842   1.685   1.825   4.428
 3629TIP3   OH210843   6.482   5.070   1.763
 3629TIP3    H110844   6.481   5.048   1.670
 3629TIP3    H210845   6.393   5.055   1.793
 3630TIP3   OH210846   4.067   0.599   2.027
 3630TIP3    H110847   3.983   0.580   2.068
 3630TIP3    H210848   4.048   0.602   1.933
 3631TIP3   OH210849   0.866   3.079   1.447
 3631TIP3    H110850   0.915   3.012   1.399
 3631TIP3    H210851   0.932   3.144   1.472
 3632TIP3   OH210852   1.916   0.869   6.315
 3632TIP3    H110853   1.830   0.828   6.323
 3632TIP3    H210854   1.920   0.932   6.387
 3633TIP3   OH210855   2.385   3.015   2.942
 3633TIP3    H110856   2.368   2.926   2.971
 3633TIP3    H210857   2.393   3.008   2.847
 3634TIP3   OH210858   1.563   0.587   6.199
 3634TIP3    H110859   1.566   0.548   6.111
 3634TIP3    H210860   1.503   0.530   6.248
 3635TIP3   OH210861   0.845   2.132   5.285
 3635TIP3    H110862   0.826   2.043   5.254
 3635TIP3    H210863   0.774   2.185   5.249
 3636TIP3   OH210864   8.007   6.864   2.880
 3636TIP3    H110865   8.070   6.909   2.824
 3636TIP3    H210866   7.928   6.918   2.876
 3637TIP3   OH210867   7.986   0.535   3.488
 3637TIP3    H110868   7.899   0.521   3.527
 3637TIP3    H210869   7.993   0.467   3.421
 3638TIP3   OH210870   1.884   4.540   3.034
 3638TIP3    H110871   1.960   4.592   3.061
 3638TIP3    H210872   1.920   4.474   2.974
 3639TIP3   OH210873   1.824   2.271   1.917
 3639TIP3    H110874   1.907   2.317   1.933
 3639TIP3    H210875   1.757   2.336   1.939
 3640TIP3   OH210876   5.924   7.171   2.831
 3640TIP3    H110877   5.835   7.149   2.857
 3640TIP3    H210878   5.952   7.238   2.894
 3641TIP3   OH210879   2.890   0.122   5.559
 3641TIP3    H110880   2.911   0.142   5.468
 3641TIP3    H210881   2.871   0.207   5.599
 3642TIP3   OH210882   7.246   1.858   5.899
 3642TIP3    H110883   7.263   1.913   5.822
 3642TIP3    H210884   7.314   1.790   5.896
 3643TIP3   OH210885   6.660   5.057   2.465
 3643TIP3    H110886   6.617   4.981   2.504
 3643TIP3    H210887   6.652   5.042   2.370
 3644TIP3   OH210888   2.415   0.286   0.883
 3644TIP3    H110889   2.457   0.291   0.797
 3644TIP3    H210890   2.422   0.193   0.907
 3645TIP3   OH210891   4.946   4.697   5.447
 3645TIP3    H110892   4.883   4.657   5.387
 3645TIP3    H210893   4.894   4.728   5.521
 3646TIP3   OH210894   2.164   5.639   6.177
 3646TIP3    H110895   2.146   5.618   6.085
 3646TIP3    H210896   2.087   5.689   6.205
 3647TIP3   OH210897   2.018   0.177   2.911
 3647TIP3    H110898   2.047   0.239   2.978
 3647TIP3    H210899   2.100   0.147   2.870
 3648TIP3   OH210900   4.815   6.235   3.036
 3648TIP3    H110901   4.738   6.249   3.092
 3648TIP3    H210902   4.884   6.209   3.097
 3649TIP3   OH210903   5.825   2.633   4.124
 3649TIP3    H110904   5.891   2.567   4.145
 3649TIP3    H210905   5.785   2.602   4.043
 3650TIP3   OH210906   1.411   3.921   5.927
 3650TIP3    H110907   1.364   3.841   5.904
 3650TIP3    H210908   1.362   3.991   5.884
 3651TIP3   OH210909   5.815   1.696   0.526
 3651TIP3    H110910   5.777   1.784   0.530
 3651TIP3    H210911   5.881   1.696   0.595
 3652TIP3   OH210912   1.283   2.860   3.719
 3652TIP3    H110913   1.261   2.780   3.670
 3652TIP3    H210914   1.331   2.914   3.656
 3653TIP3   OH210915   5.326   0.091   6.491
 3653TIP3    H110916   5.361   0.034   6.423
 3653TIP3    H210917   5.275   0.033   6.548
 3654TIP3   OH210918   2.418   1.973   0.521
 3654TIP3    H110919   2.450   2.035   0.457
 3654TIP3    H210920   2.337   1.939   0.483
 3655TIP3   OH210921   1.265   6.281   3.271
 3655TIP3    H110922   1.296   6.321   3.190
 3655TIP3    H210923   1.327   6.209   3.288
 3656TIP3   OH210924   1.378   1.422   0.011
 3656TIP3    H110925   1.309   1.484   0.036
 3656TIP3    H210926   1.447   1.435   0.076
 3657TIP3   OH210927   4.028   7.746   3.901
 3657TIP3    H110928   3.961   7.721   3.964
 3657TIP3    H210929   4.056   7.833   3.928
 3658TIP3   OH210930   6.288   2.163   0.803
 3658TIP3    H110931   6.371   2.191   0.763
 3658TIP3    H210932   6.248   2.244   0.834
 3659TIP3   OH210933   3.481   2.008   3.801
 3659TIP3    H110934   3.444   1.920   3.812
 3659TIP3    H210935   3.440   2.060   3.870
 3660TIP3   OH210936   2.985   5.113   0.114
 3660TIP3    H110937   2.950   5.202   0.121
 3660TIP3    H210938   3.049   5.118   0.043
 3661TIP3   OH210939   5.042   0.429   4.333
 3661TIP3    H110940   4.973   0.434   4.266
 3661TIP3    H210941   5.076   0.340   4.326
 3662TIP3   OH210942   1.348   6.570   1.179
 3662TIP3    H110943   1.373   6.548   1.268
 3662TIP3    H210944   1.267   6.620   1.189
 3663TIP3   OH210945   2.453   4.362   6.377
 3663TIP3    H110946   2.360   4.339   6.382
 3663TIP3    H210947   2.469   4.379   6.284
 3664TIP3   OH210948   3.846   6.059   6.766
 3664TIP3    H110949   3.887   6.025   6.687
 3664TIP3    H210950   3.862   5.991   6.832
 3665TIP3   OH210951   7.415   1.536   5.331
 3665TIP3    H110952   7.401   1.536   5.236
 3665TIP3    H210953   7.484   1.471   5.345
 3666TIP3   OH210954   1.563   6.029   1.249
 3666TIP3    H110955   1.533   6.030   1.340
 3666TIP3    H210956   1.504   6.089   1.203
 3667TIP3   OH210957   5.288   4.623   4.829
 3667TIP3    H110958   5.225   4.553   4.850
 3667TIP3    H210959   5.260   4.697   4.883
 3668TIP3   OH210960   6.870   0.514   3.813
 3668TIP3    H110961   6.822   0.580   3.764
 3668TIP3    H210962   6.900   0.452   3.747
 3669TIP3   OH210963   6.977   5.384   3.216
 3669TIP3    H110964   6.937   5.328   3.282
 3669TIP3    H210965   6.909   5.393   3.149
 3670TIP3   OH210966   6.666   0.160   0.321
 3670TIP3    H110967   6.646   0.175   0.414
 3670TIP3    H210968   6.665   0.064   0.312
 3671TIP3   OH210969   1.655   6.425   6.101
 3671TIP3    H110970   1.738   6.454   6.139
 3671TIP3    H210971   1.611   6.506   6.075
 3672TIP3   OH210972   3.122   1.702   4.295
 3672TIP3    H110973   3.036   1.707   4.253
 3672TIP3    H210974   3.168   1.779   4.265
 3673TIP3   OH210975   5.408   4.392   1.117
 3673TIP3    H110976   5.392   4.435   1.033
 3673TIP3    H210977   5.321   4.375   1.152
 3674TIP3   OH210978   8.195   1.763   6.476
 3674TIP3    H110979   8.215   1.829   6.410
 3674TIP3    H210980   8.247   1.687   6.450
 3675TIP3   OH210981   3.219   1.995   1.238
 3675TIP3    H110982   3.195   1.933   1.170
 3675TIP3    H210983   3.205   2.081   1.199
 3676TIP3   OH210984   6.431   1.075   0.682
 3676TIP3    H110985   6.425   1.169   0.698
 3676TIP3    H210986   6.513   1.064   0.635
 3677TIP3   OH210987   5.775   2.607   0.455
 3677TIP3    H110988   5.751   2.696   0.479
 3677TIP3    H210989   5.790   2.611   0.360
 3678TIP3   OH210990   2.586   6.853   1.305
 3678TIP3    H110991   2.510   6.910   1.296
 3678TIP3    H210992   2.631   6.858   1.221
 3679TIP3   OH210993   7.138   3.084   4.193
 3679TIP3    H110994   7.158   3.169   4.153
 3679TIP3    H210995   7.048   3.093   4.224
 3680TIP3   OH210996   6.872   2.554   2.760
 3680TIP3    H110997   6.843   2.587   2.845
 3680TIP3    H210998   6.887   2.460   2.774
 3681TIP3   OH210999   7.914   3.249   5.383
 3681TIP3    H111000   7.905   3.244   5.288
 3681TIP3    H211001   7.900   3.159   5.413
 3682TIP3   OH211002   5.232   6.592   2.316
 3682TIP3    H111003   5.159   6.543   2.354
 3682TIP3    H211004   5.243   6.555   2.228
 3683TIP3   OH211005   7.974   4.807   0.630
 3683TIP3    H111006   7.965   4.890   0.679
 3683TIP3    H211007   8.061   4.776   0.653
 3684TIP3   OH211008   2.834   5.955   2.590
 3684TIP3    H111009   2.816   6.029   2.648
 3684TIP3    H211010   2.809   5.986   2.503
 3685TIP3   OH211011   7.786   6.984   5.207
 3685TIP3    H111012   7.818   7.065   5.247
 3685TIP3    H211013   7.803   6.997   5.113
 3686TIP3   OH211014   2.736   4.310   3.327
 3686TIP3    H111015   2.676   4.382   3.305
 3686TIP3    H211016   2.709   4.238   3.269
 3687TIP3   OH211017   2.587   3.531   4.849
 3687TIP3    H111018   2.537   3.462   4.805
 3687TIP3    H211019   2.522   3.584   4.893
 3688TIP3   OH211020   0.928   0.726   5.080
 3688TIP3    H111021   0.997   0.783   5.045
 3688TIP3    H211022   0.944   0.641   5.039
 3689TIP3   OH211023   0.177   6.501   5.737
 3689TIP3    H111024   0.253   6.537   5.692
 3689TIP3    H211025   0.202   6.411   5.758
 3690TIP3   OH211026   5.149   5.148   1.350
 3690TIP3    H111027   5.224   5.107   1.305
 3690TIP3    H211028   5.077   5.086   1.337
 3691TIP3   OH211029   6.174   4.798   1.386
 3691TIP3    H111030   6.119   4.824   1.460
 3691TIP3    H211031   6.165   4.871   1.324
 3692TIP3   OH211032   4.612   1.133   0.949
 3692TIP3    H111033   4.692   1.085   0.966
 3692TIP3    H211034   4.544   1.066   0.941
 3693TIP3   OH211035   3.530   3.877   3.843
 3693TIP3    H111036   3.611   3.827   3.832
 3693TIP3    H211037   3.559   3.965   3.869
 3694TIP3   OH211038   1.091   2.069   3.085
 3694TIP3    H111039   1.044   2.143   3.123
 3694TIP3    H211040   1.068   2.071   2.992
 3695TIP3   OH211041   0.466   3.066   1.203
 3695TIP3    H111042   0.455   3.098   1.113
 3695TIP3    H211043   0.377   3.052   1.235
 3696TIP3   OH211044   7.463   6.897   0.768
 3696TIP3    H111045   7.454   6.847   0.850
 3696TIP3    H211046   7.552   6.932   0.772
 3697TIP3   OH211047   7.210   2.432   5.563
 3697TIP3    H111048   7.157   2.445   5.484
 3697TIP3    H211049   7.147   2.404   5.630
 3698TIP3   OH211050   2.814   0.508   6.718
 3698TIP3    H111051   2.808   0.456   6.638
 3698TIP3    H211052   2.830   0.597   6.687
 3699TIP3   OH211053   8.162   4.333   4.305
 3699TIP3    H111054   8.189   4.341   4.396
 3699TIP3    H211055   8.084   4.389   4.298
 3700TIP3   OH211056   1.284   6.221   2.909
 3700TIP3    H111057   1.253   6.312   2.909
 3700TIP3    H211058   1.345   6.218   2.983
 3701TIP3   OH211059   1.095   2.190   3.638
 3701TIP3    H111060   1.178   2.234   3.617
 3701TIP3    H211061   1.060   2.164   3.553
 3702TIP3   OH211062   7.450   2.839   4.994
 3702TIP3    H111063   7.515   2.780   4.956
 3702TIP3    H211064   7.369   2.818   4.948
 3703TIP3   OH211065   5.972   0.056   2.010
 3703TIP3    H111066   5.975   0.083   2.101
 3703TIP3    H211067   5.919   0.123   1.967
 3704TIP3   OH211068   6.779   4.655   6.276
 3704TIP3    H111069   6.776   4.702   6.359
 3704TIP3    H211070   6.722   4.579   6.289
 3705TIP3   OH211071   1.077   1.862   4.494
 3705TIP3    H111072   1.067   1.893   4.404
 3705TIP3    H211073   1.103   1.940   4.544
 3706TIP3   OH211074   2.928   6.519   0.251
 3706TIP3    H111075   2.993   6.568   0.201
 3706TIP3    H211076   2.943   6.546   0.342
 3707TIP3   OH211077   0.343   6.194   4.887
 3707TIP3    H111078   0.289   6.121   4.856
 3707TIP3    H211079   0.372   6.168   4.974
 3708TIP3   OH211080   8.186   1.593   4.219
 3708TIP3    H111081   8.107   1.613   4.168
 3708TIP3    H211082   8.159   1.607   4.310
 3709TIP3   OH211083   7.111   0.762   6.043
 3709TIP3    H111084   7.174   0.740   5.975
 3709TIP3    H211085   7.142   0.714   6.121
 3710TIP3   OH211086   1.622   3.415   6.762
 3710TIP3    H111087   1.686   3.467   6.811
 3710TIP3    H211088   1.675   3.354   6.710
 3711TIP3   OH211089   6.086   4.890   5.925
 3711TIP3    H111090   6.155   4.855   5.869
 3711TIP3    H211091   6.007   4.843   5.899
 3712TIP3   OH211092   2.862   6.538   3.163
 3712TIP3    H111093   2.926   6.535   3.234
 3712TIP3    H211094   2.839   6.630   3.155
 3713TIP3   OH211095   2.969   0.057   1.195
 3713TIP3    H111096   2.951   0.150   1.207
 3713TIP3    H211097   3.009   0.052   1.108
 3714TIP3   OH211098   2.893   6.045   1.379
 3714TIP3    H111099   2.899   6.109   1.449
 3714TIP3    H211100   2.974   5.995   1.386
 3715TIP3   OH211101   4.407   2.690   6.748
 3715TIP3    H111102   4.339   2.719   6.686
 3715TIP3    H211103   4.480   2.665   6.692
 3716TIP3   OH211104   7.576   1.274   4.537
 3716TIP3    H111105   7.663   1.311   4.526
 3716TIP3    H211106   7.591   1.182   4.557
 3717TIP3   OH211107   8.121   3.664   6.714
 3717TIP3    H111108   8.157   3.685   6.800
 3717TIP3    H211109   8.058   3.734   6.696
 3718TIP3   OH211110   7.698   0.579   2.559
 3718TIP3    H111111   7.696   0.575   2.463
 3718TIP3    H211112   7.612   0.612   2.583
 3719TIP3   OH211113   1.983   6.519   0.000
 3719TIP3    H111114   1.993   6.445   0.059
 3719TIP3    H211115   2.072   6.540  -0.028
 3720TIP3   OH211116   0.277   5.463   0.647
 3720TIP3    H111117   0.296   5.544   0.598
 3720TIP3    H211118   0.360   5.415   0.648
 3721TIP3   OH211119   0.960   3.665   4.304
 3721TIP3    H111120   1.029   3.728   4.285
 3721TIP3    H211121   0.904   3.708   4.368
 3722TIP3   OH211122   3.639   3.308   5.805
 3722TIP3    H111123   3.642   3.263   5.720
 3722TIP3    H211124   3.731   3.313   5.832
 3723TIP3   OH211125   0.544   6.118   3.183
 3723TIP3    H111126   0.631   6.081   3.171
 3723TIP3    H211127   0.557   6.194   3.239
 3724TIP3   OH211128   0.738   5.156   0.789
 3724TIP3    H111129   0.710   5.240   0.752
 3724TIP3    H211130   0.720   5.092   0.720
 3725TIP3   OH211131   0.387   3.208   0.977
 3725TIP3    H111132   0.439   3.149   0.922
 3725TIP3    H211133   0.297   3.179   0.965
 3726TIP3   OH211134   6.802   6.019   6.033
 3726TIP3    H111135   6.757   6.043   5.951
 3726TIP3    H211136   6.887   5.986   6.005
 3727TIP3   OH211137   7.104   0.588   6.712
 3727TIP3    H111138   7.050   0.575   6.790
 3727TIP3    H211139   7.042   0.580   6.639
 3728TIP3   OH211140   1.550   3.578   3.697
 3728TIP3    H111141   1.478   3.615   3.646
 3728TIP3    H211142   1.619   3.562   3.633
 3729TIP3   OH211143   0.676   0.092   3.431
 3729TIP3    H111144   0.622   0.171   3.429
 3729TIP3    H211145   0.748   0.114   3.491
 3730TIP3   OH211146   2.616   1.626   2.447
 3730TIP3    H111147   2.565   1.582   2.515
 3730TIP3    H211148   2.550   1.666   2.389
 3731TIP3   OH211149   0.023   1.368   2.650
 3731TIP3    H111150   0.116   1.363   2.628
 3731TIP3    H211151  -0.012   1.434   2.591
 3732TIP3   OH211152   2.400   4.251   4.763
 3732TIP3    H111153   2.319   4.301   4.756
 3732TIP3    H211154   2.393   4.205   4.846
 3733TIP3   OH211155   4.385   6.646   4.425
 3733TIP3    H111156   4.322   6.616   4.359
 3733TIP3    H211157   4.469   6.612   4.395
 3734TIP3   OH211158  -0.014   0.300   3.036
 3734TIP3    H111159  -0.012   0.336   3.124
 3734TIP3    H211160   0.030   0.216   3.043
 3735TIP3   OH211161   7.185   5.821   2.926
 3735TIP3    H111162   7.118   5.864   2.872
 3735TIP3    H211163   7.165   5.728   2.918
 3736TIP3   OH211164   8.208   3.851   6.478
 3736TIP3    H111165   8.149   3.869   6.551
 3736TIP3    H211166   8.203   3.930   6.424
 3737TIP3   OH211167   0.954   5.266   5.639
 3737TIP3    H111168   0.877   5.209   5.642
 3737TIP3    H211169   1.005   5.242   5.716
 3738TIP3   OH211170   7.472   6.455   6.515
 3738TIP3    H111171   7.410   6.419   6.579
 3738TIP3    H211172   7.540   6.496   6.568
 3739TIP3   OH211173   0.631   6.634   3.271
 3739TIP3    H111174   0.631   6.566   3.338
 3739TIP3    H211175   0.667   6.591   3.193
 3740TIP3   OH211176   7.422   1.665   2.792
 3740TIP3    H111177   7.327   1.659   2.785
 3740TIP3    H211178   7.453   1.576   2.776
 3741TIP3   OH211179   3.020   3.278   5.540
 3741TIP3    H111180   2.957   3.341   5.504
 3741TIP3    H211181   3.045   3.314   5.625
 3742TIP3   OH211182   3.340   4.886   6.368
 3742TIP3    H111183   3.385   4.914   6.288
 3742TIP3    H211184   3.407   4.839   6.418
 3743TIP3   OH211185   0.035   7.802   0.752
 3743TIP3    H111186   0.055   7.744   0.678
 3743TIP3    H211187   0.109   7.793   0.811
 3744TIP3   OH211188   0.954   2.579   2.326
 3744TIP3    H111189   0.870   2.535   2.317
 3744TIP3    H211190   0.938   2.651   2.387
 3745TIP3   OH211191   3.603   6.149   2.153
 3745TIP3    H111192   3.689   6.142   2.111
 3745TIP3    H211193   3.614   6.218   2.218
 3746TIP3   OH211194   2.999   7.326   4.584
 3746TIP3    H111195   3.066   7.329   4.516
 3746TIP3    H211196   2.933   7.390   4.557
 3747TIP3   OH211197   3.872   3.862   5.535
 3747TIP3    H111198   3.942   3.923   5.559
 3747TIP3    H211199   3.791   3.905   5.564
 3748TIP3   OH211200   0.682   7.422   2.287
 3748TIP3    H111201   0.770   7.408   2.251
 3748TIP3    H211202   0.625   7.367   2.233
 3749TIP3   OH211203   0.999   3.618   0.902
 3749TIP3    H111204   1.069   3.610   0.837
 3749TIP3    H211205   0.927   3.660   0.855
 3750TIP3   OH211206   7.550   5.582   1.131
 3750TIP3    H111207   7.492   5.643   1.086
 3750TIP3    H211208   7.572   5.516   1.065
 3751TIP3   OH211209   0.357   2.196   3.033
 3751TIP3    H111210   0.296   2.269   3.024
 3751TIP3    H211211   0.324   2.146   3.108
 3752TIP3   OH211212   6.738   5.575   3.149
 3752TIP3    H111213   6.821   5.624   3.151
 3752TIP3    H211214   6.685   5.621   3.084
 3753TIP3   OH211215   2.348   2.579   6.257
 3753TIP3    H111216   2.338   2.622   6.342
 3753TIP3    H211217   2.260   2.551   6.233
 3754TIP3   OH211218   1.413   3.692   3.160
 3754TIP3    H111219   1.356   3.744   3.103
 3754TIP3    H211220   1.353   3.636   3.209
 3755TIP3   OH211221   8.041   1.469   2.263
 3755TIP3    H111222   8.077   1.532   2.201
 3755TIP3    H211223   7.965   1.432   2.219
 3756TIP3   OH211224   5.228   4.446   2.512
 3756TIP3    H111225   5.300   4.425   2.572
 3756TIP3    H211226   5.168   4.498   2.564
 3757TIP3   OH211227   7.448   6.726   1.014
 3757TIP3    H111228   7.524   6.679   1.050
 3757TIP3    H211229   7.387   6.657   0.990
 3758TIP3   OH211230   1.330   5.632   3.147
 3758TIP3    H111231   1.347   5.643   3.054
 3758TIP3    H211232   1.237   5.652   3.157
 3759TIP3   OH211233   4.630   3.346   0.035
 3759TIP3    H111234   4.686   3.376  -0.037
 3759TIP3    H211235   4.584   3.424   0.064
 3760TIP3   OH211236   6.525   3.901   2.754
 3760TIP3    H111237   6.502   3.815   2.717
 3760TIP3    H211238   6.507   3.962   2.683
 3761TIP3   OH211239   3.218   2.831   3.766
 3761TIP3    H111240   3.244   2.891   3.836
 3761TIP3    H211241   3.272   2.856   3.691
 3762TIP3   OH211242   6.978   0.560   6.476
 3762TIP3    H111243   7.027   0.490   6.433
 3762TIP3    H211244   6.886   0.540   6.457
 3763TIP3   OH211245   6.942   3.606   5.908
 3763TIP3    H111246   6.961   3.670   5.839
 3763TIP3    H211247   7.027   3.584   5.945
 3764TIP3   OH211248   4.999   2.606   1.609
 3764TIP3    H111249   5.063   2.676   1.595
 3764TIP3    H211250   4.936   2.617   1.538
 3765TIP3   OH211251   4.249   6.460   2.912
 3765TIP3    H111252   4.313   6.408   2.864
 3765TIP3    H211253   4.275   6.450   3.004
 3766TIP3   OH211254   7.699   4.232   1.412
 3766TIP3    H111255   7.728   4.322   1.426
 3766TIP3    H211256   7.753   4.199   1.340
 3767TIP3   OH211257   6.080   0.289   2.823
 3767TIP3    H111258   6.126   0.214   2.785
 3767TIP3    H211259   6.145   0.360   2.821
 3768TIP3   OH211260   5.938   1.313   1.811
 3768TIP3    H111261   5.912   1.400   1.781
 3768TIP3    H211262   5.929   1.316   1.906
 3769TIP3   OH211263   8.039   2.063   4.917
 3769TIP3    H111264   7.996   2.146   4.897
 3769TIP3    H211265   8.044   2.018   4.832
 3770TIP3   OH211266   2.454   2.445   3.676
 3770TIP3    H111267   2.438   2.436   3.770
 3770TIP3    H211268   2.539   2.405   3.661
 3771TIP3   OH211269   4.890   1.554   4.381
 3771TIP3    H111270   4.944   1.480   4.355
 3771TIP3    H211271   4.952   1.617   4.419
 3772TIP3   OH211272   2.171   0.837   2.745
 3772TIP3    H111273   2.127   0.758   2.714
 3772TIP3    H211274   2.261   0.809   2.761
 3773TIP3   OH211275   1.441   5.987   5.500
 3773TIP3    H111276   1.458   6.066   5.449
 3773TIP3    H211277   1.450   6.015   5.591
 3774TIP3   OH211278   2.406   1.068   6.221
 3774TIP3    H111279   2.493   1.106   6.225
 3774TIP3    H211280   2.347   1.138   6.249
 3775TIP3   OH211281   1.209   5.529   2.179
 3775TIP3    H111282   1.243   5.477   2.252
 3775TIP3    H211283   1.130   5.482   2.151
 3776TIP3   OH211284   4.701   0.223   6.608
 3776TIP3    H111285   4.744   0.258   6.530
 3776TIP3    H211286   4.691   0.130   6.590
 3777TIP3   OH211287   8.267   4.694   2.145
 3777TIP3    H111288   8.281   4.727   2.056
 3777TIP3    H211289   8.278   4.771   2.201
 3778TIP3   OH211290   5.489   7.533   0.535
 3778TIP3    H111291   5.468   7.531   0.442
 3778TIP3    H211292   5.417   7.486   0.578
 3779TIP3   OH211293   3.462   6.810   2.695
 3779TIP3    H111294   3.489   6.901   2.704
 3779TIP3    H211295   3.419   6.789   2.778
 3780TIP3   OH211296   0.384   2.215   4.015
 3780TIP3    H111297   0.477   2.210   4.039
 3780TIP3    H211298   0.360   2.306   4.034
 3781TIP3   OH211299   1.662   3.220   3.446
 3781TIP3    H111300   1.710   3.156   3.394
 3781TIP3    H211301   1.600   3.168   3.498
 3782TIP3   OH211302   3.562   0.805   5.089
 3782TIP3    H111303   3.511   0.731   5.056
 3782TIP3    H211304   3.561   0.869   5.018
 3783TIP3   OH211305   2.330   1.694   6.284
 3783TIP3    H111306   2.407   1.640   6.301
 3783TIP3    H211307   2.363   1.784   6.284
 3784TIP3   OH211308   1.406   0.684   6.642
 3784TIP3    H111309   1.330   0.738   6.666
 3784TIP3    H211310   1.482   0.733   6.674
 3785TIP3   OH211311   5.429   0.418   0.821
 3785TIP3    H111312   5.344   0.450   0.851
 3785TIP3    H211313   5.469   0.494   0.778
 3786TIP3   OH211314   3.692   5.566   0.444
 3786TIP3    H111315   3.683   5.485   0.495
 3786TIP3    H211316   3.606   5.607   0.448
 3787TIP3   OH211317   6.344   0.046   0.774
 3787TIP3    H111318   6.324   0.135   0.803
 3787TIP3    H211319   6.428   0.026   0.816
 3788TIP3   OH211320   1.588   6.676   0.228
 3788TIP3    H111321   1.646   6.601   0.212
 3788TIP3    H211322   1.509   6.657   0.178
 3789TIP3   OH211323   1.719   5.276   1.622
 3789TIP3    H111324   1.786   5.322   1.571
 3789TIP3    H211325   1.636   5.305   1.583
 3790TIP3   OH211326   4.155   0.336  -0.021
 3790TIP3    H111327   4.213   0.412  -0.016
 3790TIP3    H211328   4.179   0.282   0.054
 3791TIP3   OH211329   6.916   1.074   0.498
 3791TIP3    H111330   6.909   1.052   0.590
 3791TIP3    H211331   6.846   1.026   0.455
 3792TIP3   OH211332   4.424   0.272   0.117
 3792TIP3    H111333   4.454   0.231   0.198
 3792TIP3    H211334   4.456   0.362   0.122
 3793TIP3   OH211335   0.818   6.120   3.912
 3793TIP3    H111336   0.776   6.166   3.985
 3793TIP3    H211337   0.810   6.027   3.935
 3794TIP3   OH211338   1.963   5.231   2.501
 3794TIP3    H111339   2.006   5.248   2.585
 3794TIP3    H211340   1.891   5.171   2.522
 3795TIP3   OH211341   1.820   6.657   1.537
 3795TIP3    H111342   1.802   6.669   1.630
 3795TIP3    H211343   1.916   6.654   1.532
 3796TIP3   OH211344   1.087   6.288   0.552
 3796TIP3    H111345   1.012   6.246   0.595
 3796TIP3    H211346   1.163   6.256   0.599
 3797TIP3   OH211347   0.346   4.278   3.214
 3797TIP3    H111348   0.324   4.239   3.298
 3797TIP3    H211349   0.356   4.371   3.232
 3798TIP3   OH211350   7.911   5.812   0.283
 3798TIP3    H111351   7.865   5.767   0.213
 3798TIP3    H211352   7.849   5.815   0.355
 3799TIP3   OH211353   5.313   4.332   0.657
 3799TIP3    H111354   5.278   4.378   0.581
 3799TIP3    H211355   5.385   4.278   0.623
 3800TIP3   OH211356   5.444   4.107   3.113
 3800TIP3    H111357   5.424   4.015   3.099
 3800TIP3    H211358   5.442   4.146   3.025
 3801TIP3   OH211359   3.236   7.622   6.168
 3801TIP3    H111360   3.249   7.529   6.153
 3801TIP3    H211361   3.161   7.645   6.113
 3802TIP3   OH211362   2.793   4.637   5.156
 3802TIP3    H111363   2.757   4.610   5.071
 3802TIP3    H211364   2.752   4.578   5.219
 3803TIP3   OH211365   3.747   3.728   3.789
 3803TIP3    H111366   3.687   3.663   3.754
 3803TIP3    H211367   3.831   3.706   3.750
 3804TIP3   OH211368   5.478   3.320   1.268
 3804TIP3    H111369   5.386   3.298   1.280
 3804TIP3    H211370   5.517   3.242   1.230
 3805TIP3   OH211371   6.874   5.337   1.499
 3805TIP3    H111372   6.912   5.348   1.585
 3805TIP3    H211373   6.874   5.242   1.485
 3806TIP3   OH211374   3.623   1.555   6.701
 3806TIP3    H111375   3.690   1.495   6.735
 3806TIP3    H211376   3.605   1.523   6.613
 3807TIP3   OH211377   2.395   1.960   4.646
 3807TIP3    H111378   2.454   1.911   4.703
 3807TIP3    H211379   2.325   1.991   4.703
 3808TIP3   OH211380   7.896   4.552   6.281
 3808TIP3    H111381   7.898   4.640   6.319
 3808TIP3    H211382   7.970   4.549   6.220
 3809TIP3   OH211383   7.023   5.564   6.336
 3809TIP3    H111384   7.001   5.478   6.371
 3809TIP3    H211385   7.080   5.602   6.403
 3810TIP3   OH211386   1.964   0.856   2.333
 3810TIP3    H111387   2.030   0.865   2.264
 3810TIP3    H211388   1.923   0.942   2.339
 3811TIP3   OH211389   7.911   6.754   0.248
 3811TIP3    H111390   7.960   6.831   0.222
 3811TIP3    H211391   7.938   6.737   0.338
 3812TIP3   OH211392   7.364   3.732   2.281
 3812TIP3    H111393   7.318   3.794   2.224
 3812TIP3    H211394   7.449   3.773   2.298
 3813TIP3   OH211395   3.500   7.715   4.639
 3813TIP3    H111396   3.594   7.703   4.653
 3813TIP3    H211397   3.459   7.648   4.693
 3814TIP3   OH211398   7.697   5.683   2.280
 3814TIP3    H111399   7.645   5.763   2.277
 3814TIP3    H211400   7.704   5.662   2.373
 3815TIP3   OH211401   0.557   6.781   4.540
 3815TIP3    H111402   0.558   6.715   4.609
 3815TIP3    H211403   0.489   6.751   4.480
 3816TIP3   OH211404   8.123   3.612   1.229
 3816TIP3    H111405   8.045   3.627   1.175
 3816TIP3    H211406   8.181   3.685   1.210
 3817TIP3   OH211407   3.844   2.014   0.338
 3817TIP3    H111408   3.765   2.066   0.325
 3817TIP3    H211409   3.842   1.948   0.269
 3818TIP3   OH211410   8.155   7.207   1.124
 3818TIP3    H111411   8.196   7.242   1.045
 3818TIP3    H211412   8.160   7.279   1.187
 3819TIP3   OH211413   3.218   1.936   4.153
 3819TIP3    H111414   3.186   1.961   4.067
 3819TIP3    H211415   3.311   1.917   4.139
 3820TIP3   OH211416   3.980   0.477   2.711
 3820TIP3    H111417   4.054   0.527   2.676
 3820TIP3    H211418   3.907   0.499   2.653
 3821TIP3   OH211419   1.076   6.099   2.742
 3821TIP3    H111420   1.152   6.141   2.782
 3821TIP3    H211421   1.089   6.006   2.756
 3822TIP3   OH211422   5.428   7.130   3.290
 3822TIP3    H111423   5.483   7.053   3.277
 3822TIP3    H211424   5.480   7.187   3.347
 3823TIP3   OH211425   8.054   6.233   6.638
 3823TIP3    H111426   8.140   6.191   6.643
 3823TIP3    H211427   7.993   6.165   6.667
 3824TIP3   OH211428   5.972   1.600   4.728
 3824TIP3    H111429   5.948   1.684   4.689
 3824TIP3    H211430   5.992   1.620   4.819
 3825TIP3   OH211431   0.545   2.640   2.247
 3825TIP3    H111432   0.553   2.591   2.165
 3825TIP3    H211433   0.560   2.731   2.222
 3826TIP3   OH211434   2.118   3.236   4.309
 3826TIP3    H111435   2.098   3.295   4.382
 3826TIP3    H211436   2.157   3.292   4.242
 3827TIP3   OH211437   3.109   7.093   4.134
 3827TIP3    H111438   3.123   7.174   4.183
 3827TIP3    H211439   3.106   7.024   4.201
 3828TIP3   OH211440   1.509   1.867   0.593
 3828TIP3    H111441   1.467   1.938   0.545
 3828TIP3    H211442   1.484   1.788   0.545
 3829TIP3   OH211443   5.749   2.369   3.272
 3829TIP3    H111444   5.708   2.424   3.205
 3829TIP3    H211445   5.755   2.425   3.349
 3830TIP3   OH211446   1.442   6.231   4.444
 3830TIP3    H111447   1.503   6.293   4.404
 3830TIP3    H211448   1.480   6.213   4.530
 3831TIP3   OH211449   8.128   2.372   4.137
 3831TIP3    H111450   8.067   2.370   4.062
 3831TIP3    H211451   8.094   2.306   4.197
 3832TIP3   OH211452   2.367   7.042   1.310
 3832TIP3    H111453   2.428   7.114   1.327
 3832TIP3    H211454   2.282   7.084   1.300
 3833TIP3   OH211455   6.946   4.306   2.013
 3833TIP3    H111456   6.949   4.375   1.946
 3833TIP3    H211457   6.988   4.231   1.971
 3834TIP3   OH211458   4.571   3.113   6.247
 3834TIP3    H111459   4.530   3.170   6.182
 3834TIP3    H211460   4.650   3.079   6.204
 3835TIP3   OH211461   4.654   0.522   2.802
 3835TIP3    H111462   4.749   0.512   2.805
 3835TIP3    H211463   4.635   0.545   2.711
 3836TIP3   OH211464   0.002   6.918   3.944
 3836TIP3    H111465  -0.006   6.865   4.023
 3836TIP3    H211466   0.039   7.001   3.974
 3837TIP3   OH211467   1.004   6.743   5.506
 3837TIP3    H111468   0.954   6.789   5.573
 3837TIP3    H211469   0.996   6.797   5.428
 3838TIP3   OH211470   7.642   6.571   4.206
 3838TIP3    H111471   7.612   6.520   4.130
 3838TIP3    H211472   7.700   6.637   4.169
 3839TIP3   OH211473   4.858   3.993   0.894
 3839TIP3    H111474   4.882   3.960   0.807
 3839TIP3    H211475   4.932   4.046   0.921
 3840TIP3   OH211476   0.813   6.138   2.838
 3840TIP3    H111477   0.903   6.114   2.815
 3840TIP3    H211478   0.814   6.233   2.847
 3841TIP3   OH211479   7.688   6.367   4.765
 3841TIP3    H111480   7.666   6.296   4.825
 3841TIP3    H211481   7.777   6.394   4.791
 3842TIP3   OH211482   2.311   5.801   5.485
 3842TIP3    H111483   2.327   5.893   5.508
 3842TIP3    H211484   2.217   5.790   5.497
 3843TIP3   OH211485   3.128   6.376   3.756
 3843TIP3    H111486   3.062   6.349   3.691
 3843TIP3    H211487   3.124   6.472   3.754
 3844TIP3   OH211488   3.289   0.784   1.630
 3844TIP3    H111489   3.275   0.875   1.603
 3844TIP3    H211490   3.261   0.732   1.556
 3845TIP3   OH211491   2.209   0.899   6.627
 3845TIP3    H111492   2.214   0.883   6.533
 3845TIP3    H211493   2.231   0.992   6.636
 3846TIP3   OH211494   6.301   2.856   6.624
 3846TIP3    H111495   6.397   2.847   6.620
 3846TIP3    H211496   6.284   2.893   6.710
 3847TIP3   OH211497   8.308   7.271   5.764
 3847TIP3    H111498   8.283   7.358   5.731
 3847TIP3    H211499   8.224   7.230   5.787
 3848TIP3   OH211500   1.754   3.055   3.053
 3848TIP3    H111501   1.732   3.011   3.135
 3848TIP3    H211502   1.849   3.062   3.053
 3849TIP3   OH211503   6.349   3.990   0.020
 3849TIP3    H111504   6.403   3.960   0.094
 3849TIP3    H211505   6.374   3.934  -0.052
 3850TIP3   OH211506   4.125   7.627   4.574
 3850TIP3    H111507   4.097   7.685   4.645
 3850TIP3    H211508   4.221   7.628   4.580
 3851TIP3   OH211509   6.820   4.991   5.784
 3851TIP3    H111510   6.835   4.946   5.701
 3851TIP3    H211511   6.759   5.062   5.763
 3852TIP3   OH211512   0.217   0.044   2.448
 3852TIP3    H111513   0.179   0.059   2.362
 3852TIP3    H211514   0.143   0.024   2.504
 3853TIP3   OH211515   0.521   4.711   5.458
 3853TIP3    H111516   0.596   4.770   5.449
 3853TIP3    H211517   0.542   4.658   5.535
 3854TIP3   OH211518   7.922   1.229   0.943
 3854TIP3    H111519   7.955   1.227   0.854
 3854TIP3    H211520   7.975   1.296   0.986
 3855TIP3   OH211521   1.906   3.129   5.306
 3855TIP3    H111522   1.936   3.122   5.397
 3855TIP3    H211523   1.840   3.198   5.307
 3856TIP3   OH211524   6.653   3.834   1.918
 3856TIP3    H111525   6.570   3.836   1.870
 3856TIP3    H211526   6.682   3.926   1.920
 3857TIP3   OH211527   5.747   6.031   3.383
 3857TIP3    H111528   5.677   6.090   3.355
 3857TIP3    H211529   5.706   5.974   3.448
 3858TIP3   OH211530   2.340   4.645   2.036
 3858TIP3    H111531   2.422   4.605   2.065
 3858TIP3    H211532   2.359   4.738   2.033
 3859TIP3   OH211533   4.471   5.041   1.603
 3859TIP3    H111534   4.473   5.105   1.674
 3859TIP3    H211535   4.538   5.070   1.542
 3860TIP3   OH211536   0.302   3.987   6.555
 3860TIP3    H111537   0.395   3.964   6.557
 3860TIP3    H211538   0.262   3.919   6.501
 3861TIP3   OH211539   1.910   7.056   0.439
 3861TIP3    H111540   1.880   7.098   0.359
 3861TIP3    H211541   1.956   7.125   0.486
 3862TIP3   OH211542   6.318   6.934   1.722
 3862TIP3    H111543   6.401   6.970   1.751
 3862TIP3    H211544   6.329   6.839   1.729
 3863TIP3   OH211545   0.118   2.468   2.387
 3863TIP3    H111546   0.040   2.465   2.442
 3863TIP3    H211547   0.090   2.515   2.308
 3864TIP3   OH211548   3.615   4.448   3.795
 3864TIP3    H111549   3.664   4.440   3.877
 3864TIP3    H211550   3.645   4.531   3.757
 3865TIP3   OH211551   4.586   4.814   0.656
 3865TIP3    H111552   4.624   4.764   0.729
 3865TIP3    H211553   4.569   4.901   0.693
 3866TIP3   OH211554   1.412   2.321   6.066
 3866TIP3    H111555   1.490   2.376   6.076
 3866TIP3    H211556   1.439   2.251   6.007
 3867TIP3   OH211557   3.308   7.521   2.300
 3867TIP3    H111558   3.238   7.585   2.290
 3867TIP3    H211559   3.265   7.436   2.295
 3868TIP3   OH211560   8.094   4.671   1.683
 3868TIP3    H111561   8.083   4.582   1.650
 3868TIP3    H211562   8.101   4.725   1.604
 3869TIP3   OH211563   6.668   5.187   0.433
 3869TIP3    H111564   6.755   5.147   0.440
 3869TIP3    H211565   6.682   5.267   0.383
 3870TIP3   OH211566   7.206   3.434   1.349
 3870TIP3    H111567   7.292   3.392   1.356
 3870TIP3    H211568   7.203   3.493   1.424
 3871TIP3   OH211569   1.675   3.713   3.316
 3871TIP3    H111570   1.684   3.802   3.351
 3871TIP3    H211571   1.692   3.656   3.390
 3872TIP3   OH211572   4.604   0.669   3.541
 3872TIP3    H111573   4.615   0.574   3.535
 3872TIP3    H211574   4.564   0.684   3.627
 3873TIP3   OH211575   0.553   1.996   6.241
 3873TIP3    H111576   0.542   1.910   6.199
 3873TIP3    H211577   0.647   2.014   6.235
 3874TIP3   OH211578   3.568   4.166   0.830
 3874TIP3    H111579   3.478   4.132   0.829
 3874TIP3    H211580   3.620   4.095   0.867
 3875TIP3   OH211581   7.688   5.535   5.250
 3875TIP3    H111582   7.614   5.530   5.190
 3875TIP3    H211583   7.711   5.628   5.252
 3876TIP3   OH211584   8.009   2.647   1.678
 3876TIP3    H111585   8.083   2.586   1.675
 3876TIP3    H211586   7.931   2.591   1.682
 3877TIP3   OH211587   3.510   3.529   2.417
 3877TIP3    H111588   3.477   3.541   2.328
 3877TIP3    H211589   3.517   3.618   2.452
 3878TIP3   OH211590   2.795   0.780   2.246
 3878TIP3    H111591   2.776   0.835   2.170
 3878TIP3    H211592   2.767   0.832   2.322
 3879TIP3   OH211593   0.618   3.725   1.209
 3879TIP3    H111594   0.617   3.778   1.289
 3879TIP3    H211595   0.536   3.676   1.212
 3880TIP3   OH211596   0.961   3.606   5.260
 3880TIP3    H111597   0.876   3.648   5.276
 3880TIP3    H211598   0.952   3.565   5.174
 3881TIP3   OH211599   7.255   2.909   1.318
 3881TIP3    H111600   7.159   2.905   1.325
 3881TIP3    H211601   7.278   2.996   1.352
 3882TIP3   OH211602   0.237   6.300   3.513
 3882TIP3    H111603   0.174   6.236   3.478
 3882TIP3    H211604   0.252   6.272   3.603
 3883TIP3   OH211605   7.852   4.031   2.352
 3883TIP3    H111606   7.765   4.035   2.312
 3883TIP3    H211607   7.835   4.032   2.446
 3884TIP3   OH211608   7.212   2.406   3.467
 3884TIP3    H111609   7.260   2.482   3.433
 3884TIP3    H211610   7.187   2.357   3.388
 3885TIP3   OH211611   1.795   3.376   1.277
 3885TIP3    H111612   1.731   3.305   1.289
 3885TIP3    H211613   1.879   3.335   1.298
 3886TIP3   OH211614   0.996   1.419   5.286
 3886TIP3    H111615   1.089   1.401   5.272
 3886TIP3    H211616   0.952   1.337   5.264
 3887TIP3   OH211617   5.228   5.770   0.384
 3887TIP3    H111618   5.280   5.722   0.448
 3887TIP3    H211619   5.246   5.862   0.401
 3888TIP3   OH211620   6.706   1.378   6.339
 3888TIP3    H111621   6.669   1.390   6.252
 3888TIP3    H211622   6.775   1.445   6.345
 3889TIP3   OH211623   1.247   1.056   1.727
 3889TIP3    H111624   1.261   1.040   1.821
 3889TIP3    H211625   1.334   1.075   1.693
 3890TIP3   OH211626   7.791   5.312   1.484
 3890TIP3    H111627   7.801   5.398   1.525
 3890TIP3    H211628   7.736   5.263   1.545
 3891TIP3   OH211629   1.463   7.323   4.037
 3891TIP3    H111630   1.538   7.349   4.090
 3891TIP3    H211631   1.395   7.301   4.100
 3892TIP3   OH211632   4.118   3.242   3.609
 3892TIP3    H111633   4.086   3.309   3.549
 3892TIP3    H211634   4.059   3.248   3.685
 3893TIP3   OH211635   0.802   0.390   1.318
 3893TIP3    H111636   0.776   0.388   1.226
 3893TIP3    H211637   0.740   0.332   1.362
 3894TIP3   OH211638   1.341   6.523   2.735
 3894TIP3    H111639   1.323   6.617   2.737
 3894TIP3    H211640   1.255   6.482   2.729
 3895TIP3   OH211641   8.284   5.745   4.190
 3895TIP3    H111642   8.263   5.653   4.172
 3895TIP3    H211643   8.282   5.752   4.285
 3896TIP3   OH211644   5.138   4.370   1.198
 3896TIP3    H111645   5.059   4.329   1.163
 3896TIP3    H211646   5.118   4.383   1.291
 3897TIP3   OH211647   2.808   3.193   6.086
 3897TIP3    H111648   2.763   3.109   6.091
 3897TIP3    H211649   2.745   3.256   6.121
 3898TIP3   OH211650   3.402   5.425   5.428
 3898TIP3    H111651   3.400   5.445   5.334
 3898TIP3    H211652   3.341   5.487   5.467
 3899TIP3   OH211653   2.017   4.490   3.932
 3899TIP3    H111654   2.040   4.431   3.860
 3899TIP3    H211655   2.048   4.444   4.010
 3900TIP3   OH211656   3.513   1.110   4.625
 3900TIP3    H111657   3.535   1.175   4.558
 3900TIP3    H211658   3.480   1.162   4.699
 3901TIP3   OH211659   4.388   5.972   1.027
 3901TIP3    H111660   4.390   5.879   1.006
 3901TIP3    H211661   4.474   5.989   1.066
 3902TIP3   OH211662   0.959   4.733   6.007
 3902TIP3    H111663   0.955   4.803   5.942
 3902TIP3    H211664   0.998   4.774   6.084
 3903TIP3   OH211665  -0.015   3.169   6.110
 3903TIP3    H111666  -0.011   3.077   6.084
 3903TIP3    H211667   0.043   3.214   6.048
 3904TIP3   OH211668   0.224   3.753   1.737
 3904TIP3    H111669   0.233   3.734   1.830
 3904TIP3    H211670   0.170   3.831   1.733
 3905TIP3   OH211671   4.211   5.424   5.498
 3905TIP3    H111672   4.272   5.429   5.424
 3905TIP3    H211673   4.262   5.457   5.572
 3906TIP3   OH211674   5.473   6.613   3.042
 3906TIP3    H111675   5.432   6.594   3.126
 3906TIP3    H211676   5.449   6.703   3.023
 3907TIP3   OH211677   3.622   5.056   0.035
 3907TIP3    H111678   3.591   5.096  -0.046
 3907TIP3    H211679   3.707   5.017   0.012
 3908TIP3   OH211680   8.175   2.154   5.338
 3908TIP3    H111681   8.139   2.068   5.317
 3908TIP3    H211682   8.158   2.165   5.432
 3909TIP3   OH211683   5.731   5.275   5.466
 3909TIP3    H111684   5.672   5.202   5.448
 3909TIP3    H211685   5.731   5.327   5.386
 3910TIP3   OH211686   0.614   0.619   5.225
 3910TIP3    H111687   0.645   0.632   5.136
 3910TIP3    H211688   0.693   0.626   5.279
 3911TIP3   OH211689   4.470   1.882   3.701
 3911TIP3    H111690   4.554   1.836   3.713
 3911TIP3    H211691   4.494   1.973   3.686
 3912TIP3   OH211692   1.013   4.098   6.072
 3912TIP3    H111693   1.071   4.121   6.000
 3912TIP3    H211694   0.925   4.119   6.040
 3913TIP3   OH211695   5.571   3.094   1.140
 3913TIP3    H111696   5.639   3.030   1.119
 3913TIP3    H211697   5.524   3.107   1.057
 3914TIP3   OH211698   5.166   0.568   1.624
 3914TIP3    H111699   5.243   0.556   1.680
 3914TIP3    H211700   5.199   0.555   1.535
 3915TIP3   OH211701   0.768   1.494   2.296
 3915TIP3    H111702   0.708   1.420   2.285
 3915TIP3    H211703   0.792   1.519   2.207
 3916TIP3   OH211704   3.006   3.812   0.530
 3916TIP3    H111705   3.022   3.727   0.490
 3916TIP3    H211706   2.920   3.838   0.497
 3917TIP3   OH211707   7.211   5.186   4.890
 3917TIP3    H111708   7.260   5.104   4.900
 3917TIP3    H211709   7.273   5.245   4.847
 3918TIP3   OH211710   0.265   0.869   2.091
 3918TIP3    H111711   0.314   0.944   2.058
 3918TIP3    H211712   0.189   0.908   2.135
 3919TIP3   OH211713   2.962   3.208   2.908
 3919TIP3    H111714   2.929   3.130   2.863
 3919TIP3    H211715   3.019   3.173   2.977
 3920TIP3   OH211716   5.664   0.456   6.102
 3920TIP3    H111717   5.612   0.529   6.068
 3920TIP3    H211718   5.672   0.473   6.195
 3921TIP3   OH211719   3.959   5.581   5.715
 3921TIP3    H111720   3.913   5.619   5.640
 3921TIP3    H211721   3.901   5.599   5.789
 3922TIP3   OH211722   7.695   1.122   3.255
 3922TIP3    H111723   7.638   1.199   3.250
 3922TIP3    H211724   7.660   1.070   3.326
 3923TIP3   OH211725   4.604   4.182   0.329
 3923TIP3    H111726   4.580   4.205   0.239
 3923TIP3    H211727   4.566   4.095   0.342
 3924TIP3   OH211728   7.389   0.204   3.573
 3924TIP3    H111729   7.399   0.297   3.557
 3924TIP3    H211730   7.302   0.195   3.612
 3925TIP3   OH211731   5.168   3.677   0.455
 3925TIP3    H111732   5.202   3.699   0.368
 3925TIP3    H211733   5.246   3.671   0.511
 3926TIP3   OH211734   7.635   2.616   0.056
 3926TIP3    H111735   7.607   2.707   0.064
 3926TIP3    H211736   7.587   2.583  -0.020
 3927TIP3   OH211737   3.900   4.985   1.806
 3927TIP3    H111738   3.831   4.920   1.792
 3927TIP3    H211739   3.857   5.056   1.853
 3928TIP3   OH211740   0.249   6.617   0.334
 3928TIP3    H111741   0.157   6.593   0.345
 3928TIP3    H211742   0.271   6.583   0.247
 3929TIP3   OH211743   8.252   7.162   3.018
 3929TIP3    H111744   8.280   7.253   3.013
 3929TIP3    H211745   8.179   7.161   3.079
 3930TIP3   OH211746   2.309   3.662   3.651
 3930TIP3    H111747   2.255   3.605   3.705
 3930TIP3    H211748   2.371   3.603   3.609
 3931TIP3   OH211749   5.620   5.264   3.155
 3931TIP3    H111750   5.604   5.231   3.067
 3931TIP3    H211751   5.552   5.222   3.209
 3932TIP3   OH211752   6.219   4.757   5.728
 3932TIP3    H111753   6.236   4.668   5.757
 3932TIP3    H211754   6.135   4.752   5.682
 3933TIP3   OH211755   7.539   4.839   5.408
 3933TIP3    H111756   7.540   4.799   5.494
 3933TIP3    H211757   7.592   4.918   5.417
 3934TIP3   OH211758   6.130   7.438   5.377
 3934TIP3    H111759   6.163   7.519   5.416
 3934TIP3    H211760   6.200   7.374   5.393
 3935TIP3   OH211761   6.765   1.827   3.538
 3935TIP3    H111762   6.695   1.890   3.556
 3935TIP3    H211763   6.721   1.743   3.526
 3936TIP3   OH211764   4.493   0.952   5.901
 3936TIP3    H111765   4.518   1.013   5.831
 3936TIP3    H211766   4.398   0.948   5.896
 3937TIP3   OH211767   8.092   0.158   4.584
 3937TIP3    H111768   8.038   0.105   4.644
 3937TIP3    H211769   8.179   0.118   4.589
 3938TIP3   OH211770   1.262   2.264   3.243
 3938TIP3    H111771   1.208   2.185   3.244
 3938TIP3    H211772   1.199   2.336   3.252
 3939TIP3   OH211773   5.730   7.046   3.756
 3939TIP3    H111774   5.754   7.057   3.664
 3939TIP3    H211775   5.744   6.953   3.774
 3940TIP3   OH211776   3.814   2.975   3.412
 3940TIP3    H111777   3.786   2.926   3.335
 3940TIP3    H211778   3.887   3.029   3.381
 3941TIP3   OH211779   6.025   5.579   1.908
 3941TIP3    H111780   5.984   5.653   1.953
 3941TIP3    H211781   6.069   5.618   1.833
 3942TIP3   OH211782   5.358   1.968   4.506
 3942TIP3    H111783   5.375   1.966   4.600
 3942TIP3    H211784   5.382   1.880   4.476
 3943TIP3   OH211785   7.288   2.638   3.153
 3943TIP3    H111786   7.217   2.700   3.136
 3943TIP3    H211787   7.328   2.670   3.234
 3944TIP3   OH211788   4.502   5.687   6.307
 3944TIP3    H111789   4.482   5.779   6.293
 3944TIP3    H211790   4.523   5.681   6.400
 3945TIP3   OH211791   0.732   0.859   5.736
 3945TIP3    H111792   0.667   0.788   5.735
 3945TIP3    H211793   0.811   0.820   5.701
 3946TIP3   OH211794   3.046   3.013   3.546
 3946TIP3    H111795   3.077   3.066   3.473
 3946TIP3    H211796   3.042   2.924   3.511
 3947TIP3   OH211797   0.516   2.735   6.499
 3947TIP3    H111798   0.542   2.682   6.574
 3947TIP3    H211799   0.422   2.721   6.492
 3948TIP3   OH211800   4.620   2.601   1.341
 3948TIP3    H111801   4.613   2.555   1.257
 3948TIP3    H211802   4.714   2.621   1.349
 3949TIP3   OH211803   3.952   3.089   1.651
 3949TIP3    H111804   3.964   3.037   1.571
 3949TIP3    H211805   3.970   3.179   1.624
 3950TIP3   OH211806   4.511   6.078   6.526
 3950TIP3    H111807   4.583   6.063   6.587
 3950TIP3    H211808   4.552   6.076   6.439
 3951TIP3   OH211809   7.782   0.161   2.767
 3951TIP3    H111810   7.829   0.170   2.849
 3951TIP3    H211811   7.731   0.081   2.777
 3952TIP3   OH211812   6.038   3.702   6.408
 3952TIP3    H111813   6.116   3.646   6.412
 3952TIP3    H211814   6.070   3.789   6.432
 3953TIP3   OH211815   2.550   3.248   0.128
 3953TIP3    H111816   2.634   3.207   0.108
 3953TIP3    H211817   2.557   3.336   0.091
 3954TIP3   OH211818   5.691   3.777   5.574
 3954TIP3    H111819   5.755   3.729   5.627
 3954TIP3    H211820   5.720   3.868   5.579
 3955TIP3   OH211821   4.545   0.218   0.926
 3955TIP3    H111822   4.634   0.184   0.935
 3955TIP3    H211823   4.545   0.299   0.976
 3956TIP3   OH211824   2.547   0.850   5.323
 3956TIP3    H111825   2.590   0.811   5.400
 3956TIP3    H211826   2.592   0.811   5.248
 3957TIP3   OH211827   0.000   2.008   0.041
 3957TIP3    H111828   0.010   2.103   0.047
 3957TIP3    H211829   0.042   1.985  -0.042
 3958TIP3   OH211830   1.123   1.986   0.796
 3958TIP3    H111831   1.089   1.910   0.844
 3958TIP3    H211832   1.063   2.057   0.819
 3959TIP3   OH211833   6.257   0.324   0.532
 3959TIP3    H111834   6.252   0.257   0.601
 3959TIP3    H211835   6.192   0.389   0.559
 3960TIP3   OH211836   0.066   4.453   6.510
 3960TIP3    H111837   0.104   4.514   6.574
 3960TIP3    H211838   0.121   4.374   6.518
 3961TIP3   OH211839   7.914   5.076   4.608
 3961TIP3    H111840   7.874   5.029   4.534
 3961TIP3    H211841   7.972   5.141   4.567
 3962TIP3   OH211842   2.362   5.352   6.687
 3962TIP3    H111843   2.341   5.267   6.727
 3962TIP3    H211844   2.353   5.337   6.593
 3963TIP3   OH211845   3.476   0.341   0.801
 3963TIP3    H111846   3.505   0.321   0.890
 3963TIP3    H211847   3.484   0.257   0.754
 3964TIP3   OH211848   1.561   4.378   6.197
 3964TIP3    H111849   1.608   4.305   6.156
 3964TIP3    H211850   1.475   4.377   6.157
 3965TIP3   OH211851   1.255   0.590   5.219
 3965TIP3    H111852   1.252   0.535   5.297
 3965TIP3    H211853   1.279   0.677   5.251
 3966TIP3   OH211854   6.458   6.637   3.841
 3966TIP3    H111855   6.486   6.580   3.770
 3966TIP3    H211856   6.514   6.612   3.915
 3967TIP3   OH211857   6.339   2.537   4.066
 3967TIP3    H111858   6.250   2.508   4.045
 3967TIP3    H211859   6.354   2.612   4.009
 3968TIP3   OH211860   1.530   0.466   0.396
 3968TIP3    H111861   1.450   0.508   0.366
 3968TIP3    H211862   1.590   0.471   0.321
 3969TIP3   OH211863   7.718   4.151   4.143
 3969TIP3    H111864   7.776   4.211   4.095
 3969TIP3    H211865   7.710   4.191   4.230
 3970TIP3   OH211866   4.160   4.992   6.049
 3970TIP3    H111867   4.141   5.077   6.009
 3970TIP3    H211868   4.102   4.931   6.004
 3971TIP3   OH211869   3.977   2.947   2.610
 3971TIP3    H111870   3.985   2.916   2.700
 3971TIP3    H211871   4.037   3.022   2.605
 3972TIP3   OH211872   7.924   5.458   5.133
 3972TIP3    H111873   7.977   5.533   5.160
 3972TIP3    H211874   7.848   5.460   5.192
 3973TIP3   OH211875   0.832   2.811   4.372
 3973TIP3    H111876   0.821   2.861   4.291
 3973TIP3    H211877   0.746   2.816   4.415
 3974TIP3   OH211878   7.313   7.555   6.488
 3974TIP3    H111879   7.292   7.587   6.400
 3974TIP3    H211880   7.272   7.618   6.546
 3975TIP3   OH211881   0.970   0.453   2.167
 3975TIP3    H111882   0.985   0.488   2.255
 3975TIP3    H211883   0.969   0.358   2.179
 3976TIP3   OH211884   3.320   3.974   3.043
 3976TIP3    H111885   3.411   3.982   3.071
 3976TIP3    H211886   3.298   4.059   3.006
 3977TIP3   OH211887   0.903   6.492   5.210
 3977TIP3    H111888   0.834   6.446   5.258
 3977TIP3    H211889   0.965   6.520   5.278
 3978TIP3   OH211890   6.049   2.134   2.008
 3978TIP3    H111891   6.066   2.103   2.097
 3978TIP3    H211892   6.134   2.165   1.976
 3979TIP3   OH211893   6.891   1.509   4.186
 3979TIP3    H111894   6.981   1.519   4.155
 3979TIP3    H211895   6.844   1.581   4.143
 3980TIP3   OH211896   3.816   3.430   2.630
 3980TIP3    H111897   3.731   3.390   2.648
 3980TIP3    H211898   3.857   3.371   2.566
 3981TIP3   OH211899   1.578   3.760   1.089
 3981TIP3    H111900   1.589   3.677   1.044
 3981TIP3    H211901   1.649   3.763   1.153
 3982TIP3   OH211902   2.473   3.300   2.253
 3982TIP3    H111903   2.388   3.260   2.273
 3982TIP3    H211904   2.457   3.350   2.173
 3983TIP3   OH211905   5.871   2.028   0.160
 3983TIP3    H111906   5.965   2.042   0.159
 3983TIP3    H211907   5.833   2.116   0.158
 3984TIP3   OH211908   4.325   3.499   4.757
 3984TIP3    H111909   4.294   3.430   4.698
 3984TIP3    H211910   4.311   3.464   4.845
 3985TIP3   OH211911   8.208   1.881   1.196
 3985TIP3    H111912   8.266   1.809   1.222
 3985TIP3    H211913   8.137   1.878   1.260
 3986TIP3   OH211914   1.818   7.378   1.443
 3986TIP3    H111915   1.729   7.348   1.425
 3986TIP3    H211916   1.830   7.455   1.386
 3987TIP3   OH211917   7.672   4.064   5.918
 3987TIP3    H111918   7.719   4.101   5.993
 3987TIP3    H211919   7.599   4.124   5.905
 3988TIP3   OH211920   4.624   4.736   3.427
 3988TIP3    H111921   4.538   4.694   3.422
 3988TIP3    H211922   4.604   4.830   3.423
 3989TIP3   OH211923   7.177   4.677   3.848
 3989TIP3    H111924   7.222   4.592   3.851
 3989TIP3    H211925   7.209   4.718   3.768
 3990TIP3   OH211926   3.807   5.786   0.908
 3990TIP3    H111927   3.843   5.812   0.823
 3990TIP3    H211928   3.712   5.789   0.896
 3991TIP3   OH211929   6.595   6.279   4.423
 3991TIP3    H111930   6.631   6.202   4.378
 3991TIP3    H211931   6.555   6.243   4.503
 3992TIP3   OH211932   3.776   3.909   4.937
 3992TIP3    H111933   3.759   4.004   4.935
 3992TIP3    H211934   3.817   3.894   5.022
 3993TIP3   OH211935   7.727   7.607   1.826
 3993TIP3    H111936   7.819   7.606   1.798
 3993TIP3    H211937   7.730   7.649   1.912
 3994TIP3   OH211938   3.824   1.816   1.395
 3994TIP3    H111939   3.733   1.814   1.426
 3994TIP3    H211940   3.856   1.902   1.423
 3995TIP3   OH211941   7.637   0.591   1.327
 3995TIP3    H111942   7.706   0.655   1.311
 3995TIP3    H211943   7.568   0.640   1.372
 3996TIP3   OH211944   2.994   3.250   2.235
 3996TIP3    H111945   2.904   3.277   2.250
 3996TIP3    H211946   3.040   3.330   2.211
 3997TIP3   OH211947   8.005   1.927   5.732
 3997TIP3    H111948   7.989   1.900   5.823
 3997TIP3    H211949   8.038   1.848   5.689
 3998TIP3   OH211950   2.808   1.408   6.750
 3998TIP3    H111951   2.748   1.333   6.748
 3998TIP3    H211952   2.751   1.485   6.747
 3999TIP3   OH211953   1.487   4.946   5.919
 3999TIP3    H111954   1.459   4.951   6.010
 3999TIP3    H211955   1.416   4.899   5.874
 4000TIP3   OH211956   6.077   4.407   5.310
 4000TIP3    H111957   6.034   4.339   5.362
 4000TIP3    H211958   6.140   4.360   5.256
 4001TIP3   OH211959   4.154   3.992   0.473
 4001TIP3    H111960   4.146   4.045   0.393
 4001TIP3    H211961   4.181   3.905   0.441
 4002TIP3   OH211962   4.305   3.758   5.684
 4002TIP3    H111963   4.396   3.784   5.672
 4002TIP3    H211964   4.300   3.669   5.649
 4003TIP3   OH211965   7.007   3.192   5.629
 4003TIP3    H111966   6.912   3.200   5.616
 4003TIP3    H211967   7.016   3.177   5.724
 4004TIP3   OH211968   6.824   3.097   5.406
 4004TIP3    H111969   6.769   3.024   5.380
 4004TIP3    H211970   6.913   3.070   5.383
 4005TIP3   OH211971   3.688   2.038   0.687
 4005TIP3    H111972   3.636   1.991   0.752
 4005TIP3    H211973   3.675   1.988   0.606
 4006TIP3   OH211974   2.204   4.127   2.990
 4006TIP3    H111975   2.199   4.205   3.045
 4006TIP3    H211976   2.142   4.144   2.919
 4007TIP3   OH211977   3.044   6.721   1.329
 4007TIP3    H111978   3.129   6.763   1.317
 4007TIP3    H211979   3.015   6.699   1.241
 4008TIP3   OH211980   8.234   7.469   5.598
 4008TIP3    H111981   8.176   7.527   5.549
 4008TIP3    H211982   8.243   7.391   5.542
 4009TIP3   OH211983   7.446   1.058   5.439
 4009TIP3    H111984   7.459   0.967   5.414
 4009TIP3    H211985   7.358   1.079   5.409
 4010TIP3   OH211986   3.324   3.685   0.241
 4010TIP3    H111987   3.335   3.617   0.174
 4010TIP3    H211988   3.385   3.659   0.311
 4011TIP3   OH211989   1.336   4.301   0.918
 4011TIP3    H111990   1.258   4.350   0.942
 4011TIP3    H211991   1.409   4.358   0.941
 4012TIP3   OH211992   5.264   1.821   4.185
 4012TIP3    H111993   5.243   1.728   4.181
 4012TIP3    H211994   5.349   1.825   4.228
 4013TIP3   OH211995   2.540   4.820   4.207
 4013TIP3    H111996   2.509   4.891   4.151
 4013TIP3    H211997   2.519   4.849   4.296
 4014TIP3   OH211998   4.766   4.598   4.400
 4014TIP3    H111999   4.756   4.540   4.475
 4014TIP3    H212000   4.686   4.651   4.399
 4015TIP3   OH212001   1.612   0.096   2.803
 4015TIP3    H112002   1.671   0.071   2.874
 4015TIP3    H212003   1.535   0.041   2.815
 4016TIP3   OH212004   3.776   6.959   5.304
 4016TIP3    H112005   3.781   7.014   5.382
 4016TIP3    H212006   3.683   6.938   5.297
 4017TIP3   OH212007   5.344   1.654   1.227
 4017TIP3    H112008   5.384   1.596   1.162
 4017TIP3    H212009   5.255   1.667   1.195
 4018TIP3   OH212010   2.710   1.229   0.105
 4018TIP3    H112011   2.753   1.310   0.077
 4018TIP3    H212012   2.632   1.223   0.050
 4019TIP3   OH212013   5.547   2.604   1.948
 4019TIP3    H112014   5.594   2.570   1.873
 4019TIP3    H212015   5.607   2.666   1.989
 4020TIP3   OH212016   3.980   0.809   3.283
 4020TIP3    H112017   4.053   0.783   3.225
 4020TIP3    H212018   3.980   0.904   3.279
 4021TIP3   OH212019   5.123   2.975   1.258
 4021TIP3    H112020   5.163   3.061   1.243
 4021TIP3    H212021   5.194   2.913   1.243
 4022TIP3   OH212022   5.384   0.510   6.518
 4022TIP3    H112023   5.386   0.494   6.424
 4022TIP3    H212024   5.298   0.549   6.534
 4023TIP3   OH212025   3.763   3.027   2.437
 4023TIP3    H112026   3.822   2.979   2.495
 4023TIP3    H212027   3.684   3.039   2.490
 4024TIP3   OH212028   6.112   4.085   2.348
 4024TIP3    H112029   6.172   4.087   2.422
 4024TIP3    H212030   6.125   4.170   2.304
 4025TIP3   OH212031   1.196   6.793   1.810
 4025TIP3    H112032   1.177   6.742   1.731
 4025TIP3    H212033   1.243   6.870   1.778
 4026TIP3   OH212034   7.961   2.710   5.353
 4026TIP3    H112035   7.874   2.674   5.339
 4026TIP3    H212036   8.014   2.635   5.381
 4027TIP3   OH212037   1.426   1.174   4.098
 4027TIP3    H112038   1.450   1.234   4.028
 4027TIP3    H212039   1.375   1.105   4.054
 4028TIP3   OH212040   7.646   2.136   2.170
 4028TIP3    H112041   7.669   2.094   2.253
 4028TIP3    H212042   7.697   2.217   2.169
 4029TIP3   OH212043   0.356   1.117   6.479
 4029TIP3    H112044   0.279   1.172   6.464
 4029TIP3    H212045   0.373   1.124   6.573
 4030TIP3   OH212046   1.147   1.323   3.290
 4030TIP3    H112047   1.164   1.417   3.289
 4030TIP3    H212048   1.192   1.290   3.367
 4031TIP3   OH212049   0.186   5.502   5.245
 4031TIP3    H112050   0.183   5.420   5.293
 4031TIP3    H212051   0.094   5.523   5.228
 4032TIP3   OH212052   1.760   3.922   1.390
 4032TIP3    H112053   1.709   3.915   1.309
 4032TIP3    H212054   1.709   3.981   1.445
 4033TIP3   OH212055   5.484   0.391   0.489
 4033TIP3    H112056   5.510   0.341   0.567
 4033TIP3    H212057   5.564   0.435   0.461
 4034TIP3   OH212058   8.262   4.195   3.636
 4034TIP3    H112059   8.271   4.266   3.699
 4034TIP3    H212060   8.268   4.115   3.688
 4035TIP3   OH212061   6.294   3.875   1.269
 4035TIP3    H112062   6.202   3.872   1.243
 4035TIP3    H212063   6.316   3.968   1.271
 4036TIP3   OH212064   6.360   6.670   1.776
 4036TIP3    H112065   6.283   6.625   1.740
 4036TIP3    H212066   6.432   6.608   1.764
 4037TIP3   OH212067   0.865   6.169   4.771
 4037TIP3    H112068   0.896   6.115   4.844
 4037TIP3    H212069   0.779   6.132   4.750
 4038TIP3   OH212070   5.667   0.914   3.383
 4038TIP3    H112071   5.611   0.872   3.448
 4038TIP3    H212072   5.659   0.858   3.305
 4039TIP3   OH212073   8.093   6.091   2.405
 4039TIP3    H112074   8.032   6.156   2.371
 4039TIP3    H212075   8.098   6.025   2.335
 4040TIP3   OH212076   2.397   2.327   5.159
 4040TIP3    H112077   2.481   2.303   5.122
 4040TIP3    H212078   2.392   2.422   5.150
 4041TIP3   OH212079   1.342   1.857   6.067
 4041TIP3    H112080   1.251   1.832   6.050
 4041TIP3    H212081   1.384   1.775   6.095
 4042TIP3   OH212082   6.797   1.780   4.058
 4042TIP3    H112083   6.877   1.831   4.048
 4042TIP3    H212084   6.729   1.845   4.072
 4043TIP3   OH212085   3.993   2.200   0.515
 4043TIP3    H112086   3.941   2.127   0.484
 4043TIP3    H212087   3.968   2.210   0.607
 4044TIP3   OH212088   1.094   3.182   0.535
 4044TIP3    H112089   1.113   3.107   0.592
 4044TIP3    H212090   1.118   3.152   0.447
 4045TIP3   OH212091   2.137   4.284   1.038
 4045TIP3    H112092   2.054   4.301   1.084
 4045TIP3    H212093   2.179   4.215   1.088
 4046TIP3   OH212094   3.697   1.250   5.164
 4046TIP3    H112095   3.656   1.164   5.155
 4046TIP3    H212096   3.791   1.232   5.166
 4047TIP3   OH212097   5.132   6.528   4.918
 4047TIP3    H112098   5.116   6.586   4.993
 4047TIP3    H212099   5.197   6.575   4.865
 4048TIP3   OH212100   7.890   1.104   4.115
 4048TIP3    H112101   7.873   1.189   4.155
 4048TIP3    H212102   7.938   1.055   4.182
 4049TIP3   OH212103   2.929   0.775   5.890
 4049TIP3    H112104   2.916   0.780   5.985
 4049TIP3    H212105   3.023   0.785   5.878
 4050TIP3   OH212106   5.547   0.757   1.978
 4050TIP3    H112107   5.590   0.697   2.039
 4050TIP3    H212108   5.609   0.768   1.906
 4051TIP3   OH212109   8.163   0.838   2.053
 4051TIP3    H112110   8.256   0.857   2.045
 4051TIP3    H212111   8.120   0.923   2.045
 4052TIP3   OH212112   4.685   2.528   4.864
 4052TIP3    H112113   4.617   2.461   4.872
 4052TIP3    H212114   4.762   2.479   4.834
 4053TIP3   OH212115   5.174   5.797   1.179
 4053TIP3    H112116   5.138   5.773   1.265
 4053TIP3    H212117   5.098   5.820   1.127
 4054TIP3   OH212118   7.073   3.740   1.182
 4054TIP3    H112119   7.032   3.661   1.146
 4054TIP3    H212120   7.108   3.786   1.106
 4055TIP3   OH212121   6.797   1.796   4.989
 4055TIP3    H112122   6.834   1.848   4.917
 4055TIP3    H212123   6.703   1.804   4.978
 4056TIP3   OH212124   3.366   4.952   3.781
 4056TIP3    H112125   3.393   4.875   3.732
 4056TIP3    H212126   3.317   5.005   3.718
 4057TIP3   OH212127   0.468   3.381   4.415
 4057TIP3    H112128   0.404   3.450   4.395
 4057TIP3    H212129   0.414   3.305   4.436
 4058TIP3   OH212130   1.471   2.577   4.628
 4058TIP3    H112131   1.463   2.581   4.724
 4058TIP3    H212132   1.508   2.662   4.604
 4059TIP3   OH212133   2.782   4.195   5.525
 4059TIP3    H112134   2.834   4.274   5.514
 4059TIP3    H212135   2.843   4.123   5.506
 4060TIP3   OH212136   4.036   1.398   5.185
 4060TIP3    H112137   4.046   1.433   5.096
 4060TIP3    H212138   4.009   1.474   5.237
 4061TIP3   OH212139   5.751   4.465   6.400
 4061TIP3    H112140   5.657   4.461   6.383
 4061TIP3    H212141   5.766   4.552   6.436
 4062TIP3   OH212142   5.836   4.715   6.462
 4062TIP3    H112143   5.926   4.742   6.442
 4062TIP3    H212144   5.814   4.764   6.542
 4063TIP3   OH212145   7.657   1.830   4.836
 4063TIP3    H112146   7.712   1.836   4.914
 4063TIP3    H212147   7.613   1.745   4.845
 4064TIP3   OH212148   2.942   6.066   3.507
 4064TIP3    H112149   2.878   6.031   3.569
 4064TIP3    H212150   2.897   6.139   3.465
 4065TIP3   OH212151   7.676   3.246   5.182
 4065TIP3    H112152   7.654   3.154   5.195
 4065TIP3    H212153   7.720   3.249   5.097
 4066TIP3   OH212154   4.443   3.628   1.749
 4066TIP3    H112155   4.420   3.543   1.786
 4066TIP3    H212156   4.485   3.674   1.822
 4067TIP3   OH212157   4.615   4.805   3.827
 4067TIP3    H112158   4.666   4.856   3.764
 4067TIP3    H212159   4.534   4.784   3.781
 4068TIP3   OH212160   2.154   1.779   6.514
 4068TIP3    H112161   2.086   1.738   6.566
 4068TIP3    H212162   2.170   1.718   6.442
 4069TIP3   OH212163   6.368   6.645   5.222
 4069TIP3    H112164   6.317   6.584   5.275
 4069TIP3    H212165   6.352   6.618   5.132
 4070TIP3   OH212166   7.221   7.658   4.460
 4070TIP3    H112167   7.179   7.730   4.413
 4070TIP3    H212168   7.312   7.687   4.470
 4071TIP3   OH212169   0.410   0.178   4.216
 4071TIP3    H112170   0.398   0.229   4.296
 4071TIP3    H212171   0.494   0.209   4.181
 4072TIP3   OH212172   7.727   1.278   1.538
 4072TIP3    H112173   7.683   1.248   1.618
 4072TIP3    H212174   7.812   1.234   1.539
 4073TIP3   OH212175   6.103   4.643   5.420
 4073TIP3    H112176   6.124   4.716   5.362
 4073TIP3    H212177   6.119   4.565   5.367
 4074TIP3   OH212178   6.072   1.389   3.102
 4074TIP3    H112179   6.136   1.327   3.134
 4074TIP3    H212180   6.122   1.469   3.086
 4075TIP3   OH212181   7.403   3.730   6.456
 4075TIP3    H112182   7.329   3.675   6.483
 4075TIP3    H212183   7.413   3.713   6.363
 4076TIP3   OH212184   0.610   6.346   4.047
 4076TIP3    H112185   0.647   6.378   4.129
 4076TIP3    H212186   0.527   6.306   4.072
 4077TIP3   OH212187   4.561   2.794   5.759
 4077TIP3    H112188   4.563   2.703   5.787
 4077TIP3    H212189   4.468   2.818   5.761
 4078TIP3   OH212190   7.264   5.150   6.115
 4078TIP3    H112191   7.290   5.237   6.084
 4078TIP3    H212192   7.262   5.096   6.036
 4079TIP3   OH212193   5.469   6.296   2.193
 4079TIP3    H112194   5.530   6.297   2.119
 4079TIP3    H212195   5.392   6.344   2.162
 4080TIP3   OH212196   4.243   6.788   6.331
 4080TIP3    H112197   4.296   6.860   6.366
 4080TIP3    H212198   4.235   6.808   6.237
 4081TIP3   OH212199   4.993   7.804   4.609
 4081TIP3    H112200   4.947   7.810   4.525
 4081TIP3    H212201   5.044   7.724   4.603
 4082TIP3   OH212202   3.635   6.008   1.545
 4082TIP3    H112203   3.680   5.927   1.569
 4082TIP3    H212204   3.546   5.981   1.525
 4083TIP3   OH212205   8.022   0.114   1.631
 4083TIP3    H112206   7.928   0.109   1.646
 4083TIP3    H212207   8.033   0.183   1.565
 4084TIP3   OH212208   1.860   5.838   5.941
 4084TIP3    H112209   1.885   5.889   5.864
 4084TIP3    H212210   1.865   5.900   6.014
 4085TIP3   OH212211   7.742   0.385   4.858
 4085TIP3    H112212   7.829   0.418   4.882
 4085TIP3    H212213   7.753   0.351   4.770
 4086TIP3   OH212214   2.658   6.123   4.917
 4086TIP3    H112215   2.688   6.037   4.886
 4086TIP3    H212216   2.736   6.179   4.911
 4087TIP3   OH212217   2.478   6.263   4.426
 4087TIP3    H112218   2.485   6.292   4.335
 4087TIP3    H212219   2.497   6.341   4.478
 4088TIP3   OH212220   1.757   2.151   2.654
 4088TIP3    H112221   1.665   2.129   2.668
 4088TIP3    H212222   1.791   2.171   2.742
 4089TIP3   OH212223   3.620   5.358   0.928
 4089TIP3    H112224   3.599   5.451   0.941
 4089TIP3    H212225   3.672   5.334   1.004
 4090TIP3   OH212226   1.427   2.832   1.174
 4090TIP3    H112227   1.444   2.772   1.247
 4090TIP3    H212228   1.493   2.901   1.185
 4091TIP3   OH212229   3.688   6.735   0.352
 4091TIP3    H112230   3.781   6.726   0.375
 4091TIP3    H212231   3.680   6.825   0.319
 4092TIP3   OH212232   8.108   6.063   0.652
 4092TIP3    H112233   8.164   6.061   0.730
 4092TIP3    H212234   8.112   5.974   0.617
 4093TIP3   OH212235   2.893   1.786   6.743
 4093TIP3    H112236   2.913   1.772   6.835
 4093TIP3    H212237   2.975   1.818   6.704
 4094TIP3   OH212238   2.136   4.249   2.073
 4094TIP3    H112239   2.068   4.310   2.046
 4094TIP3    H212240   2.209   4.267   2.015
 4095TIP3   OH212241   1.973   1.696   0.059
 4095TIP3    H112242   2.034   1.726   0.128
 4095TIP3    H212243   2.030   1.671  -0.014
 4096TIP3   OH212244   3.779   3.631   4.892
 4096TIP3    H112245   3.801   3.724   4.888
 4096TIP3    H212246   3.693   3.629   4.935
 4097TIP3   OH212247   6.808   3.507   1.433
 4097TIP3    H112248   6.848   3.422   1.411
 4097TIP3    H212249   6.856   3.536   1.510
 4098TIP3   OH212250   3.525   3.797   2.514
 4098TIP3    H112251   3.472   3.851   2.573
 4098TIP3    H212252   3.605   3.779   2.564
 4099TIP3   OH212253   4.762   5.332   5.047
 4099TIP3    H112254   4.855   5.352   5.056
 4099TIP3    H212255   4.760   5.237   5.033
 4100TIP3   OH212256   0.272   2.299   5.556
 4100TIP3    H112257   0.322   2.232   5.510
 4100TIP3    H212258   0.232   2.254   5.629
 4101TIP3   OH212259   2.320   0.918   1.828
 4101TIP3    H112260   2.381   0.849   1.801
 4101TIP3    H212261   2.233   0.880   1.813
 4102TIP3   OH212262   5.572   5.166   4.501
 4102TIP3    H112263   5.619   5.235   4.454
 4102TIP3    H212264   5.630   5.143   4.574
 4103TIP3   OH212265   7.779   3.664   0.627
 4103TIP3    H112266   7.777   3.572   0.652
 4103TIP3    H212267   7.690   3.684   0.599
 4104TIP3   OH212268   6.540   6.048   1.440
 4104TIP3    H112269   6.583   5.987   1.380
 4104TIP3    H212270   6.483   5.993   1.493
 4105TIP3   OH212271   3.585   3.087   6.278
 4105TIP3    H112272   3.579   3.055   6.187
 4105TIP3    H212273   3.672   3.126   6.283
 4106TIP3   OH212274   4.035   7.180   6.411
 4106TIP3    H112275   4.028   7.102   6.355
 4106TIP3    H212276   4.120   7.217   6.389
 4107TIP3   OH212277   5.714   3.580   5.179
 4107TIP3    H112278   5.699   3.655   5.121
 4107TIP3    H212279   5.645   3.587   5.246
 4108TIP3   OH212280   2.804   5.079   2.637
 4108TIP3    H112281   2.776   5.123   2.557
 4108TIP3    H212282   2.874   5.021   2.608
 4109TIP3   OH212283   6.494   5.484   1.081
 4109TIP3    H112284   6.515   5.401   1.124
 4109TIP3    H212285   6.579   5.525   1.065
 4110TIP3   OH212286   4.182   1.335   6.307
 4110TIP3    H112287   4.193   1.241   6.291
 4110TIP3    H212288   4.246   1.355   6.376
 4111TIP3   OH212289   6.937   7.373   2.663
 4111TIP3    H112290   6.979   7.303   2.613
 4111TIP3    H212291   7.010   7.428   2.692
 4112TIP3   OH212292   6.135   0.980   0.399
 4112TIP3    H112293   6.195   0.907   0.417
 4112TIP3    H212294   6.188   1.058   0.413
 4113TIP3   OH212295   5.454   4.802   0.895
 4113TIP3    H112296   5.427   4.718   0.858
 4113TIP3    H212297   5.431   4.867   0.829
 4114TIP3   OH212298   3.694   1.196   0.493
 4114TIP3    H112299   3.735   1.123   0.540
 4114TIP3    H212300   3.761   1.264   0.491
 4115TIP3   OH212301   7.211   5.210   3.186
 4115TIP3    H112302   7.180   5.120   3.199
 4115TIP3    H212303   7.132   5.260   3.166
 4116TIP3   OH212304   2.001   4.550   1.091
 4116TIP3    H112305   1.952   4.549   1.173
 4116TIP3    H212306   1.937   4.520   1.025
 4117TIP3   OH212307   1.273   1.269   1.173
 4117TIP3    H112308   1.330   1.261   1.097
 4117TIP3    H212309   1.241   1.180   1.188
 4118TIP3   OH212310   6.746   0.467   6.392
 4118TIP3    H112311   6.707   0.381   6.384
 4118TIP3    H212312   6.706   0.518   6.322
 4119TIP3   OH212313   7.252   3.854   0.972
 4119TIP3    H112314   7.347   3.858   0.982
 4119TIP3    H212315   7.230   3.932   0.921
 4120TIP3   OH212316   5.593   4.325   2.685
 4120TIP3    H112317   5.547   4.408   2.700
 4120TIP3    H212318   5.605   4.321   2.590
 4121TIP3   OH212319   0.501   1.506   5.707
 4121TIP3    H112320   0.558   1.559   5.763
 4121TIP3    H212321   0.545   1.504   5.622
 4122TIP3   OH212322   5.520   3.366   1.563
 4122TIP3    H112323   5.614   3.379   1.557
 4122TIP3    H212324   5.489   3.372   1.472
 4123TIP3   OH212325   1.359   1.727   3.970
 4123TIP3    H112326   1.451   1.733   3.944
 4123TIP3    H212327   1.355   1.771   4.055
 4124TIP3   OH212328   4.179   4.479   5.504
 4124TIP3    H112329   4.090   4.446   5.517
 4124TIP3    H212330   4.218   4.478   5.591
 4125TIP3   OH212331   4.333   3.375   5.009
 4125TIP3    H112332   4.340   3.336   5.096
 4125TIP3    H212333   4.393   3.325   4.954
 4126TIP3   OH212334   3.211   3.846   1.611
 4126TIP3    H112335   3.175   3.923   1.565
 4126TIP3    H212336   3.134   3.791   1.627
 4127TIP3   OH212337   7.570   0.188   6.035
 4127TIP3    H112338   7.619   0.203   6.115
 4127TIP3    H212339   7.599   0.258   5.976
 4128TIP3   OH212340   2.709   5.539   0.199
 4128TIP3    H112341   2.638   5.474   0.190
 4128TIP3    H212342   2.677   5.600   0.266
 4129TIP3   OH212343   7.952   4.272   3.293
 4129TIP3    H112344   8.002   4.206   3.340
 4129TIP3    H212345   7.949   4.240   3.203
 4130TIP3   OH212346   3.606   0.374   3.935
 4130TIP3    H112347   3.608   0.280   3.949
 4130TIP3    H212348   3.697   0.397   3.916
 4131TIP3   OH212349   0.798   6.329   5.887
 4131TIP3    H112350   0.842   6.413   5.900
 4131TIP3    H212351   0.783   6.324   5.793
 4132TIP3   OH212352   5.785   0.594   4.066
 4132TIP3    H112353   5.826   0.538   4.132
 4132TIP3    H212354   5.697   0.611   4.100
 4133TIP3   OH212355   7.694   4.765   6.553
 4133TIP3    H112356   7.771   4.789   6.501
 4133TIP3    H212357   7.726   4.697   6.613
 4134TIP3   OH212358   3.309   0.050   1.442
 4134TIP3    H112359   3.217   0.026   1.443
 4134TIP3    H212360   3.352  -0.021   1.393
 4135TIP3   OH212361   2.986   7.640   1.290
 4135TIP3    H112362   3.068   7.678   1.320
 4135TIP3    H212363   2.949   7.598   1.367
 4136TIP3   OH212364   2.626   0.866   0.208
 4136TIP3    H112365   2.549   0.865   0.264
 4136TIP3    H212366   2.633   0.777   0.174
 4137TIP3   OH212367   6.573   1.043   5.774
 4137TIP3    H112368   6.570   1.004   5.861
 4137TIP3    H212369   6.507   1.112   5.777
 4138TIP3   OH212370   0.303   2.524   1.763
 4138TIP3    H112371   0.219   2.528   1.809
 4138TIP3    H212372   0.317   2.430   1.746
 4139TIP3   OH212373   3.030   4.490   3.013
 4139TIP3    H112374   3.010   4.513   3.104
 4139TIP3    H212375   3.035   4.394   3.014
 4140TIP3   OH212376   6.524   7.631   0.823
 4140TIP3    H112377   6.567   7.640   0.908
 4140TIP3    H212378   6.447   7.687   0.830
 4141TIP3   OH212379   2.086   1.265   4.771
 4141TIP3    H112380   1.999   1.228   4.755
 4141TIP3    H212381   2.071   1.332   4.838
 4142TIP3   OH212382   0.040   7.397   6.475
 4142TIP3    H112383   0.032   7.368   6.384
 4142TIP3    H212384  -0.039   7.449   6.490
 4143TIP3   OH212385   6.595   1.279   6.094
 4143TIP3    H112386   6.578   1.299   6.002
 4143TIP3    H212387   6.509   1.258   6.130
 4144TIP3   OH212388   0.738   3.629   1.724
 4144TIP3    H112389   0.831   3.646   1.713
 4144TIP3    H212390   0.731   3.586   1.810
 4145TIP3   OH212391   4.010   6.672   0.712
 4145TIP3    H112392   4.000   6.613   0.638
 4145TIP3    H212393   4.090   6.641   0.756
 4146TIP3   OH212394   1.976   4.860   5.913
 4146TIP3    H112395   1.906   4.916   5.945
 4146TIP3    H212396   2.056   4.911   5.928
 4147TIP3   OH212397   7.610   0.358   2.706
 4147TIP3    H112398   7.665   0.280   2.714
 4147TIP3    H212399   7.665   0.422   2.661
 4148TIP3   OH212400   2.851   6.765   4.895
 4148TIP3    H112401   2.873   6.777   4.802
 4148TIP3    H212402   2.794   6.838   4.916
 4149TIP3   OH212403   1.725   3.542   0.992
 4149TIP3    H112404   1.744   3.511   1.081
 4149TIP3    H212405   1.810   3.545   0.949
 4150TIP3   OH212406   1.335   7.603   6.374
 4150TIP3    H112407   1.350   7.566   6.287
 4150TIP3    H212408   1.339   7.697   6.361
 4151TIP3   OH212409   7.503   3.475   2.317
 4151TIP3    H112410   7.440   3.403   2.325
 4151TIP3    H212411   7.458   3.540   2.263
 4152TIP3   OH212412   7.572   6.865   5.454
 4152TIP3    H112413   7.484   6.901   5.445
 4152TIP3    H212414   7.583   6.808   5.378
 4153TIP3   OH212415   2.071   3.096   5.522
 4153TIP3    H112416   2.142   3.080   5.461
 4153TIP3    H212417   2.112   3.090   5.609
 4154TIP3   OH212418   3.990   4.806   4.880
 4154TIP3    H112419   4.049   4.826   4.808
 4154TIP3    H212420   4.047   4.781   4.952
 4155TIP3   OH212421   6.779   7.401   5.637
 4155TIP3    H112422   6.728   7.344   5.696
 4155TIP3    H212423   6.712   7.449   5.588
 4156TIP3   OH212424   2.573   0.891   3.003
 4156TIP3    H112425   2.566   0.985   3.013
 4156TIP3    H212426   2.666   0.872   3.020
 4157TIP3   OH212427   0.326   0.383   6.062
 4157TIP3    H112428   0.286   0.403   5.977
 4157TIP3    H212429   0.392   0.316   6.041
 4158TIP3   OH212430   0.492   1.366   1.752
 4158TIP3    H112431   0.530   1.436   1.806
 4158TIP3    H212432   0.398   1.371   1.769
 4159TIP3   OH212433   5.669   0.275   4.122
 4159TIP3    H112434   5.644   0.337   4.053
 4159TIP3    H212435   5.654   0.188   4.083
 4160TIP3   OH212436   1.354   3.408   1.506
 4160TIP3    H112437   1.368   3.328   1.556
 4160TIP3    H212438   1.282   3.387   1.447
 4161TIP3   OH212439   1.254   5.628   3.482
 4161TIP3    H112440   1.289   5.711   3.514
 4161TIP3    H212441   1.175   5.652   3.433
 4162TIP3   OH212442   2.679   4.527   5.647
 4162TIP3    H112443   2.620   4.602   5.653
 4162TIP3    H212444   2.689   4.497   5.737
 4163TIP3   OH212445   4.323   6.133   3.735
 4163TIP3    H112446   4.400   6.077   3.736
 4163TIP3    H212447   4.264   6.096   3.800
 4164TIP3   OH212448   0.976   4.206   4.371
 4164TIP3    H112449   0.977   4.292   4.412
 4164TIP3    H212450   1.018   4.149   4.436
 4165TIP3   OH212451   4.095   3.287   1.478
 4165TIP3    H112452   4.029   3.287   1.409
 4165TIP3    H212453   4.133   3.199   1.475
 4166TIP3   OH212454   2.461   6.876   1.953
 4166TIP3    H112455   2.515   6.890   1.875
 4166TIP3    H212456   2.518   6.900   2.026
 4167TIP3   OH212457   6.410   5.067   2.635
 4167TIP3    H112458   6.360   5.148   2.650
 4167TIP3    H212459   6.400   5.050   2.541
 4168TIP3   OH212460   8.139   6.952   5.556
 4168TIP3    H112461   8.141   6.863   5.520
 4168TIP3    H212462   8.045   6.971   5.564
 4169TIP3   OH212463   2.554   2.145   2.657
 4169TIP3    H112464   2.547   2.110   2.569
 4169TIP3    H212465   2.646   2.173   2.665
 4170TIP3   OH212466   4.793   7.670   6.670
 4170TIP3    H112467   4.801   7.761   6.642
 4170TIP3    H212468   4.873   7.653   6.720
 4171TIP3   OH212469   6.809   1.960   4.741
 4171TIP3    H112470   6.886   1.916   4.706
 4171TIP3    H212471   6.739   1.941   4.678
 4172TIP3   OH212472   4.723   4.948   3.608
 4172TIP3    H112473   4.772   5.030   3.614
 4172TIP3    H212474   4.653   4.966   3.545
 4173TIP3   OH212475   5.189   4.987   4.274
 4173TIP3    H112476   5.193   4.901   4.232
 4173TIP3    H212477   5.210   4.971   4.365
 4174TIP3   OH212478   3.262   1.437   5.647
 4174TIP3    H112479   3.241   1.521   5.605
 4174TIP3    H212480   3.309   1.388   5.580
 4175TIP3   OH212481   7.346   1.798   3.940
 4175TIP3    H112482   7.360   1.704   3.929
 4175TIP3    H212483   7.290   1.823   3.866
 4176TIP3   OH212484   5.001   3.266   6.464
 4176TIP3    H112485   4.980   3.193   6.523
 4176TIP3    H212486   4.960   3.342   6.505
 4177TIP3   OH212487   2.669   4.003   2.092
 4177TIP3    H112488   2.582   3.963   2.083
 4177TIP3    H212489   2.667   4.047   2.177
 4178TIP3   OH212490   7.868   0.909   5.721
 4178TIP3    H112491   7.841   0.824   5.755
 4178TIP3    H212492   7.785   0.953   5.701
 4179TIP3   OH212493   1.279   4.400   4.650
 4179TIP3    H112494   1.345   4.421   4.585
 4179TIP3    H212495   1.208   4.359   4.600
 4180TIP3   OH212496   5.512   6.721   6.245
 4180TIP3    H112497   5.519   6.628   6.222
 4180TIP3    H212498   5.460   6.722   6.326
 4181TIP3   OH212499   2.052   0.912   5.982
 4181TIP3    H112500   1.962   0.902   6.012
 4181TIP3    H212501   2.044   0.925   5.888
 4182TIP3   OH212502   7.948   6.810   0.621
 4182TIP3    H112503   7.994   6.842   0.698
 4182TIP3    H212504   8.017   6.774   0.564
 4183TIP3   OH212505   6.265   6.938   3.409
 4183TIP3    H112506   6.196   6.871   3.406
 4183TIP3    H212507   6.288   6.944   3.502
 4184TIP3   OH212508   6.470   5.886   0.840
 4184TIP3    H112509   6.550   5.849   0.877
 4184TIP3    H212510   6.497   5.921   0.755
 4185TIP3   OH212511   3.505   4.736   2.608
 4185TIP3    H112512   3.502   4.691   2.693
 4185TIP3    H212513   3.542   4.822   2.628
 4186TIP3   OH212514   5.285   5.492   2.214
 4186TIP3    H112515   5.322   5.580   2.219
 4186TIP3    H212516   5.317   5.456   2.131
 4187TIP3   OH212517   4.982   3.990   0.097
 4187TIP3    H112518   4.918   4.040   0.046
 4187TIP3    H212519   5.056   4.050   0.109
 4188TIP3   OH212520   3.554   2.504   1.155
 4188TIP3    H112521   3.621   2.568   1.179
 4188TIP3    H212522   3.603   2.425   1.132
 4189TIP3   OH212523   5.150   3.736   0.152
 4189TIP3    H112524   5.115   3.741   0.063
 4189TIP3    H212525   5.225   3.677   0.145
 4190TIP3   OH212526   7.686   3.660   0.941
 4190TIP3    H112527   7.769   3.638   0.898
 4190TIP3    H212528   7.641   3.576   0.950
 4191TIP3   OH212529   2.926   4.244   6.297
 4191TIP3    H112530   2.966   4.312   6.350
 4191TIP3    H212531   2.994   4.219   6.235
 4192TIP3   OH212532   2.817   4.955   2.098
 4192TIP3    H112533   2.888   4.945   2.035
 4192TIP3    H212534   2.775   4.869   2.101
 4193TIP3   OH212535   0.462   5.959   0.330
 4193TIP3    H112536   0.421   5.879   0.298
 4193TIP3    H212537   0.437   5.963   0.423
 4194TIP3   OH212538   4.149   4.979   1.928
 4194TIP3    H112539   4.163   4.892   1.965
 4194TIP3    H212540   4.055   4.981   1.907
 4195TIP3   OH212541   1.398   2.576   2.542
 4195TIP3    H112542   1.360   2.514   2.605
 4195TIP3    H212543   1.326   2.636   2.520
 4196TIP3   OH212544   5.207   2.985   3.952
 4196TIP3    H112545   5.187   3.059   4.009
 4196TIP3    H212546   5.149   2.915   3.983
 4197TIP3   OH212547   3.058   0.476   3.006
 4197TIP3    H112548   3.013   0.392   3.001
 4197TIP3    H212549   3.146   0.455   3.038
 4198TIP3   OH212550   3.036   5.346   6.105
 4198TIP3    H112551   2.992   5.373   6.024
 4198TIP3    H212552   3.106   5.288   6.077
 4199TIP3   OH212553   7.087   3.540   4.942
 4199TIP3    H112554   7.172   3.582   4.930
 4199TIP3    H212555   7.023   3.611   4.935
 4200TIP3   OH212556   4.122   1.330   0.685
 4200TIP3    H112557   4.149   1.260   0.744
 4200TIP3    H212558   4.096   1.402   0.742
 4201TIP3   OH212559   3.684   3.422   0.128
 4201TIP3    H112560   3.690   3.394   0.219
 4201TIP3    H212561   3.733   3.357   0.079
 4202TIP3   OH212562   8.096   0.074   6.101
 4202TIP3    H112563   8.030   0.010   6.125
 4202TIP3    H212564   8.083   0.147   6.162
 4203TIP3   OH212565   4.688   7.574   4.185
 4203TIP3    H112566   4.724   7.629   4.116
 4203TIP3    H212567   4.677   7.633   4.259
 4204TIP3   OH212568   7.703   5.482   0.512
 4204TIP3    H112569   7.608   5.476   0.511
 4204TIP3    H212570   7.722   5.568   0.474
 4205TIP3   OH212571   3.755   2.683   2.044
 4205TIP3    H112572   3.699   2.731   2.105
 4205TIP3    H212573   3.844   2.714   2.063
 4206TIP3   OH212574   5.937   1.454   0.859
 4206TIP3    H112575   5.866   1.390   0.867
 4206TIP3    H212576   5.906   1.517   0.794
 4207TIP3   OH212577   4.556   1.607   5.945
 4207TIP3    H112578   4.601   1.688   5.967
 4207TIP3    H212579   4.463   1.628   5.951
 4208TIP3   OH212580   3.214   0.775   5.945
 4208TIP3    H112581   3.231   0.850   6.003
 4208TIP3    H212582   3.291   0.771   5.888
 4209TIP3   OH212583   1.681   0.303   2.139
 4209TIP3    H112584   1.714   0.259   2.217
 4209TIP3    H212585   1.586   0.309   2.153
 4210TIP3   OH212586   0.126   1.803   0.600
 4210TIP3    H112587   0.205   1.777   0.648
 4210TIP3    H212588   0.071   1.845   0.666
 4211TIP3   OH212589   7.092   4.537   4.893
 4211TIP3    H112590   7.167   4.519   4.836
 4211TIP3    H212591   7.092   4.465   4.956
 4212TIP3   OH212592   2.411   5.201   1.556
 4212TIP3    H112593   2.397   5.107   1.544
 4212TIP3    H212594   2.330   5.232   1.597
 4213TIP3   OH212595   4.555   4.551   2.067
 4213TIP3    H112596   4.582   4.619   2.005
 4213TIP3    H212597   4.503   4.491   2.014
 4214TIP3   OH212598   6.824   4.088   5.823
 4214TIP3    H112599   6.844   4.048   5.907
 4214TIP3    H212600   6.819   4.182   5.841
 4215TIP3   OH212601   3.411   5.278   1.214
 4215TIP3    H112602   3.436   5.340   1.282
 4215TIP3    H212603   3.476   5.289   1.146
 4216TIP3   OH212604   1.786   4.198   2.228
 4216TIP3    H112605   1.872   4.157   2.217
 4216TIP3    H212606   1.778   4.257   2.152
 4217TIP3   OH212607   6.710   2.992   3.605
 4217TIP3    H112608   6.766   3.065   3.579
 4217TIP3    H212609   6.760   2.914   3.582
 4218TIP3   OH212610   7.286   2.630   3.845
 4218TIP3    H112611   7.276   2.682   3.925
 4218TIP3    H212612   7.380   2.617   3.836
 4219TIP3   OH212613   0.244   4.929   2.462
 4219TIP3    H112614   0.181   4.954   2.394
 4219TIP3    H212615   0.248   4.833   2.458
 4220TIP3   OH212616   2.963   7.244   2.539
 4220TIP3    H112617   2.877   7.287   2.542
 4220TIP3    H212618   3.004   7.265   2.623
 4221TIP3   OH212619   3.306   5.015   5.779
 4221TIP3    H112620   3.234   5.051   5.727
 4221TIP3    H212621   3.385   5.034   5.729
 4222TIP3   OH212622   6.560   4.852   3.739
 4222TIP3    H112623   6.587   4.761   3.749
 4222TIP3    H212624   6.579   4.892   3.824
 4223TIP3   OH212625   0.210   7.001   1.001
 4223TIP3    H112626   0.233   7.085   1.042
 4223TIP3    H212627   0.285   6.981   0.945
 4224TIP3   OH212628   7.903   7.088   6.513
 4224TIP3    H112629   7.915   7.001   6.473
 4224TIP3    H212630   7.897   7.070   6.607
 4225TIP3   OH212631   1.044   7.213   0.430
 4225TIP3    H112632   1.074   7.266   0.356
 4225TIP3    H212633   0.980   7.269   0.475
 4226TIP3   OH212634   3.479   4.735   4.365
 4226TIP3    H112635   3.467   4.782   4.283
 4226TIP3    H212636   3.405   4.763   4.419
 4227TIP3   OH212637   5.172   2.298   2.654
 4227TIP3    H112638   5.191   2.207   2.676
 4227TIP3    H212639   5.151   2.297   2.561
 4228TIP3   OH212640   7.084   5.540   5.672
 4228TIP3    H112641   7.072   5.464   5.615
 4228TIP3    H212642   7.005   5.592   5.660
 4229TIP3   OH212643   5.329   4.094   3.377
 4229TIP3    H112644   5.360   4.068   3.290
 4229TIP3    H212645   5.258   4.032   3.396
 4230TIP3   OH212646   6.623   1.108   4.837
 4230TIP3    H112647   6.557   1.047   4.871
 4230TIP3    H212648   6.572   1.172   4.787
 4231TIP3   OH212649   0.363   6.982   4.385
 4231TIP3    H112650   0.366   6.888   4.404
 4231TIP3    H212651   0.277   7.010   4.417
 4232TIP3   OH212652   6.435   5.346   1.328
 4232TIP3    H112653   6.421   5.437   1.302
 4232TIP3    H212654   6.498   5.352   1.400
 4233TIP3   OH212655   3.584   2.597   0.863
 4233TIP3    H112656   3.603   2.541   0.938
 4233TIP3    H212657   3.517   2.549   0.814
 4234TIP3   OH212658   7.221   6.859   0.499
 4234TIP3    H112659   7.129   6.875   0.481
 4234TIP3    H212660   7.265   6.941   0.473
 4235TIP3   OH212661   2.710   7.354   2.506
 4235TIP3    H112662   2.754   7.417   2.448
 4235TIP3    H212663   2.640   7.317   2.453
 4236TIP3   OH212664   3.316   5.808   2.371
 4236TIP3    H112665   3.324   5.898   2.402
 4236TIP3    H212666   3.239   5.774   2.417
 4237TIP3   OH212667   5.516   5.910   0.709
 4237TIP3    H112668   5.509   5.819   0.679
 4237TIP3    H212669   5.476   5.910   0.796
 4238TIP3   OH212670   3.365   6.771   2.958
 4238TIP3    H112671   3.427   6.800   3.025
 4238TIP3    H212672   3.317   6.699   2.999
 4239TIP3   OH212673   6.106   1.677   4.471
 4239TIP3    H112674   6.047   1.739   4.514
 4239TIP3    H212675   6.169   1.653   4.538
 4240TIP3   OH212676   7.073   6.588   4.357
 4240TIP3    H112677   7.008   6.522   4.379
 4240TIP3    H212678   7.054   6.661   4.415
 4241TIP3   OH212679   1.702   2.407   6.592
 4241TIP3    H112680   1.631   2.452   6.639
 4241TIP3    H212681   1.663   2.381   6.509
 4242TIP3   OH212682   4.503   2.990   1.259
 4242TIP3    H112683   4.479   2.943   1.179
 4242TIP3    H212684   4.582   3.039   1.236
 4243TIP3   OH212685   6.614   4.742   0.003
 4243TIP3    H112686   6.601   4.648   0.015
 4243TIP3    H212687   6.682   4.764   0.066
 4244TIP3   OH212688   5.188   5.241   5.367
 4244TIP3    H112689   5.261   5.223   5.427
 4244TIP3    H212690   5.222   5.307   5.306
 4245TIP3   OH212691   0.214   7.300   5.094
 4245TIP3    H112692   0.214   7.329   5.002
 4245TIP3    H212693   0.156   7.224   5.095
 4246TIP3   OH212694   5.787   2.800   2.667
 4246TIP3    H112695   5.765   2.870   2.606
 4246TIP3    H212696   5.871   2.826   2.705
 4247TIP3   OH212697   4.438   2.818   4.139
 4247TIP3    H112698   4.496   2.782   4.206
 4247TIP3    H212699   4.352   2.817   4.179
 4248TIP3   OH212700   8.300   2.942   1.991
 4248TIP3    H112701   8.244   2.971   2.063
 4248TIP3    H212702   8.240   2.905   1.927
 4249TIP3   OH212703   5.591   2.911   2.122
 4249TIP3    H112704   5.517   2.953   2.166
 4249TIP3    H212705   5.628   2.851   2.187
 4250TIP3   OH212706   6.194   3.893   6.150
 4250TIP3    H112707   6.184   3.910   6.243
 4250TIP3    H212708   6.148   3.965   6.107
 4251TIP3   OH212709   2.748   0.370   2.688
 4251TIP3    H112710   2.693   0.295   2.667
 4251TIP3    H212711   2.834   0.332   2.708
 4252TIP3   OH212712   7.328   4.080   5.257
 4252TIP3    H112713   7.387   4.021   5.304
 4252TIP3    H212714   7.339   4.056   5.165
 4253TIP3   OH212715   5.156   6.115   2.143
 4253TIP3    H112716   5.224   6.103   2.078
 4253TIP3    H212717   5.085   6.158   2.096
 4254TIP3   OH212718   7.728   6.684   0.987
 4254TIP3    H112719   7.699   6.675   0.896
 4254TIP3    H212720   7.819   6.655   0.985
 4255TIP3   OH212721   6.452   5.397   5.588
 4255TIP3    H112722   6.402   5.394   5.670
 4255TIP3    H212723   6.452   5.306   5.557
 4256TIP3   OH212724   2.943   0.276   4.064
 4256TIP3    H112725   3.038   0.286   4.068
 4256TIP3    H212726   2.922   0.286   3.971
 4257TIP3   OH212727   5.335   5.362   1.154
 4257TIP3    H112728   5.359   5.343   1.063
 4257TIP3    H212729   5.291   5.282   1.184
 4258TIP3   OH212730   4.160   3.308   4.631
 4258TIP3    H112731   4.065   3.299   4.638
 4258TIP3    H212732   4.193   3.220   4.647
 4259TIP3   OH212733   5.266   1.244   1.334
 4259TIP3    H112734   5.232   1.182   1.398
 4259TIP3    H212735   5.203   1.316   1.332
 4260TIP3   OH212736   7.660   3.490   0.059
 4260TIP3    H112737   7.607   3.438  -0.001
 4260TIP3    H212738   7.627   3.579   0.050
 4261TIP3   OH212739   0.182   4.231   5.806
 4261TIP3    H112740   0.109   4.292   5.791
 4261TIP3    H212741   0.260   4.284   5.794
 4262TIP3   OH212742   1.840   5.575   3.296
 4262TIP3    H112743   1.744   5.571   3.301
 4262TIP3    H212744   1.868   5.484   3.308
 4263TIP3   OH212745   6.131   2.948   5.857
 4263TIP3    H112746   6.048   2.900   5.847
 4263TIP3    H212747   6.198   2.881   5.845
 4264TIP3   OH212748   1.586   7.640   5.024
 4264TIP3    H112749   1.530   7.629   5.100
 4264TIP3    H212750   1.617   7.730   5.030
 4265TIP3   OH212751   5.332   6.065   0.074
 4265TIP3    H112752   5.407   6.056   0.015
 4265TIP3    H212753   5.361   6.027   0.157
 4266TIP3   OH212754   6.953   4.610   0.513
 4266TIP3    H112755   6.948   4.536   0.573
 4266TIP3    H212756   6.996   4.680   0.563
 4267TIP3   OH212757   7.602   6.818   3.326
 4267TIP3    H112758   7.558   6.895   3.291
 4267TIP3    H212759   7.623   6.765   3.249
 4268TIP3   OH212760   6.722   1.243   3.732
 4268TIP3    H112761   6.743   1.311   3.795
 4268TIP3    H212762   6.712   1.164   3.785
 4269TIP3   OH212763   7.351   3.257   2.404
 4269TIP3    H112764   7.263   3.236   2.373
 4269TIP3    H212765   7.348   3.241   2.498
 4270TIP3   OH212766   2.343   1.723   2.296
 4270TIP3    H112767   2.290   1.779   2.240
 4270TIP3    H212768   2.320   1.749   2.385
 4271TIP3   OH212769   4.247   5.484   1.677
 4271TIP3    H112770   4.238   5.398   1.719
 4271TIP3    H212771   4.324   5.475   1.621
 4272TIP3   OH212772   0.460   2.221   6.076
 4272TIP3    H112773   0.383   2.165   6.078
 4272TIP3    H212774   0.514   2.191   6.149
 4273TIP3   OH212775   3.863   3.046   4.714
 4273TIP3    H112776   3.895   3.010   4.632
 4273TIP3    H212777   3.792   3.105   4.689
 4274TIP3   OH212778   2.901   0.961   5.675
 4274TIP3    H112779   2.902   0.884   5.733
 4274TIP3    H212780   2.940   1.031   5.728
 4275TIP3   OH212781   4.772   1.737   3.951
 4275TIP3    H112782   4.829   1.661   3.960
 4275TIP3    H212783   4.779   1.781   4.035
 4276TIP3   OH212784   0.213   1.731   6.228
 4276TIP3    H112785   0.217   1.638   6.208
 4276TIP3    H212786   0.178   1.735   6.317
 4277TIP3   OH212787   3.052   6.891   3.669
 4277TIP3    H112788   2.972   6.913   3.621
 4277TIP3    H212789   3.113   6.961   3.647
 4278TIP3   OH212790   1.929   2.126   0.222
 4278TIP3    H112791   1.846   2.128   0.271
 4278TIP3    H212792   1.997   2.132   0.290
 4279TIP3   OH212793   5.031   2.853   2.542
 4279TIP3    H112794   4.948   2.816   2.513
 4279TIP3    H212795   5.094   2.781   2.536
 4280TIP3   OH212796   3.219   1.619   5.452
 4280TIP3    H112797   3.278   1.688   5.482
 4280TIP3    H212798   3.267   1.572   5.385
 4281TIP3   OH212799   6.967   5.077   3.593
 4281TIP3    H112800   6.905   5.144   3.563
 4281TIP3    H212801   7.034   5.127   3.639
 4282TIP3   OH212802   1.356   6.929   5.866
 4282TIP3    H112803   1.261   6.923   5.865
 4282TIP3    H212804   1.385   6.843   5.833
 4283TIP3   OH212805   7.679   1.264   1.064
 4283TIP3    H112806   7.646   1.328   1.002
 4283TIP3    H212807   7.772   1.255   1.043
 4284TIP3   OH212808   3.586   7.792   1.319
 4284TIP3    H112809   3.533   7.852   1.267
 4284TIP3    H212810   3.666   7.779   1.267
 4285TIP3   OH212811   0.205   2.181   6.571
 4285TIP3    H112812   0.292   2.159   6.604
 4285TIP3    H212813   0.199   2.136   6.487
 4286TIP3   OH212814   2.929   5.156   1.820
 4286TIP3    H112815   2.851   5.118   1.778
 4286TIP3    H212816   2.985   5.080   1.838
 4287TIP3   OH212817   7.466   1.930   1.687
 4287TIP3    H112818   7.513   1.911   1.606
 4287TIP3    H212819   7.531   1.976   1.742
 4288TIP3   OH212820   7.674   1.902   0.809
 4288TIP3    H112821   7.627   1.961   0.867
 4288TIP3    H212822   7.758   1.888   0.851
 4289TIP3   OH212823   2.008   2.580   3.236
 4289TIP3    H112824   2.007   2.650   3.171
 4289TIP3    H212825   1.959   2.615   3.310
 4290TIP3   OH212826   4.307   6.757   0.588
 4290TIP3    H112827   4.284   6.678   0.637
 4290TIP3    H212828   4.354   6.812   0.650
 4291TIP3   OH212829   4.377   3.453   0.718
 4291TIP3    H112830   4.392   3.530   0.663
 4291TIP3    H212831   4.381   3.486   0.808
 4292TIP3   OH212832   0.320   4.500   6.289
 4292TIP3    H112833   0.333   4.430   6.352
 4292TIP3    H212834   0.272   4.568   6.337
 4293TIP3   OH212835   7.110   7.490   6.225
 4293TIP3    H112836   7.045   7.541   6.273
 4293TIP3    H212837   7.185   7.548   6.216
 4294TIP3   OH212838   5.626   0.477   3.582
 4294TIP3    H112839   5.666   0.551   3.629
 4294TIP3    H212840   5.597   0.515   3.498
 4295TIP3   OH212841   3.795   4.462   0.792
 4295TIP3    H112842   3.774   4.555   0.797
 4295TIP3    H212843   3.805   4.435   0.884
 4296TIP3   OH212844   5.190   7.569   2.033
 4296TIP3    H112845   5.175   7.559   1.939
 4296TIP3    H212846   5.198   7.663   2.045
 4297TIP3   OH212847   7.890   0.577   5.739
 4297TIP3    H112848   7.798   0.588   5.716
 4297TIP3    H212849   7.937   0.593   5.658
 4298TIP3   OH212850   0.259   6.300   6.702
 4298TIP3    H112851   0.234   6.340   6.786
 4298TIP3    H212852   0.247   6.370   6.638
 4299TIP3   OH212853   2.387   0.958   4.377
 4299TIP3    H112854   2.314   0.997   4.329
 4299TIP3    H212855   2.464   0.976   4.323
 4300TIP3   OH212856   7.121   4.204   3.181
 4300TIP3    H112857   7.056   4.173   3.119
 4300TIP3    H212858   7.078   4.277   3.226
 4301TIP3   OH212859   1.940   3.832   2.285
 4301TIP3    H112860   1.928   3.742   2.254
 4301TIP3    H212861   1.873   3.843   2.353
 4302TIP3   OH212862   0.835   1.743   4.479
 4302TIP3    H112863   0.791   1.719   4.561
 4302TIP3    H212864   0.919   1.780   4.507
 4303TIP3   OH212865   2.037   0.184   1.628
 4303TIP3    H112866   2.092   0.180   1.706
 4303TIP3    H212867   2.001   0.272   1.629
 4304TIP3   OH212868   6.244   1.659   4.080
 4304TIP3    H112869   6.206   1.585   4.128
 4304TIP3    H212870   6.339   1.644   4.085
 4305TIP3   OH212871   7.435   2.428   4.948
 4305TIP3    H112872   7.454   2.424   4.855
 4305TIP3    H212873   7.491   2.362   4.988
 4306TIP3   OH212874   7.462   0.249   2.925
 4306TIP3    H112875   7.522   0.291   2.863
 4306TIP3    H212876   7.381   0.299   2.918
 4307TIP3   OH212877   3.728   2.512   0.076
 4307TIP3    H112878   3.750   2.479  -0.011
 4307TIP3    H212879   3.697   2.601   0.061
 4308TIP3   OH212880   6.649   6.689   2.506
 4308TIP3    H112881   6.713   6.631   2.547
 4308TIP3    H212882   6.641   6.657   2.416
 4309TIP3   OH212883   7.540   2.771   1.492
 4309TIP3    H112884   7.489   2.848   1.517
 4309TIP3    H212885   7.597   2.801   1.421
 4310TIP3   OH212886   4.873   6.420   4.922
 4310TIP3    H112887   4.963   6.453   4.926
 4310TIP3    H212888   4.868   6.374   4.839
 4311TIP3   OH212889   4.684   0.489   4.373
 4311TIP3    H112890   4.727   0.421   4.426
 4311TIP3    H212891   4.591   0.474   4.387
 4312TIP3   OH212892   7.598   5.391   5.484
 4312TIP3    H112893   7.629   5.453   5.418
 4312TIP3    H212894   7.514   5.428   5.513
 4313TIP3   OH212895   4.650   5.114   2.916
 4313TIP3    H112896   4.567   5.121   2.870
 4313TIP3    H212897   4.701   5.189   2.885
 4314TIP3   OH212898   1.354   7.717   2.815
 4314TIP3    H112899   1.299   7.795   2.816
 4314TIP3    H212900   1.437   7.746   2.777
 4315TIP3   OH212901   2.421   7.299   5.581
 4315TIP3    H112902   2.469   7.247   5.645
 4315TIP3    H212903   2.489   7.351   5.537
 4316TIP3   OH212904   5.971   2.291   3.477
 4316TIP3    H112905   5.975   2.372   3.426
 4316TIP3    H212906   5.990   2.222   3.414
 4317TIP3   OH212907   6.506   2.345   5.946
 4317TIP3    H112908   6.469   2.423   5.986
 4317TIP3    H212909   6.586   2.375   5.904
 4318TIP3   OH212910   7.927   7.473   3.392
 4318TIP3    H112911   7.845   7.477   3.441
 4318TIP3    H212912   7.930   7.384   3.357
 4319TIP3   OH212913   0.155   2.486   4.445
 4319TIP3    H112914   0.097   2.517   4.375
 4319TIP3    H212915   0.141   2.392   4.449
 4320TIP3   OH212916   2.629   6.368   5.489
 4320TIP3    H112917   2.642   6.458   5.459
 4320TIP3    H212918   2.595   6.377   5.578
 4321TIP3   OH212919   2.897   1.120   5.248
 4321TIP3    H112920   2.943   1.077   5.320
 4321TIP3    H212921   2.805   1.095   5.261
 4322TIP3   OH212922   1.940   7.198   6.137
 4322TIP3    H112923   1.895   7.266   6.087
 4322TIP3    H212924   1.870   7.146   6.176
 4323TIP3   OH212925   1.168   3.024   6.356
 4323TIP3    H112926   1.096   3.074   6.396
 4323TIP3    H212927   1.156   2.935   6.390
 4324TIP3   OH212928   2.239   1.942   0.710
 4324TIP3    H112929   2.314   1.929   0.651
 4324TIP3    H212930   2.201   1.855   0.721
 4325TIP3   OH212931   3.030   4.436   0.426
 4325TIP3    H112932   2.965   4.367   0.417
 4325TIP3    H212933   2.995   4.509   0.375
 4326TIP3   OH212934   5.881   6.339   2.732
 4326TIP3    H112935   5.850   6.265   2.784
 4326TIP3    H212936   5.812   6.405   2.740
 4327TIP3   OH212937   8.213   3.478   3.138
 4327TIP3    H112938   8.284   3.414   3.150
 4327TIP3    H212939   8.143   3.427   3.096
 4328TIP3   OH212940   5.899   3.151   3.630
 4328TIP3    H112941   5.962   3.141   3.558
 4328TIP3    H212942   5.867   3.062   3.647
 4329TIP3   OH212943   5.995   7.438   6.629
 4329TIP3    H112944   5.975   7.366   6.569
 4329TIP3    H212945   6.057   7.401   6.692
 4330TIP3   OH212946   5.636   2.401   1.504
 4330TIP3    H112947   5.558   2.457   1.500
 4330TIP3    H212948   5.600   2.312   1.500
 4331TIP3   OH212949   2.340   4.153   4.039
 4331TIP3    H112950   2.426   4.163   4.080
 4331TIP3    H212951   2.343   4.211   3.962
 4332TIP3   OH212952   4.174   6.615   5.548
 4332TIP3    H112953   4.176   6.587   5.457
 4332TIP3    H212954   4.107   6.683   5.551
 4333TIP3   OH212955   4.262   6.248   5.040
 4333TIP3    H112956   4.245   6.342   5.031
 4333TIP3    H212957   4.349   6.235   5.003
 4334TIP3   OH212958   4.205   0.648   3.790
 4334TIP3    H112959   4.160   0.626   3.709
 4334TIP3    H212960   4.146   0.619   3.860
 4335TIP3   OH212961   5.815   3.699   3.167
 4335TIP3    H112962   5.776   3.750   3.238
 4335TIP3    H212963   5.776   3.612   3.176
 4336TIP3   OH212964   5.121   4.430   2.829
 4336TIP3    H112965   5.042   4.460   2.873
 4336TIP3    H212966   5.090   4.395   2.745
 4337TIP3   OH212967   3.487   2.351   5.869
 4337TIP3    H112968   3.475   2.309   5.954
 4337TIP3    H212969   3.442   2.294   5.807
 4338TIP3   OH212970   3.184   3.753   6.086
 4338TIP3    H112971   3.108   3.754   6.144
 4338TIP3    H212972   3.148   3.773   5.999
 4339TIP3   OH212973   1.751   3.678   5.481
 4339TIP3    H112974   1.752   3.772   5.501
 4339TIP3    H212975   1.842   3.657   5.460
 4340TIP3   OH212976   0.688   2.705   3.047
 4340TIP3    H112977   0.688   2.631   2.986
 4340TIP3    H212978   0.776   2.706   3.084
 4341TIP3   OH212979   4.371   0.826   0.140
 4341TIP3    H112980   4.412   0.755   0.190
 4341TIP3    H212981   4.445   0.877   0.107
 4342TIP3   OH212982   6.253   0.763   6.542
 4342TIP3    H112983   6.245   0.851   6.580
 4342TIP3    H212984   6.168   0.723   6.557
 4343TIP3   OH212985   2.235   2.486   4.703
 4343TIP3    H112986   2.276   2.406   4.736
 4343TIP3    H212987   2.201   2.461   4.617
 4344TIP3   OH212988   6.944   2.585   5.843
 4344TIP3    H112989   6.858   2.567   5.804
 4344TIP3    H212990   6.993   2.505   5.828
 4345TIP3   OH212991   6.004   5.649   5.454
 4345TIP3    H112992   5.974   5.604   5.532
 4345TIP3    H212993   6.082   5.697   5.482
 4346TIP3   OH212994   3.160   1.760   3.092
 4346TIP3    H112995   3.141   1.704   3.016
 4346TIP3    H212996   3.228   1.820   3.061
 4347TIP3   OH212997   5.743   5.407   2.299
 4347TIP3    H112998   5.837   5.423   2.313
 4347TIP3    H212999   5.711   5.489   2.260
 4348TIP3   OH213000   7.211   7.556   2.375
 4348TIP3    H113001   7.232   7.626   2.436
 4348TIP3    H213002   7.118   7.539   2.389
 4349TIP3   OH213003   5.527   0.576   4.759
 4349TIP3    H113004   5.533   0.493   4.807
 4349TIP3    H213005   5.511   0.550   4.668
 4350TIP3   OH213006   7.290   3.181   2.675
 4350TIP3    H113007   7.368   3.203   2.726
 4350TIP3    H213008   7.296   3.086   2.661
 4351TIP3   OH213009   6.659   0.363   4.161
 4351TIP3    H113010   6.588   0.304   4.185
 4351TIP3    H213011   6.618   0.450   4.156
 4352TIP3   OH213012   7.377   7.166   0.730
 4352TIP3    H113013   7.404   7.187   0.641
 4352TIP3    H213014   7.400   7.073   0.740
 4353TIP3   OH213015   1.139   6.945   4.520
 4353TIP3    H113016   1.092   7.013   4.472
 4353TIP3    H213017   1.227   6.944   4.480
 4354TIP3   OH213018   3.794   2.388   6.034
 4354TIP3    H113019   3.838   2.466   6.002
 4354TIP3    H213020   3.848   2.358   6.106
 4355TIP3   OH213021   3.504   6.401   0.992
 4355TIP3    H113022   3.573   6.467   0.988
 4355TIP3    H213023   3.449   6.419   0.916
 4356TIP3   OH213024   2.063   4.375   2.622
 4356TIP3    H113025   2.145   4.386   2.575
 4356TIP3    H213026   2.014   4.311   2.571
 4357TIP3   OH213027   5.531   0.710   6.033
 4357TIP3    H113028   5.445   0.739   6.062
 4357TIP3    H213029   5.548   0.761   5.954
 4358TIP3   OH213030   6.853   6.358   3.261
 4358TIP3    H113031   6.914   6.322   3.198
 4358TIP3    H213032   6.858   6.299   3.336
 4359TIP3   OH213033   6.223   1.653   1.789
 4359TIP3    H113034   6.160   1.722   1.806
 4359TIP3    H213035   6.199   1.583   1.851
 4360TIP3   OH213036   2.568   3.947   5.137
 4360TIP3    H113037   2.654   3.940   5.178
 4360TIP3    H213038   2.532   4.030   5.170
 4361TIP3   OH213039   3.165   2.699   3.319
 4361TIP3    H113040   3.170   2.674   3.227
 4361TIP3    H213041   3.163   2.617   3.367
 4362TIP3   OH213042   0.355   5.544   0.115
 4362TIP3    H113043   0.447   5.569   0.108
 4362TIP3    H213044   0.357   5.461   0.163
 4363TIP3   OH213045   3.373   5.255   3.142
 4363TIP3    H113046   3.410   5.235   3.057
 4363TIP3    H213047   3.429   5.326   3.176
 4364TIP3   OH213048   2.571   1.259   4.048
 4364TIP3    H113049   2.664   1.280   4.051
 4364TIP3    H213050   2.554   1.209   4.127
 4365TIP3   OH213051   4.547   5.876   1.302
 4365TIP3    H113052   4.612   5.925   1.251
 4365TIP3    H213053   4.496   5.944   1.347
 4366TIP3   OH213054   7.478   5.957   5.791
 4366TIP3    H113055   7.513   6.016   5.724
 4366TIP3    H213056   7.426   6.014   5.848
 4367TIP3   OH213057   1.325   4.931   3.389
 4367TIP3    H113058   1.403   4.883   3.362
 4367TIP3    H213059   1.309   4.902   3.479
 4368TIP3   OH213060   1.874   4.871   5.599
 4368TIP3    H113061   1.948   4.826   5.640
 4368TIP3    H213062   1.802   4.859   5.660
 4369TIP3   OH213063   6.229   7.544   1.185
 4369TIP3    H113064   6.248   7.451   1.173
 4369TIP3    H213065   6.290   7.573   1.252
 4370TIP3   OH213066   2.264   5.666   4.060
 4370TIP3    H113067   2.306   5.629   4.138
 4370TIP3    H213068   2.334   5.716   4.016
 4371TIP3   OH213069   0.651   2.296   1.702
 4371TIP3    H113070   0.696   2.375   1.731
 4371TIP3    H213071   0.720   2.241   1.665
 4372TIP3   OH213072   0.552   7.406   4.592
 4372TIP3    H113073   0.628   7.454   4.560
 4372TIP3    H213074   0.589   7.327   4.632
 4373TIP3   OH213075   4.088   3.538   5.891
 4373TIP3    H113076   4.017   3.596   5.862
 4373TIP3    H213077   4.077   3.532   5.985
 4374TIP3   OH213078  -0.025   3.188   5.493
 4374TIP3    H113079   0.010   3.215   5.408
 4374TIP3    H213080   0.023   3.239   5.557
 4375TIP3   OH213081   4.613   2.189   6.038
 4375TIP3    H113082   4.678   2.257   6.055
 4375TIP3    H213083   4.584   2.205   5.948
 4376TIP3   OH213084   7.663   6.233   5.012
 4376TIP3    H113085   7.725   6.267   5.077
 4376TIP3    H213086   7.577   6.250   5.051
 4377TIP3   OH213087   5.075   5.033   5.542
 4377TIP3    H113088   5.087   5.125   5.518
 4377TIP3    H213089   4.981   5.020   5.541
 4378TIP3   OH213090   3.248   1.892   1.582
 4378TIP3    H113091   3.201   1.898   1.499
 4378TIP3    H213092   3.269   1.983   1.604
 4379TIP3   OH213093   4.921   2.041   2.611
 4379TIP3    H113094   4.900   1.975   2.546
 4379TIP3    H213095   4.884   2.122   2.576
 4380TIP3   OH213096   7.376   6.058   1.319
 4380TIP3    H113097   7.451   6.110   1.348
 4380TIP3    H213098   7.308   6.074   1.384
 4381TIP3   OH213099   5.671   1.056   5.389
 4381TIP3    H113100   5.731   0.985   5.407
 4381TIP3    H213101   5.669   1.062   5.293
 4382TIP3   OH213102   6.215   4.204   3.200
 4382TIP3    H113103   6.254   4.292   3.198
 4382TIP3    H213104   6.122   4.219   3.180
 4383TIP3   OH213105   1.092   0.681   4.037
 4383TIP3    H113106   1.114   0.758   4.088
 4383TIP3    H213107   1.129   0.607   4.086
 4384TIP3   OH213108   3.099   2.465   2.613
 4384TIP3    H113109   3.009   2.495   2.600
 4384TIP3    H213110   3.154   2.540   2.591
 4385TIP3   OH213111   5.827   3.036   4.313
 4385TIP3    H113112   5.858   3.072   4.396
 4385TIP3    H213113   5.907   3.012   4.265
 4386TIP3   OH213114   0.196   1.369   3.227
 4386TIP3    H113115   0.224   1.353   3.318
 4386TIP3    H213116   0.154   1.288   3.200
 4387TIP3   OH213117   3.348   3.349   5.682
 4387TIP3    H113118   3.400   3.274   5.709
 4387TIP3    H213119   3.354   3.350   5.586
 4388TIP3   OH213120   6.224   0.346   3.691
 4388TIP3    H113121   6.226   0.268   3.746
 4388TIP3    H213122   6.243   0.314   3.603
 4389TIP3   OH213123   3.477   1.456   3.144
 4389TIP3    H113124   3.565   1.419   3.145
 4389TIP3    H213125   3.424   1.395   3.093
 4390TIP3   OH213126   3.968   5.107   5.347
 4390TIP3    H113127   3.978   5.056   5.267
 4390TIP3    H213128   3.874   5.116   5.358
 4391TIP3   OH213129   5.079   3.205   0.319
 4391TIP3    H113130   5.006   3.217   0.259
 4391TIP3    H213131   5.038   3.182   0.403
 4392TIP3   OH213132   1.868   4.569   5.861
 4392TIP3    H113133   1.920   4.545   5.937
 4392TIP3    H213134   1.880   4.664   5.853
 4393TIP3   OH213135   0.825   4.869   1.878
 4393TIP3    H113136   0.844   4.784   1.839
 4393TIP3    H213137   0.793   4.922   1.804
 4394TIP3   OH213138   3.754   3.764   1.997
 4394TIP3    H113139   3.768   3.669   2.004
 4394TIP3    H213140   3.841   3.802   2.011
 4395TIP3   OH213141   4.052   7.047   4.868
 4395TIP3    H113142   4.113   7.121   4.877
 4395TIP3    H213143   3.985   7.064   4.934
 4396TIP3   OH213144   1.243   7.517   5.944
 4396TIP3    H113145   1.188   7.562   6.008
 4396TIP3    H213146   1.259   7.431   5.982
 4397TIP3   OH213147   2.946   4.570   4.042
 4397TIP3    H113148   3.006   4.638   4.010
 4397TIP3    H213149   2.862   4.592   4.001
 4398TIP3   OH213150   3.273   2.691   1.235
 4398TIP3    H113151   3.354   2.718   1.279
 4398TIP3    H213152   3.300   2.616   1.182
 4399TIP3   OH213153   4.653   0.974   4.173
 4399TIP3    H113154   4.683   0.975   4.082
 4399TIP3    H213155   4.670   0.884   4.203
 4400TIP3   OH213156   2.617   5.418   4.482
 4400TIP3    H113157   2.684   5.443   4.418
 4400TIP3    H213158   2.573   5.343   4.442
 4401TIP3   OH213159   6.171   3.267   2.309
 4401TIP3    H113160   6.227   3.261   2.232
 4401TIP3    H213161   6.085   3.290   2.274
 4402TIP3   OH213162   7.889   2.918   0.978
 4402TIP3    H113163   7.853   2.892   0.893
 4402TIP3    H213164   7.913   2.835   1.020
 4403TIP3   OH213165   7.461   1.160   3.714
 4403TIP3    H113166   7.480   1.101   3.788
 4403TIP3    H213167   7.537   1.149   3.656
 4404TIP3   OH213168   6.604   2.345   2.926
 4404TIP3    H113169   6.622   2.395   3.006
 4404TIP3    H213170   6.508   2.340   2.922
 4405TIP3   OH213171   2.294   4.099   4.457
 4405TIP3    H113172   2.308   4.005   4.464
 4405TIP3    H213173   2.375   4.138   4.489
 4406TIP3   OH213174   1.515   1.387   5.538
 4406TIP3    H113175   1.502   1.479   5.515
 4406TIP3    H213176   1.432   1.344   5.514
 4407TIP3   OH213177   1.775   5.056   6.513
 4407TIP3    H113178   1.794   5.140   6.471
 4407TIP3    H213179   1.849   5.042   6.572
 4408TIP3   OH213180   3.020   0.994   6.557
 4408TIP3    H113181   2.938   1.028   6.521
 4408TIP3    H213182   3.000   0.975   6.649
 4409TIP3   OH213183   7.853   4.510   3.088
 4409TIP3    H113184   7.893   4.431   3.124
 4409TIP3    H213185   7.919   4.546   3.028
 4410TIP3   OH213186   5.847   4.341   2.026
 4410TIP3    H113187   5.899   4.286   1.967
 4410TIP3    H213188   5.912   4.394   2.072
 4411TIP3   OH213189   8.201   6.638   5.025
 4411TIP3    H113190   8.158   6.645   4.941
 4411TIP3    H213191   8.256   6.717   5.030
 4412TIP3   OH213192   1.874   3.834   5.137
 4412TIP3    H113193   1.781   3.814   5.125
 4412TIP3    H213194   1.906   3.766   5.197
 4413TIP3   OH213195   4.892   6.356   6.044
 4413TIP3    H113196   4.948   6.394   6.113
 4413TIP3    H213197   4.850   6.432   6.003
 4414TIP3   OH213198   7.170   1.687   2.645
 4414TIP3    H113199   7.184   1.773   2.685
 4414TIP3    H213200   7.162   1.704   2.552
 4415TIP3   OH213201   6.267   4.938   4.828
 4415TIP3    H113202   6.350   4.906   4.861
 4415TIP3    H213203   6.286   5.025   4.793
 4416TIP3   OH213204   7.207   0.334   0.490
 4416TIP3    H113205   7.141   0.356   0.556
 4416TIP3    H213206   7.203   0.406   0.428
 4417TIP3   OH213207   2.448   1.772   4.165
 4417TIP3    H113208   2.386   1.807   4.229
 4417TIP3    H213209   2.525   1.828   4.175
 4418TIP3   OH213210   3.802   4.071   3.680
 4418TIP3    H113211   3.859   4.146   3.661
 4418TIP3    H213212   3.810   4.015   3.603
 4419TIP3   OH213213   1.490   0.042   0.220
 4419TIP3    H113214   1.544   0.120   0.206
 4419TIP3    H213215   1.435   0.063   0.295
 4420TIP3   OH213216   5.744   1.496   0.070
 4420TIP3    H113217   5.682   1.545   0.015
 4420TIP3    H213218   5.779   1.562   0.130
 4421TIP3   OH213219   3.841   0.216   0.511
 4421TIP3    H113220   3.870   0.224   0.420
 4421TIP3    H213221   3.766   0.275   0.518
 4422TIP3   OH213222   3.633   6.938   4.823
 4422TIP3    H113223   3.633   6.844   4.837
 4422TIP3    H213224   3.683   6.951   4.743
 4423TIP3   OH213225   5.527   1.271   3.276
 4423TIP3    H113226   5.436   1.267   3.304
 4423TIP3    H213227   5.564   1.346   3.322
 4424TIP3   OH213228   1.468   4.071   6.354
 4424TIP3    H113229   1.408   4.030   6.291
 4424TIP3    H213230   1.457   4.020   6.434
 4425TIP3   OH213231   5.788   7.307   3.555
 4425TIP3    H113232   5.843   7.229   3.552
 4425TIP3    H213233   5.789   7.342   3.466
 4426TIP3   OH213234   3.366   2.140   4.355
 4426TIP3    H113235   3.278   2.174   4.373
 4426TIP3    H213236   3.379   2.070   4.419
 4427TIP3   OH213237   7.035   4.113   1.828
 4427TIP3    H113238   7.015   4.022   1.851
 4427TIP3    H213239   7.126   4.111   1.799
 4428TIP3   OH213240   6.005   2.125   0.785
 4428TIP3    H113241   5.983   2.217   0.800
 4428TIP3    H213242   6.071   2.127   0.715
 4429TIP3   OH213243   6.669   0.377   1.151
 4429TIP3    H113244   6.678   0.289   1.187
 4429TIP3    H213245   6.698   0.435   1.222
 4430TIP3   OH213246   6.321   2.755   5.713
 4430TIP3    H113247   6.410   2.786   5.731
 4430TIP3    H213248   6.305   2.780   5.622
 4431TIP3   OH213249   0.270   0.735   1.753
 4431TIP3    H113250   0.253   0.721   1.660
 4431TIP3    H213251   0.212   0.672   1.797
 4432TIP3   OH213252   5.630   2.976   5.938
 4432TIP3    H113253   5.638   2.899   5.883
 4432TIP3    H213254   5.558   2.957   5.998
 4433TIP3   OH213255   3.130   1.036   2.644
 4433TIP3    H113256   3.187   1.021   2.569
 4433TIP3    H213257   3.093   0.949   2.662
 4434TIP3   OH213258   2.135   3.579   6.622
 4434TIP3    H113259   2.177   3.617   6.544
 4434TIP3    H213260   2.208   3.561   6.682
 4435TIP3   OH213261   1.829   1.490   2.200
 4435TIP3    H113262   1.848   1.489   2.293
 4435TIP3    H213263   1.900   1.438   2.161
 4436TIP3   OH213264   1.161   1.419   4.073
 4436TIP3    H113265   1.092   1.353   4.081
 4436TIP3    H213266   1.137   1.471   3.996
 4437TIP3   OH213267   2.315   0.458   6.654
 4437TIP3    H113268   2.353   0.527   6.598
 4437TIP3    H213269   2.228   0.490   6.675
 4438TIP3   OH213270   4.120   5.213   5.893
 4438TIP3    H113271   4.105   5.287   5.952
 4438TIP3    H213272   4.040   5.207   5.841
 4439TIP3   OH213273   0.163   4.253   4.844
 4439TIP3    H113274   0.092   4.313   4.867
 4439TIP3    H213275   0.201   4.289   4.764
 4440TIP3   OH213276   2.329   5.591   2.636
 4440TIP3    H113277   2.299   5.568   2.549
 4440TIP3    H213278   2.266   5.549   2.695
 4441TIP3   OH213279   5.791   6.167   6.598
 4441TIP3    H113280   5.851   6.160   6.672
 4441TIP3    H213281   5.847   6.193   6.524
 4442TIP3   OH213282   5.219   1.328   6.236
 4442TIP3    H113283   5.243   1.401   6.293
 4442TIP3    H213284   5.293   1.268   6.240
 4443TIP3   OH213285   3.029   0.000   0.912
 4443TIP3    H113286   3.039   0.082   0.865
 4443TIP3    H213287   3.100  -0.055   0.879
 4444TIP3   OH213288   8.177   4.775   4.387
 4444TIP3    H113289   8.176   4.851   4.445
 4444TIP3    H213290   8.270   4.763   4.366
 4445TIP3   OH213291   6.497   0.520   4.945
 4445TIP3    H113292   6.438   0.448   4.920
 4445TIP3    H213293   6.495   0.579   4.869
 4446TIP3   OH213294   2.681   7.466   0.327
 4446TIP3    H113295   2.697   7.528   0.255
 4446TIP3    H213296   2.689   7.520   0.406
 4447TIP3   OH213297   5.547   5.958   4.325
 4447TIP3    H113298   5.608   5.889   4.298
 4447TIP3    H213299   5.476   5.953   4.260
 4448TIP3   OH213300   3.745   3.395   2.306
 4448TIP3    H113301   3.802   3.341   2.362
 4448TIP3    H213302   3.670   3.415   2.361
 4449TIP3   OH213303   2.331   5.304   3.504
 4449TIP3    H113304   2.407   5.290   3.560
 4449TIP3    H213305   2.367   5.307   3.415
 4450TIP3   OH213306   1.726   1.782   2.467
 4450TIP3    H113307   1.709   1.702   2.516
 4450TIP3    H213308   1.640   1.810   2.435
 4451TIP3   OH213309   8.236   3.207   1.528
 4451TIP3    H113310   8.188   3.129   1.501
 4451TIP3    H213311   8.235   3.263   1.450
 4452TIP3   OH213312   1.242   3.716   4.953
 4452TIP3    H113313   1.163   3.769   4.959
 4452TIP3    H213314   1.273   3.707   5.043
 4453TIP3   OH213315   3.460   0.153   5.605
 4453TIP3    H113316   3.502   0.158   5.691
 4453TIP3    H213317   3.368   0.172   5.622
 4454TIP3   OH213318   0.618   4.976   4.495
 4454TIP3    H113319   0.668   4.995   4.415
 4454TIP3    H213320   0.535   4.940   4.463
 4455TIP3   OH213321   7.432   4.497   5.651
 4455TIP3    H113322   7.451   4.589   5.636
 4455TIP3    H213323   7.397   4.494   5.740
 4456TIP3   OH213324   4.318   2.504   6.339
 4456TIP3    H113325   4.315   2.518   6.245
 4456TIP3    H213326   4.281   2.585   6.376
 4457TIP3   OH213327   3.457   1.526   4.366
 4457TIP3    H113328   3.362   1.525   4.356
 4457TIP3    H213329   3.482   1.617   4.347
 4458TIP3   OH213330   6.296   7.274   1.198
 4458TIP3    H113331   6.303   7.241   1.108
 4458TIP3    H213332   6.284   7.195   1.251
 4459TIP3   OH213333   1.294   4.983   6.642
 4459TIP3    H113334   1.204   5.013   6.635
 4459TIP3    H213335   1.330   5.031   6.717
 4460TIP3   OH213336   3.426   7.812   2.677
 4460TIP3    H113337   3.487   7.861   2.622
 4460TIP3    H213338   3.395   7.741   2.622
 4461TIP3   OH213339   7.393   0.656   2.700
 4461TIP3    H113340   7.353   0.601   2.767
 4461TIP3    H213341   7.395   0.744   2.738
 4462TIP3   OH213342   2.211   7.759   2.536
 4462TIP3    H113343   2.170   7.806   2.609
 4462TIP3    H213344   2.149   7.690   2.513
 4463TIP3   OH213345   1.100   2.088   5.531
 4463TIP3    H113346   1.017   2.129   5.556
 4463TIP3    H213347   1.165   2.130   5.588
 4464TIP3   OH213348   0.354   4.589   4.991
 4464TIP3    H113349   0.404   4.509   5.007
 4464TIP3    H213350   0.343   4.628   5.078
 4465TIP3   OH213351   7.237   4.991   3.932
 4465TIP3    H113352   7.197   5.074   3.908
 4465TIP3    H213353   7.199   4.927   3.872
 4466TIP3   OH213354   5.948   1.750   3.514
 4466TIP3    H113355   6.042   1.750   3.532
 4466TIP3    H213356   5.908   1.784   3.594
 4467TIP3   OH213357   1.897   5.639   3.008
 4467TIP3    H113358   1.946   5.558   3.023
 4467TIP3    H213359   1.887   5.678   3.094
 4468TIP3   OH213360   4.491   3.356   0.414
 4468TIP3    H113361   4.542   3.436   0.400
 4468TIP3    H213362   4.458   3.333   0.327
 4469TIP3   OH213363   5.991   4.769   3.044
 4469TIP3    H113364   5.950   4.745   2.961
 4469TIP3    H213365   5.965   4.701   3.105
 4470TIP3   OH213366   3.102   6.297   6.029
 4470TIP3    H113367   3.176   6.351   6.001
 4470TIP3    H213368   3.132   6.257   6.111
 4471TIP3   OH213369   7.261   4.416   4.055
 4471TIP3    H113370   7.194   4.436   4.120
 4471TIP3    H213371   7.242   4.327   4.027
 4472TIP3   OH213372   5.514   3.022   5.635
 4472TIP3    H113373   5.508   3.030   5.731
 4472TIP3    H213374   5.423   3.016   5.606
 4473TIP3   OH213375   0.641   4.916   3.704
 4473TIP3    H113376   0.734   4.931   3.688
 4473TIP3    H213377   0.635   4.823   3.724
 4474TIP3   OH213378   6.874   1.610   1.376
 4474TIP3    H113379   6.960   1.623   1.416
 4474TIP3    H213380   6.887   1.630   1.284
 4475TIP3   OH213381   1.655   3.578   1.993
 4475TIP3    H113382   1.586   3.515   2.015
 4475TIP3    H213383   1.610   3.648   1.946
 4476TIP3   OH213384   7.171   4.977   1.079
 4476TIP3    H113385   7.194   4.987   1.171
 4476TIP3    H213386   7.154   5.066   1.048
 4477TIP3   OH213387   1.455   5.296   1.151
 4477TIP3    H113388   1.369   5.325   1.180
 4477TIP3    H213389   1.452   5.302   1.056
 4478TIP3   OH213390   7.397   5.867   0.478
 4478TIP3    H113391   7.378   5.833   0.390
 4478TIP3    H213392   7.404   5.962   0.465
 4479TIP3   OH213393   4.049   7.769   2.428
 4479TIP3    H113394   4.115   7.735   2.367
 4479TIP3    H213395   4.091   7.762   2.514
 4480TIP3   OH213396   7.336   6.250   1.772
 4480TIP3    H113397   7.284   6.317   1.817
 4480TIP3    H213398   7.366   6.191   1.841
 4481TIP3   OH213399   3.312   7.771   4.454
 4481TIP3    H113400   3.329   7.720   4.374
 4481TIP3    H213401   3.382   7.744   4.514
 4482TIP3   OH213402   0.474   4.889   6.249
 4482TIP3    H113403   0.491   4.982   6.263
 4482TIP3    H213404   0.447   4.882   6.158
 4483TIP3   OH213405   1.465   6.185   4.739
 4483TIP3    H113406   1.546   6.136   4.727
 4483TIP3    H213407   1.402   6.121   4.773
 4484TIP3   OH213408   2.919   7.574   0.499
 4484TIP3    H113409   2.993   7.622   0.462
 4484TIP3    H213410   2.846   7.635   0.494
 4485TIP3   OH213411   4.919   0.769   3.888
 4485TIP3    H113412   4.961   0.731   3.965
 4485TIP3    H213413   4.983   0.831   3.854
 4486TIP3   OH213414   7.435   6.377   4.676
 4486TIP3    H113415   7.454   6.393   4.584
 4486TIP3    H213416   7.520   6.384   4.720
 4487TIP3   OH213417   6.258   7.286   1.801
 4487TIP3    H113418   6.197   7.213   1.806
 4487TIP3    H213419   6.285   7.288   1.709
 4488TIP3   OH213420   4.142   5.158   5.559
 4488TIP3    H113421   4.175   5.248   5.551
 4488TIP3    H213422   4.074   5.151   5.492
 4489TIP3   OH213423   3.243   4.510   1.748
 4489TIP3    H113424   3.329   4.468   1.748
 4489TIP3    H213425   3.214   4.505   1.657
 4490TIP3   OH213426   6.427   4.076   4.078
 4490TIP3    H113427   6.507   4.025   4.092
 4490TIP3    H213428   6.358   4.024   4.118
 4491TIP3   OH213429   7.758   2.575   1.981
 4491TIP3    H113430   7.734   2.614   1.897
 4491TIP3    H213431   7.684   2.595   2.039
 4492TIP3   OH213432   3.288   6.427   4.293
 4492TIP3    H113433   3.273   6.454   4.202
 4492TIP3    H213434   3.333   6.501   4.333
 4493TIP3   OH213435   2.818   1.741   3.907
 4493TIP3    H113436   2.806   1.647   3.892
 4493TIP3    H213437   2.810   1.751   4.002
 4494TIP3   OH213438   4.747   3.000   3.392
 4494TIP3    H113439   4.718   3.084   3.358
 4494TIP3    H213440   4.748   3.011   3.487
 4495TIP3   OH213441   1.643   4.824   4.063
 4495TIP3    H113442   1.591   4.866   4.131
 4495TIP3    H213443   1.672   4.742   4.102
 4496TIP3   OH213444   1.150   2.983   2.555
 4496TIP3    H113445   1.211   3.005   2.626
 4496TIP3    H213446   1.155   3.058   2.495
 4497TIP3   OH213447   1.172   3.864   4.293
 4497TIP3    H113448   1.199   3.921   4.221
 4497TIP3    H213449   1.213   3.903   4.371
 4498TIP3   OH213450   3.316   5.331   2.506
 4498TIP3    H113451   3.233   5.306   2.465
 4498TIP3    H213452   3.311   5.294   2.594
 4499TIP3   OH213453   4.104   0.969   2.771
 4499TIP3    H113454   4.188   0.923   2.771
 4499TIP3    H213455   4.085   0.983   2.678
 4500TIP3   OH213456   4.336   0.141   3.111
 4500TIP3    H113457   4.412   0.135   3.053
 4500TIP3    H213458   4.334   0.058   3.157
 4501TIP3   OH213459   2.181   0.551   5.182
 4501TIP3    H113460   2.123   0.620   5.217
 4501TIP3    H213461   2.249   0.541   5.248
 4502TIP3   OH213462   7.680   3.874   2.978
 4502TIP3    H113463   7.585   3.887   2.974
 4502TIP3    H213464   7.707   3.925   3.055
 4503TIP3   OH213465   1.193   7.744   4.595
 4503TIP3    H113466   1.211   7.802   4.669
 4503TIP3    H213467   1.132   7.679   4.630
 4504TIP3   OH213468   1.881   1.617   3.953
 4504TIP3    H113469   1.953   1.561   3.983
 4504TIP3    H213470   1.920   1.703   3.944
 4505TIP3   OH213471   4.238   4.817   2.428
 4505TIP3    H113472   4.324   4.827   2.388
 4505TIP3    H213473   4.222   4.723   2.428
 4506TIP3   OH213474   5.574   7.484   4.465
 4506TIP3    H113475   5.479   7.497   4.474
 4506TIP3    H213476   5.599   7.542   4.394
 4507TIP3   OH213477   5.697   0.293   1.014
 4507TIP3    H113478   5.621   0.239   1.036
 4507TIP3    H213479   5.660   0.378   0.990
 4508TIP3   OH213480   4.908   6.513   3.645
 4508TIP3    H113481   4.988   6.461   3.636
 4508TIP3    H213482   4.837   6.448   3.637
 4509TIP3   OH213483   3.737   7.361   3.829
 4509TIP3    H113484   3.804   7.428   3.822
 4509TIP3    H213485   3.655   7.407   3.813
 4510TIP3   OH213486   5.300   1.549   0.701
 4510TIP3    H113487   5.263   1.473   0.656
 4510TIP3    H213488   5.224   1.603   0.724
 4511TIP3   OH213489   3.769   2.527   5.365
 4511TIP3    H113490   3.696   2.467   5.350
 4511TIP3    H213491   3.843   2.469   5.387
 4512TIP3   OH213492   1.800   5.537   3.942
 4512TIP3    H113493   1.877   5.527   3.999
 4512TIP3    H213494   1.836   5.561   3.857
 4513TIP3   OH213495   1.990   7.777   3.219
 4513TIP3    H113496   1.927   7.823   3.274
 4513TIP3    H213497   1.937   7.734   3.152
 4514TIP3   OH213498   1.184   6.410   6.383
 4514TIP3    H113499   1.209   6.329   6.428
 4514TIP3    H213500   1.171   6.474   6.453
 4515TIP3   OH213501   7.572   6.423   5.864
 4515TIP3    H113502   7.628   6.459   5.795
 4515TIP3    H213503   7.483   6.427   5.828
 4516TIP3   OH213504   3.047   2.044   2.500
 4516TIP3    H113505   3.011   2.091   2.425
 4516TIP3    H213506   3.035   2.104   2.574
 4517TIP3   OH213507   7.568   6.397   4.409
 4517TIP3    H113508   7.579   6.462   4.340
 4517TIP3    H213509   7.478   6.366   4.400
 4518TIP3   OH213510   0.605   3.711   2.187
 4518TIP3    H113511   0.559   3.689   2.268
 4518TIP3    H213512   0.616   3.806   2.190
 4519TIP3   OH213513   4.062   2.557   5.216
 4519TIP3    H113514   4.008   2.555   5.137
 4519TIP3    H213515   4.005   2.595   5.282
 4520TIP3   OH213516   1.574   2.713   0.543
 4520TIP3    H113517   1.611   2.725   0.630
 4520TIP3    H213518   1.538   2.624   0.544
 4521TIP3   OH213519   3.916   7.141   1.043
 4521TIP3    H113520   3.846   7.164   0.981
 4521TIP3    H213521   3.981   7.095   0.989
 4522TIP3   OH213522   1.753   3.848   4.190
 4522TIP3    H113523   1.687   3.823   4.255
 4522TIP3    H213524   1.745   3.782   4.121
 4523TIP3   OH213525   0.329   5.821   1.282
 4523TIP3    H113526   0.412   5.814   1.329
 4523TIP3    H213527   0.272   5.757   1.325
 4524TIP3   OH213528   0.616   7.742   2.969
 4524TIP3    H113529   0.580   7.658   2.942
 4524TIP3    H213530   0.701   7.747   2.927
 4525TIP3   OH213531   5.956   4.587   1.811
 4525TIP3    H113532   5.908   4.634   1.743
 4525TIP3    H213533   6.019   4.651   1.844
 4526TIP3   OH213534   4.644   3.030   5.447
 4526TIP3    H113535   4.655   2.954   5.391
 4526TIP3    H213536   4.723   3.031   5.502
 4527TIP3   OH213537   7.064   4.547   3.538
 4527TIP3    H113538   7.008   4.536   3.615
 4527TIP3    H213539   7.033   4.482   3.475
 4528TIP3   OH213540   7.433   7.599   2.129
 4528TIP3    H113541   7.523   7.592   2.160
 4528TIP3    H213542   7.394   7.514   2.149
 4529TIP3   OH213543   7.538   0.892   0.664
 4529TIP3    H113544   7.539   0.825   0.732
 4529TIP3    H213545   7.554   0.974   0.711
 4530TIP3   OH213546   0.548   5.209   0.320
 4530TIP3    H113547   0.606   5.135   0.338
 4530TIP3    H213548   0.488   5.177   0.254
 4531TIP3   OH213549   2.482   4.140   0.654
 4531TIP3    H113550   2.500   4.155   0.562
 4531TIP3    H213551   2.567   4.118   0.692
 4532TIP3   OH213552   3.265   4.796   5.946
 4532TIP3    H113553   3.291   4.874   5.898
 4532TIP3    H213554   3.177   4.816   5.979
 4533TIP3   OH213555   7.000   1.880   6.357
 4533TIP3    H113556   7.063   1.872   6.285
 4533TIP3    H213557   6.918   1.848   6.320
 4534TIP3   OH213558   1.894   5.065   4.350
 4534TIP3    H113559   1.935   4.993   4.302
 4534TIP3    H213560   1.810   5.031   4.379
 4535TIP3   OH213561   3.301   0.969   6.595
 4535TIP3    H113562   3.321   0.915   6.672
 4535TIP3    H213563   3.206   0.979   6.596
 4536TIP3   OH213564   3.281   4.449   0.295
 4536TIP3    H113565   3.307   4.540   0.305
 4536TIP3    H213566   3.210   4.437   0.358
 4537TIP3   OH213567   6.033   3.325   2.752
 4537TIP3    H113568   5.962   3.362   2.701
 4537TIP3    H213569   6.084   3.400   2.781
 4538TIP3   OH213570   7.541   7.154   1.401
 4538TIP3    H113571   7.508   7.079   1.351
 4538TIP3    H213572   7.485   7.158   1.478
 4539TIP3   OH213573   0.071   2.218   1.651
 4539TIP3    H113574   0.161   2.245   1.672
 4539TIP3    H213575   0.081   2.163   1.573
 4540TIP3   OH213576   0.176   5.540   0.894
 4540TIP3    H113577   0.169   5.453   0.932
 4540TIP3    H213578   0.203   5.526   0.803
 4541TIP3   OH213579   0.518   5.922   0.038
 4541TIP3    H113580   0.424   5.910   0.053
 4541TIP3    H213581   0.558   5.912   0.125
 4542TIP3   OH213582   0.053   6.496   3.000
 4542TIP3    H113583   0.026   6.414   3.041
 4542TIP3    H213584   0.148   6.498   3.010
 4543TIP3   OH213585   3.515   3.937   1.954
 4543TIP3    H113586   3.471   3.872   1.899
 4543TIP3    H213587   3.588   3.889   1.993
 4544TIP3   OH213588   5.646   2.105   5.239
 4544TIP3    H113589   5.706   2.143   5.175
 4544TIP3    H213590   5.570   2.079   5.188
 4545TIP3   OH213591   5.123   7.501   1.285
 4545TIP3    H113592   5.082   7.444   1.351
 4545TIP3    H213593   5.167   7.568   1.336
 4546TIP3   OH213594   3.397   1.979   4.601
 4546TIP3    H113595   3.349   1.923   4.663
 4546TIP3    H213596   3.484   1.940   4.597
 4547TIP3   OH213597   4.593   6.088   2.784
 4547TIP3    H113598   4.517   6.122   2.830
 4547TIP3    H213599   4.579   5.993   2.782
 4548TIP3   OH213600   5.704   1.278   0.891
 4548TIP3    H113601   5.610   1.260   0.883
 4548TIP3    H213602   5.728   1.240   0.975
 4549TIP3   OH213603   6.614   1.788   1.422
 4549TIP3    H113604   6.594   1.855   1.358
 4549TIP3    H213605   6.707   1.801   1.442
 4550TIP3   OH213606   6.223   7.060   4.210
 4550TIP3    H113607   6.191   6.972   4.232
 4550TIP3    H213608   6.312   7.063   4.245
 4551TIP3   OH213609   4.433   0.596   6.497
 4551TIP3    H113610   4.505   0.540   6.466
 4551TIP3    H213611   4.474   0.682   6.508
 4552TIP3   OH213612   2.371   2.865   2.384
 4552TIP3    H113613   2.433   2.906   2.445
 4552TIP3    H213614   2.314   2.936   2.356
 4553TIP3   OH213615   7.590   1.842   0.254
 4553TIP3    H113616   7.612   1.753   0.230
 4553TIP3    H213617   7.605   1.846   0.349
 4554TIP3   OH213618   5.609   3.552   6.379
 4554TIP3    H113619   5.701   3.546   6.407
 4554TIP3    H213620   5.592   3.645   6.372
 4555TIP3   OH213621   6.241   5.562   6.318
 4555TIP3    H113622   6.330   5.551   6.350
 4555TIP3    H213623   6.251   5.597   6.230
 4556TIP3   OH213624   8.132   5.431   6.358
 4556TIP3    H113625   8.142   5.409   6.451
 4556TIP3    H213626   8.134   5.348   6.312
 4557TIP3   OH213627   1.870   5.736   4.546
 4557TIP3    H113628   1.882   5.772   4.634
 4557TIP3    H213629   1.883   5.642   4.557
 4558TIP3   OH213630   5.097   4.297   3.182
 4558TIP3    H113631   5.028   4.359   3.156
 4558TIP3    H213632   5.051   4.233   3.236
 4559TIP3   OH213633   1.833   3.309   2.595
 4559TIP3    H113634   1.852   3.218   2.616
 4559TIP3    H213635   1.738   3.312   2.582
 4560TIP3   OH213636   3.525   6.855   3.169
 4560TIP3    H113637   3.602   6.824   3.216
 4560TIP3    H213638   3.465   6.885   3.238
 4561TIP3   OH213639   1.343   4.375   5.984
 4561TIP3    H113640   1.417   4.414   5.937
 4561TIP3    H213641   1.321   4.297   5.932
 4562TIP3   OH213642   6.242   1.464   5.956
 4562TIP3    H113643   6.172   1.508   6.005
 4562TIP3    H213644   6.279   1.402   6.019
 4563TIP3   OH213645   6.963   6.964   0.416
 4563TIP3    H113646   6.880   6.930   0.450
 4563TIP3    H213647   6.999   7.016   0.488
 4564TIP3   OH213648   0.999   0.641   3.265
 4564TIP3    H113649   1.001   0.714   3.202
 4564TIP3    H213650   0.923   0.659   3.320
 4565TIP3   OH213651   8.022   6.639   1.000
 4565TIP3    H113652   8.070   6.655   0.919
 4565TIP3    H213653   8.077   6.677   1.068
 4566TIP3   OH213654   6.170   5.325   3.619
 4566TIP3    H113655   6.161   5.421   3.619
 4566TIP3    H213656   6.147   5.298   3.530
 4567TIP3   OH213657   6.743   3.643   6.424
 4567TIP3    H113658   6.749   3.721   6.368
 4567TIP3    H213659   6.672   3.662   6.485
 4568TIP3   OH213660   2.687   7.051   2.525
 4568TIP3    H113661   2.734   7.107   2.587
 4568TIP3    H213662   2.596   7.079   2.532
 4569TIP3   OH213663   1.442   4.066   3.546
 4569TIP3    H113664   1.417   4.158   3.538
 4569TIP3    H213665   1.386   4.020   3.483
 4570TIP3   OH213666   4.427   5.791   5.405
 4570TIP3    H113667   4.486   5.809   5.331
 4570TIP3    H213668   4.361   5.732   5.369
 4571TIP3   OH213669   3.701   3.645   3.481
 4571TIP3    H113670   3.694   3.573   3.418
 4571TIP3    H213671   3.702   3.601   3.567
 4572TIP3   OH213672   5.121   2.978   6.251
 4572TIP3    H113673   5.058   2.974   6.324
 4572TIP3    H213674   5.083   3.042   6.190
 4573TIP3   OH213675   6.030   3.782   0.479
 4573TIP3    H113676   6.027   3.694   0.442
 4573TIP3    H213677   6.094   3.829   0.427
 4574TIP3   OH213678   0.567   7.383   2.538
 4574TIP3    H113679   0.526   7.309   2.494
 4574TIP3    H213680   0.624   7.422   2.472
 4575TIP3   OH213681   4.820   5.788   2.075
 4575TIP3    H113682   4.740   5.823   2.037
 4575TIP3    H213683   4.827   5.829   2.161
 4576TIP3   OH213684   7.510   3.705   1.734
 4576TIP3    H113685   7.453   3.736   1.663
 4576TIP3    H213686   7.520   3.781   1.792
 4577TIP3   OH213687   1.114   3.085   0.281
 4577TIP3    H113688   1.176   3.018   0.251
 4577TIP3    H213689   1.029   3.053   0.251
 4578TIP3   OH213690   3.371   7.360   2.010
 4578TIP3    H113691   3.314   7.284   2.022
 4578TIP3    H213692   3.311   7.435   2.012
 4579TIP3   OH213693   6.233   3.295   5.647
 4579TIP3    H113694   6.277   3.242   5.713
 4579TIP3    H213695   6.145   3.259   5.641
 4580TIP3   OH213696   1.159   6.454   3.009
 4580TIP3    H113697   1.143   6.472   2.916
 4580TIP3    H213698   1.147   6.538   3.053
 4581TIP3   OH213699   0.743   0.932   2.012
 4581TIP3    H113700   0.708   0.875   1.943
 4581TIP3    H213701   0.838   0.922   2.005
 4582TIP3   OH213702   4.543   3.979   3.974
 4582TIP3    H113703   4.494   4.013   4.049
 4582TIP3    H213704   4.479   3.977   3.903
 4583TIP3   OH213705   0.278   6.499   4.794
 4583TIP3    H113706   0.235   6.468   4.715
 4583TIP3    H213707   0.366   6.460   4.790
 4584TIP3   OH213708   6.588   7.444   6.268
 4584TIP3    H113709   6.635   7.441   6.351
 4584TIP3    H213710   6.649   7.406   6.204
 4585TIP3   OH213711   7.145   0.842   5.538
 4585TIP3    H113712   7.119   0.813   5.450
 4585TIP3    H213713   7.195   0.922   5.523
 4586TIP3   OH213714   5.595   3.354   4.856
 4586TIP3    H113715   5.557   3.326   4.773
 4586TIP3    H213716   5.541   3.428   4.883
 4587TIP3   OH213717   2.784   0.142   5.103
 4587TIP3    H113718   2.848   0.081   5.139
 4587TIP3    H213719   2.770   0.112   5.013
 4588TIP3   OH213720   2.319   5.499   1.782
 4588TIP3    H113721   2.304   5.440   1.856
 4588TIP3    H213722   2.253   5.568   1.792
 4589TIP3   OH213723   6.270   0.373   2.090
 4589TIP3    H113724   6.195   0.422   2.056
 4589TIP3    H213725   6.318   0.346   2.011
 4590TIP3   OH213726   5.257   4.587   5.727
 4590TIP3    H113727   5.308   4.563   5.650
 4590TIP3    H213728   5.232   4.679   5.712
 4591TIP3   OH213729   5.179   1.871   3.096
 4591TIP3    H113730   5.264   1.916   3.098
 4591TIP3    H213731   5.198   1.784   3.130
 4592TIP3   OH213732   4.094   5.935   5.508
 4592TIP3    H113733   4.005   5.955   5.537
 4592TIP3    H213734   4.101   5.977   5.422
 4593TIP3   OH213735   6.242   6.563   4.480
 4593TIP3    H113736   6.263   6.556   4.387
 4593TIP3    H213737   6.327   6.562   4.524
 4594TIP3   OH213738   7.987   5.326   4.155
 4594TIP3    H113739   7.993   5.293   4.065
 4594TIP3    H213740   7.909   5.381   4.155
 4595TIP3   OH213741   7.971   4.876   6.075
 4595TIP3    H113742   7.884   4.871   6.114
 4595TIP3    H213743   8.017   4.941   6.128
 4596TIP3   OH213744   4.281   7.286   6.334
 4596TIP3    H113745   4.309   7.365   6.379
 4596TIP3    H213746   4.362   7.240   6.313
 4597TIP3   OH213747   0.822   5.322   4.148
 4597TIP3    H113748   0.813   5.417   4.156
 4597TIP3    H213749   0.804   5.304   4.055
 4598TIP3   OH213750   2.193   5.487   0.990
 4598TIP3    H113751   2.225   5.526   1.072
 4598TIP3    H213752   2.164   5.561   0.938
 4599TIP3   OH213753   6.962   5.804   0.026
 4599TIP3    H113754   6.887   5.763  -0.017
 4599TIP3    H213755   7.038   5.757  -0.009
 4600TIP3   OH213756   5.940   4.139   2.664
 4600TIP3    H113757   6.010   4.160   2.726
 4600TIP3    H213758   5.936   4.215   2.606
 4601TIP3   OH213759   1.306   4.575   2.206
 4601TIP3    H113760   1.261   4.618   2.133
 4601TIP3    H213761   1.263   4.609   2.284
 4602TIP3   OH213762   6.276   7.126   3.743
 4602TIP3    H113763   6.194   7.101   3.785
 4602TIP3    H213764   6.345   7.090   3.800
 4603TIP3   OH213765   4.347   1.117   3.082
 4603TIP3    H113766   4.429   1.148   3.119
 4603TIP3    H213767   4.283   1.184   3.106
 4604TIP3   OH213768   6.983   5.028   2.891
 4604TIP3    H113769   7.075   5.044   2.914
 4604TIP3    H213770   6.987   4.992   2.802
 4605TIP3   OH213771   5.509   3.575   3.207
 4605TIP3    H113772   5.561   3.601   3.284
 4605TIP3    H213773   5.563   3.510   3.163
 4606TIP3   OH213774   5.424   5.459   1.451
 4606TIP3    H113775   5.518   5.449   1.437
 4606TIP3    H213776   5.389   5.478   1.364
 4607TIP3   OH213777   5.134   1.562   1.545
 4607TIP3    H113778   5.216   1.580   1.590
 4607TIP3    H213779   5.077   1.524   1.612
 4608TIP3   OH213780   3.118   5.851   5.774
 4608TIP3    H113781   3.213   5.850   5.784
 4608TIP3    H213782   3.084   5.817   5.857
 4609TIP3   OH213783   8.070   3.506   4.844
 4609TIP3    H113784   8.127   3.478   4.772
 4609TIP3    H213785   8.009   3.568   4.804
 4610TIP3   OH213786   7.830   1.348   4.493
 4610TIP3    H113787   7.819   1.403   4.415
 4610TIP3    H213788   7.913   1.302   4.479
 4611TIP3   OH213789   0.113   5.830   0.322
 4611TIP3    H113790   0.131   5.881   0.400
 4611TIP3    H213791   0.110   5.739   0.353
 4612TIP3   OH213792   0.672   6.442   6.152
 4612TIP3    H113793   0.606   6.444   6.222
 4612TIP3    H213794   0.711   6.530   6.154
 4613TIP3   OH213795   8.069   5.704   0.041
 4613TIP3    H113796   8.003   5.640   0.015
 4613TIP3    H213797   8.141   5.652   0.077
 4614TIP3   OH213798   8.091   3.880   3.751
 4614TIP3    H113799   8.178   3.917   3.770
 4614TIP3    H213800   8.109   3.791   3.723
 4615TIP3   OH213801   5.505   2.632   3.271
 4615TIP3    H113802   5.422   2.612   3.315
 4615TIP3    H213803   5.572   2.605   3.334
 4616TIP3   OH213804   8.184   1.810   4.887
 4616TIP3    H113805   8.238   1.837   4.813
 4616TIP3    H213806   8.166   1.891   4.935
 4617TIP3   OH213807   0.751   6.732   5.908
 4617TIP3    H113808   0.824   6.671   5.916
 4617TIP3    H213809   0.717   6.740   5.997
 4618TIP3   OH213810   2.613   6.940   0.142
 4618TIP3    H113811   2.626   7.034   0.145
 4618TIP3    H213812   2.658   6.907   0.220
 4619TIP3   OH213813   3.451   7.244   0.357
 4619TIP3    H113814   3.529   7.284   0.319
 4619TIP3    H213815   3.389   7.316   0.369
 4620TIP3   OH213816   8.199   2.927   0.864
 4620TIP3    H113817   8.198   2.989   0.792
 4620TIP3    H213818   8.107   2.905   0.878
 4621TIP3   OH213819   0.076   5.556   0.426
 4621TIP3    H113820   0.170   5.545   0.438
 4621TIP3    H213821   0.041   5.561   0.515
 4622TIP3   OH213822   8.149   1.084   5.083
 4622TIP3    H113823   8.224   1.131   5.047
 4622TIP3    H213824   8.184   1.038   5.160
 4623TIP3   OH213825   7.548   6.084   3.307
 4623TIP3    H113826   7.464   6.080   3.263
 4623TIP3    H213827   7.611   6.102   3.237
 4624TIP3   OH213828   4.926   6.444   1.182
 4624TIP3    H113829   4.951   6.495   1.259
 4624TIP3    H213830   5.008   6.408   1.149
 4625TIP3   OH213831   0.982   5.895   0.028
 4625TIP3    H113832   0.956   5.977   0.071
 4625TIP3    H213833   0.968   5.828   0.095
 4626TIP3   OH213834   1.852   3.598   1.408
 4626TIP3    H113835   1.934   3.612   1.362
 4626TIP3    H213836   1.809   3.527   1.359
 4627TIP3   OH213837   3.426   7.790   4.996
 4627TIP3    H113838   3.420   7.751   5.083
 4627TIP3    H213839   3.518   7.780   4.972
 4628TIP3   OH213840   7.342   0.720   1.947
 4628TIP3    H113841   7.259   0.739   1.991
 4628TIP3    H213842   7.409   0.746   2.010
 4629TIP3   OH213843   2.006   7.414   4.693
 4629TIP3    H113844   1.936   7.471   4.726
 4629TIP3    H213845   2.047   7.379   4.772
 4630TIP3   OH213846   2.320   4.501   0.397
 4630TIP3    H113847   2.274   4.573   0.356
 4630TIP3    H213848   2.358   4.451   0.325
 4631TIP3   OH213849   4.738   1.020   6.499
 4631TIP3    H113850   4.766   1.112   6.502
 4631TIP3    H213851   4.819   0.970   6.496
 4632TIP3   OH213852   2.232   4.093   3.666
 4632TIP3    H113853   2.150   4.103   3.619
 4632TIP3    H213854   2.299   4.086   3.598
 4633TIP3   OH213855   7.008   3.676   0.636
 4633TIP3    H113856   7.070   3.720   0.578
 4633TIP3    H213857   7.059   3.654   0.714
 4634TIP3   OH213858   5.446   1.018   4.675
 4634TIP3    H113859   5.536   0.987   4.665
 4634TIP3    H213860   5.444   1.102   4.630
 4635TIP3   OH213861   3.534   7.396   4.559
 4635TIP3    H113862   3.565   7.309   4.532
 4635TIP3    H213863   3.578   7.457   4.501
 4636TIP3   OH213864   6.800   4.609   1.318
 4636TIP3    H113865   6.877   4.654   1.351
 4636TIP3    H213866   6.815   4.603   1.223
 4637TIP3   OH213867   0.934   7.312   4.256
 4637TIP3    H113868   0.937   7.404   4.282
 4637TIP3    H213869   1.008   7.302   4.196
 4638TIP3   OH213870   4.230   1.454   6.705
 4638TIP3    H113871   4.260   1.435   6.616
 4638TIP3    H213872   4.303   1.501   6.745
 4639TIP3   OH213873   7.807   0.251   3.067
 4639TIP3    H113874   7.731   0.212   3.110
 4639TIP3    H213875   7.777   0.337   3.038
 4640TIP3   OH213876   2.283   6.746   2.567
 4640TIP3    H113877   2.289   6.677   2.633
 4640TIP3    H213878   2.265   6.826   2.617
 4641TIP3   OH213879   1.872   7.822   3.855
 4641TIP3    H113880   1.838   7.853   3.939
 4641TIP3    H213881   1.938   7.757   3.878
 4642TIP3   OH213882   6.772   1.390   1.097
 4642TIP3    H113883   6.866   1.382   1.107
 4642TIP3    H213884   6.751   1.474   1.138
 4643TIP3   OH213885   6.263   1.643   2.520
 4643TIP3    H113886   6.328   1.610   2.582
 4643TIP3    H213887   6.183   1.652   2.572
 4644TIP3   OH213888   7.699   6.108   3.837
 4644TIP3    H113889   7.656   6.100   3.752
 4644TIP3    H213890   7.675   6.028   3.883
 4645TIP3   OH213891   1.550   7.229   3.597
 4645TIP3    H113892   1.574   7.161   3.660
 4645TIP3    H213893   1.627   7.239   3.541
 4646TIP3   OH213894   1.449   0.391   6.724
 4646TIP3    H113895   1.357   0.416   6.732
 4646TIP3    H213896   1.498   0.467   6.758
 4647TIP3   OH213897   2.348   1.432   0.718
 4647TIP3    H113898   2.392   1.369   0.775
 4647TIP3    H213899   2.419   1.476   0.671
 4648TIP3   OH213900   6.081   5.052   1.076
 4648TIP3    H113901   6.011   4.989   1.057
 4648TIP3    H213902   6.045   5.136   1.047
 4649TIP3   OH213903   7.469   4.222   6.540
 4649TIP3    H113904   7.461   4.274   6.460
 4649TIP3    H213905   7.429   4.138   6.519
 4650TIP3   OH213906   0.507   5.664   4.004
 4650TIP3    H113907   0.477   5.601   3.939
 4650TIP3    H213908   0.428   5.689   4.052
 4651TIP3   OH213909   3.831   3.535   6.719
 4651TIP3    H113910   3.832   3.503   6.809
 4651TIP3    H213911   3.756   3.491   6.679
 4652TIP3   OH213912   7.804   5.059   4.130
 4652TIP3    H113913   7.867   5.022   4.068
 4652TIP3    H213914   7.832   5.150   4.142
 4653TIP3   OH213915   6.725   0.429   2.910
 4653TIP3    H113916   6.818   0.412   2.925
 4653TIP3    H213917   6.711   0.516   2.946
 4654TIP3   OH213918   7.050   2.343   3.663
 4654TIP3    H113919   7.036   2.250   3.648
 4654TIP3    H213920   7.113   2.369   3.595
 4655TIP3   OH213921   6.647   0.664   5.827
 4655TIP3    H113922   6.642   0.584   5.776
 4655TIP3    H213923   6.684   0.729   5.767
 4656TIP3   OH213924   6.972   7.556   4.607
 4656TIP3    H113925   6.881   7.568   4.633
 4656TIP3    H213926   6.997   7.471   4.644
 4657TIP3   OH213927   3.848   4.423   1.554
 4657TIP3    H113928   3.890   4.405   1.470
 4657TIP3    H213929   3.912   4.393   1.619
 4658TIP3   OH213930   4.670   5.330   1.077
 4658TIP3    H113931   4.693   5.390   1.006
 4658TIP3    H213932   4.592   5.370   1.117
 4659TIP3   OH213933   3.740   1.066   6.625
 4659TIP3    H113934   3.822   1.114   6.625
 4659TIP3    H213935   3.765   0.975   6.644
 4660TIP3   OH213936   7.902   5.229   6.080
 4660TIP3    H113937   7.939   5.186   6.003
 4660TIP3    H213938   7.860   5.308   6.045
 4661TIP3   OH213939   6.805   0.678   2.034
 4661TIP3    H113940   6.897   0.685   2.011
 4661TIP3    H213941   6.789   0.584   2.044
 4662TIP3   OH213942   7.625   5.934   0.069
 4662TIP3    H113943   7.624   5.962   0.161
 4662TIP3    H213944   7.548   5.976   0.031
 4663TIP3   OH213945   7.723   1.623   6.513
 4663TIP3    H113946   7.817   1.631   6.496
 4663TIP3    H213947   7.686   1.705   6.480
 4664TIP3   OH213948   6.173   5.808   3.796
 4664TIP3    H113949   6.180   5.722   3.838
 4664TIP3    H213950   6.184   5.790   3.703
 4665TIP3   OH213951   5.651   5.131   2.477
 4665TIP3    H113952   5.663   5.135   2.382
 4665TIP3    H213953   5.740   5.123   2.511
 4666TIP3   OH213954   6.886   1.131   4.724
 4666TIP3    H113955   6.925   1.157   4.807
 4666TIP3    H213956   6.791   1.137   4.739
 4667TIP3   OH213957   3.576   1.765   1.516
 4667TIP3    H113958   3.486   1.758   1.485
 4667TIP3    H213959   3.608   1.675   1.515
 4668TIP3   OH213960   0.178   1.489   2.118
 4668TIP3    H113961   0.217   1.511   2.034
 4668TIP3    H213962   0.121   1.564   2.139
 4669TIP3   OH213963   4.990   3.520   2.318
 4669TIP3    H113964   5.084   3.534   2.330
 4669TIP3    H213965   4.951   3.607   2.329
 4670TIP3   OH213966   2.092   4.711   5.694
 4670TIP3    H113967   2.048   4.758   5.765
 4670TIP3    H213968   2.138   4.640   5.738
 4671TIP3   OH213969   1.847   1.681   3.440
 4671TIP3    H113970   1.825   1.607   3.383
 4671TIP3    H213971   1.872   1.751   3.380
 4672TIP3   OH213972   5.222   5.427   0.303
 4672TIP3    H113973   5.184   5.514   0.314
 4672TIP3    H213974   5.317   5.441   0.312
 4673TIP3   OH213975   6.136   6.795   4.230
 4673TIP3    H113976   6.043   6.776   4.241
 4673TIP3    H213977   6.169   6.804   4.319
 4674TIP3   OH213978   0.806   4.693   2.866
 4674TIP3    H113979   0.888   4.742   2.876
 4674TIP3    H213980   0.822   4.611   2.911
 4675TIP3   OH213981   1.053   4.908   4.195
 4675TIP3    H113982   0.986   4.939   4.134
 4675TIP3    H213983   1.009   4.840   4.247
 4676TIP3   OH213984   8.296   2.714   0.285
 4676TIP3    H113985   8.212   2.720   0.330
 4676TIP3    H213986   8.285   2.644   0.222
 4677TIP3   OH213987   3.652   4.594   5.532
 4677TIP3    H113988   3.637   4.636   5.447
 4677TIP3    H213989   3.599   4.645   5.593
 4678TIP3   OH213990   2.327   2.654   4.893
 4678TIP3    H113991   2.288   2.591   4.832
 4678TIP3    H213992   2.274   2.733   4.882
 4679TIP3   OH213993   8.046   5.395   1.948
 4679TIP3    H113994   8.016   5.305   1.934
 4679TIP3    H213995   8.139   5.393   1.925
 4680TIP3   OH213996   6.393   4.970   5.813
 4680TIP3    H113997   6.400   4.960   5.908
 4680TIP3    H213998   6.347   4.891   5.784
 4681TIP3   OH213999   8.168   7.079   5.271
 4681TIP3    H114000   8.228   7.124   5.330
 4681TIP3    H214001   8.130   7.009   5.324
 4682TIP3   OH214002   1.964   2.206   6.524
 4682TIP3    H114003   2.023   2.136   6.495
 4682TIP3    H214004   2.003   2.238   6.605
 4683TIP3   OH214005   7.556   1.895   2.698
 4683TIP3    H114006   7.523   1.810   2.725
 4683TIP3    H214007   7.513   1.957   2.756
 4684TIP3   OH214008   3.129   1.708   0.147
 4684TIP3    H114009   3.203   1.653   0.173
 4684TIP3    H214010   3.108   1.681   0.058
 4685TIP3   OH214011   5.550   2.210   5.717
 4685TIP3    H114012   5.614   2.141   5.698
 4685TIP3    H214013   5.529   2.249   5.632
 4686TIP3   OH214014   8.265   5.101   2.728
 4686TIP3    H114015   8.195   5.159   2.699
 4686TIP3    H214016   8.245   5.016   2.688
 4687TIP3   OH214017   5.655   1.970   0.289
 4687TIP3    H114018   5.647   2.036   0.358
 4687TIP3    H214019   5.740   1.988   0.249
 4688TIP3   OH214020   3.803   3.788   5.823
 4688TIP3    H114021   3.887   3.807   5.780
 4688TIP3    H214022   3.756   3.872   5.822
 4689TIP3   OH214023   4.757   0.338   2.214
 4689TIP3    H114024   4.806   0.284   2.275
 4689TIP3    H214025   4.791   0.315   2.128
 4690TIP3   OH214026   2.417   5.653   5.256
 4690TIP3    H114027   2.502   5.622   5.287
 4690TIP3    H214028   2.385   5.710   5.326
 4691TIP3   OH214029   3.114   3.198   6.569
 4691TIP3    H114030   3.115   3.290   6.594
 4691TIP3    H214031   3.042   3.190   6.507
 4692TIP3   OH214032   1.819   1.017   4.128
 4692TIP3    H114033   1.784   0.972   4.052
 4692TIP3    H214034   1.913   1.000   4.125
 4693TIP3   OH214035   2.855   5.005   0.913
 4693TIP3    H114036   2.947   5.015   0.938
 4693TIP3    H214037   2.850   5.042   0.825
 4694TIP3   OH214038   7.686   2.702   1.746
 4694TIP3    H114039   7.704   2.795   1.761
 4694TIP3    H214040   7.640   2.700   1.662
 4695TIP3   OH214041   2.650   1.927   4.239
 4695TIP3    H114042   2.643   1.977   4.158
 4695TIP3    H214043   2.621   1.988   4.307
 4696TIP3   OH214044   4.369   6.186   2.934
 4696TIP3    H114045   4.372   6.106   2.986
 4696TIP3    H214046   4.340   6.254   2.996
 4697TIP3   OH214047   2.645   7.006   0.525
 4697TIP3    H114048   2.577   6.939   0.518
 4697TIP3    H214049   2.667   7.008   0.618
 4698TIP3   OH214050   2.205   6.865   4.324
 4698TIP3    H114051   2.177   6.903   4.408
 4698TIP3    H214052   2.258   6.789   4.348
 4699TIP3   OH214053   7.223   4.416   0.374
 4699TIP3    H114054   7.137   4.378   0.361
 4699TIP3    H214055   7.280   4.370   0.313
 4700TIP3   OH214056   2.803   6.230   0.717
 4700TIP3    H114057   2.728   6.197   0.668
 4700TIP3    H214058   2.849   6.151   0.746
 4701TIP3   OH214059   5.633   3.162   6.453
 4701TIP3    H114060   5.634   3.223   6.526
 4701TIP3    H214061   5.716   3.175   6.409
 4702TIP3   OH214062   5.036   3.726   3.876
 4702TIP3    H114063   5.036   3.800   3.815
 4702TIP3    H214064   4.945   3.694   3.874
 4703TIP3   OH214065   3.017   1.498   5.790
 4703TIP3    H114066   2.992   1.538   5.706
 4703TIP3    H214067   3.056   1.414   5.766
 4704TIP3   OH214068   5.207   2.163   6.141
 4704TIP3    H114069   5.267   2.155   6.067
 4704TIP3    H214070   5.163   2.247   6.127
 4705TIP3   OH214071   1.310   2.882   0.186
 4705TIP3    H114072   1.380   2.837   0.234
 4705TIP3    H214073   1.280   2.818   0.121
 4706TIP3   OH214074   0.324   4.159   1.563
 4706TIP3    H114075   0.396   4.139   1.623
 4706TIP3    H214076   0.259   4.202   1.618
 4707TIP3   OH214077   3.649   5.184   0.475
 4707TIP3    H114078   3.712   5.197   0.404
 4707TIP3    H214079   3.678   5.104   0.519
 4708TIP3   OH214080   8.092   4.821   0.188
 4708TIP3    H114081   8.076   4.776   0.105
 4708TIP3    H214082   8.093   4.752   0.254
 4709TIP3   OH214083   2.581   1.216   3.536
 4709TIP3    H114084   2.564   1.212   3.630
 4709TIP3    H214085   2.645   1.287   3.526
 4710TIP3   OH214086   3.865   4.609   1.948
 4710TIP3    H114087   3.800   4.541   1.928
 4710TIP3    H214088   3.908   4.626   1.864
 4711TIP3   OH214089   6.634   7.701   2.128
 4711TIP3    H114090   6.717   7.687   2.083
 4711TIP3    H214091   6.652   7.678   2.219
 4712TIP3   OH214092   1.146   5.417   4.313
 4712TIP3    H114093   1.126   5.474   4.239
 4712TIP3    H214094   1.241   5.402   4.307
 4713TIP3   OH214095   7.811   6.376   3.671
 4713TIP3    H114096   7.836   6.309   3.608
 4713TIP3    H214097   7.723   6.401   3.645
 4714TIP3   OH214098   0.005   2.942   3.314
 4714TIP3    H114099   0.006   2.915   3.222
 4714TIP3    H214100   0.095   2.930   3.343
 4715TIP3   OH214101   6.784   3.637   3.909
 4715TIP3    H114102   6.754   3.562   3.960
 4715TIP3    H214103   6.725   3.641   3.834
 4716TIP3   OH214104   3.684   4.390   1.041
 4716TIP3    H114105   3.624   4.346   0.980
 4716TIP3    H214106   3.688   4.332   1.117
 4717TIP3   OH214107   5.760   1.472   1.236
 4717TIP3    H114108   5.812   1.486   1.315
 4717TIP3    H214109   5.739   1.379   1.238
 4718TIP3   OH214110   2.916   1.249   0.614
 4718TIP3    H114111   2.844   1.311   0.603
 4718TIP3    H214112   2.921   1.203   0.530
 4719TIP3   OH214113   3.926   2.754   5.846
 4719TIP3    H114114   3.876   2.836   5.839
 4719TIP3    H214115   3.908   2.709   5.763
 4720TIP3   OH214116   3.882   0.370   3.167
 4720TIP3    H114117   3.807   0.427   3.185
 4720TIP3    H214118   3.885   0.311   3.242
 4721TIP3   OH214119   8.196   2.339   3.269
 4721TIP3    H114120   8.242   2.275   3.324
 4721TIP3    H214121   8.104   2.313   3.275
 4722TIP3   OH214122   0.720   3.170   3.164
 4722TIP3    H114123   0.805   3.126   3.166
 4722TIP3    H214124   0.718   3.213   3.078
 4723TIP3   OH214125   6.884   5.369   2.883
 4723TIP3    H114126   6.851   5.300   2.826
 4723TIP3    H214127   6.865   5.450   2.836
 4724TIP3   OH214128   5.957   4.375   2.488
 4724TIP3    H114129   5.988   4.450   2.539
 4724TIP3    H214130   6.014   4.375   2.410
 4725TIP3   OH214131   3.433   6.189   1.826
 4725TIP3    H114132   3.528   6.179   1.838
 4725TIP3    H214133   3.396   6.109   1.862
 4726TIP3   OH214134   2.627   4.455   1.277
 4726TIP3    H114135   2.720   4.473   1.264
 4726TIP3    H214136   2.622   4.359   1.283
 4727TIP3   OH214137   5.689   3.264   0.852
 4727TIP3    H114138   5.772   3.264   0.900
 4727TIP3    H214139   5.677   3.172   0.827
 4728TIP3   OH214140   1.172   4.432   3.649
 4728TIP3    H114141   1.220   4.469   3.575
 4728TIP3    H214142   1.112   4.502   3.675
 4729TIP3   OH214143   7.599   0.776   4.039
 4729TIP3    H114144   7.682   0.758   4.085
 4729TIP3    H214145   7.560   0.690   4.026
 4730TIP3   OH214146   5.984   7.784   1.311
 4730TIP3    H114147   5.990   7.718   1.242
 4730TIP3    H214148   5.919   7.749   1.372
 4731TIP3   OH214149   2.286   6.469   5.789
 4731TIP3    H114150   2.282   6.518   5.871
 4731TIP3    H214151   2.198   6.477   5.752
 4732TIP3   OH214152   3.141   0.709   1.418
 4732TIP3    H114153   3.074   0.640   1.413
 4732TIP3    H214154   3.128   0.760   1.337
 4733TIP3   OH214155   6.279   3.543   6.424
 4733TIP3    H114156   6.295   3.453   6.394
 4733TIP3    H214157   6.346   3.595   6.379
 4734TIP3   OH214158   7.319   4.681   1.778
 4734TIP3    H114159   7.292   4.758   1.729
 4734TIP3    H214160   7.345   4.618   1.711
 4735TIP3   OH214161   3.196   5.585   5.505
 4735TIP3    H114162   3.236   5.669   5.529
 4735TIP3    H214163   3.119   5.609   5.454
 4736TIP3   OH214164   1.764   6.356   4.504
 4736TIP3    H114165   1.813   6.386   4.427
 4736TIP3    H214166   1.830   6.354   4.574
 4737TIP3   OH214167   4.900   5.975   0.302
 4737TIP3    H114168   4.913   6.068   0.323
 4737TIP3    H214169   4.881   5.974   0.209
 4738TIP3   OH214170   0.210   4.913   1.018
 4738TIP3    H114171   0.151   4.921   0.943
 4738TIP3    H214172   0.264   4.992   1.015
 4739TIP3   OH214173   3.848   0.201   3.646
 4739TIP3    H114174   3.782   0.180   3.712
 4739TIP3    H214175   3.848   0.126   3.587
 4740TIP3   OH214176   8.226   0.113   3.812
 4740TIP3    H114177   8.235   0.110   3.907
 4740TIP3    H214178   8.309   0.077   3.780
 4741TIP3   OH214179   1.795   6.924   1.059
 4741TIP3    H114180   1.739   6.937   1.136
 4741TIP3    H214181   1.798   7.010   1.017
 4742TIP3   OH214182   1.774   0.083   3.015
 4742TIP3    H114183   1.851   0.122   2.975
 4742TIP3    H214184   1.758   0.136   3.093
 4743TIP3   OH214185   2.736   2.401   3.977
 4743TIP3    H114186   2.805   2.351   4.021
 4743TIP3    H214187   2.730   2.362   3.890
 4744TIP3   OH214188   5.587   2.623   4.941
 4744TIP3    H114189   5.584   2.709   4.983
 4744TIP3    H214190   5.629   2.639   4.857
 4745TIP3   OH214191   3.159   3.447   3.905
 4745TIP3    H114192   3.082   3.402   3.939
 4745TIP3    H214193   3.223   3.377   3.890
 4746TIP3   OH214194   5.664   5.855   2.644
 4746TIP3    H114195   5.593   5.916   2.663
 4746TIP3    H214196   5.733   5.910   2.608
 4747TIP3   OH214197   3.365   0.496   5.611
 4747TIP3    H114198   3.309   0.469   5.685
 4747TIP3    H214199   3.306   0.496   5.536
 4748TIP3   OH214200   5.139   3.094   4.198
 4748TIP3    H114201   5.166   3.026   4.260
 4748TIP3    H214202   5.063   3.135   4.239
 4749TIP3   OH214203   8.220   7.816   4.843
 4749TIP3    H114204   8.312   7.794   4.851
 4749TIP3    H214205   8.205   7.823   4.748
 4750TIP3   OH214206   3.663   3.073   6.724
 4750TIP3    H114207   3.716   2.998   6.748
 4750TIP3    H214208   3.709   3.113   6.651
 4751TIP3   OH214209   7.081   3.113   5.041
 4751TIP3    H114210   7.177   3.116   5.042
 4751TIP3    H214211   7.054   3.204   5.052
 4752TIP3   OH214212   2.599   0.089   0.951
 4752TIP3    H114213   2.611   0.052   1.039
 4752TIP3    H214214   2.665   0.045   0.897
 4753TIP3   OH214215   1.100   7.226   2.602
 4753TIP3    H114216   1.193   7.245   2.607
 4753TIP3    H214217   1.064   7.294   2.545
 4754TIP3   OH214218   7.605   4.220   5.228
 4754TIP3    H114219   7.582   4.280   5.299
 4754TIP3    H214220   7.521   4.189   5.194
 4755TIP3   OH214221   3.152   1.962   3.520
 4755TIP3    H114222   3.116   1.925   3.440
 4755TIP3    H214223   3.111   2.048   3.528
 4756TIP3   OH214224   4.333   1.918   2.914
 4756TIP3    H114225   4.263   1.854   2.894
 4756TIP3    H214226   4.336   1.975   2.837
 4757TIP3   OH214227   7.942   3.520   2.944
 4757TIP3    H114228   7.899   3.543   2.862
 4757TIP3    H214229   7.870   3.504   3.005
 4758TIP3   OH214230   1.774   7.808   1.989
 4758TIP3    H114231   1.827   7.776   2.062
 4758TIP3    H214232   1.809   7.762   1.912
 4759TIP3   OH214233   5.422   3.299   6.674
 4759TIP3    H114234   5.511   3.266   6.686
 4759TIP3    H214235   5.385   3.301   6.762
 4760TIP3   OH214236   0.265   4.067   2.658
 4760TIP3    H114237   0.272   4.112   2.574
 4760TIP3    H214238   0.296   3.978   2.641
 4761TIP3   OH214239   2.750   0.435   6.451
 4761TIP3    H114240   2.835   0.449   6.410
 4761TIP3    H214241   2.750   0.342   6.475
 4762TIP3   OH214242   4.395   5.552   5.666
 4762TIP3    H114243   4.481   5.582   5.636
 4762TIP3    H214244   4.341   5.631   5.670
 4763TIP3   OH214245   6.746   0.457   0.894
 4763TIP3    H114246   6.761   0.430   0.984
 4763TIP3    H214247   6.656   0.492   0.894
 4764TIP3   OH214248   1.706   0.645   4.216
 4764TIP3    H114249   1.615   0.648   4.187
 4764TIP3    H214250   1.757   0.640   4.135
 4765TIP3   OH214251   1.077   3.749   3.312
 4765TIP3    H114252   0.983   3.765   3.320
 4765TIP3    H214253   1.118   3.834   3.326
 4766TIP3   OH214254   4.047   3.415   5.016
 4766TIP3    H114255   4.005   3.337   4.981
 4766TIP3    H214256   4.141   3.398   5.009
 4767TIP3   OH214257   6.464   6.920   6.279
 4767TIP3    H114258   6.511   6.841   6.252
 4767TIP3    H214259   6.380   6.914   6.235
 4768TIP3   OH214260   3.877   1.414   0.494
 4768TIP3    H114261   3.916   1.495   0.462
 4768TIP3    H214262   3.929   1.391   0.571
 4769TIP3   OH214263   7.012   1.372   3.370
 4769TIP3    H114264   7.102   1.395   3.395
 4769TIP3    H214265   6.979   1.323   3.445
 4770TIP3   OH214266   6.716   1.122   1.058
 4770TIP3    H114267   6.756   1.208   1.074
 4770TIP3    H214268   6.622   1.141   1.048
 4771TIP3   OH214269   4.173   4.440   1.946
 4771TIP3    H114270   4.097   4.475   1.993
 4771TIP3    H214271   4.179   4.349   1.973
 4772TIP3   OH214272   7.573   6.750   4.411
 4772TIP3    H114273   7.484   6.787   4.414
 4772TIP3    H214274   7.577   6.705   4.327
 4773TIP3   OH214275   2.975   4.901   0.662
 4773TIP3    H114276   2.904   4.868   0.717
 4773TIP3    H214277   2.934   4.966   0.605
 4774TIP3   OH214278   6.255   3.737   3.193
 4774TIP3    H114279   6.177   3.699   3.151
 4774TIP3    H214280   6.220   3.797   3.259
 4775TIP3   OH214281   3.823   5.556   4.644
 4775TIP3    H114282   3.821   5.569   4.739
 4775TIP3    H214283   3.759   5.487   4.628
 4776TIP3   OH214284   5.025   1.794   1.481
 4776TIP3    H114285   5.063   1.707   1.495
 4776TIP3    H214286   5.004   1.795   1.387
 4777TIP3   OH214287   3.465   6.125   3.518
 4777TIP3    H114288   3.376   6.090   3.525
 4777TIP3    H214289   3.520   6.048   3.507
 4778TIP3   OH214290   3.664   7.537   6.409
 4778TIP3    H114291   3.649   7.606   6.474
 4778TIP3    H214292   3.751   7.557   6.374
 4779TIP3   OH214293   1.929   2.793   5.334
 4779TIP3    H114294   1.986   2.725   5.372
 4779TIP3    H214295   1.978   2.874   5.347
 4780TIP3   OH214296   2.531   1.880   2.021
 4780TIP3    H114297   2.580   1.934   1.960
 4780TIP3    H214298   2.589   1.870   2.097
 4781TIP3   OH214299   4.024   2.591   6.043
 4781TIP3    H114300   3.989   2.664   5.991
 4781TIP3    H214301   4.093   2.631   6.096
 4782TIP3   OH214302   2.140   6.546   6.375
 4782TIP3    H114303   2.169   6.573   6.288
 4782TIP3    H214304   2.190   6.601   6.435
 4783TIP3   OH214305   0.832   1.547   4.004
 4783TIP3    H114306   0.913   1.588   3.974
 4783TIP3    H214307   0.833   1.558   4.099
 4784TIP3   OH214308   1.053   2.710   1.514
 4784TIP3    H114309   1.105   2.633   1.493
 4784TIP3    H214310   0.963   2.685   1.493
 4785TIP3   OH214311   0.473   6.773   2.963
 4785TIP3    H114312   0.456   6.810   3.049
 4785TIP3    H214313   0.429   6.688   2.965
 4786TIP3   OH214314   5.467   1.901   1.031
 4786TIP3    H114315   5.545   1.847   1.015
 4786TIP3    H214316   5.477   1.976   0.972
 4787TIP3   OH214317   4.368   5.896   4.548
 4787TIP3    H114318   4.334   5.944   4.473
 4787TIP3    H214319   4.416   5.823   4.510
 4788TIP3   OH214320   1.245   3.522   1.133
 4788TIP3    H114321   1.286   3.543   1.049
 4788TIP3    H214322   1.152   3.533   1.118
 4789TIP3   OH214323   6.750   7.347   2.056
 4789TIP3    H114324   6.749   7.267   2.108
 4789TIP3    H214325   6.663   7.385   2.068
 4790TIP3   OH214326   3.429   3.659   2.926
 4790TIP3    H114327   3.339   3.687   2.914
 4790TIP3    H214328   3.425   3.591   2.993
 4791TIP3   OH214329   4.329   5.779   2.144
 4791TIP3    H114330   4.278   5.713   2.191
 4791TIP3    H214331   4.342   5.849   2.208
 4792TIP3   OH214332   3.083   1.993   0.387
 4792TIP3    H114333   3.169   2.033   0.404
 4792TIP3    H214334   3.076   1.923   0.452
 4793TIP3   OH214335   5.272   1.829   0.409
 4793TIP3    H114336   5.319   1.881   0.474
 4793TIP3    H214337   5.180   1.840   0.431
 4794TIP3   OH214338   4.030   1.153   0.489
 4794TIP3    H114339   4.049   1.218   0.557
 4794TIP3    H214340   3.970   1.091   0.532
 4795TIP3   OH214341   3.156   5.568   0.028
 4795TIP3    H114342   3.187   5.600  -0.057
 4795TIP3    H214343   3.113   5.643   0.068
 4796TIP3   OH214344   1.612   3.598   2.973
 4796TIP3    H114345   1.698   3.558   2.965
 4796TIP3    H214346   1.566   3.572   2.894
 4797TIP3   OH214347   6.217   6.556   3.819
 4797TIP3    H114348   6.157   6.629   3.833
 4797TIP3    H214349   6.304   6.591   3.841
 4798TIP3   OH214350   2.680   1.552   2.155
 4798TIP3    H114351   2.667   1.509   2.070
 4798TIP3    H214352   2.600   1.532   2.204
 4799TIP3   OH214353   1.782   4.544   6.660
 4799TIP3    H114354   1.787   4.544   6.564
 4799TIP3    H214355   1.723   4.471   6.681
 4800TIP3   OH214356   0.777   1.342   3.817
 4800TIP3    H114357   0.687   1.312   3.832
 4800TIP3    H214358   0.793   1.406   3.887
 4801TIP3   OH214359   1.272   2.082   6.296
 4801TIP3    H114360   1.300   2.055   6.208
 4801TIP3    H214361   1.180   2.104   6.286
 4802TIP3   OH214362   6.556   4.512   4.474
 4802TIP3    H114363   6.522   4.502   4.385
 4802TIP3    H214364   6.544   4.425   4.514
 4803TIP3   OH214365   5.587   7.499   5.359
 4803TIP3    H114366   5.674   7.460   5.350
 4803TIP3    H214367   5.547   7.451   5.431
 4804TIP3   OH214368   5.287   6.870   1.604
 4804TIP3    H114369   5.312   6.835   1.518
 4804TIP3    H214370   5.206   6.824   1.626
 4805TIP3   OH214371   6.938   4.897   6.008
 4805TIP3    H114372   6.916   4.948   6.086
 4805TIP3    H214373   6.894   4.942   5.936
 4806TIP3   OH214374   1.389   5.714   4.921
 4806TIP3    H114375   1.313   5.680   4.874
 4806TIP3    H214376   1.447   5.748   4.853
 4807TIP3   OH214377   4.422   2.143   5.636
 4807TIP3    H114378   4.474   2.195   5.697
 4807TIP3    H214379   4.425   2.054   5.672
 4808TIP3   OH214380   3.083   6.407   4.579
 4808TIP3    H114381   3.026   6.372   4.509
 4808TIP3    H214382   3.167   6.363   4.565
 4809TIP3   OH214383   2.599   1.575   5.275
 4809TIP3    H114384   2.550   1.534   5.346
 4809TIP3    H214385   2.690   1.550   5.290
 4810TIP3   OH214386   1.244   2.707   5.992
 4810TIP3    H114387   1.316   2.770   5.997
 4810TIP3    H214388   1.235   2.687   5.899
 4811TIP3   OH214389   1.614   5.683   4.078
 4811TIP3    H114390   1.546   5.713   4.018
 4811TIP3    H214391   1.672   5.628   4.024
 4812TIP3   OH214392   4.399   2.687   5.188
 4812TIP3    H114393   4.326   2.646   5.142
 4812TIP3    H214394   4.375   2.780   5.194
 4813TIP3   OH214395   0.643   0.533   1.909
 4813TIP3    H114396   0.574   0.468   1.922
 4813TIP3    H214397   0.677   0.549   1.997
 4814TIP3   OH214398   0.143   7.088   6.005
 4814TIP3    H114399   0.175   7.170   5.968
 4814TIP3    H214400   0.197   7.074   6.083
 4815TIP3   OH214401   5.076   2.545   3.838
 4815TIP3    H114402   5.137   2.492   3.889
 4815TIP3    H214403   5.062   2.624   3.890
 4816TIP3   OH214404   1.438   7.073   0.863
 4816TIP3    H114405   1.428   7.153   0.812
 4816TIP3    H214406   1.509   7.091   0.924
 4817TIP3   OH214407   0.882   1.098   2.824
 4817TIP3    H114408   0.894   1.013   2.782
 4817TIP3    H214409   0.956   1.151   2.793
 4818TIP3   OH214410   2.145   2.645   2.232
 4818TIP3    H114411   2.135   2.708   2.161
 4818TIP3    H214412   2.143   2.698   2.312
 4819TIP3   OH214413   3.712   1.048   1.071
 4819TIP3    H114414   3.665   1.068   0.991
 4819TIP3    H214415   3.716   0.953   1.074
 4820TIP3   OH214416   0.377   0.043   2.052
 4820TIP3    H114417   0.410   0.106   2.117
 4820TIP3    H214418   0.399  -0.042   2.090
 4821TIP3   OH214419   7.292   6.900   3.916
 4821TIP3    H114420   7.380   6.866   3.930
 4821TIP3    H214421   7.236   6.847   3.973
 4822TIP3   OH214422   3.777   4.011   2.522
 4822TIP3    H114423   3.775   3.929   2.572
 4822TIP3    H214424   3.866   4.014   2.486
 4823TIP3   OH214425   6.270   1.925   4.766
 4823TIP3    H114426   6.322   1.880   4.833
 4823TIP3    H214427   6.180   1.916   4.795
 4824TIP3   OH214428   2.914   6.720   1.088
 4824TIP3    H114429   2.876   6.807   1.089
 4824TIP3    H214430   2.843   6.664   1.055
 4825TIP3   OH214431   3.846   5.669   1.884
 4825TIP3    H114432   3.877   5.652   1.973
 4825TIP3    H214433   3.832   5.582   1.847
 4826TIP3   OH214434   6.522   6.759   4.104
 4826TIP3    H114435   6.595   6.703   4.130
 4826TIP3    H214436   6.542   6.845   4.142
 4827TIP3   OH214437   3.328   6.425   0.305
 4827TIP3    H114438   3.380   6.477   0.244
 4827TIP3    H214439   3.308   6.486   0.376
 4828TIP3   OH214440   1.871   1.113   4.695
 4828TIP3    H114441   1.848   1.057   4.769
 4828TIP3    H214442   1.896   1.051   4.626
 4829TIP3   OH214443   6.567   2.895   4.632
 4829TIP3    H114444   6.561   2.854   4.718
 4829TIP3    H214445   6.662   2.900   4.615
 4830TIP3   OH214446   7.752   7.148   2.557
 4830TIP3    H114447   7.772   7.104   2.474
 4830TIP3    H214448   7.805   7.227   2.556
 4831TIP3   OH214449   3.443   0.739   5.767
 4831TIP3    H114450   3.406   0.679   5.703
 4831TIP3    H214451   3.525   0.769   5.728
 4832TIP3   OH214452   2.696   2.550   6.168
 4832TIP3    H114453   2.663   2.473   6.122
 4832TIP3    H214454   2.693   2.526   6.260
 4833TIP3   OH214455   2.638   1.187   1.419
 4833TIP3    H114456   2.602   1.102   1.393
 4833TIP3    H214457   2.578   1.251   1.380
 4834TIP3   OH214458   4.731   5.998   3.275
 4834TIP3    H114459   4.674   6.073   3.263
 4834TIP3    H214460   4.731   5.982   3.369
 4835TIP3   OH214461   6.008   1.129   5.327
 4835TIP3    H114462   5.954   1.059   5.363
 4835TIP3    H214463   6.078   1.084   5.281
 4836TIP3   OH214464   4.795   6.905   0.035
 4836TIP3    H114465   4.727   6.871   0.092
 4836TIP3    H214466   4.858   6.834   0.026
 4837TIP3   OH214467   2.855   1.639   0.201
 4837TIP3    H114468   2.937   1.677   0.168
 4837TIP3    H214469   2.792   1.711   0.196
 4838TIP3   OH214470   0.192   3.032   4.313
 4838TIP3    H114471   0.254   2.959   4.310
 4838TIP3    H214472   0.109   2.992   4.339
 4839TIP3   OH214473   5.878   7.407   4.348
 4839TIP3    H114474   5.899   7.315   4.364
 4839TIP3    H214475   5.797   7.404   4.298
 4840TIP3   OH214476   6.043   0.111   3.541
 4840TIP3    H114477   6.105   0.078   3.476
 4840TIP3    H214478   5.987   0.171   3.494
 4841TIP3   OH214479   4.533   5.534   2.931
 4841TIP3    H114480   4.616   5.581   2.940
 4841TIP3    H214481   4.472   5.600   2.898
 4842TIP3   OH214482   8.255   3.301   0.495
 4842TIP3    H114483   8.198   3.374   0.519
 4842TIP3    H214484   8.291   3.324   0.410
 4843TIP3   OH214485   6.971   6.558   6.392
 4843TIP3    H114486   7.040   6.601   6.342
 4843TIP3    H214487   6.900   6.623   6.394
 4844TIP3   OH214488   0.700   7.732   5.254
 4844TIP3    H114489   0.684   7.825   5.236
 4844TIP3    H214490   0.758   7.732   5.330
 4845TIP3   OH214491   6.090   6.422   6.690
 4845TIP3    H114492   6.015   6.478   6.709
 4845TIP3    H214493   6.097   6.364   6.765
 4846TIP3   OH214494   6.050   2.709   3.585
 4846TIP3    H114495   6.127   2.764   3.598
 4846TIP3    H214496   6.067   2.632   3.640
 4847TIP3   OH214497   5.208   6.005   3.065
 4847TIP3    H114498   5.141   6.044   3.121
 4847TIP3    H214499   5.290   6.044   3.097
 4848TIP3   OH214500   2.367   0.767   4.883
 4848TIP3    H114501   2.367   0.676   4.853
 4848TIP3    H214502   2.274   0.788   4.896
 4849TIP3   OH214503   6.276   5.621   3.346
 4849TIP3    H114504   6.242   5.575   3.423
 4849TIP3    H214505   6.358   5.576   3.326
 4850TIP3   OH214506   3.100   1.234   0.255
 4850TIP3    H114507   3.102   1.310   0.313
 4850TIP3    H214508   3.128   1.268   0.170
 4851TIP3   OH214509   1.636   1.190   4.266
 4851TIP3    H114510   1.713   1.143   4.234
 4851TIP3    H214511   1.574   1.187   4.193
 4852TIP3   OH214512   0.172   0.177   3.673
 4852TIP3    H114513   0.095   0.232   3.655
 4852TIP3    H214514   0.210   0.215   3.753
 4853TIP3   OH214515   1.138   3.386   1.349
 4853TIP3    H114516   1.074   3.342   1.293
 4853TIP3    H214517   1.177   3.452   1.292
 4854TIP3   OH214518   6.303   7.609   3.105
 4854TIP3    H114519   6.394   7.640   3.105
 4854TIP3    H214520   6.302   7.536   3.043
 4855TIP3   OH214521   2.720   5.435   2.764
 4855TIP3    H114522   2.705   5.509   2.706
 4855TIP3    H214523   2.745   5.474   2.848
 4856TIP3   OH214524   3.423   1.179   2.698
 4856TIP3    H114525   3.411   1.262   2.652
 4856TIP3    H214526   3.335   1.142   2.706
 4857TIP3   OH214527   4.881   3.192   5.225
 4857TIP3    H114528   4.894   3.216   5.317
 4857TIP3    H214529   4.866   3.098   5.227
 4858TIP3   OH214530   4.483   2.524   1.063
 4858TIP3    H114531   4.552   2.558   1.005
 4858TIP3    H214532   4.489   2.429   1.054
 4859TIP3   OH214533   4.038   4.772   1.298
 4859TIP3    H114534   3.965   4.828   1.324
 4859TIP3    H214535   3.998   4.705   1.242
 4860TIP3   OH214536   5.861   5.709   1.593
 4860TIP3    H114537   5.871   5.688   1.686
 4860TIP3    H214538   5.948   5.739   1.566
 4861TIP3   OH214539   2.110   6.719   0.576
 4861TIP3    H114540   2.028   6.747   0.536
 4861TIP3    H214541   2.140   6.796   0.625
 4862TIP3   OH214542   1.571   1.970   5.306
 4862TIP3    H114543   1.581   2.042   5.244
 4862TIP3    H214544   1.506   2.003   5.369
 4863TIP3   OH214545   7.332   0.423   4.258
 4863TIP3    H114546   7.388   0.387   4.327
 4863TIP3    H214547   7.246   0.385   4.276
 4864TIP3   OH214548   6.123   4.789   1.934
 4864TIP3    H114549   6.139   4.883   1.926
 4864TIP3    H214550   6.210   4.750   1.928
 4865TIP3   OH214551   0.829   3.782   6.010
 4865TIP3    H114552   0.912   3.804   5.968
 4865TIP3    H214553   0.780   3.865   6.010
 4866TIP3   OH214554   3.593   0.721   5.997
 4866TIP3    H114555   3.541   0.757   5.925
 4866TIP3    H214556   3.537   0.654   6.036
 4867TIP3   OH214557   6.062   2.977   0.607
 4867TIP3    H114558   5.993   2.956   0.545
 4867TIP3    H214559   6.063   2.902   0.668
 4868TIP3   OH214560   3.276   5.492   4.625
 4868TIP3    H114561   3.347   5.545   4.661
 4868TIP3    H214562   3.320   5.427   4.571
 4869TIP3   OH214563   2.584   0.642   5.509
 4869TIP3    H114564   2.563   0.550   5.494
 4869TIP3    H214565   2.632   0.643   5.592
 4870TIP3   OH214566   4.130   7.471   3.370
 4870TIP3    H114567   4.138   7.464   3.275
 4870TIP3    H214568   4.051   7.522   3.384
 4871TIP3   OH214569   5.792   4.164   0.892
 4871TIP3    H114570   5.878   4.184   0.855
 4871TIP3    H214571   5.749   4.110   0.826
 4872TIP3   OH214572   0.327   1.475   2.722
 4872TIP3    H114573   0.406   1.527   2.737
 4872TIP3    H214574   0.288   1.465   2.809
 4873TIP3   OH214575   4.443   0.568   1.730
 4873TIP3    H114576   4.434   0.602   1.819
 4873TIP3    H214577   4.537   0.571   1.712
 4874TIP3   OH214578   1.314   6.075   1.062
 4874TIP3    H114579   1.322   6.159   1.107
 4874TIP3    H214580   1.222   6.050   1.076
 4875TIP3   OH214581   7.679   5.322   4.975
 4875TIP3    H114582   7.772   5.323   4.999
 4875TIP3    H214583   7.676   5.271   4.894
 4876TIP3   OH214584   7.497   5.384   1.751
 4876TIP3    H114585   7.589   5.367   1.773
 4876TIP3    H214586   7.495   5.476   1.726
 4877TIP3   OH214587   6.953   2.458   2.302
 4877TIP3    H114588   6.942   2.553   2.299
 4877TIP3    H214589   6.931   2.429   2.213
 4878TIP3   OH214590   0.172   5.288   5.423
 4878TIP3    H114591   0.224   5.286   5.504
 4878TIP3    H214592   0.081   5.284   5.453
 4879TIP3   OH214593   5.057   7.228   0.546
 4879TIP3    H114594   5.066   7.293   0.477
 4879TIP3    H214595   5.103   7.151   0.513
 4880TIP3   OH214596   3.599   3.202   1.756
 4880TIP3    H114597   3.695   3.206   1.757
 4880TIP3    H214598   3.572   3.293   1.741
 4881TIP3   OH214599   5.144   0.296   6.486
 4881TIP3    H114600   5.117   0.289   6.578
 4881TIP3    H214601   5.224   0.243   6.481
 4882TIP3   OH214602   0.393   0.082   1.043
 4882TIP3    H114603   0.422   0.003   1.088
 4882TIP3    H214604   0.356   0.050   0.961
 4883TIP3   OH214605   0.521   6.866   6.049
 4883TIP3    H114606   0.428   6.849   6.030
 4883TIP3    H214607   0.549   6.925   5.979
 4884TIP3   OH214608   7.406   3.806   3.091
 4884TIP3    H114609   7.377   3.892   3.119
 4884TIP3    H214610   7.456   3.771   3.165
 4885TIP3   OH214611   4.753   6.502   5.597
 4885TIP3    H114612   4.779   6.426   5.544
 4885TIP3    H214613   4.748   6.574   5.534
 4886TIP3   OH214614   3.977   6.516   1.255
 4886TIP3    H114615   4.011   6.435   1.293
 4886TIP3    H214616   4.024   6.526   1.173
 4887TIP3   OH214617   3.581   1.979   2.764
 4887TIP3    H114618   3.534   1.896   2.761
 4887TIP3    H214619   3.645   1.973   2.693
 4888TIP3   OH214620   7.732   0.582   5.339
 4888TIP3    H114621   7.712   0.601   5.248
 4888TIP3    H214622   7.827   0.575   5.343
 4889TIP3   OH214623   7.729   0.655   5.021
 4889TIP3    H114624   7.727   0.596   4.946
 4889TIP3    H214625   7.806   0.710   5.007
 4890TIP3   OH214626   6.098   1.073   2.601
 4890TIP3    H114627   6.188   1.063   2.633
 4890TIP3    H214628   6.082   1.167   2.601
 4891TIP3   OH214629   7.669   2.276   6.406
 4891TIP3    H114630   7.656   2.242   6.318
 4891TIP3    H214631   7.588   2.256   6.452
 4892TIP3   OH214632   3.355   7.593   3.131
 4892TIP3    H114633   3.332   7.636   3.049
 4892TIP3    H214634   3.411   7.520   3.105
 4893TIP3   OH214635   8.043   6.426   2.460
 4893TIP3    H114636   8.102   6.477   2.515
 4893TIP3    H214637   8.077   6.336   2.465
 4894TIP3   OH214638   5.105   5.432   1.370
 4894TIP3    H114639   5.021   5.392   1.351
 4894TIP3    H214640   5.163   5.359   1.391
 4895TIP3   OH214641   0.359   0.726   4.582
 4895TIP3    H114642   0.302   0.679   4.522
 4895TIP3    H214643   0.363   0.815   4.547
 4896TIP3   OH214644   0.894   7.599   1.780
 4896TIP3    H114645   0.959   7.669   1.778
 4896TIP3    H214646   0.849   7.611   1.864
 4897TIP3   OH214647   1.959   7.806   6.478
 4897TIP3    H114648   1.956   7.741   6.549
 4897TIP3    H214649   1.996   7.758   6.404
 4898TIP3   OH214650   1.798   7.641   3.044
 4898TIP3    H114651   1.801   7.545   3.040
 4898TIP3    H214652   1.728   7.661   3.105
 4899TIP3   OH214653   4.243   0.170   4.345
 4899TIP3    H114654   4.305   0.097   4.352
 4899TIP3    H214655   4.176   0.151   4.411
 4900TIP3   OH214656   0.325   3.303   1.633
 4900TIP3    H114657   0.266   3.375   1.612
 4900TIP3    H214658   0.351   3.267   1.548
 4901TIP3   OH214659   3.012   3.230   1.004
 4901TIP3    H114660   3.087   3.288   0.993
 4901TIP3    H214661   3.000   3.223   1.098
 4902TIP3   OH214662   0.912   7.438   0.525
 4902TIP3    H114663   0.886   7.530   0.530
 4902TIP3    H214664   0.873   7.397   0.602
 4903TIP3   OH214665   6.361   3.741   1.772
 4903TIP3    H114666   6.314   3.799   1.832
 4903TIP3    H214667   6.355   3.654   1.813
 4904TIP3   OH214668   3.817   6.097   3.430
 4904TIP3    H114669   3.736   6.118   3.384
 4904TIP3    H214670   3.839   6.176   3.478
 4905TIP3   OH214671   6.943   6.240   3.800
 4905TIP3    H114672   6.938   6.146   3.785
 4905TIP3    H214673   7.022   6.252   3.853
 4906TIP3   OH214674   7.092   6.917   5.600
 4906TIP3    H114675   7.089   7.010   5.622
 4906TIP3    H214676   7.138   6.914   5.515
 4907TIP3   OH214677   4.641   4.245   3.340
 4907TIP3    H114678   4.603   4.197   3.413
 4907TIP3    H214679   4.715   4.192   3.312
 4908TIP3   OH214680   5.296   7.489   4.999
 4908TIP3    H114681   5.348   7.543   5.058
 4908TIP3    H214682   5.212   7.535   4.992
 4909TIP3   OH214683   5.263   6.026   0.421
 4909TIP3    H114684   5.346   6.057   0.458
 4909TIP3    H214685   5.227   6.102   0.376
 4910TIP3   OH214686   2.302   4.526   2.841
 4910TIP3    H114687   2.294   4.590   2.770
 4910TIP3    H214688   2.366   4.462   2.809
 4911TIP3   OH214689   1.805   3.946   4.806
 4911TIP3    H114690   1.886   3.899   4.825
 4911TIP3    H214691   1.811   4.027   4.856
 4912TIP3   OH214692   6.184   1.359   3.829
 4912TIP3    H114693   6.267   1.405   3.815
 4912TIP3    H214694   6.182   1.292   3.761
 4913TIP3   OH214695   2.886   6.089   5.977
 4913TIP3    H114696   2.896   6.122   6.066
 4913TIP3    H214697   2.962   6.125   5.929
 4914TIP3   OH214698   6.352   2.605   2.272
 4914TIP3    H114699   6.394   2.689   2.291
 4914TIP3    H214700   6.282   2.599   2.337
 4915TIP3   OH214701   4.233   6.456   3.584
 4915TIP3    H114702   4.185   6.396   3.640
 4915TIP3    H214703   4.238   6.538   3.633
 4916TIP3   OH214704   3.405   5.514   1.527
 4916TIP3    H114705   3.475   5.502   1.464
 4916TIP3    H214706   3.391   5.427   1.565
 4917TIP3   OH214707   6.135   6.847   3.685
 4917TIP3    H114708   6.229   6.830   3.695
 4917TIP3    H214709   6.106   6.781   3.621
 4918TIP3   OH214710   6.572   6.089   2.942
 4918TIP3    H114711   6.511   6.017   2.926
 4918TIP3    H214712   6.517   6.159   2.980
 4919TIP3   OH214713   2.411   5.595   4.291
 4919TIP3    H114714   2.423   5.596   4.385
 4919TIP3    H214715   2.379   5.507   4.271
 4920TIP3   OH214716   3.617   1.108   0.218
 4920TIP3    H114717   3.523   1.111   0.239
 4920TIP3    H214718   3.659   1.088   0.301
 4921TIP3   OH214719   4.616   1.822   5.619
 4921TIP3    H114720   4.603   1.858   5.532
 4921TIP3    H214721   4.533   1.837   5.665
 4922TIP3   OH214722   5.771   4.125   4.271
 4922TIP3    H114723   5.822   4.197   4.309
 4922TIP3    H214724   5.804   4.047   4.317
 4923TIP3   OH214725   2.046   6.852   5.958
 4923TIP3    H114726   2.001   6.770   5.940
 4923TIP3    H214727   2.028   6.870   6.050
 4924TIP3   OH214728   0.209   5.971   4.875
 4924TIP3    H114729   0.118   5.944   4.877
 4924TIP3    H214730   0.259   5.892   4.896
 4925TIP3   OH214731   4.157   5.279   3.723
 4925TIP3    H114732   4.158   5.299   3.817
 4925TIP3    H214733   4.068   5.249   3.707
 4926TIP3   OH214734   2.349   4.194   6.088
 4926TIP3    H114735   2.279   4.163   6.031
 4926TIP3    H214736   2.342   4.289   6.085
 4927TIP3   OH214737   8.145   1.321   6.463
 4927TIP3    H114738   8.208   1.322   6.535
 4927TIP3    H214739   8.178   1.255   6.402
 4928TIP3   OH214740   7.214   4.778   2.951
 4928TIP3    H114741   7.267   4.705   2.921
 4928TIP3    H214742   7.199   4.831   2.872
 4929TIP3   OH214743   1.464   1.573   0.995
 4929TIP3    H114744   1.486   1.505   1.059
 4929TIP3    H214745   1.537   1.635   1.001
 4930TIP3   OH214746   1.144   1.665   0.105
 4930TIP3    H114747   1.235   1.685   0.130
 4930TIP3    H214748   1.131   1.713   0.023
 4931TIP3   OH214749   0.098   0.829   4.340
 4931TIP3    H114750   0.164   0.801   4.276
 4931TIP3    H214751   0.051   0.749   4.363
 4932TIP3   OH214752   3.101   5.389   3.330
 4932TIP3    H114753   3.161   5.400   3.256
 4932TIP3    H214754   3.073   5.298   3.325
 4933TIP3   OH214755   5.947   5.505   3.850
 4933TIP3    H114756   5.915   5.576   3.906
 4933TIP3    H214757   5.981   5.549   3.772
 4934TIP3   OH214758   1.183   5.722   6.417
 4934TIP3    H114759   1.275   5.735   6.439
 4934TIP3    H214760   1.142   5.692   6.498
 4935TIP3   OH214761   4.363   6.327   1.326
 4935TIP3    H114762   4.293   6.324   1.391
 4935TIP3    H214763   4.387   6.419   1.320
 4936TIP3   OH214764   6.276   4.297   1.672
 4936TIP3    H114765   6.277   4.342   1.587
 4936TIP3    H214766   6.306   4.208   1.652
 4937TIP3   OH214767   1.829   7.678   4.186
 4937TIP3    H114768   1.849   7.762   4.145
 4937TIP3    H214769   1.807   7.620   4.113
 4938TIP3   OH214770   7.239   0.884   1.597
 4938TIP3    H114771   7.293   0.955   1.630
 4938TIP3    H214772   7.269   0.807   1.645
 4939TIP3   OH214773   2.267   3.436   0.452
 4939TIP3    H114774   2.189   3.404   0.406
 4939TIP3    H214775   2.276   3.379   0.528
 4940TIP3   OH214776   3.911   5.077   2.168
 4940TIP3    H114777   3.930   4.991   2.205
 4940TIP3    H214778   3.837   5.110   2.219
 4941TIP3   OH214779   5.055   3.034   0.741
 4941TIP3    H114780   5.133   2.982   0.761
 4941TIP3    H214781   5.075   3.121   0.775
 4942TIP3   OH214782   2.028   2.186   4.615
 4942TIP3    H114783   1.964   2.254   4.632
 4942TIP3    H214784   1.978   2.116   4.573
 4943TIP3   OH214785   4.182   2.479   4.226
 4943TIP3    H114786   4.200   2.462   4.134
 4943TIP3    H214787   4.184   2.574   4.234
 4944TIP3   OH214788   1.432   2.979   5.265
 4944TIP3    H114789   1.513   2.946   5.226
 4944TIP3    H214790   1.439   3.075   5.258
 4945TIP3   OH214791   0.022   6.216   4.723
 4945TIP3    H114792   0.006   6.274   4.797
 4945TIP3    H214793   0.096   6.161   4.752
 4946TIP3   OH214794   7.417   6.634   3.981
 4946TIP3    H114795   7.483   6.566   3.978
 4946TIP3    H214796   7.439   6.685   4.059
 4947TIP3   OH214797   5.167   4.088   0.437
 4947TIP3    H114798   5.076   4.101   0.412
 4947TIP3    H214799   5.208   4.047   0.361
 4948TIP3   OH214800   3.691   7.413   0.717
 4948TIP3    H114801   3.745   7.433   0.641
 4948TIP3    H214802   3.604   7.445   0.693
 4949TIP3   OH214803   0.489   1.732   6.183
 4949TIP3    H114804   0.526   1.658   6.232
 4949TIP3    H214805   0.394   1.720   6.190
 4950TIP3   OH214806   0.277   5.839   4.148
 4950TIP3    H114807   0.182   5.850   4.152
 4950TIP3    H214808   0.300   5.799   4.231
 4951TIP3   OH214809   7.387   5.345   0.175
 4951TIP3    H114810   7.477   5.377   0.185
 4951TIP3    H214811   7.340   5.418   0.135
 4952TIP3   OH214812   7.803   3.583   4.737
 4952TIP3    H114813   7.748   3.626   4.801
 4952TIP3    H214814   7.766   3.609   4.652
 4953TIP3   OH214815   5.571   2.247   4.556
 4953TIP3    H114816   5.508   2.240   4.485
 4953TIP3    H214817   5.520   2.232   4.635
 4954TIP3   OH214818   6.196   3.556   3.700
 4954TIP3    H114819   6.120   3.514   3.660
 4954TIP3    H214820   6.196   3.526   3.791
 4955TIP3   OH214821   5.298   0.952   3.607
 4955TIP3    H114822   5.343   1.030   3.576
 4955TIP3    H214823   5.356   0.880   3.585
 4956TIP3   OH214824   4.884   7.290   2.021
 4956TIP3    H114825   4.941   7.225   1.979
 4956TIP3    H214826   4.941   7.334   2.084
 4957TIP3   OH214827   3.354   6.501   4.704
 4957TIP3    H114828   3.416   6.572   4.687
 4957TIP3    H214829   3.269   6.536   4.681
 4958TIP3   OH214830   6.962   4.291   0.366
 4958TIP3    H114831   6.873   4.283   0.331
 4958TIP3    H214832   6.949   4.327   0.454
 4959TIP3   OH214833   5.686   3.116   5.453
 4959TIP3    H114834   5.672   3.209   5.473
 4959TIP3    H214835   5.619   3.071   5.504
 4960TIP3   OH214836   6.156   0.492   6.236
 4960TIP3    H114837   6.210   0.564   6.203
 4960TIP3    H214838   6.068   0.528   6.240
 4961TIP3   OH214839   2.444   1.664   0.042
 4961TIP3    H114840   2.377   1.596   0.046
 4961TIP3    H214841   2.452   1.686  -0.051
 4962TIP3   OH214842   4.429   3.644   5.159
 4962TIP3    H114843   4.360   3.710   5.169
 4962TIP3    H214844   4.381   3.562   5.142
 4963TIP3   OH214845   6.811   5.660   1.475
 4963TIP3    H114846   6.876   5.701   1.418
 4963TIP3    H214847   6.764   5.733   1.514
 4964TIP3   OH214848   2.234   2.214   6.020
 4964TIP3    H114849   2.194   2.132   6.051
 4964TIP3    H214850   2.298   2.236   6.087
 4965TIP3   OH214851   2.485   7.236   0.481
 4965TIP3    H114852   2.524   7.308   0.530
 4965TIP3    H214853   2.542   7.161   0.499
 4966TIP3   OH214854   6.622   0.335   2.440
 4966TIP3    H114855   6.602   0.374   2.354
 4966TIP3    H214856   6.547   0.356   2.494
 4967TIP3   OH214857   0.444   0.631   3.296
 4967TIP3    H114858   0.368   0.657   3.349
 4967TIP3    H214859   0.515   0.686   3.329
 4968TIP3   OH214860   1.941   7.144   1.413
 4968TIP3    H114861   1.893   7.224   1.433
 4968TIP3    H214862   1.976   7.116   1.498
 4969TIP3   OH214863   5.493   7.600   4.224
 4969TIP3    H114864   5.484   7.687   4.183
 4969TIP3    H214865   5.408   7.558   4.209
 4970TIP3   OH214866   6.098   0.684   4.201
 4970TIP3    H114867   6.135   0.668   4.114
 4970TIP3    H214868   6.013   0.640   4.199
 4971TIP3   OH214869   5.664   4.595   4.269
 4971TIP3    H114870   5.668   4.525   4.204
 4971TIP3    H214871   5.734   4.574   4.331
 4972TIP3   OH214872   0.546   4.739   2.645
 4972TIP3    H114873   0.468   4.768   2.692
 4972TIP3    H214874   0.610   4.722   2.714
 4973TIP3   OH214875   5.200   1.926   1.051
 4973TIP3    H114876   5.160   1.872   1.119
 4973TIP3    H214877   5.294   1.909   1.060
 4974TIP3   OH214878   6.278   4.190   1.046
 4974TIP3    H114879   6.332   4.150   0.977
 4974TIP3    H214880   6.298   4.139   1.125
 4975TIP3   OH214881   3.367   3.457   4.095
 4975TIP3    H114882   3.313   3.502   4.030
 4975TIP3    H214883   3.451   3.503   4.092
 4976TIP3   OH214884   7.174   7.695   3.827
 4976TIP3    H114885   7.169   7.643   3.746
 4976TIP3    H214886   7.251   7.662   3.872
 4977TIP3   OH214887   2.308   3.680   4.724
 4977TIP3    H114888   2.327   3.639   4.809
 4977TIP3    H214889   2.274   3.609   4.670
 4978TIP3   OH214890   6.487   7.303   5.375
 4978TIP3    H114891   6.550   7.251   5.425
 4978TIP3    H214892   6.432   7.238   5.332
 4979TIP3   OH214893   7.524   4.764   5.686
 4979TIP3    H114894   7.534   4.859   5.685
 4979TIP3    H214895   7.522   4.741   5.779
 4980TIP3   OH214896   4.793   2.360   0.697
 4980TIP3    H114897   4.718   2.336   0.751
 4980TIP3    H214898   4.811   2.452   0.721
 4981TIP3   OH214899   7.675   3.341   0.367
 4981TIP3    H114900   7.770   3.336   0.353
 4981TIP3    H214901   7.640   3.377   0.286
 4982TIP3   OH214902   1.909   1.616   5.688
 4982TIP3    H114903   1.959   1.646   5.612
 4982TIP3    H214904   1.874   1.696   5.727
 4983TIP3   OH214905   6.869   4.821   2.228
 4983TIP3    H114906   6.953   4.812   2.272
 4983TIP3    H214907   6.888   4.874   2.150
 4984TIP3   OH214908   8.243   5.519   3.508
 4984TIP3    H114909   8.238   5.613   3.488
 4984TIP3    H214910   8.332   5.507   3.542
 4985TIP3   OH214911   4.322   7.401   3.833
 4985TIP3    H114912   4.294   7.310   3.821
 4985TIP3    H214913   4.403   7.394   3.883
 4986TIP3   OH214914   2.247   3.139   2.356
 4986TIP3    H114915   2.184   3.172   2.293
 4986TIP3    H214916   2.198   3.135   2.438
 4987TIP3   OH214917   1.147   2.683   5.739
 4987TIP3    H114918   1.060   2.673   5.778
 4987TIP3    H214919   1.130   2.714   5.650
 4988TIP3   OH214920   0.938   2.651   3.143
 4988TIP3    H114921   0.984   2.722   3.188
 4988TIP3    H214922   0.995   2.575   3.154
 4989TIP3   OH214923   2.674   7.270   4.904
 4989TIP3    H114924   2.769   7.269   4.895
 4989TIP3    H214925   2.658   7.318   4.985
 4990TIP3   OH214926   0.262   5.771   2.904
 4990TIP3    H114927   0.186   5.725   2.868
 4990TIP3    H214928   0.253   5.763   2.999
 4991TIP3   OH214929   6.434   4.866   5.162
 4991TIP3    H114930   6.448   4.895   5.072
 4991TIP3    H214931   6.522   4.858   5.199
 4992TIP3   OH214932   2.595   2.576   1.869
 4992TIP3    H114933   2.674   2.631   1.874
 4992TIP3    H214934   2.525   2.638   1.847
 4993TIP3   OH214935   2.038   1.141   1.547
 4993TIP3    H114936   2.103   1.071   1.535
 4993TIP3    H214937   2.087   1.212   1.589
 4994TIP3   OH214938   4.254   5.602   5.951
 4994TIP3    H114939   4.344   5.619   5.978
 4994TIP3    H214940   4.240   5.662   5.878
 4995TIP3   OH214941   4.161   3.803   1.820
 4995TIP3    H114942   4.223   3.822   1.749
 4995TIP3    H214943   4.207   3.738   1.874
 4996TIP3   OH214944   3.017   1.319   1.495
 4996TIP3    H114945   2.924   1.338   1.500
 4996TIP3    H214946   3.046   1.361   1.413
 4997TIP3   OH214947   3.147   5.587   1.922
 4997TIP3    H114948   3.212   5.647   1.958
 4997TIP3    H214949   3.101   5.553   1.999
 4998TIP3   OH214950   0.766   3.839   4.129
 4998TIP3    H114951   0.755   3.928   4.161
 4998TIP3    H214952   0.847   3.841   4.078
 4999TIP3   OH214953   6.495   6.776   1.504
 4999TIP3    H114954   6.401   6.775   1.523
 4999TIP3    H214955   6.528   6.696   1.544
 5000TIP3   OH214956   5.477   6.485   5.775
 5000TIP3    H114957   5.494   6.577   5.758
 5000TIP3    H214958   5.425   6.485   5.856
 5001TIP3   OH214959   5.614   0.217   5.976
 5001TIP3    H114960   5.554   0.194   6.047
 5001TIP3    H214961   5.633   0.310   5.990
 5002TIP3   OH214962   4.496   4.588   1.534
 5002TIP3    H114963   4.525   4.595   1.443
 5002TIP3    H214964   4.402   4.607   1.530
 5003TIP3   OH214965   2.309   3.001   1.637
 5003TIP3    H114966   2.266   2.972   1.718
 5003TIP3    H214967   2.246   2.981   1.568
 5004TIP3   OH214968   5.785   1.732   0.240
 5004TIP3    H114969   5.801   1.668   0.310
 5004TIP3    H214970   5.739   1.804   0.284
 5005TIP3   OH214971   7.975   3.819   6.238
 5005TIP3    H114972   8.017   3.741   6.202
 5005TIP3    H214973   8.033   3.846   6.309
 5006TIP3   OH214974   3.627   2.211   5.115
 5006TIP3    H114975   3.720   2.198   5.135
 5006TIP3    H214976   3.627   2.256   5.031
 5007TIP3   OH214977   0.475   4.764   0.512
 5007TIP3    H114978   0.532   4.817   0.456
 5007TIP3    H214979   0.473   4.678   0.469
 5008TIP3   OH214980   4.780   0.249   0.537
 5008TIP3    H114981   4.696   0.294   0.536
 5008TIP3    H214982   4.840   0.308   0.492
 5009TIP3   OH214983   4.987   1.778   1.209
 5009TIP3    H114984   4.927   1.845   1.177
 5009TIP3    H214985   4.975   1.704   1.150
 5010TIP3   OH214986   0.860   0.626   5.367
 5010TIP3    H114987   0.926   0.560   5.389
 5010TIP3    H214988   0.891   0.664   5.284
 5011TIP3   OH214989   4.882   4.091   5.580
 5011TIP3    H114990   4.820   4.113   5.649
 5011TIP3    H214991   4.968   4.096   5.621
 5012TIP3   OH214992   7.802   3.613   1.754
 5012TIP3    H114993   7.707   3.609   1.766
 5012TIP3    H214994   7.838   3.598   1.842
 5013TIP3   OH214995   1.459   2.152   4.476
 5013TIP3    H114996   1.423   2.240   4.473
 5013TIP3    H214997   1.431   2.111   4.394
 5014TIP3   OH214998   0.603   1.929   3.845
 5014TIP3    H114999   0.672   1.863   3.853
 5014TIP3    H215000   0.538   1.904   3.910
 5015TIP3   OH215001   4.111   6.575   0.111
 5015TIP3    H115002   4.127   6.668   0.126
 5015TIP3    H215003   4.177   6.549   0.048
 5016TIP3   OH215004   1.344   3.419   0.484
 5016TIP3    H115005   1.286   3.416   0.560
 5016TIP3    H215006   1.326   3.338   0.437
 5017TIP3   OH215007   1.269   5.330   1.650
 5017TIP3    H115008   1.324   5.261   1.612
 5017TIP3    H215009   1.322   5.410   1.642
 5018TIP3   OH215010   4.412   3.897   6.145
 5018TIP3    H115011   4.345   3.947   6.192
 5018TIP3    H215012   4.382   3.806   6.151
 5019TIP3   OH215013   0.654   1.784   5.673
 5019TIP3    H115014   0.738   1.802   5.632
 5019TIP3    H215015   0.599   1.859   5.650
 5020TIP3   OH215016   6.118   0.375   5.773
 5020TIP3    H115017   6.049   0.434   5.802
 5020TIP3    H215018   6.098   0.358   5.681
 5021TIP3   OH215019   5.807   4.954   5.197
 5021TIP3    H115020   5.715   4.971   5.177
 5021TIP3    H215021   5.843   4.920   5.115
 5022TIP3   OH215022   1.708   1.005   5.237
 5022TIP3    H115023   1.645   0.957   5.291
 5022TIP3    H215024   1.747   1.068   5.297
 5023TIP3   OH215025   4.143   3.864   4.705
 5023TIP3    H115026   4.197   3.926   4.753
 5023TIP3    H215027   4.124   3.795   4.769
 5024TIP3   OH215028   3.146   1.948   2.786
 5024TIP3    H115029   3.217   1.920   2.845
 5024TIP3    H215030   3.180   2.026   2.743
 5025TIP3   OH215031   2.185   3.433   4.088
 5025TIP3    H115032   2.241   3.411   4.015
 5025TIP3    H215033   2.188   3.529   4.092
 5026TIP3   OH215034   7.120   6.588   6.003
 5026TIP3    H115035   7.129   6.640   6.083
 5026TIP3    H215036   7.182   6.516   6.014
 5027TIP3   OH215037   1.400   6.572   3.794
 5027TIP3    H115038   1.450   6.593   3.873
 5027TIP3    H215039   1.426   6.482   3.772
 5028TIP3   OH215040   4.637   7.780   3.777
 5028TIP3    H115041   4.556   7.769   3.826
 5028TIP3    H215042   4.625   7.861   3.728
 5029TIP3   OH215043   6.870   4.718   0.892
 5029TIP3    H115044   6.842   4.775   0.964
 5029TIP3    H215045   6.936   4.770   0.844
 5030TIP3   OH215046   4.953   3.914   3.122
 5030TIP3    H115047   4.884   3.852   3.146
 5030TIP3    H215048   4.942   3.928   3.028
 5031TIP3   OH215049   1.671   1.730   3.159
 5031TIP3    H115050   1.582   1.702   3.137
 5031TIP3    H215051   1.725   1.652   3.144
 5032TIP3   OH215052   4.155   1.171   5.302
 5032TIP3    H115053   4.132   1.254   5.261
 5032TIP3    H215054   4.071   1.133   5.328
 5033TIP3   OH215055   3.419   5.844   0.017
 5033TIP3    H115056   3.494   5.875   0.068
 5033TIP3    H215057   3.431   5.749   0.012
 5034TIP3   OH215058   7.061   4.078   2.645
 5034TIP3    H115059   6.966   4.067   2.646
 5034TIP3    H215060   7.084   4.093   2.737
 5035TIP3   OH215061   4.993   6.826   1.921
 5035TIP3    H115062   5.047   6.898   1.955
 5035TIP3    H215063   5.017   6.821   1.828
 5036TIP3   OH215064   1.211   3.459   4.843
 5036TIP3    H115065   1.178   3.458   4.753
 5036TIP3    H215066   1.230   3.551   4.862
 5037TIP3   OH215067   7.630   7.079   5.606
 5037TIP3    H115068   7.614   7.057   5.698
 5037TIP3    H215069   7.602   7.002   5.557
 5038TIP3   OH215070   2.510   0.518   3.688
 5038TIP3    H115071   2.527   0.425   3.700
 5038TIP3    H215072   2.544   0.538   3.601
 5039TIP3   OH215073   2.987   5.719   3.703
 5039TIP3    H115074   2.980   5.655   3.774
 5039TIP3    H215075   3.080   5.741   3.698
 5040TIP3   OH215076   2.433   4.321   5.321
 5040TIP3    H115077   2.363   4.356   5.265
 5040TIP3    H215078   2.511   4.324   5.266
 5041TIP3   OH215079   7.907   2.295   3.935
 5041TIP3    H115080   7.892   2.221   3.876
 5041TIP3    H215081   7.895   2.372   3.880
 5042TIP3   OH215082   6.219   5.662   2.768
 5042TIP3    H115083   6.303   5.641   2.728
 5042TIP3    H215084   6.180   5.577   2.789
 5043TIP3   OH215085   5.043   7.209   5.288
 5043TIP3    H115086   4.987   7.273   5.245
 5043TIP3    H215087   5.132   7.245   5.280
 5044TIP3   OH215088   5.111   1.527   2.039
 5044TIP3    H115089   5.029   1.562   2.003
 5044TIP3    H215090   5.179   1.561   1.981
 5045TIP3   OH215091   6.838   6.062   2.992
 5045TIP3    H115092   6.747   6.082   2.970
 5045TIP3    H215093   6.878   6.036   2.909
 5046TIP3   OH215094   1.669   0.954   6.695
 5046TIP3    H115095   1.619   0.987   6.620
 5046TIP3    H215096   1.642   1.010   6.768
 5047TIP3   OH215097   7.523   1.792   2.061
 5047TIP3    H115098   7.522   1.715   2.005
 5047TIP3    H215099   7.509   1.866   2.001
 5048TIP3   OH215100   4.524   2.261   3.155
 5048TIP3    H115101   4.568   2.272   3.072
 5048TIP3    H215102   4.559   2.329   3.212
 5049TIP3   OH215103   6.118   1.950   0.541
 5049TIP3    H115104   6.122   1.859   0.511
 5049TIP3    H215105   6.028   1.977   0.522
 5050TIP3   OH215106   6.502   0.455   2.222
 5050TIP3    H115107   6.490   0.550   2.212
 5050TIP3    H215108   6.421   0.417   2.188
 5051TIP3   OH215109   3.686   5.763   4.454
 5051TIP3    H115110   3.696   5.741   4.362
 5051TIP3    H215111   3.742   5.700   4.500
 5052TIP3   OH215112   7.021   7.377   1.712
 5052TIP3    H115113   7.035   7.470   1.697
 5052TIP3    H215114   6.960   7.350   1.643
 5053TIP3   OH215115   4.184   5.737   5.708
 5053TIP3    H115116   4.170   5.816   5.656
 5053TIP3    H215117   4.100   5.692   5.706
 5054TIP3   OH215118   2.613   4.136   1.091
 5054TIP3    H115119   2.560   4.166   1.166
 5054TIP3    H215120   2.614   4.211   1.032
 5055TIP3   OH215121   0.306   6.149   5.152
 5055TIP3    H115122   0.337   6.118   5.237
 5055TIP3    H215123   0.214   6.123   5.148
 5056TIP3   OH215124   8.249   1.283   2.083
 5056TIP3    H115125   8.238   1.278   1.988
 5056TIP3    H215126   8.297   1.364   2.098
 5057TIP3   OH215127   0.191   6.267   2.388
 5057TIP3    H115128   0.132   6.247   2.461
 5057TIP3    H215129   0.224   6.181   2.361
 5058TIP3   OH215130   2.097   5.469   6.386
 5058TIP3    H115131   2.184   5.459   6.348
 5058TIP3    H215132   2.076   5.562   6.374
 5059TIP3   OH215133   1.784   2.684   3.748
 5059TIP3    H115134   1.850   2.696   3.816
 5059TIP3    H215135   1.702   2.675   3.796
 5060TIP3   OH215136   1.927   1.967   1.748
 5060TIP3    H115137   1.947   1.974   1.841
 5060TIP3    H215138   1.976   1.890   1.718
 5061TIP3   OH215139   5.233   6.394   3.008
 5061TIP3    H115140   5.147   6.398   3.050
 5061TIP3    H215141   5.234   6.469   2.948
 5062TIP3   OH215142   6.785   0.835   3.755
 5062TIP3    H115143   6.829   0.904   3.805
 5062TIP3    H215144   6.695   0.835   3.788
 5063TIP3   OH215145   4.101   3.694   4.898
 5063TIP3    H115146   4.074   3.602   4.908
 5063TIP3    H215147   4.170   3.706   4.964
 5064TIP3   OH215148   5.230   4.158   2.058
 5064TIP3    H115149   5.220   4.214   2.135
 5064TIP3    H215150   5.315   4.183   2.021
 5065TIP3   OH215151   6.633   5.459   0.809
 5065TIP3    H115152   6.602   5.374   0.779
 5065TIP3    H215153   6.666   5.443   0.897
 5066TIP3   OH215154   1.974   0.486   0.662
 5066TIP3    H115155   1.992   0.580   0.662
 5066TIP3    H215156   2.055   0.445   0.692
 5067TIP3   OH215157   2.283   4.617   6.252
 5067TIP3    H115158   2.265   4.614   6.345
 5067TIP3    H215159   2.273   4.710   6.229
 5068TIP3   OH215160   0.846   5.247   4.797
 5068TIP3    H115161   0.845   5.298   4.716
 5068TIP3    H215162   0.765   5.196   4.794
 5069TIP3   OH215163   0.922   5.680   1.473
 5069TIP3    H115164   0.848   5.625   1.447
 5069TIP3    H215165   0.993   5.618   1.492
 5070TIP3   OH215166   8.151   2.891   5.175
 5070TIP3    H115167   8.173   2.850   5.259
 5070TIP3    H215168   8.227   2.945   5.155
 5071TIP3   OH215169   1.197   2.054   2.369
 5071TIP3    H115170   1.167   2.040   2.458
 5071TIP3    H215171   1.244   2.137   2.372
 5072TIP3   OH215172   5.432   7.613   4.688
 5072TIP3    H115173   5.443   7.622   4.783
 5072TIP3    H215174   5.495   7.674   4.650
 5073TIP3   OH215175   6.741   6.706   4.542
 5073TIP3    H115176   6.653   6.670   4.531
 5073TIP3    H215177   6.777   6.709   4.454
 5074TIP3   OH215178   7.185   5.792   1.376
 5074TIP3    H115179   7.120   5.746   1.324
 5074TIP3    H215180   7.149   5.879   1.389
 5075TIP3   OH215181   7.932   4.096   6.115
 5075TIP3    H115182   7.931   4.001   6.101
 5075TIP3    H215183   8.018   4.124   6.084
 5076TIP3   OH215184   6.009   2.461   0.590
 5076TIP3    H115185   6.000   2.371   0.557
 5076TIP3    H215186   5.942   2.510   0.542
 5077TIP3   OH215187   1.003   0.573   1.209
 5077TIP3    H115188   1.035   0.585   1.119
 5077TIP3    H215189   0.908   0.580   1.201
 5078TIP3   OH215190   3.812   6.200   4.733
 5078TIP3    H115191   3.742   6.255   4.769
 5078TIP3    H215192   3.767   6.135   4.680
 5079TIP3   OH215193   2.562   2.672   3.399
 5079TIP3    H115194   2.602   2.756   3.420
 5079TIP3    H215195   2.497   2.659   3.468
 5080TIP3   OH215196   0.954   5.003   0.203
 5080TIP3    H115197   1.007   4.941   0.153
 5080TIP3    H215198   0.944   4.962   0.289
 5081TIP3   OH215199   7.286   4.995   5.896
 5081TIP3    H115200   7.371   4.979   5.856
 5081TIP3    H215201   7.224   4.945   5.843
 5082TIP3   OH215202   2.990   6.075   3.018
 5082TIP3    H115203   3.031   6.102   3.100
 5082TIP3    H215204   2.922   6.141   3.003
 5083TIP3   OH215205   1.816   7.623   1.323
 5083TIP3    H115206   1.735   7.639   1.371
 5083TIP3    H215207   1.865   7.705   1.330
 5084TIP3   OH215208   4.133   1.806   0.042
 5084TIP3    H115209   4.156   1.721   0.079
 5084TIP3    H215210   4.113   1.861   0.118
 5085TIP3   OH215211   3.934   3.314   0.551
 5085TIP3    H115212   3.907   3.385   0.611
 5085TIP3    H215213   4.021   3.339   0.522
 5086TIP3   OH215214   0.435   1.945   1.713
 5086TIP3    H115215   0.382   2.025   1.713
 5086TIP3    H215216   0.474   1.942   1.800
 5087TIP3   OH215217   4.647   7.168   0.126
 5087TIP3    H115218   4.723   7.118   0.097
 5087TIP3    H215219   4.657   7.175   0.221
 5088TIP3   OH215220   4.341   3.257   1.279
 5088TIP3    H115221   4.372   3.295   1.361
 5088TIP3    H215222   4.376   3.169   1.277
 5089TIP3   OH215223   4.190   0.345   2.941
 5089TIP3    H115224   4.251   0.330   3.014
 5089TIP3    H215225   4.247   0.372   2.869
 5090TIP3   OH215226   5.629   6.129   5.861
 5090TIP3    H115227   5.704   6.070   5.856
 5090TIP3    H215228   5.628   6.174   5.776
 5091TIP3   OH215229   1.050   3.460   4.435
 5091TIP3    H115230   1.003   3.521   4.379
 5091TIP3    H215231   1.104   3.516   4.492
 5092TIP3   OH215232   6.179   2.085   5.274
 5092TIP3    H115233   6.182   2.104   5.180
 5092TIP3    H215234   6.086   2.085   5.296
 5093TIP3   OH215235   4.138   0.865   6.621
 5093TIP3    H115236   4.075   0.798   6.593
 5093TIP3    H215237   4.102   0.898   6.704
 5094TIP3   OH215238   2.794   6.819   3.341
 5094TIP3    H115239   2.711   6.850   3.379
 5094TIP3    H215240   2.798   6.726   3.367
 5095TIP3   OH215241   0.653   3.299   4.217
 5095TIP3    H115242   0.610   3.309   4.132
 5095TIP3    H215243   0.580   3.294   4.279
 5096TIP3   OH215244   6.964   3.859   0.859
 5096TIP3    H115245   6.956   3.794   0.789
 5096TIP3    H215246   6.903   3.829   0.927
 5097TIP3   OH215247   2.999   4.538   3.290
 5097TIP3    H115248   3.031   4.608   3.347
 5097TIP3    H215249   2.905   4.535   3.306
 5098TIP3   OH215250   0.296   7.066   3.982
 5098TIP3    H115251   0.354   7.002   4.021
 5098TIP3    H215252   0.305   7.144   4.037
 5099TIP3   OH215253   3.021   2.557   1.999
 5099TIP3    H115254   3.077   2.630   2.025
 5099TIP3    H215255   3.002   2.511   2.081
 5100TIP3   OH215256   2.096   7.177   0.638
 5100TIP3    H115257   2.031   7.246   0.624
 5100TIP3    H215258   2.156   7.215   0.703
 5101TIP3   OH215259   8.128   7.190   2.396
 5101TIP3    H115260   8.068   7.254   2.434
 5101TIP3    H215261   8.201   7.186   2.458
 5102TIP3   OH215262   4.540   0.690   2.605
 5102TIP3    H115263   4.604   0.723   2.542
 5102TIP3    H215264   4.478   0.762   2.616
 5103TIP3   OH215265   2.835   2.613   5.519
 5103TIP3    H115266   2.895   2.586   5.589
 5103TIP3    H215267   2.864   2.702   5.496
 5104TIP3   OH215268   3.765   5.220   0.232
 5104TIP3    H115269   3.820   5.210   0.154
 5104TIP3    H215270   3.680   5.247   0.197
 5105TIP3   OH215271   5.422   0.679   5.030
 5105TIP3    H115272   5.441   0.702   4.939
 5105TIP3    H215273   5.397   0.762   5.071
 5106TIP3   OH215274   6.552   1.373   5.841
 5106TIP3    H115275   6.545   1.467   5.858
 5106TIP3    H215276   6.462   1.341   5.842
 5107TIP3   OH215277   7.332   1.103   6.284
 5107TIP3    H115278   7.369   1.100   6.372
 5107TIP3    H215279   7.237   1.105   6.298
 5108TIP3   OH215280   0.875   2.066   2.373
 5108TIP3    H115281   0.970   2.069   2.388
 5108TIP3    H215282   0.853   1.973   2.381
 5109TIP3   OH215283   2.470   1.522   4.256
 5109TIP3    H115284   2.435   1.598   4.209
 5109TIP3    H215285   2.561   1.545   4.275
 5110TIP3   OH215286   2.638   7.741   1.787
 5110TIP3    H115287   2.686   7.673   1.835
 5110TIP3    H215288   2.598   7.795   1.855
 5111TIP3   OH215289   0.045   0.817   0.132
 5111TIP3    H115290  -0.015   0.885   0.162
 5111TIP3    H215291   0.127   0.864   0.116
 5112TIP3   OH215292   4.956   0.449   5.803
 5112TIP3    H115293   4.868   0.419   5.826
 5112TIP3    H215294   4.944   0.540   5.776
 5113TIP3   OH215295   0.140   2.564   1.516
 5113TIP3    H115296   0.069   2.545   1.577
 5113TIP3    H215297   0.145   2.660   1.514
 5114TIP3   OH215298   4.915   3.524   4.213
 5114TIP3    H115299   4.921   3.438   4.254
 5114TIP3    H215300   4.994   3.530   4.159
 5115TIP3   OH215301   3.058   1.420   1.233
 5115TIP3    H115302   3.137   1.471   1.213
 5115TIP3    H215303   2.986   1.475   1.204
 5116TIP3   OH215304   3.897   5.059   1.278
 5116TIP3    H115305   3.833   4.990   1.295
 5116TIP3    H215306   3.969   5.039   1.338
 5117TIP3   OH215307   4.881   5.185   3.899
 5117TIP3    H115308   4.936   5.254   3.936
 5117TIP3    H215309   4.926   5.159   3.819
 5118TIP3   OH215310   4.596   5.756   3.445
 5118TIP3    H115311   4.640   5.835   3.474
 5118TIP3    H215312   4.666   5.691   3.435
 5119TIP3   OH215313   7.165   5.545   0.343
 5119TIP3    H115314   7.184   5.533   0.250
 5119TIP3    H215315   7.113   5.625   0.347
 5120TIP3   OH215316   1.322   5.824   1.353
 5120TIP3    H115317   1.344   5.911   1.386
 5120TIP3    H215318   1.260   5.789   1.416
 5121TIP3   OH215319   3.432   2.638   2.089
 5121TIP3    H115320   3.515   2.634   2.041
 5121TIP3    H215321   3.449   2.591   2.170
 5122TIP3   OH215322   7.888   0.501   4.330
 5122TIP3    H115323   7.871   0.407   4.332
 5122TIP3    H215324   7.855   0.533   4.413
 5123TIP3   OH215325   1.870   1.316   5.107
 5123TIP3    H115326   1.942   1.343   5.163
 5123TIP3    H215327   1.904   1.244   5.055
 5124TIP3   OH215328   4.342   7.454   2.885
 5124TIP3    H115329   4.377   7.365   2.886
 5124TIP3    H215330   4.399   7.501   2.825
 5125TIP3   OH215331   1.624   4.090   0.646
 5125TIP3    H115332   1.560   4.025   0.673
 5125TIP3    H215333   1.629   4.080   0.551
 5126TIP3   OH215334   4.812   6.941   3.945
 5126TIP3    H115335   4.858   6.953   3.862
 5126TIP3    H215336   4.875   6.895   4.001
 5127TIP3   OH215337   4.441   6.661   2.633
 5127TIP3    H115338   4.521   6.662   2.581
 5127TIP3    H215339   4.446   6.580   2.683
 5128TIP3   OH215340   4.678   7.079   0.382
 5128TIP3    H115341   4.728   7.113   0.457
 5128TIP3    H215342   4.664   6.987   0.403
 5129TIP3   OH215343   3.666   5.151   5.795
 5129TIP3    H115344   3.702   5.110   5.874
 5129TIP3    H215345   3.744   5.181   5.747
 5130TIP3   OH215346   3.551   4.524   5.199
 5130TIP3    H115347   3.603   4.574   5.136
 5130TIP3    H215348   3.468   4.570   5.204
 5131TIP3   OH215349   6.538   2.243   1.893
 5131TIP3    H115350   6.591   2.191   1.952
 5131TIP3    H215351   6.593   2.255   1.815
 5132TIP3   OH215352   3.750   0.816   6.433
 5132TIP3    H115353   3.822   0.796   6.493
 5132TIP3    H215354   3.675   0.768   6.469
 5133TIP3   OH215355   6.312   5.677   6.076
 5133TIP3    H115356   6.331   5.767   6.049
 5133TIP3    H215357   6.391   5.628   6.052
 5134TIP3   OH215358   4.304   2.556   0.312
 5134TIP3    H115359   4.236   2.612   0.273
 5134TIP3    H215360   4.259   2.474   0.331
 5135TIP3   OH215361   5.296   6.219   6.381
 5135TIP3    H115362   5.369   6.247   6.435
 5135TIP3    H215363   5.337   6.183   6.302
 5136TIP3   OH215364   8.061   1.968   3.861
 5136TIP3    H115365   8.118   1.897   3.892
 5136TIP3    H215366   8.036   1.942   3.773
 5137TIP3   OH215367   0.426   4.279   4.240
 5137TIP3    H115368   0.369   4.220   4.290
 5137TIP3    H215369   0.462   4.339   4.305
 5138TIP3   OH215370   5.842   4.797   4.622
 5138TIP3    H115371   5.839   4.881   4.668
 5138TIP3    H215372   5.825   4.819   4.531
 5139TIP3   OH215373   6.541   4.527   4.181
 5139TIP3    H115374   6.634   4.530   4.162
 5139TIP3    H215375   6.524   4.436   4.206
 5140TIP3   OH215376   7.828   0.853   4.759
 5140TIP3    H115377   7.839   0.839   4.853
 5140TIP3    H215378   7.914   0.835   4.722
 5141TIP3   OH215379   5.613   5.932   6.128
 5141TIP3    H115380   5.557   5.859   6.155
 5141TIP3    H215381   5.645   5.907   6.042
 5142TIP3   OH215382   8.033   7.335   1.429
 5142TIP3    H115383   8.023   7.347   1.523
 5142TIP3    H215384   8.005   7.245   1.414
 5143TIP3   OH215385   3.464   0.893   0.548
 5143TIP3    H115386   3.384   0.943   0.564
 5143TIP3    H215387   3.485   0.853   0.633
 5144TIP3   OH215388   1.874   1.690   1.022
 5144TIP3    H115389   1.876   1.609   0.971
 5144TIP3    H215390   1.933   1.673   1.095
 5145TIP3   OH215391   5.001   1.679   5.165
 5145TIP3    H115392   4.934   1.616   5.191
 5145TIP3    H215393   5.083   1.638   5.192
 5146TIP3   OH215394   3.058   2.580   0.600
 5146TIP3    H115395   3.149   2.592   0.572
 5146TIP3    H215396   3.036   2.490   0.576
 5147TIP3   OH215397   3.600   0.999   1.520
 5147TIP3    H115398   3.579   1.005   1.614
 5147TIP3    H215399   3.540   1.061   1.478
 5148TIP3   OH215400   0.402   3.133   2.054
 5148TIP3    H115401   0.476   3.187   2.081
 5148TIP3    H215402   0.411   3.125   1.959
 5149TIP3   OH215403   6.127   5.958   1.256
 5149TIP3    H115404   6.201   5.946   1.196
 5149TIP3    H215405   6.115   6.053   1.260
 5150TIP3   OH215406   7.472   0.867   6.290
 5150TIP3    H115407   7.473   0.866   6.195
 5150TIP3    H215408   7.420   0.944   6.313
 5151TIP3   OH215409   8.145   0.876   1.685
 5151TIP3    H115410   8.179   0.789   1.662
 5151TIP3    H215411   8.054   0.875   1.655
 5152TIP3   OH215412   7.792   6.594   1.762
 5152TIP3    H115413   7.728   6.661   1.786
 5152TIP3    H215414   7.876   6.629   1.791
 5153TIP3   OH215415   2.627   5.510   6.067
 5153TIP3    H115416   2.583   5.565   6.132
 5153TIP3    H215417   2.556   5.472   6.016
 5154TIP3   OH215418   1.537   2.008   1.828
 5154TIP3    H115419   1.578   1.999   1.914
 5154TIP3    H215420   1.471   1.939   1.825
 5155TIP3   OH215421   0.845   4.998   5.660
 5155TIP3    H115422   0.781   4.966   5.724
 5155TIP3    H215423   0.803   4.982   5.575
 5156TIP3   OH215424   7.438   7.065   1.866
 5156TIP3    H115425   7.495   7.129   1.908
 5156TIP3    H215426   7.433   6.993   1.928
 5157TIP3   OH215427   7.053   6.211   2.601
 5157TIP3    H115428   7.098   6.195   2.519
 5157TIP3    H215429   7.123   6.229   2.664
 5158TIP3   OH215430   7.286   1.538   5.789
 5158TIP3    H115431   7.346   1.468   5.815
 5158TIP3    H215432   7.333   1.586   5.721
 5159TIP3   OH215433   6.653   0.209   3.793
 5159TIP3    H115434   6.694   0.216   3.879
 5159TIP3    H215435   6.563   0.183   3.811
 5160TIP3   OH215436   1.722   5.945   6.182
 5160TIP3    H115437   1.682   5.951   6.269
 5160TIP3    H215438   1.649   5.957   6.121
 5161TIP3   OH215439   0.834   6.433   2.822
 5161TIP3    H115440   0.922   6.432   2.785
 5161TIP3    H215441   0.796   6.516   2.791
 5162TIP3   OH215442   3.027   4.244   1.591
 5162TIP3    H115443   3.064   4.312   1.536
 5162TIP3    H215444   3.064   4.162   1.557
 5163TIP3   OH215445   2.752   7.259   2.168
 5163TIP3    H115446   2.660   7.237   2.158
 5163TIP3    H215447   2.788   7.185   2.219
 5164TIP3   OH215448   2.858   6.923   1.419
 5164TIP3    H115449   2.798   6.862   1.376
 5164TIP3    H215450   2.939   6.873   1.430
 5165TIP3   OH215451   4.238   6.063   0.164
 5165TIP3    H115452   4.177   6.118   0.114
 5165TIP3    H215453   4.255   5.988   0.107
 5166TIP3   OH215454   0.660   7.382   2.962
 5166TIP3    H115455   0.567   7.383   2.938
 5166TIP3    H215456   0.701   7.444   2.902
 5167TIP3   OH215457   2.348   7.081   1.741
 5167TIP3    H115458   2.390   7.159   1.705
 5167TIP3    H215459   2.351   7.017   1.670
 5168TIP3   OH215460   8.038   7.223   5.795
 5168TIP3    H115461   7.972   7.173   5.748
 5168TIP3    H215462   8.055   7.172   5.875
 5169TIP3   OH215463   7.890   7.380   0.056
 5169TIP3    H115464   7.832   7.401  -0.017
 5169TIP3    H215465   7.899   7.284   0.052
 5170TIP3   OH215466   3.542   4.913   5.228
 5170TIP3    H115467   3.509   4.939   5.142
 5170TIP3    H215468   3.485   4.958   5.291
 5171TIP3   OH215469   6.477   3.366   4.758
 5171TIP3    H115470   6.472   3.382   4.852
 5171TIP3    H215471   6.390   3.333   4.735
 5172TIP3   OH215472   3.363   0.768   4.026
 5172TIP3    H115473   3.398   0.820   3.954
 5172TIP3    H215474   3.312   0.699   3.983
 5173TIP3   OH215475   4.464   0.045   5.370
 5173TIP3    H115476   4.437   0.043   5.461
 5173TIP3    H215477   4.559   0.033   5.373
 5174TIP3   OH215478   4.726   6.615   4.074
 5174TIP3    H115479   4.788   6.546   4.052
 5174TIP3    H215480   4.778   6.696   4.071
 5175TIP3   OH215481   3.043   5.423   3.893
 5175TIP3    H115482   2.978   5.490   3.912
 5175TIP3    H215483   3.056   5.428   3.798
 5176TIP3   OH215484   0.136   1.583   5.595
 5176TIP3    H115485   0.213   1.637   5.579
 5176TIP3    H215486   0.112   1.602   5.685
 5177TIP3   OH215487   3.707   6.819   1.075
 5177TIP3    H115488   3.683   6.896   1.126
 5177TIP3    H215489   3.679   6.840   0.986
 5178TIP3   OH215490   2.412   7.611   2.768
 5178TIP3    H115491   2.376   7.545   2.709
 5178TIP3    H215492   2.481   7.566   2.817
 5179TIP3   OH215493   0.261   7.605   6.497
 5179TIP3    H115494   0.302   7.561   6.423
 5179TIP3    H215495   0.167   7.587   6.487
 5180TIP3   OH215496   0.207   1.456   2.970
 5180TIP3    H115497   0.198   1.438   3.063
 5180TIP3    H215498   0.118   1.453   2.936
 5181TIP3   OH215499   3.028   4.375   5.549
 5181TIP3    H115500   3.084   4.367   5.471
 5181TIP3    H215501   3.087   4.408   5.617
 5182TIP3   OH215502   6.520   2.905   3.785
 5182TIP3    H115503   6.572   2.928   3.707
 5182TIP3    H215504   6.580   2.916   3.858
 5183TIP3   OH215505   4.750   3.919   1.482
 5183TIP3    H115506   4.717   3.953   1.566
 5183TIP3    H215507   4.718   3.829   1.479
 5184TIP3   OH215508   3.103   5.448   2.180
 5184TIP3    H115509   3.082   5.505   2.254
 5184TIP3    H215510   3.198   5.434   2.187
 5185TIP3   OH215511   1.936   4.597   0.525
 5185TIP3    H115512   1.960   4.527   0.465
 5185TIP3    H215513   1.955   4.562   0.612
 5186TIP3   OH215514   5.750   1.883   4.122
 5186TIP3    H115515   5.833   1.873   4.170
 5186TIP3    H215516   5.687   1.831   4.171
 5187TIP3   OH215517   1.653   1.591   0.589
 5187TIP3    H115518   1.594   1.586   0.513
 5187TIP3    H215519   1.599   1.564   0.663
 5188TIP3   OH215520   6.532   5.454   6.122
 5188TIP3    H115521   6.498   5.460   6.211
 5188TIP3    H215522   6.555   5.362   6.111
 5189TIP3   OH215523   7.588   3.010   3.792
 5189TIP3    H115524   7.666   3.005   3.736
 5189TIP3    H215525   7.570   3.103   3.800
 5190TIP3   OH215526   7.853   4.165   5.152
 5190TIP3    H115527   7.850   4.174   5.057
 5190TIP3    H215528   7.763   4.180   5.180
 5191TIP3   OH215529   1.658   2.719   4.406
 5191TIP3    H115530   1.691   2.640   4.363
 5191TIP3    H215531   1.581   2.744   4.355
 5192TIP3   OH215532   2.815   0.287   1.607
 5192TIP3    H115533   2.817   0.265   1.701
 5192TIP3    H215534   2.730   0.327   1.593
 5193TIP3   OH215535   4.633   2.445   3.351
 5193TIP3    H115536   4.633   2.541   3.348
 5193TIP3    H215537   4.559   2.422   3.407
 5194TIP3   OH215538   1.741   2.448   4.673
 5194TIP3    H115539   1.648   2.471   4.669
 5194TIP3    H215540   1.744   2.370   4.727
 5195TIP3   OH215541   2.174   2.418   1.833
 5195TIP3    H115542   2.164   2.413   1.929
 5195TIP3    H215543   2.091   2.453   1.802
 5196TIP3   OH215544   3.878   7.257   4.573
 5196TIP3    H115545   3.944   7.189   4.582
 5196TIP3    H215546   3.921   7.337   4.603
 5197TIP3   OH215547   0.215   5.972   1.581
 5197TIP3    H115548   0.260   5.888   1.586
 5197TIP3    H215549   0.122   5.950   1.575
 5198TIP3   OH215550   2.766   4.416   2.273
 5198TIP3    H115551   2.854   4.409   2.234
 5198TIP3    H215552   2.766   4.502   2.315
 5199TIP3   OH215553   3.515   0.793   2.582
 5199TIP3    H115554   3.520   0.867   2.522
 5199TIP3    H215555   3.434   0.748   2.558
 5200TIP3   OH215556   3.551   2.439   3.908
 5200TIP3    H115557   3.539   2.532   3.925
 5200TIP3    H215558   3.622   2.413   3.967
 5201TIP3   OH215559   4.601   2.728   0.044
 5201TIP3    H115560   4.605   2.727   0.140
 5201TIP3    H215561   4.616   2.637   0.019
 5202TIP3   OH215562   0.813   0.175   1.685
 5202TIP3    H115563   0.873   0.115   1.730
 5202TIP3    H215564   0.848   0.181   1.596
 5203TIP3   OH215565   2.136   1.216   5.923
 5203TIP3    H115566   2.070   1.153   5.951
 5203TIP3    H215567   2.159   1.188   5.834
 5204TIP3   OH215568   4.461   4.654   2.869
 5204TIP3    H115569   4.485   4.695   2.952
 5204TIP3    H215570   4.412   4.723   2.823
 5205TIP3   OH215571   8.220   2.662   2.836
 5205TIP3    H115572   8.226   2.573   2.870
 5205TIP3    H215573   8.285   2.665   2.766
 5206TIP3   OH215574   1.232   2.821   4.496
 5206TIP3    H115575   1.225   2.771   4.415
 5206TIP3    H215576   1.161   2.787   4.551
 5207TIP3   OH215577   6.005   5.873   3.521
 5207TIP3    H115578   5.947   5.842   3.452
 5207TIP3    H215579   5.954   5.938   3.569
 5208TIP3   OH215580   2.685   4.266   5.176
 5208TIP3    H115581   2.729   4.327   5.117
 5208TIP3    H215582   2.756   4.223   5.223
 5209TIP3   OH215583   4.751   5.092   0.430
 5209TIP3    H115584   4.800   5.145   0.368
 5209TIP3    H215585   4.814   5.070   0.498
 5210TIP3   OH215586   0.485   5.426   1.925
 5210TIP3    H115587   0.420   5.492   1.950
 5210TIP3    H215588   0.443   5.378   1.853
 5211TIP3   OH215589   8.137   0.033   1.230
 5211TIP3    H115590   8.090   0.046   1.148
 5211TIP3    H215591   8.075  -0.016   1.285
 5212TIP3   OH215592   7.980   4.321   2.237
 5212TIP3    H115593   7.957   4.394   2.180
 5212TIP3    H215594   8.054   4.353   2.288
 5213TIP3   OH215595   3.261   0.107   4.360
 5213TIP3    H115596   3.289   0.192   4.394
 5213TIP3    H215597   3.166   0.106   4.373
 5214TIP3   OH215598   2.606   1.687   0.896
 5214TIP3    H115599   2.695   1.716   0.914
 5214TIP3    H215600   2.602   1.598   0.930
 5215TIP3   OH215601   4.026   6.101   4.271
 5215TIP3    H115602   3.949   6.053   4.243
 5215TIP3    H215603   3.992   6.173   4.323
 5216TIP3   OH215604   0.412   4.144   2.981
 5216TIP3    H115605   0.505   4.124   2.986
 5216TIP3    H215606   0.394   4.191   3.063
 5217TIP3   OH215607   1.045   3.921   1.024
 5217TIP3    H115608   0.967   3.875   1.054
 5217TIP3    H215609   1.054   3.897   0.932
 5218TIP3   OH215610   0.805   5.350   6.039
 5218TIP3    H115611   0.849   5.370   6.122
 5218TIP3    H215612   0.810   5.432   5.989
 5219TIP3   OH215613   6.768   6.101   0.999
 5219TIP3    H115614   6.734   6.013   0.984
 5219TIP3    H215615   6.690   6.153   1.022
 5220TIP3   OH215616   4.946   1.047   3.204
 5220TIP3    H115617   4.851   1.057   3.200
 5220TIP3    H215618   4.959   0.960   3.241
 5221TIP3   OH215619   2.133   7.647   5.767
 5221TIP3    H115620   2.178   7.564   5.782
 5221TIP3    H215621   2.055   7.623   5.717
 5222TIP3   OH215622   4.943   2.535   2.989
 5222TIP3    H115623   4.985   2.449   2.987
 5222TIP3    H215624   4.924   2.555   2.898
 5223TIP3   OH215625   3.676   1.945   3.429
 5223TIP3    H115626   3.755   1.996   3.412
 5223TIP3    H215627   3.651   1.970   3.518
 5224TIP3   OH215628   2.063   0.121   5.638
 5224TIP3    H115629   1.973   0.089   5.632
 5224TIP3    H215630   2.059   0.186   5.709
 5225TIP3   OH215631   7.607   3.741   2.611
 5225TIP3    H115632   7.652   3.825   2.604
 5225TIP3    H215633   7.654   3.682   2.552
 5226TIP3   OH215634   0.800   2.599   2.017
 5226TIP3    H115635   0.765   2.682   2.051
 5226TIP3    H215636   0.723   2.550   1.991
 5227TIP3   OH215637   1.451   0.946   2.396
 5227TIP3    H115638   1.498   0.912   2.472
 5227TIP3    H215639   1.360   0.954   2.424
 5228TIP3   OH215640   4.572   3.056   4.096
 5228TIP3    H115641   4.513   3.127   4.121
 5228TIP3    H215642   4.519   2.977   4.099
 5229TIP3   OH215643   8.136   3.016   4.353
 5229TIP3    H115644   8.079   3.081   4.312
 5229TIP3    H215645   8.157   2.954   4.283
 5230TIP3   OH215646   6.971   1.930   0.748
 5230TIP3    H115647   7.018   2.013   0.761
 5230TIP3    H215648   6.882   1.956   0.726
 5231TIP3   OH215649   5.972   0.931   4.308
 5231TIP3    H115650   6.043   0.868   4.295
 5231TIP3    H215651   5.896   0.877   4.326
 5232TIP3   OH215652   1.780   0.915   3.873
 5232TIP3    H115653   1.843   0.909   3.801
 5232TIP3    H215654   1.711   0.853   3.849
 5233TIP3   OH215655   2.753   4.339   0.145
 5233TIP3    H115656   2.779   4.405   0.080
 5233TIP3    H215657   2.754   4.256   0.097
 5234TIP3   OH215658   3.156   3.062   4.009
 5234TIP3    H115659   3.208   3.032   4.083
 5234TIP3    H215660   3.209   3.129   3.967
 5235TIP3   OH215661   5.747   5.052   4.181
 5235TIP3    H115662   5.674   5.007   4.224
 5235TIP3    H215663   5.825   5.004   4.210
 5236TIP3   OH215664   5.471   5.748   3.312
 5236TIP3    H115665   5.454   5.663   3.270
 5236TIP3    H215666   5.426   5.812   3.256
 5237TIP3   OH215667   2.813   2.829   6.538
 5237TIP3    H115668   2.851   2.888   6.472
 5237TIP3    H215669   2.828   2.873   6.621
 5238TIP3   OH215670   4.771   6.465   5.218
 5238TIP3    H115671   4.826   6.437   5.145
 5238TIP3    H215672   4.773   6.391   5.279
 5239TIP3   OH215673   7.799   7.675   4.249
 5239TIP3    H115674   7.856   7.751   4.260
 5239TIP3    H215675   7.856   7.600   4.263
 5240TIP3   OH215676   7.987   3.399   5.868
 5240TIP3    H115677   8.082   3.400   5.851
 5240TIP3    H215678   7.957   3.485   5.838
 5241TIP3   OH215679   6.124   0.838   2.476
 5241TIP3    H115680   6.123   0.916   2.530
 5241TIP3    H215681   6.192   0.855   2.411
 5242TIP3   OH215682   3.439   6.991   2.292
 5242TIP3    H115683   3.507   6.995   2.224
 5242TIP3    H215684   3.476   7.040   2.365
 5243TIP3   OH215685   5.112   6.551   2.739
 5243TIP3    H115686   5.105   6.459   2.716
 5243TIP3    H215687   5.203   6.573   2.720
 5244TIP3   OH215688   3.992   5.265   5.024
 5244TIP3    H115689   3.953   5.179   5.037
 5244TIP3    H215690   3.976   5.311   5.106
 5245TIP3   OH215691   3.264   3.817   3.272
 5245TIP3    H115692   3.283   3.848   3.184
 5245TIP3    H215693   3.345   3.831   3.321
 5246TIP3   OH215694   6.416   0.737   3.955
 5246TIP3    H115695   6.322   0.723   3.943
 5246TIP3    H215696   6.456   0.658   3.919
 5247TIP3   OH215697   5.217   0.823   6.282
 5247TIP3    H115698   5.126   0.849   6.292
 5247TIP3    H215699   5.222   0.736   6.320
 5248TIP3   OH215700   6.986   0.026   0.732
 5248TIP3    H115701   6.948   0.042   0.818
 5248TIP3    H215702   7.002   0.114   0.696
 5249TIP3   OH215703   2.647   3.334   3.390
 5249TIP3    H115704   2.649   3.316   3.296
 5249TIP3    H215705   2.683   3.256   3.431
 5250TIP3   OH215706   3.105   3.843   5.831
 5250TIP3    H115707   3.105   3.936   5.853
 5250TIP3    H215708   3.148   3.838   5.746
 5251TIP3   OH215709   8.039   0.324   1.474
 5251TIP3    H115710   8.072   0.335   1.385
 5251TIP3    H215711   7.960   0.378   1.477
 5252TIP3   OH215712   0.137   4.693   6.632
 5252TIP3    H115713   0.179   4.732   6.555
 5252TIP3    H215714   0.123   4.767   6.691
 5253TIP3   OH215715   6.133   5.297   6.303
 5253TIP3    H115716   6.057   5.293   6.245
 5253TIP3    H215717   6.156   5.390   6.307
 5254TIP3   OH215718   6.744   6.428   6.277
 5254TIP3    H115719   6.829   6.468   6.295
 5254TIP3    H215720   6.756   6.336   6.302
 5255TIP3   OH215721   4.850   2.258   2.462
 5255TIP3    H115722   4.780   2.308   2.504
 5255TIP3    H215723   4.912   2.324   2.431
 5256TIP3   OH215724   3.666   0.430   3.503
 5256TIP3    H115725   3.728   0.500   3.483
 5256TIP3    H215726   3.720   0.360   3.540
 5257TIP3   OH215727   8.164   6.484   5.262
 5257TIP3    H115728   8.255   6.514   5.265
 5257TIP3    H215729   8.122   6.539   5.196
 5258TIP3   OH215730   0.538   0.865   3.415
 5258TIP3    H115731   0.447   0.848   3.441
 5258TIP3    H215732   0.532   0.940   3.355
 5259TIP3   OH215733   0.112   6.654   2.781
 5259TIP3    H115734   0.091   6.603   2.860
 5259TIP3    H215735   0.109   6.745   2.811
 5260TIP3   OH215736   6.523   5.256   4.233
 5260TIP3    H115737   6.567   5.280   4.315
 5260TIP3    H215738   6.595   5.239   4.172
 5261TIP3   OH215739   3.504   5.461   3.319
 5261TIP3    H115740   3.546   5.494   3.398
 5261TIP3    H215741   3.551   5.504   3.247
 5262TIP3   OH215742   0.014   6.709   0.078
 5262TIP3    H115743   0.013   6.622   0.118
 5262TIP3    H215744   0.042   6.694  -0.012
 5263TIP3   OH215745   8.167   1.061   0.814
 5263TIP3    H115746   8.169   1.062   0.910
 5263TIP3    H215747   8.253   1.095   0.788
 5264TIP3   OH215748   3.994   2.337   4.370
 5264TIP3    H115749   3.963   2.269   4.311
 5264TIP3    H215750   4.068   2.376   4.324
 5265TIP3   OH215751   0.059   2.795   6.678
 5265TIP3    H115752   0.070   2.704   6.705
 5265TIP3    H215753   0.111   2.845   6.741
 5266TIP3   OH215754   4.199   6.493   1.511
 5266TIP3    H115755   4.111   6.460   1.532
 5266TIP3    H215756   4.241   6.504   1.596
 5267TIP3   OH215757   6.210   1.746   4.971
 5267TIP3    H115758   6.240   1.771   5.059
 5267TIP3    H215759   6.226   1.652   4.965
 5268TIP3   OH215760   4.901   1.397   6.232
 5268TIP3    H115761   4.955   1.427   6.158
 5268TIP3    H215762   4.854   1.321   6.198
 5269TIP3   OH215763   5.059   5.660   5.008
 5269TIP3    H115764   5.033   5.750   4.992
 5269TIP3    H215765   5.034   5.613   4.928
 5270TIP3   OH215766   4.352   1.302   0.465
 5270TIP3    H115767   4.286   1.309   0.534
 5270TIP3    H215768   4.340   1.214   0.429
 5271TIP3   OH215769   0.569   2.965   2.303
 5271TIP3    H115770   0.603   3.054   2.300
 5271TIP3    H215771   0.576   2.939   2.394
 5272TIP3   OH215772   6.310   2.725   0.886
 5272TIP3    H115773   6.389   2.697   0.841
 5272TIP3    H215774   6.329   2.813   0.917
 5273TIP3   OH215775   1.291   6.993   4.753
 5273TIP3    H115776   1.328   7.081   4.760
 5273TIP3    H215777   1.254   6.989   4.665
 5274TIP3   OH215778   3.051   0.253   5.353
 5274TIP3    H115779   3.061   0.262   5.258
 5274TIP3    H215780   3.112   0.317   5.389
 5275TIP3   OH215781   7.863   5.747   4.165
 5275TIP3    H115782   7.837   5.751   4.257
 5275TIP3    H215783   7.940   5.802   4.158
 5276TIP3   OH215784   7.719   0.994   5.230
 5276TIP3    H115785   7.793   0.956   5.182
 5276TIP3    H215786   7.759   1.062   5.285
 5277TIP3   OH215787   1.507   6.967   1.941
 5277TIP3    H115788   1.539   6.878   1.926
 5277TIP3    H215789   1.539   6.989   2.028
 5278TIP3   OH215790   1.188   3.035   4.126
 5278TIP3    H115791   1.120   3.054   4.191
 5278TIP3    H215792   1.269   3.064   4.166
 5279TIP3   OH215793   3.807   1.728   3.058
 5279TIP3    H115794   3.719   1.732   3.095
 5279TIP3    H215795   3.792   1.714   2.964
 5280TIP3   OH215796   5.019   4.074   6.024
 5280TIP3    H115797   5.021   4.075   5.928
 5280TIP3    H215798   5.085   4.139   6.050
 5281TIP3   OH215799   0.409   6.161   0.657
 5281TIP3    H115800   0.447   6.223   0.594
 5281TIP3    H215801   0.320   6.192   0.669
 5282TIP3   OH215802   7.702   1.610   0.425
 5282TIP3    H115803   7.765   1.681   0.416
 5282TIP3    H215804   7.685   1.605   0.520
 5283TIP3   OH215805   5.576   4.527   3.586
 5283TIP3    H115806   5.526   4.446   3.591
 5283TIP3    H215807   5.580   4.547   3.492
 5284TIP3   OH215808  -0.001   0.806   1.372
 5284TIP3    H115809   0.094   0.818   1.376
 5284TIP3    H215810  -0.018   0.729   1.427
 5285TIP3   OH215811   6.131   0.943   2.926
 5285TIP3    H115812   6.158   0.879   2.992
 5285TIP3    H215813   6.209   0.958   2.873
 5286TIP3   OH215814   6.255   3.529   1.926
 5286TIP3    H115815   6.289   3.550   2.013
 5286TIP3    H215816   6.162   3.510   1.940
 5287TIP3   OH215817   1.714   4.039   2.437
 5287TIP3    H115818   1.740   4.097   2.366
 5287TIP3    H215819   1.648   3.981   2.399
 5288TIP3   OH215820   3.488   6.378   5.794
 5288TIP3    H115821   3.564   6.326   5.819
 5288TIP3    H215822   3.441   6.393   5.876
 5289TIP3   OH215823   2.116   6.087   2.911
 5289TIP3    H115824   2.040   6.138   2.941
 5289TIP3    H215825   2.081   5.999   2.897
 5290TIP3   OH215826   5.998   4.314   3.918
 5290TIP3    H115827   6.088   4.346   3.920
 5290TIP3    H215828   5.945   4.390   3.892
 5291TIP3   OH215829   5.507   5.617   4.791
 5291TIP3    H115830   5.494   5.670   4.713
 5291TIP3    H215831   5.527   5.680   4.860
 5292TIP3   OH215832   0.831   2.947   1.717
 5292TIP3    H115833   0.843   2.919   1.625
 5292TIP3    H215834   0.759   3.010   1.713
 5293TIP3   OH215835   6.148   6.771   6.427
 5293TIP3    H115836   6.141   6.861   6.459
 5293TIP3    H215837   6.078   6.763   6.363
 5294TIP3   OH215838   6.973   7.260   3.378
 5294TIP3    H115839   6.939   7.316   3.308
 5294TIP3    H215840   7.060   7.296   3.396
 5295TIP3   OH215841   1.149   0.011   4.207
 5295TIP3    H115842   1.235  -0.030   4.209
 5295TIP3    H215843   1.157   0.083   4.144
 5296TIP3   OH215844   6.434   5.957   2.415
 5296TIP3    H115845   6.385   5.874   2.415
 5296TIP3    H215846   6.502   5.945   2.482
 5297TIP3   OH215847   2.004   7.356   3.430
 5297TIP3    H115848   1.972   7.445   3.436
 5297TIP3    H215849   1.927   7.303   3.409
 5298TIP3   OH215850   5.003   0.386   0.511
 5298TIP3    H115851   5.021   0.441   0.587
 5298TIP3    H215852   5.081   0.330   0.503
 5299TIP3   OH215853   7.449   6.092   2.860
 5299TIP3    H115854   7.520   6.108   2.922
 5299TIP3    H215855   7.488   6.039   2.790
 5300TIP3   OH215856   3.899   3.382   4.743
 5300TIP3    H115857   3.812   3.352   4.768
 5300TIP3    H215858   3.934   3.422   4.823
 5301TIP3   OH215859   1.131   3.733   0.659
 5301TIP3    H115860   1.145   3.638   0.661
 5301TIP3    H215861   1.144   3.757   0.567
 5302TIP3   OH215862   2.201   1.745   5.981
 5302TIP3    H115863   2.188   1.725   6.073
 5302TIP3    H215864   2.276   1.804   5.979
 5303TIP3   OH215865   6.086   4.423   4.562
 5303TIP3    H115866   6.130   4.507   4.568
 5303TIP3    H215867   6.062   4.401   4.652
 5304TIP3   OH215868   1.228   1.638   1.524
 5304TIP3    H115869   1.287   1.569   1.555
 5304TIP3    H215870   1.225   1.626   1.429
 5305TIP3   OH215871   7.709   3.871   6.280
 5305TIP3    H115872   7.804   3.860   6.275
 5305TIP3    H215873   7.693   3.961   6.253
 5306TIP3   OH215874   2.859   6.521   0.784
 5306TIP3    H115875   2.818   6.436   0.772
 5306TIP3    H215876   2.825   6.553   0.868
 5307TIP3   OH215877   1.295   6.118   4.983
 5307TIP3    H115878   1.387   6.093   4.986
 5307TIP3    H215879   1.273   6.116   4.890
 5308TIP3   OH215880   3.927   2.994   2.120
 5308TIP3    H115881   3.836   2.965   2.127
 5308TIP3    H215882   3.978   2.923   2.160
 5309TIP3   OH215883   2.198   4.460   1.824
 5309TIP3    H115884   2.251   4.444   1.902
 5309TIP3    H215885   2.152   4.377   1.809
 5310TIP3   OH215886   7.452   5.645   6.737
 5310TIP3    H115887   7.489   5.567   6.695
 5310TIP3    H215888   7.470   5.716   6.675
 5311TIP3   OH215889   8.060   5.034   2.306
 5311TIP3    H115890   7.967   5.010   2.301
 5311TIP3    H215891   8.060   5.129   2.311
 5312TIP3   OH215892   3.828   6.656   6.360
 5312TIP3    H115893   3.735   6.678   6.352
 5312TIP3    H215894   3.869   6.737   6.391
 5313TIP3   OH215895   8.025   0.298   6.251
 5313TIP3    H115896   8.076   0.377   6.235
 5313TIP3    H215897   7.935   0.328   6.257
 5314TIP3   OH215898   0.082   1.269   5.017
 5314TIP3    H115899   0.057   1.323   5.092
 5314TIP3    H215900   0.177   1.263   5.023
 5315TIP3   OH215901   0.994   2.659   2.652
 5315TIP3    H115902   0.920   2.716   2.631
 5315TIP3    H215903   1.052   2.713   2.706
 5316TIP3   OH215904   6.474   0.585   1.814
 5316TIP3    H115905   6.428   0.503   1.833
 5316TIP3    H215906   6.515   0.570   1.728
 5317TIP3   OH215907   7.465   7.726   4.536
 5317TIP3    H115908   7.449   7.813   4.573
 5317TIP3    H215909   7.549   7.699   4.572
 5318TIP3   OH215910   0.157   0.300   5.273
 5318TIP3    H115911   0.092   0.371   5.281
 5318TIP3    H215912   0.241   0.345   5.271
 5319TIP3   OH215913   0.515   4.634   3.105
 5319TIP3    H115914   0.453   4.692   3.150
 5319TIP3    H215915   0.555   4.584   3.175
 5320TIP3   OH215916   2.093   2.178   0.663
 5320TIP3    H115917   2.167   2.233   0.690
 5320TIP3    H215918   2.129   2.089   0.661
 5321TIP3   OH215919   6.567   7.189   4.888
 5321TIP3    H115920   6.617   7.264   4.855
 5321TIP3    H215921   6.502   7.226   4.947
 5322TIP3   OH215922   6.720   2.164   1.165
 5322TIP3    H115923   6.671   2.231   1.213
 5322TIP3    H215924   6.751   2.104   1.233
 5323TIP3   OH215925   6.163   5.071   0.610
 5323TIP3    H115926   6.187   5.141   0.549
 5323TIP3    H215927   6.105   5.112   0.674
 5324TIP3   OH215928   4.041   3.295   5.362
 5324TIP3    H115929   4.039   3.331   5.451
 5324TIP3    H215930   4.119   3.333   5.322
 5325TIP3   OH215931   5.369   3.269   0.386
 5325TIP3    H115932   5.276   3.249   0.375
 5325TIP3    H215933   5.407   3.259   0.299
 5326TIP3   OH215934   3.148   3.632   6.490
 5326TIP3    H115935   3.118   3.567   6.554
 5326TIP3    H215936   3.191   3.580   6.422
 5327TIP3   OH215937   0.817   1.582   2.032
 5327TIP3    H115938   0.868   1.657   2.002
 5327TIP3    H215939   0.844   1.509   1.976
 5328TIP3   OH215940   0.212   3.816   0.721
 5328TIP3    H115941   0.198   3.790   0.630
 5328TIP3    H215942   0.305   3.802   0.736
 5329TIP3   OH215943   1.225   1.541   1.247
 5329TIP3    H115944   1.246   1.449   1.229
 5329TIP3    H215945   1.152   1.561   1.188
 5330TIP3   OH215946   4.138   5.590   4.900
 5330TIP3    H115947   4.138   5.666   4.843
 5330TIP3    H215948   4.092   5.522   4.851
 5331TIP3   OH215949   4.526   1.751   1.709
 5331TIP3    H115950   4.585   1.824   1.727
 5331TIP3    H215951   4.569   1.675   1.749
 5332TIP3   OH215952   3.212   3.784   3.592
 5332TIP3    H115953   3.168   3.756   3.511
 5332TIP3    H215954   3.228   3.877   3.579
 5333TIP3   OH215955   1.230   0.215   6.276
 5333TIP3    H115956   1.141   0.188   6.254
 5333TIP3    H215957   1.254   0.162   6.352
 5334TIP3   OH215958   0.129   4.347   2.060
 5334TIP3    H115959   0.207   4.293   2.052
 5334TIP3    H215960   0.056   4.285   2.052
 5335TIP3   OH215961   0.818   1.616   5.305
 5335TIP3    H115962   0.842   1.644   5.393
 5335TIP3    H215963   0.887   1.554   5.280
 5336TIP3   OH215964   7.109   3.172   1.571
 5336TIP3    H115965   7.132   3.115   1.645
 5336TIP3    H215966   7.063   3.245   1.611
 5337TIP3   OH215967   1.113   6.067   3.119
 5337TIP3    H115968   1.131   6.147   3.168
 5337TIP3    H215969   1.162   6.077   3.037
 5338TIP3   OH215970   6.434   6.064   6.446
 5338TIP3    H115971   6.476   6.044   6.529
 5338TIP3    H215972   6.472   6.002   6.384
 5339TIP3   OH215973   4.721   1.230   2.040
 5339TIP3    H115974   4.693   1.278   1.962
 5339TIP3    H215975   4.803   1.273   2.066
 5340TIP3   OH215976   0.766   0.873   6.694
 5340TIP3    H115977   0.824   0.851   6.767
 5340TIP3    H215978   0.811   0.842   6.616
 5341TIP3   OH215979   2.290   7.536   1.945
 5341TIP3    H115980   2.270   7.618   1.991
 5341TIP3    H215981   2.276   7.468   2.010
 5342TIP3   OH215982   4.514   7.142   0.721
 5342TIP3    H115983   4.591   7.133   0.665
 5342TIP3    H215984   4.500   7.237   0.727
 5343TIP3   OH215985   4.305   1.571   5.485
 5343TIP3    H115986   4.331   1.487   5.447
 5343TIP3    H215987   4.273   1.622   5.411
 5344TIP3   OH215988   3.037   4.975   1.506
 5344TIP3    H115989   3.057   4.935   1.591
 5344TIP3    H215990   2.942   4.990   1.508
 5345TIP3   OH215991   3.885   2.880   6.419
 5345TIP3    H115992   3.920   2.931   6.346
 5345TIP3    H215993   3.872   2.944   6.489
 5346TIP3   OH215994   3.272   0.326   4.553
 5346TIP3    H115995   3.364   0.338   4.575
 5346TIP3    H215996   3.239   0.414   4.538
 5347TIP3   OH215997   7.671   7.697   3.141
 5347TIP3    H115998   7.614   7.633   3.184
 5347TIP3    H215999   7.663   7.679   3.048
 5348TIP3   OH216000   1.870   6.139   4.910
 5348TIP3    H116001   1.876   6.060   4.964
 5348TIP3    H216002   1.962   6.164   4.894
 5349TIP3   OH216003   7.076   5.723   5.324
 5349TIP3    H116004   7.010   5.763   5.267
 5349TIP3    H216005   7.072   5.774   5.405
 5350TIP3   OH216006   0.025   0.216   4.996
 5350TIP3    H116007   0.100   0.276   4.996
 5350TIP3    H216008   0.063   0.131   4.973
 5351TIP3   OH216009   2.698   4.901   2.874
 5351TIP3    H116010   2.753   4.924   2.949
 5351TIP3    H216011   2.714   4.971   2.810
 5352TIP3   OH216012   5.974   7.400   3.896
 5352TIP3    H116013   5.922   7.355   3.830
 5352TIP3    H216014   6.036   7.333   3.927
 5353TIP3   OH216015   5.305   6.503   3.750
 5353TIP3    H116016   5.302   6.506   3.845
 5353TIP3    H216017   5.396   6.484   3.729
 5354TIP3   OH216018   4.556   7.421   4.929
 5354TIP3    H116019   4.592   7.345   4.976
 5354TIP3    H216020   4.521   7.384   4.848
 5355TIP3   OH216021   3.978   2.380   2.191
 5355TIP3    H116022   4.021   2.295   2.191
 5355TIP3    H216023   3.890   2.363   2.159
 5356TIP3   OH216024   7.975   6.200   0.471
 5356TIP3    H116025   8.043   6.158   0.525
 5356TIP3    H216026   7.953   6.134   0.405
 5357TIP3   OH216027   3.681   3.308   0.813
 5357TIP3    H116028   3.607   3.345   0.766
 5357TIP3    H216029   3.683   3.216   0.788
 5358TIP3   OH216030   7.072   5.275   5.548
 5358TIP3    H116031   7.090   5.214   5.619
 5358TIP3    H216032   6.999   5.235   5.500
 5359TIP3   OH216033   4.064   2.373   1.382
 5359TIP3    H116034   4.096   2.343   1.466
 5359TIP3    H216035   4.059   2.294   1.328
 5360TIP3   OH216036   3.540   0.275   4.239
 5360TIP3    H116037   3.573   0.316   4.319
 5360TIP3    H216038   3.554   0.341   4.171
 5361TIP3   OH216039   0.957   0.697   5.681
 5361TIP3    H116040   0.962   0.612   5.723
 5361TIP3    H216041   1.000   0.757   5.742
 5362TIP3   OH216042   5.048   1.245   0.841
 5362TIP3    H116043   5.031   1.305   0.914
 5362TIP3    H216044   5.000   1.282   0.768
 5363TIP3   OH216045   4.115   1.365   4.402
 5363TIP3    H116046   4.046   1.316   4.447
 5363TIP3    H216047   4.194   1.349   4.454
 5364TIP3   OH216048   0.829   5.799   6.571
 5364TIP3    H116049   0.737   5.826   6.578
 5364TIP3    H216050   0.878   5.882   6.569
 5365TIP3   OH216051   5.866   3.649   4.138
 5365TIP3    H116052   5.830   3.712   4.075
 5365TIP3    H216053   5.801   3.579   4.141
 5366TIP3   OH216054   2.051   3.927   5.711
 5366TIP3    H116055   2.068   4.009   5.667
 5366TIP3    H216056   2.087   3.860   5.653
 5367TIP3   OH216057   5.602   4.275   5.450
 5367TIP3    H116058   5.571   4.365   5.455
 5367TIP3    H216059   5.530   4.222   5.486
 5368TIP3   OH216060   3.820   0.057   5.063
 5368TIP3    H116061   3.836   0.092   5.151
 5368TIP3    H216062   3.875  -0.022   5.059
 5369TIP3   OH216063   2.990   0.410   5.975
 5369TIP3    H116064   2.904   0.404   6.017
 5369TIP3    H216065   3.048   0.439   6.045
 5370TIP3   OH216066   6.106   7.212   3.528
 5370TIP3    H116067   6.034   7.181   3.583
 5370TIP3    H216068   6.184   7.172   3.566
 5371TIP3   OH216069   0.740   5.466   2.996
 5371TIP3    H116070   0.780   5.471   3.083
 5371TIP3    H216071   0.779   5.539   2.948
 5372TIP3   OH216072   1.572   3.638   0.172
 5372TIP3    H116073   1.544   3.548   0.157
 5372TIP3    H216074   1.503   3.692   0.133
 5373TIP3   OH216075   0.365   3.792   4.088
 5373TIP3    H116076   0.325   3.830   4.166
 5373TIP3    H216077   0.446   3.842   4.076
 5374TIP3   OH216078   4.849   1.809   4.227
 5374TIP3    H116079   4.859   1.724   4.268
 5374TIP3    H216080   4.920   1.862   4.264
 5375TIP3   OH216081   3.920   1.464   3.743
 5375TIP3    H116082   3.975   1.428   3.811
 5375TIP3    H216083   3.831   1.459   3.778
 5376TIP3   OH216084   0.496   1.350   3.167
 5376TIP3    H116085   0.530   1.414   3.230
 5376TIP3    H216086   0.401   1.361   3.171
 5377TIP3   OH216087   4.409   3.353   1.543
 5377TIP3    H116088   4.458   3.368   1.624
 5377TIP3    H216089   4.334   3.412   1.550
 5378TIP3   OH216090   8.205   4.929   5.875
 5378TIP3    H116091   8.236   4.916   5.786
 5378TIP3    H216092   8.284   4.941   5.927
 5379TIP3   OH216093   5.231   0.899   6.677
 5379TIP3    H116094   5.236   0.977   6.622
 5379TIP3    H216095   5.304   0.844   6.649
 5380TIP3   OH216096   0.293   5.606   2.000
 5380TIP3    H116097   0.213   5.651   1.972
 5380TIP3    H216098   0.310   5.640   2.088
 5381TIP3   OH216099   7.835   4.256   6.309
 5381TIP3    H116100   7.892   4.216   6.244
 5381TIP3    H216101   7.843   4.350   6.294
 5382TIP3   OH216102   1.634   6.626   2.350
 5382TIP3    H116103   1.599   6.670   2.427
 5382TIP3    H216104   1.713   6.582   2.381
 5383TIP3   OH216105   7.872   0.115   0.659
 5383TIP3    H116106   7.848   0.046   0.721
 5383TIP3    H216107   7.957   0.088   0.625
 5384TIP3   OH216108   1.255   0.194   5.354
 5384TIP3    H116109   1.278   0.181   5.262
 5384TIP3    H216110   1.312   0.134   5.402
 5385TIP3   OH216111   2.628   5.959   0.305
 5385TIP3    H116112   2.595   5.871   0.322
 5385TIP3    H216113   2.567   5.996   0.241
 5386TIP3   OH216114   4.386   4.015   6.476
 5386TIP3    H116115   4.316   3.967   6.433
 5386TIP3    H216116   4.367   4.107   6.456
 5387TIP3   OH216117   0.175   2.404   1.279
 5387TIP3    H116118   0.162   2.450   1.362
 5387TIP3    H216119   0.095   2.422   1.229
 5388TIP3   OH216120   0.392   6.167   2.019
 5388TIP3    H116121   0.343   6.168   1.937
 5388TIP3    H216122   0.480   6.195   1.994
 5389TIP3   OH216123   2.991   3.234   4.968
 5389TIP3    H116124   3.048   3.310   4.975
 5389TIP3    H216125   2.992   3.195   5.055
 5390TIP3   OH216126   5.910   5.909   5.272
 5390TIP3    H116127   5.926   5.863   5.190
 5390TIP3    H216128   5.924   5.844   5.340
 5391TIP3   OH216129   2.653   0.344   3.055
 5391TIP3    H116130   2.586   0.408   3.032
 5391TIP3    H216131   2.604   0.267   3.084
 5392TIP3   OH216132   5.499   5.177   6.513
 5392TIP3    H116133   5.492   5.257   6.566
 5392TIP3    H216134   5.417   5.131   6.529
 5393TIP3   OH216135   6.292   7.628   1.619
 5393TIP3    H116136   6.355   7.588   1.680
 5393TIP3    H216137   6.258   7.704   1.666
 5394TIP3   OH216138   4.615   2.579   6.190
 5394TIP3    H116139   4.625   2.668   6.225
 5394TIP3    H216140   4.657   2.523   6.255
 5395TIP3   OH216141   2.837   3.515   5.028
 5395TIP3    H116142   2.767   3.551   4.974
 5395TIP3    H216143   2.902   3.483   4.965
 5396TIP3   OH216144   4.673   0.609   0.724
 5396TIP3    H116145   4.766   0.596   0.738
 5396TIP3    H216146   4.641   0.524   0.692
 5397TIP3   OH216147   5.227   7.686   6.284
 5397TIP3    H116148   5.292   7.748   6.318
 5397TIP3    H216149   5.268   7.600   6.290
 5398TIP3   OH216150   4.018   6.151   0.030
 5398TIP3    H116151   4.045   6.165  -0.061
 5398TIP3    H216152   3.984   6.062   0.032
 5399TIP3   OH216153   4.087   4.650   6.155
 5399TIP3    H116154   4.085   4.610   6.068
 5399TIP3    H216155   4.065   4.742   6.140
 5400TIP3   OH216156   7.712   2.778   1.274
 5400TIP3    H116157   7.687   2.827   1.195
 5400TIP3    H216158   7.710   2.686   1.247
 5401TIP3   OH216159   2.688   3.755   4.406
 5401TIP3    H116160   2.712   3.709   4.486
 5401TIP3    H216161   2.771   3.780   4.366
 5402TIP3   OH216162   5.541   4.726   6.651
 5402TIP3    H116163   5.623   4.776   6.651
 5402TIP3    H216164   5.523   4.709   6.559
 5403TIP3   OH216165   0.849   7.021   6.059
 5403TIP3    H116166   0.781   6.958   6.035
 5403TIP3    H216167   0.808   7.078   6.124
 5404TIP3   OH216168   6.212   5.529   0.331
 5404TIP3    H116169   6.291   5.565   0.291
 5404TIP3    H216170   6.218   5.556   0.423
 5405TIP3   OH216171   4.131   4.321   0.535
 5405TIP3    H116172   4.218   4.281   0.532
 5405TIP3    H216173   4.084   4.270   0.602
 5406TIP3   OH216174   3.118   3.874   4.721
 5406TIP3    H116175   3.193   3.904   4.772
 5406TIP3    H216176   3.052   3.851   4.786
 5407TIP3   OH216177   3.289   3.193   5.164
 5407TIP3    H116178   3.269   3.126   5.097
 5407TIP3    H216179   3.203   3.224   5.192
 5408TIP3   OH216180   2.851   5.088   6.443
 5408TIP3    H116181   2.796   5.093   6.520
 5408TIP3    H216182   2.817   5.156   6.385
 5409TIP3   OH216183   7.584   1.584   3.318
 5409TIP3    H116184   7.591   1.536   3.400
 5409TIP3    H216185   7.582   1.676   3.343
 5410TIP3   OH216186   2.586   5.348   5.003
 5410TIP3    H116187   2.540   5.298   5.070
 5410TIP3    H216188   2.596   5.288   4.930
 5411TIP3   OH216189   2.329   3.470   0.011
 5411TIP3    H116190   2.281   3.420   0.078
 5411TIP3    H216191   2.313   3.421  -0.070
 5412TIP3   OH216192   4.895   0.264   2.859
 5412TIP3    H116193   4.932   0.176   2.864
 5412TIP3    H216194   4.937   0.312   2.930
 5413TIP3   OH216195   0.547   5.828   5.532
 5413TIP3    H116196   0.487   5.754   5.522
 5413TIP3    H216197   0.624   5.789   5.573
 5414TIP3   OH216198   2.304   2.925   0.535
 5414TIP3    H116199   2.221   2.963   0.507
 5414TIP3    H216200   2.356   2.999   0.565
 5415TIP3   OH216201   6.248   0.771   0.539
 5415TIP3    H116202   6.265   0.715   0.615
 5415TIP3    H216203   6.242   0.710   0.466
 5416TIP3   OH216204   1.990   3.662   2.696
 5416TIP3    H116205   2.036   3.608   2.631
 5416TIP3    H216206   2.058   3.718   2.733
 5417TIP3   OH216207   1.612   7.752   2.371
 5417TIP3    H116208   1.580   7.680   2.425
 5417TIP3    H216209   1.570   7.830   2.408
 5418TIP3   OH216210   2.563   7.205   4.133
 5418TIP3    H116211   2.566   7.170   4.044
 5418TIP3    H216212   2.470   7.211   4.154
 5419TIP3   OH216213   7.044   3.702   6.627
 5419TIP3    H116214   7.050   3.694   6.532
 5419TIP3    H216215   7.098   3.778   6.648
 5420TIP3   OH216216   1.444   2.200   0.070
 5420TIP3    H116217   1.403   2.192  -0.016
 5420TIP3    H216218   1.400   2.275   0.111
 5421TIP3   OH216219   7.423   5.820   3.965
 5421TIP3    H116220   7.492   5.878   3.997
 5421TIP3    H216221   7.350   5.834   4.026
 5422TIP3   OH216222   4.568   5.710   2.442
 5422TIP3    H116223   4.542   5.631   2.394
 5422TIP3    H216224   4.655   5.730   2.409
 5423TIP3   OH216225   8.072   4.527   3.682
 5423TIP3    H116226   8.080   4.514   3.588
 5423TIP3    H216227   8.160   4.512   3.716
 5424TIP3   OH216228   1.273   1.733   0.959
 5424TIP3    H116229   1.335   1.806   0.959
 5424TIP3    H216230   1.323   1.659   0.992
 5425TIP3   OH216231   4.221   7.217   2.125
 5425TIP3    H116232   4.190   7.279   2.059
 5425TIP3    H216233   4.251   7.142   2.074
 5426TIP3   OH216234   7.186   0.461   5.155
 5426TIP3    H116235   7.137   0.381   5.175
 5426TIP3    H216236   7.177   0.472   5.061
 5427TIP3   OH216237   6.217   1.580   0.411
 5427TIP3    H116238   6.301   1.547   0.379
 5427TIP3    H216239   6.210   1.668   0.374
 5428TIP3   OH216240   1.866   4.067   5.297
 5428TIP3    H116241   1.883   4.003   5.228
 5428TIP3    H216242   1.823   4.017   5.367
 5429TIP3   OH216243   3.966   0.074   2.411
 5429TIP3    H116244   4.007  -0.009   2.435
 5429TIP3    H216245   3.880   0.071   2.455
 5430TIP3   OH216246   7.199   0.137   3.243
 5430TIP3    H116247   7.175   0.123   3.334
 5430TIP3    H216248   7.143   0.077   3.193
 5431TIP3   OH216249   3.802   0.092   5.333
 5431TIP3    H116250   3.751   0.044   5.397
 5431TIP3    H216251   3.882   0.117   5.380
 5432TIP3   OH216252   5.463   2.704   3.580
 5432TIP3    H116253   5.535   2.654   3.541
 5432TIP3    H216254   5.390   2.642   3.584
 5433TIP3   OH216255   5.068   6.494   3.255
 5433TIP3    H116256   5.092   6.474   3.346
 5433TIP3    H216257   5.060   6.589   3.252
 5434TIP3   OH216258   6.852   6.718   0.895
 5434TIP3    H116259   6.904   6.638   0.910
 5434TIP3    H216260   6.888   6.782   0.956
 5435TIP3   OH216261   5.222   4.913   5.231
 5435TIP3    H116262   5.156   4.982   5.236
 5435TIP3    H216263   5.217   4.868   5.316
 5436TIP3   OH216264   5.367   6.072   1.649
 5436TIP3    H116265   5.462   6.062   1.652
 5436TIP3    H216266   5.334   5.988   1.617
 5437TIP3   OH216267   0.548   5.249   3.081
 5437TIP3    H116268   0.474   5.188   3.082
 5437TIP3    H216269   0.599   5.227   3.159
 5438TIP3   OH216270   7.191   5.840   4.383
 5438TIP3    H116271   7.154   5.894   4.453
 5438TIP3    H216272   7.146   5.755   4.392
 5439TIP3   OH216273   6.067   4.455   6.588
 5439TIP3    H116274   6.146   4.509   6.594
 5439TIP3    H216275   6.012   4.485   6.660
 5440TIP3   OH216276   3.742   3.327   3.564
 5440TIP3    H116277   3.809   3.362   3.504
 5440TIP3    H216278   3.696   3.262   3.511
 5441TIP3   OH216279   5.021   0.178   0.049
 5441TIP3    H116280   5.053   0.180  -0.042
 5441TIP3    H216281   4.934   0.138   0.042
 5442TIP3   OH216282   5.266   0.087   1.996
 5442TIP3    H116283   5.284   0.179   2.018
 5442TIP3    H216284   5.264   0.042   2.080
 5443TIP3   OH216285   0.378   5.762   4.806
 5443TIP3    H116286   0.436   5.775   4.731
 5443TIP3    H216287   0.356   5.669   4.804
 5444TIP3   OH216288   2.115   6.277   4.030
 5444TIP3    H116289   2.041   6.266   3.970
 5444TIP3    H216290   2.181   6.324   3.979
 5445TIP3   OH216291   0.502   4.492   3.352
 5445TIP3    H116292   0.543   4.475   3.436
 5445TIP3    H216293   0.412   4.516   3.373
 5446TIP3   OH216294   2.696   7.198   0.191
 5446TIP3    H116295   2.644   7.250   0.251
 5446TIP3    H216296   2.787   7.216   0.216
 5447TIP3   OH216297   6.854   2.448   6.253
 5447TIP3    H116298   6.870   2.493   6.170
 5447TIP3    H216299   6.890   2.360   6.241
 5448TIP3   OH216300   0.332   4.627   5.264
 5448TIP3    H116301   0.395   4.662   5.327
 5448TIP3    H216302   0.267   4.581   5.317
 5449TIP3   OH216303   0.449   0.165   0.655
 5449TIP3    H116304   0.428   0.099   0.589
 5449TIP3    H216305   0.473   0.115   0.733
 5450TIP3   OH216306   7.428   4.752   4.446
 5450TIP3    H116307   7.454   4.730   4.536
 5450TIP3    H216308   7.333   4.741   4.445
 5451TIP3   OH216309   6.560   2.950   5.065
 5451TIP3    H116310   6.573   2.883   5.132
 5451TIP3    H216311   6.588   2.909   4.984
 5452TIP3   OH216312   3.221   1.719   4.855
 5452TIP3    H116313   3.280   1.643   4.858
 5452TIP3    H216314   3.268   1.788   4.901
 5453TIP3   OH216315   7.539   2.585   2.127
 5453TIP3    H116316   7.497   2.669   2.106
 5453TIP3    H216317   7.487   2.551   2.199
 5454TIP3   OH216318   4.626   6.670   6.216
 5454TIP3    H116319   4.602   6.637   6.129
 5454TIP3    H216320   4.603   6.763   6.213
 5455TIP3   OH216321   3.273   7.145   1.300
 5455TIP3    H116322   3.295   7.236   1.319
 5455TIP3    H216323   3.290   7.135   1.206
 5456TIP3   OH216324   7.251   2.430   2.912
 5456TIP3    H116325   7.173   2.461   2.956
 5456TIP3    H216326   7.318   2.428   2.980
 5457TIP3   OH216327   4.081   6.824   4.728
 5457TIP3    H116328   4.044   6.906   4.760
 5457TIP3    H216329   4.086   6.835   4.633
 5458TIP3   OH216330   4.115   7.496   3.982
 5458TIP3    H116331   4.109   7.586   3.952
 5458TIP3    H216332   4.179   7.455   3.923
 5459TIP3   OH216333   3.514   2.180   1.422
 5459TIP3    H116334   3.587   2.214   1.370
 5459TIP3    H216335   3.503   2.090   1.392
 5460TIP3   OH216336   0.756   2.324   0.312
 5460TIP3    H116337   0.773   2.325   0.218
 5460TIP3    H216338   0.671   2.281   0.321
 5461TIP3   OH216339   1.161   4.670   2.403
 5461TIP3    H116340   1.129   4.760   2.393
 5461TIP3    H216341   1.189   4.665   2.494
 5462TIP3   OH216342   1.605   4.814   2.234
 5462TIP3    H116343   1.568   4.823   2.322
 5462TIP3    H216344   1.540   4.856   2.177
 5463TIP3   OH216345   6.982   4.625   2.770
 5463TIP3    H116346   7.043   4.677   2.823
 5463TIP3    H216347   6.961   4.550   2.825
 5464TIP3   OH216348   7.698   1.109   2.959
 5464TIP3    H116349   7.708   1.101   3.054
 5464TIP3    H216350   7.631   1.176   2.947
 5465TIP3   OH216351   0.178   1.708   4.796
 5465TIP3    H116352   0.137   1.687   4.880
 5465TIP3    H216353   0.272   1.697   4.812
 5466TIP3   OH216354   0.177   2.578   2.708
 5466TIP3    H116355   0.268   2.571   2.736
 5466TIP3    H216356   0.182   2.579   2.612
 5467TIP3   OH216357   8.203   0.296   0.613
 5467TIP3    H116358   8.176   0.205   0.602
 5467TIP3    H216359   8.125   0.347   0.595
 5468TIP3   OH216360   7.700   0.292   5.305
 5468TIP3    H116361   7.642   0.350   5.255
 5468TIP3    H216362   7.746   0.241   5.238
 5469TIP3   OH216363   5.689   0.951   6.517
 5469TIP3    H116364   5.623   0.936   6.448
 5469TIP3    H216365   5.772   0.953   6.470
 5470TIP3   OH216366   6.654   6.835   1.272
 5470TIP3    H116367   6.579   6.814   1.327
 5470TIP3    H216368   6.616   6.857   1.187
 5471TIP3   OH216369   2.682   2.788   1.032
 5471TIP3    H116370   2.729   2.849   1.090
 5471TIP3    H216371   2.734   2.786   0.952
 5472TIP3   OH216372   5.460   4.273   1.890
 5472TIP3    H116373   5.521   4.211   1.929
 5472TIP3    H216374   5.440   4.236   1.804
 5473TIP3   OH216375   0.217   5.168   2.235
 5473TIP3    H116376   0.155   5.240   2.250
 5473TIP3    H216377   0.281   5.204   2.173
 5474TIP3   OH216378   2.629   7.035   4.718
 5474TIP3    H116379   2.652   7.106   4.778
 5474TIP3    H216380   2.632   7.074   4.631
 5475TIP3   OH216381   4.921   5.395   4.167
 5475TIP3    H116382   4.904   5.320   4.225
 5475TIP3    H216383   4.941   5.467   4.226
 5476TIP3   OH216384   3.960   0.132   3.981
 5476TIP3    H116385   3.956   0.046   4.024
 5476TIP3    H216386   4.052   0.142   3.958
 5477TIP3   OH216387   6.085   0.070   2.311
 5477TIP3    H116388   6.129   0.154   2.301
 5477TIP3    H216389   6.156   0.007   2.324
 5478TIP3   OH216390   8.193   5.481   4.054
 5478TIP3    H116391   8.167   5.500   3.964
 5478TIP3    H216392   8.124   5.425   4.089
 5479TIP3   OH216393   5.770   3.162   0.493
 5479TIP3    H116394   5.779   3.230   0.560
 5479TIP3    H216395   5.780   3.080   0.541
 5480TIP3   OH216396   3.713   4.926   0.505
 5480TIP3    H116397   3.746   4.861   0.443
 5480TIP3    H216398   3.768   4.916   0.582
 5481TIP3   OH216399   2.738   4.477   5.925
 5481TIP3    H116400   2.831   4.497   5.928
 5481TIP3    H216401   2.730   4.392   5.969
 5482TIP3   OH216402   3.503   4.287   5.808
 5482TIP3    H116403   3.474   4.227   5.877
 5482TIP3    H216404   3.460   4.370   5.828
 5483TIP3   OH216405   2.449   6.721   3.163
 5483TIP3    H116406   2.527   6.724   3.109
 5483TIP3    H216407   2.469   6.656   3.231
 5484TIP3   OH216408   2.237   1.808   5.193
 5484TIP3    H116409   2.257   1.835   5.103
 5484TIP3    H216410   2.320   1.813   5.239
 5485TIP3   OH216411   1.515   7.636   4.594
 5485TIP3    H116412   1.561   7.670   4.518
 5485TIP3    H216413   1.428   7.675   4.589
 5486TIP3   OH216414   4.025   5.589   1.515
 5486TIP3    H116415   4.066   5.645   1.449
 5486TIP3    H216416   4.082   5.597   1.592
 5487TIP3   OH216417   6.522   7.460   4.830
 5487TIP3    H116418   6.446   7.436   4.884
 5487TIP3    H216419   6.538   7.552   4.851
 5488TIP3   OH216420   2.302   5.005   4.968
 5488TIP3    H116421   2.211   5.036   4.964
 5488TIP3    H216422   2.296   4.920   5.010
 5489TIP3   OH216423   2.338   0.535   5.857
 5489TIP3    H116424   2.414   0.500   5.904
 5489TIP3    H216425   2.336   0.628   5.881
 5490TIP3   OH216426   0.296   3.361   0.226
 5490TIP3    H116427   0.272   3.414   0.150
 5490TIP3    H216428   0.213   3.322   0.255
 5491TIP3   OH216429   1.256   5.701   0.192
 5491TIP3    H116430   1.186   5.736   0.247
 5491TIP3    H216431   1.222   5.617   0.161
 5492TIP3   OH216432   1.136   1.125   4.403
 5492TIP3    H116433   1.187   1.055   4.444
 5492TIP3    H216434   1.126   1.097   4.311
 5493TIP3   OH216435   6.728   2.878   3.303
 5493TIP3    H116436   6.749   2.948   3.241
 5493TIP3    H216437   6.807   2.825   3.307
 5494TIP3   OH216438   6.771   6.984   2.890
 5494TIP3    H116439   6.757   6.945   2.976
 5494TIP3    H216440   6.834   6.925   2.847
 5495TIP3   OH216441   1.641   4.527   2.466
 5495TIP3    H116442   1.564   4.473   2.481
 5495TIP3    H216443   1.697   4.512   2.543
 5496TIP3   OH216444   1.654   7.549   1.762
 5496TIP3    H116445   1.722   7.613   1.780
 5496TIP3    H216446   1.702   7.471   1.732
 5497TIP3   OH216447   1.101   4.590   6.311
 5497TIP3    H116448   1.105   4.526   6.240
 5497TIP3    H216449   1.104   4.537   6.391
 5498TIP3   OH216450   2.591   4.091   2.700
 5498TIP3    H116451   2.590   3.996   2.712
 5498TIP3    H216452   2.671   4.108   2.650
 5499TIP3   OH216453   5.951   3.071   6.754
 5499TIP3    H116454   5.890   3.048   6.684
 5499TIP3    H216455   5.960   3.166   6.747
 5500TIP3   OH216456   0.236   4.552   3.252
 5500TIP3    H116457   0.173   4.505   3.307
 5500TIP3    H216458   0.199   4.639   3.242
 5501TIP3   OH216459   3.876   0.740   5.953
 5501TIP3    H116460   3.782   0.742   5.970
 5501TIP3    H216461   3.903   0.651   5.976
 5502TIP3   OH216462   3.982   0.167   1.244
 5502TIP3    H116463   3.910   0.120   1.202
 5502TIP3    H216464   4.041   0.191   1.173
 5503TIP3   OH216465   3.915   0.486   6.042
 5503TIP3    H116466   3.925   0.469   6.136
 5503TIP3    H216467   4.004   0.480   6.007
 5504TIP3   OH216468   3.561   5.363   3.907
 5504TIP3    H116469   3.603   5.334   3.826
 5504TIP3    H216470   3.469   5.374   3.884
 5505TIP3   OH216471   0.461   0.136   3.040
 5505TIP3    H116472   0.463   0.127   2.944
 5505TIP3    H216473   0.474   0.230   3.055
 5506TIP3   OH216474   2.291   7.007   0.945
 5506TIP3    H116475   2.225   7.050   0.891
 5506TIP3    H216476   2.241   6.959   1.011
 5507TIP3   OH216477   1.635   1.060   3.591
 5507TIP3    H116478   1.722   1.087   3.621
 5507TIP3    H216479   1.576   1.089   3.660
 5508TIP3   OH216480   7.736   3.979   4.753
 5508TIP3    H116481   7.708   3.892   4.782
 5508TIP3    H216482   7.796   4.008   4.822
 5509TIP3   OH216483   7.911   3.770   2.548
 5509TIP3    H116484   7.898   3.809   2.634
 5509TIP3    H216485   7.995   3.804   2.518
 5510TIP3   OH216486   5.208   6.567   0.020
 5510TIP3    H116487   5.184   6.475   0.028
 5510TIP3    H216488   5.284   6.566  -0.038
 5511TIP3   OH216489   2.272   7.520   3.050
 5511TIP3    H116490   2.268   7.614   3.066
 5511TIP3    H216491   2.270   7.480   3.137
 5512TIP3   OH216492   3.327   0.485   1.923
 5512TIP3    H116493   3.390   0.500   1.853
 5512TIP3    H216494   3.243   0.515   1.887
 5513TIP3   OH216495   4.607   6.877   3.029
 5513TIP3    H116496   4.559   6.867   2.947
 5513TIP3    H216497   4.692   6.837   3.012
 5514TIP3   OH216498   3.319   6.454   3.484
 5514TIP3    H116499   3.404   6.412   3.472
 5514TIP3    H216500   3.330   6.510   3.561
 5515TIP3   OH216501   4.259   5.566   2.312
 5515TIP3    H116502   4.354   5.555   2.300
 5515TIP3    H216503   4.238   5.513   2.388
 5516TIP3   OH216504   2.168   7.666   0.082
 5516TIP3    H116505   2.157   7.675  -0.012
 5516TIP3    H216506   2.261   7.682   0.098
 5517TIP3   OH216507   0.584   2.597   5.409
 5517TIP3    H116508   0.534   2.672   5.374
 5517TIP3    H216509   0.519   2.528   5.420
 5518TIP3   OH216510   3.805   4.818   3.249
 5518TIP3    H116511   3.880   4.786   3.200
 5518TIP3    H216512   3.842   4.848   3.332
 5519TIP3   OH216513   1.628   3.912   0.433
 5519TIP3    H116514   1.630   3.818   0.416
 5519TIP3    H216515   1.535   3.935   0.432
 5520TIP3   OH216516   5.736   3.255   5.993
 5520TIP3    H116517   5.686   3.270   6.073
 5520TIP3    H216518   5.701   3.173   5.958
 5521TIP3   OH216519   3.632   7.375   6.024
 5521TIP3    H116520   3.709   7.375   6.080
 5521TIP3    H216521   3.666   7.375   5.934
 5522TIP3   OH216522   1.999   6.430   6.588
 5522TIP3    H116523   1.909   6.407   6.564
 5522TIP3    H216524   2.042   6.451   6.506
 5523TIP3   OH216525   1.485   6.105   6.724
 5523TIP3    H116526   1.562   6.048   6.720
 5523TIP3    H216527   1.429   6.076   6.652
 5524TIP3   OH216528   2.422   1.068   6.668
 5524TIP3    H116529   2.392   1.125   6.597
 5524TIP3    H216530   2.426   1.125   6.745
 5525TIP3   OH216531   4.671   4.130   3.717
 5525TIP3    H116532   4.587   4.084   3.709
 5525TIP3    H216533   4.730   4.065   3.756
 5526TIP3   OH216534   3.103   1.481   3.433
 5526TIP3    H116535   3.101   1.416   3.363
 5526TIP3    H216536   3.185   1.466   3.479
 5527TIP3   OH216537   7.077   5.458   5.249
 5527TIP3    H116538   7.074   5.545   5.289
 5527TIP3    H216539   7.032   5.401   5.311
 5528TIP3   OH216540   6.380   3.000   0.874
 5528TIP3    H116541   6.339   3.087   0.876
 5528TIP3    H216542   6.469   3.015   0.906
 5529TIP3   OH216543   2.646   1.453   1.905
 5529TIP3    H116544   2.680   1.374   1.948
 5529TIP3    H216545   2.602   1.420   1.827
 5530TIP3   OH216546   2.629   2.892   6.034
 5530TIP3    H116547   2.547   2.897   5.985
 5530TIP3    H216548   2.685   2.834   5.982
 5531TIP3   OH216549   7.714   2.870   2.335
 5531TIP3    H116550   7.686   2.961   2.331
 5531TIP3    H216551   7.751   2.851   2.249
 5532TIP3   OH216552   4.064   3.248   2.103
 5532TIP3    H116553   4.113   3.225   2.024
 5532TIP3    H216554   4.022   3.167   2.130
 5533TIP3   OH216555   0.000   4.997   0.393
 5533TIP3    H116556   0.017   5.015   0.300
 5533TIP3    H216557   0.052   5.062   0.440
 5534TIP3   OH216558   4.153   7.018   5.315
 5534TIP3    H116559   4.205   6.957   5.368
 5534TIP3    H216560   4.212   7.046   5.245
 5535TIP3   OH216561   6.991   0.401   1.967
 5535TIP3    H116562   6.900   0.401   1.995
 5535TIP3    H216563   7.025   0.315   1.994
 5536TIP3   OH216564   8.079   4.089   3.482
 5536TIP3    H116565   8.149   4.127   3.536
 5536TIP3    H216566   8.066   4.002   3.519
 5537TIP3   OH216567   1.345   0.906   4.524
 5537TIP3    H116568   1.327   0.856   4.444
 5537TIP3    H216569   1.432   0.943   4.511
 5538TIP3   OH216570   5.871   2.164   6.432
 5538TIP3    H116571   5.854   2.115   6.352
 5538TIP3    H216572   5.966   2.181   6.430
 5539TIP3   OH216573   5.535   2.679   2.934
 5539TIP3    H116574   5.531   2.667   2.839
 5539TIP3    H216575   5.538   2.590   2.970
 5540TIP3   OH216576   0.170   3.980   5.280
 5540TIP3    H116577   0.241   4.034   5.246
 5540TIP3    H216578   0.154   3.915   5.212
 5541TIP3   OH216579   1.073   3.695   6.654
 5541TIP3    H116580   1.028   3.610   6.652
 5541TIP3    H216581   1.134   3.691   6.580
 5542TIP3   OH216582   0.865   1.134   6.045
 5542TIP3    H116583   0.792   1.153   5.986
 5542TIP3    H216584   0.854   1.042   6.068
 5543TIP3   OH216585   5.057   1.161   4.989
 5543TIP3    H116586   5.106   1.140   4.910
 5543TIP3    H216587   5.099   1.110   5.059
 5544TIP3   OH216588   7.358   0.261   0.052
 5544TIP3    H116589   7.272   0.223   0.032
 5544TIP3    H216590   7.413   0.236  -0.023
 5545TIP3   OH216591   1.557   3.570   5.298
 5545TIP3    H116592   1.635   3.575   5.353
 5545TIP3    H216593   1.583   3.516   5.224
 5546TIP3   OH216594   7.387   6.108   2.024
 5546TIP3    H116595   7.446   6.044   1.985
 5546TIP3    H216596   7.323   6.055   2.072
 5547TIP3   OH216597   5.649   6.197   0.150
 5547TIP3    H116598   5.606   6.193   0.065
 5547TIP3    H216599   5.742   6.191   0.130
 5548TIP3   OH216600   7.439   0.775   5.039
 5548TIP3    H116601   7.399   0.753   4.955
 5548TIP3    H216602   7.520   0.724   5.041
 5549TIP3   OH216603   4.026   0.624   4.019
 5549TIP3    H116604   4.089   0.661   4.081
 5549TIP3    H216605   3.974   0.563   4.072
 5550TIP3   OH216606   2.492   1.472   2.668
 5550TIP3    H116607   2.576   1.427   2.680
 5550TIP3    H216608   2.438   1.410   2.620
 5551TIP3   OH216609   7.909   4.319   2.771
 5551TIP3    H116610   7.886   4.332   2.679
 5551TIP3    H216611   8.001   4.291   2.769
 5552TIP3   OH216612   4.801   3.791   1.095
 5552TIP3    H116613   4.838   3.703   1.102
 5552TIP3    H216614   4.815   3.815   1.003
 5553TIP3   OH216615   0.984   7.076   3.777
 5553TIP3    H116616   0.918   7.145   3.781
 5553TIP3    H216617   1.066   7.121   3.799
 5554TIP3   OH216618   2.556   4.159   4.257
 5554TIP3    H116619   2.562   4.139   4.350
 5554TIP3    H216620   2.623   4.103   4.216
 5555TIP3   OH216621   0.209   5.432   3.570
 5555TIP3    H116622   0.273   5.489   3.612
 5555TIP3    H216623   0.253   5.401   3.491
 5556TIP3   OH216624   7.250   7.283   6.509
 5556TIP3    H116625   7.160   7.311   6.527
 5556TIP3    H216626   7.298   7.364   6.493
 5557TIP3   OH216627   5.359   0.484   6.242
 5557TIP3    H116628   5.300   0.425   6.196
 5557TIP3    H216629   5.365   0.561   6.185
 5558TIP3   OH216630   6.034   0.617   5.616
 5558TIP3    H116631   6.015   0.585   5.527
 5558TIP3    H216632   5.978   0.693   5.627
 5559TIP3   OH216633   1.626   7.240   0.433
 5559TIP3    H116634   1.594   7.239   0.343
 5559TIP3    H216635   1.691   7.169   0.436
 5560TIP3   OH216636   6.115   3.423   3.284
 5560TIP3    H116637   6.105   3.474   3.203
 5560TIP3    H216638   6.026   3.401   3.310
 5561TIP3   OH216639   6.447   1.171   1.021
 5561TIP3    H116640   6.451   1.243   1.084
 5561TIP3    H216641   6.358   1.174   0.987
 5562TIP3   OH216642   0.706   2.446   2.361
 5562TIP3    H116643   0.697   2.541   2.358
 5562TIP3    H216644   0.686   2.417   2.272
 5563TIP3   OH216645   7.036   0.436   4.026
 5563TIP3    H116646   7.021   0.518   4.073
 5563TIP3    H216647   6.986   0.445   3.945
 5564TIP3   OH216648   0.883   2.602   5.752
 5564TIP3    H116649   0.859   2.528   5.807
 5564TIP3    H216650   0.853   2.578   5.665
 5565TIP3   OH216651   6.940   5.757   5.095
 5565TIP3    H116652   6.865   5.703   5.071
 5565TIP3    H216653   6.995   5.757   5.017
 5566TIP3   OH216654   1.577   6.391   4.251
 5566TIP3    H116655   1.659   6.359   4.215
 5566TIP3    H216656   1.601   6.467   4.304
 5567TIP3   OH216657   7.452   5.531   0.389
 5567TIP3    H116658   7.364   5.512   0.359
 5567TIP3    H216659   7.458   5.626   0.389
 5568TIP3   OH216660   0.303   2.906   2.605
 5568TIP3    H116661   0.305   2.828   2.549
 5568TIP3    H216662   0.375   2.892   2.667
 5569TIP3   OH216663   0.210   7.699   3.876
 5569TIP3    H116664   0.141   7.640   3.844
 5569TIP3    H216665   0.172   7.740   3.954
 5570TIP3   OH216666   0.515   5.757   5.040
 5570TIP3    H116667   0.490   5.666   5.052
 5570TIP3    H216668   0.449   5.792   4.979
 5571TIP3   OH216669   7.370   6.074   6.332
 5571TIP3    H116670   7.289   6.076   6.382
 5571TIP3    H216671   7.427   6.139   6.374
 5572TIP3   OH216672   1.321   3.662   5.213
 5572TIP3    H116673   1.389   3.623   5.268
 5572TIP3    H216674   1.242   3.657   5.267
 5573TIP3   OH216675   6.264   5.148   0.141
 5573TIP3    H116676   6.299   5.213   0.080
 5573TIP3    H216677   6.175   5.131   0.111
 5574TIP3   OH216678   4.548   2.673   3.938
 5574TIP3    H116679   4.496   2.704   4.012
 5574TIP3    H216680   4.632   2.717   3.947
 5575TIP3   OH216681   2.755   7.674   5.342
 5575TIP3    H116682   2.726   7.715   5.261
 5575TIP3    H216683   2.763   7.746   5.404
 5576TIP3   OH216684   6.277   0.384   5.989
 5576TIP3    H116685   6.225   0.387   5.909
 5576TIP3    H216686   6.295   0.476   6.009
 5577TIP3   OH216687   1.889   7.345   0.601
 5577TIP3    H116688   1.931   7.419   0.556
 5577TIP3    H216689   1.872   7.377   0.689
 5578TIP3   OH216690   7.198   3.266   2.021
 5578TIP3    H116691   7.286   3.266   2.059
 5578TIP3    H216692   7.201   3.334   1.953
 5579TIP3   OH216693   3.157   2.516   3.050
 5579TIP3    H116694   3.127   2.431   3.083
 5579TIP3    H216695   3.234   2.494   2.997
 5580TIP3   OH216696   3.137   4.148   5.767
 5580TIP3    H116697   3.094   4.105   5.693
 5580TIP3    H216698   3.161   4.234   5.735
 5581TIP3   OH216699   2.819   0.160   0.321
 5581TIP3    H116700   2.797   0.085   0.377
 5581TIP3    H216701   2.905   0.189   0.353
 5582TIP3   OH216702   6.654   1.635   0.161
 5582TIP3    H116703   6.701   1.554   0.140
 5582TIP3    H216704   6.707   1.677   0.229
 5583TIP3   OH216705   5.436   1.300   5.564
 5583TIP3    H116706   5.512   1.336   5.518
 5583TIP3    H216707   5.427   1.211   5.531
 5584TIP3   OH216708   4.438   0.531   4.183
 5584TIP3    H116709   4.490   0.472   4.127
 5584TIP3    H216710   4.347   0.506   4.166
 5585TIP3   OH216711   4.963   1.237   2.399
 5585TIP3    H116712   4.869   1.231   2.417
 5585TIP3    H216713   5.004   1.190   2.471
 5586TIP3   OH216714   1.503   7.347   1.433
 5586TIP3    H116715   1.459   7.429   1.452
 5586TIP3    H216716   1.521   7.309   1.520
 5587TIP3   OH216717   4.025   2.066   4.649
 5587TIP3    H116718   3.955   2.067   4.584
 5587TIP3    H216719   4.105   2.049   4.598
 5588TIP3   OH216720   0.021   1.103   3.691
 5588TIP3    H116721   0.050   1.155   3.616
 5588TIP3    H216722  -0.060   1.145   3.720
 5589TIP3   OH216723   4.066   1.231   3.916
 5589TIP3    H116724   4.137   1.168   3.924
 5589TIP3    H216725   3.993   1.191   3.963
 5590TIP3   OH216726   4.895   4.443   0.910
 5590TIP3    H116727   4.925   4.408   0.826
 5590TIP3    H216728   4.895   4.368   0.969
 5591TIP3   OH216729   3.619   0.502   6.337
 5591TIP3    H116730   3.712   0.481   6.322
 5591TIP3    H216731   3.600   0.467   6.424
 5592TIP3   OH216732   1.981   7.054   1.674
 5592TIP3    H116733   2.039   6.995   1.723
 5592TIP3    H216734   1.893   7.018   1.688
 5593TIP3   OH216735   1.869   5.550   6.752
 5593TIP3    H116736   1.951   5.566   6.704
 5593TIP3    H216737   1.838   5.637   6.776
 5594TIP3   OH216738   6.679   1.104   3.963
 5594TIP3    H116739   6.710   1.035   4.023
 5594TIP3    H216740   6.690   1.185   4.012
 5595TIP3   OH216741   0.683   1.139   0.692
 5595TIP3    H116742   0.704   1.223   0.652
 5595TIP3    H216743   0.709   1.074   0.627
 5596TIP3   OH216744   0.626   7.404   6.111
 5596TIP3    H116745   0.563   7.450   6.166
 5596TIP3    H216746   0.635   7.459   6.033
 5597TIP3   OH216747   1.871   5.960   3.871
 5597TIP3    H116748   1.939   5.964   3.938
 5597TIP3    H216749   1.819   6.039   3.883
 5598TIP3   OH216750   2.891   5.918   4.806
 5598TIP3    H116751   2.942   5.842   4.779
 5598TIP3    H216752   2.871   5.963   4.724
 5599TIP3   OH216753   1.846   4.937   3.341
 5599TIP3    H116754   1.941   4.936   3.347
 5599TIP3    H216755   1.827   4.901   3.254
 5600TIP3   OH216756   0.569   6.726   0.931
 5600TIP3    H116757   0.617   6.792   0.981
 5600TIP3    H216758   0.626   6.649   0.932
 5601TIP3   OH216759   7.486   7.516   0.690
 5601TIP3    H116760   7.413   7.554   0.738
 5601TIP3    H216761   7.558   7.515   0.753
 5602TIP3   OH216762   3.597   0.404   0.498
 5602TIP3    H116763   3.543   0.436   0.571
 5602TIP3    H216764   3.535   0.362   0.439
 5603TIP3   OH216765   5.452   1.170   0.883
 5603TIP3    H116766   5.421   1.178   0.793
 5603TIP3    H216767   5.373   1.175   0.936
 5604TIP3   OH216768   6.825   2.420   2.039
 5604TIP3    H116769   6.751   2.480   2.038
 5604TIP3    H216770   6.850   2.410   1.947
 5605TIP3   OH216771   0.804   6.074   3.118
 5605TIP3    H116772   0.886   6.122   3.129
 5605TIP3    H216773   0.796   6.063   3.023
 5606TIP3   OH216774   5.697   1.833   5.336
 5606TIP3    H116775   5.782   1.790   5.332
 5606TIP3    H216776   5.708   1.912   5.283
 5607TIP3   OH216777   3.507   5.057   5.598
 5607TIP3    H116778   3.542   5.111   5.527
 5607TIP3    H216779   3.569   5.068   5.670
 5608TIP3   OH216780   3.766   0.083   6.373
 5608TIP3    H116781   3.862   0.086   6.373
 5608TIP3    H216782   3.742   0.076   6.465
 5609TIP3   OH216783   7.492   3.289   5.702
 5609TIP3    H116784   7.530   3.312   5.786
 5609TIP3    H216785   7.559   3.313   5.638
 5610TIP3   OH216786   4.166   5.357   3.114
 5610TIP3    H116787   4.171   5.438   3.164
 5610TIP3    H216788   4.129   5.383   3.030
 5611TIP3   OH216789   2.009   5.519   2.397
 5611TIP3    H116790   1.996   5.557   2.483
 5611TIP3    H216791   2.103   5.523   2.382
 5612TIP3   OH216792   3.004   6.336   3.994
 5612TIP3    H116793   3.068   6.276   4.034
 5612TIP3    H216794   3.024   6.333   3.901
 5613TIP3   OH216795   0.639   6.041   0.733
 5613TIP3    H116796   0.570   6.105   0.748
 5613TIP3    H216797   0.629   6.015   0.642
 5614TIP3   OH216798   4.344   7.061   3.029
 5614TIP3    H116799   4.418   7.110   3.064
 5614TIP3    H216800   4.382   7.004   2.962
 5615TIP3   OH216801   0.425   2.073   4.605
 5615TIP3    H116802   0.345   2.054   4.655
 5615TIP3    H216803   0.400   2.059   4.514
 5616TIP3   OH216804   7.751   7.481   5.171
 5616TIP3    H116805   7.789   7.560   5.208
 5616TIP3    H216806   7.780   7.410   5.228
 5617TIP3   OH216807   3.891   4.942   3.476
 5617TIP3    H116808   3.848   4.881   3.536
 5617TIP3    H216809   3.927   5.010   3.532
 5618TIP3   OH216810   6.586   1.165   3.495
 5618TIP3    H116811   6.625   1.184   3.580
 5618TIP3    H216812   6.498   1.203   3.499
 5619TIP3   OH216813   1.110   6.946   2.517
 5619TIP3    H116814   1.018   6.925   2.500
 5619TIP3    H216815   1.113   7.042   2.518
 5620TIP3   OH216816   4.263   0.666   5.110
 5620TIP3    H116817   4.326   0.737   5.125
 5620TIP3    H216818   4.303   0.590   5.152
 5621TIP3   OH216819   1.886   6.238   3.301
 5621TIP3    H116820   1.795   6.215   3.318
 5621TIP3    H216821   1.882   6.311   3.239
 5622TIP3   OH216822   1.750   6.092   3.619
 5622TIP3    H116823   1.837   6.131   3.614
 5622TIP3    H216824   1.718   6.114   3.706
 5623TIP3   OH216825   1.689   4.831   5.791
 5623TIP3    H116826   1.660   4.740   5.791
 5623TIP3    H216827   1.637   4.874   5.859
 5624TIP3   OH216828   5.060   3.235   5.029
 5624TIP3    H116829   5.033   3.189   5.108
 5624TIP3    H216830   4.996   3.209   4.963
 5625TIP3   OH216831   7.138   5.080   6.645
 5625TIP3    H116832   7.183   5.017   6.589
 5625TIP3    H216833   7.208   5.130   6.687
 5626TIP3   OH216834   7.929   4.474   4.354
 5626TIP3    H116835   7.930   4.437   4.442
 5626TIP3    H216836   7.917   4.568   4.367
 5627TIP3   OH216837   0.967   3.085   3.090
 5627TIP3    H116838   0.990   3.164   3.041
 5627TIP3    H216839   1.044   3.029   3.083
 5628TIP3   OH216840   4.490   2.739   0.780
 5628TIP3    H116841   4.546   2.677   0.734
 5628TIP3    H216842   4.477   2.810   0.717
 5629TIP3   OH216843   4.092   7.411   1.958
 5629TIP3    H116844   4.104   7.467   1.882
 5629TIP3    H216845   4.005   7.435   1.992
 5630TIP3   OH216846   4.306   3.542   5.526
 5630TIP3    H116847   4.372   3.478   5.555
 5630TIP3    H216848   4.224   3.493   5.524
 5631TIP3   OH216849   4.727   3.009   5.795
 5631TIP3    H116850   4.670   3.077   5.761
 5631TIP3    H216851   4.685   2.927   5.769
 5632TIP3   OH216852   4.463   3.734   4.857
 5632TIP3    H116853   4.429   3.654   4.819
 5632TIP3    H216854   4.388   3.793   4.861
 5633TIP3   OH216855   0.311   7.483   3.590
 5633TIP3    H116856   0.283   7.420   3.656
 5633TIP3    H216857   0.268   7.454   3.510
 5634TIP3   OH216858   1.856   4.260   4.356
 5634TIP3    H116859   1.903   4.341   4.339
 5634TIP3    H216860   1.911   4.213   4.419
 5635TIP3   OH216861   6.311   3.272   6.351
 5635TIP3    H116862   6.386   3.220   6.322
 5635TIP3    H216863   6.258   3.211   6.403
 5636TIP3   OH216864   4.674   0.449   4.958
 5636TIP3    H116865   4.672   0.450   5.054
 5636TIP3    H216866   4.768   0.446   4.937
 5637TIP3   OH216867   5.623   3.751   4.738
 5637TIP3    H116868   5.550   3.689   4.745
 5637TIP3    H216869   5.626   3.773   4.645
 5638TIP3   OH216870   0.846   3.004   6.525
 5638TIP3    H116871   0.874   2.917   6.498
 5638TIP3    H216872   0.751   3.004   6.511
 5639TIP3   OH216873   1.597   0.917   0.628
 5639TIP3    H116874   1.596   0.998   0.577
 5639TIP3    H216875   1.508   0.884   0.621
 5640TIP3   OH216876   0.589   2.265   3.138
 5640TIP3    H116877   0.541   2.335   3.183
 5640TIP3    H216878   0.521   2.211   3.100
 5641TIP3   OH216879   0.975   3.591   3.871
 5641TIP3    H116880   0.988   3.537   3.793
 5641TIP3    H216881   1.012   3.539   3.943
 5642TIP3   OH216882   2.302   2.276   2.641
 5642TIP3    H116883   2.283   2.347   2.579
 5642TIP3    H216884   2.394   2.256   2.628
 5643TIP3   OH216885   3.676   3.221   4.550
 5643TIP3    H116886   3.612   3.268   4.603
 5643TIP3    H216887   3.737   3.288   4.519
 5644TIP3   OH216888   6.737   1.405   4.857
 5644TIP3    H116889   6.705   1.375   4.942
 5644TIP3    H216890   6.827   1.434   4.874
 5645TIP3   OH216891   4.288   4.283   1.393
 5645TIP3    H116892   4.247   4.197   1.378
 5645TIP3    H216893   4.281   4.327   1.308
 5646TIP3   OH216894   7.148   7.117   3.924
 5646TIP3    H116895   7.205   7.189   3.896
 5646TIP3    H216896   7.204   7.040   3.921
 5647TIP3   OH216897   1.687   3.853   5.768
 5647TIP3    H116898   1.678   3.757   5.769
 5647TIP3    H216899   1.597   3.885   5.774
 5648TIP3   OH216900   2.846   5.601   3.946
 5648TIP3    H116901   2.751   5.607   3.937
 5648TIP3    H216902   2.860   5.582   4.038
 5649TIP3   OH216903   1.418   4.003   0.929
 5649TIP3    H116904   1.440   3.987   0.837
 5649TIP3    H216905   1.409   4.099   0.934
 5650TIP3   OH216906   3.827   0.001   1.878
 5650TIP3    H116907   3.919  -0.021   1.865
 5650TIP3    H216908   3.823   0.037   1.966
 5651TIP3   OH216909   5.072   5.929   6.611
 5651TIP3    H116910   4.982   5.905   6.591
 5651TIP3    H216911   5.081   5.911   6.705
 5652TIP3   OH216912   8.200   2.508   6.235
 5652TIP3    H116913   8.138   2.569   6.195
 5652TIP3    H216914   8.230   2.553   6.314
 5653TIP3   OH216915   1.111   1.552   4.322
 5653TIP3    H116916   1.177   1.548   4.391
 5653TIP3    H216917   1.147   1.498   4.251
 5654TIP3   OH216918   5.223   4.026   2.376
 5654TIP3    H116919   5.272   4.077   2.441
 5654TIP3    H216920   5.287   4.007   2.308
 5655TIP3   OH216921   3.374   7.347   1.006
 5655TIP3    H116922   3.301   7.407   1.024
 5655TIP3    H216923   3.452   7.401   1.013
 5656TIP3   OH216924   4.624   0.182   4.389
 5656TIP3    H116925   4.701   0.218   4.433
 5656TIP3    H216926   4.559   0.253   4.393
 5657TIP3   OH216927   0.751   3.300   4.666
 5657TIP3    H116928   0.673   3.330   4.714
 5657TIP3    H216929   0.780   3.377   4.618
 5658TIP3   OH216930   3.117   4.745   1.120
 5658TIP3    H116931   3.176   4.684   1.164
 5658TIP3    H216932   3.144   4.743   1.028
 5659TIP3   OH216933   7.080   2.961   2.599
 5659TIP3    H116934   7.063   3.042   2.552
 5659TIP3    H216935   7.148   2.917   2.548
 5660TIP3   OH216936   0.788   5.233   1.279
 5660TIP3    H116937   0.706   5.205   1.239
 5660TIP3    H216938   0.826   5.154   1.315
 5661TIP3   OH216939   8.148   3.514   2.215
 5661TIP3    H116940   8.070   3.543   2.168
 5661TIP3    H216941   8.205   3.479   2.146
 5662TIP3   OH216942   2.879   0.469   3.379
 5662TIP3    H116943   2.948   0.476   3.445
 5662TIP3    H216944   2.888   0.548   3.326
 5663TIP3   OH216945   4.889   0.837   2.264
 5663TIP3    H116946   4.949   0.822   2.337
 5663TIP3    H216947   4.863   0.750   2.235
 5664TIP3   OH216948   7.779   7.803   4.714
 5664TIP3    H116949   7.713   7.790   4.782
 5664TIP3    H216950   7.799   7.714   4.683
 5665TIP3   OH216951   6.576   6.763   6.589
 5665TIP3    H116952   6.649   6.810   6.548
 5665TIP3    H216953   6.532   6.719   6.516
 5666TIP3   OH216954   7.361   1.273   2.070
 5666TIP3    H116955   7.406   1.349   2.105
 5666TIP3    H216956   7.299   1.247   2.138
 5667TIP3   OH216957   0.518   2.954   3.695
 5667TIP3    H116958   0.530   3.042   3.732
 5667TIP3    H216959   0.537   2.895   3.768
 5668TIP3   OH216960   5.105   2.572   0.408
 5668TIP3    H116961   5.194   2.591   0.376
 5668TIP3    H216962   5.112   2.581   0.503
 5669TIP3   OH216963   6.542   2.260   3.954
 5669TIP3    H116964   6.621   2.312   3.960
 5669TIP3    H216965   6.513   2.271   3.863
 5670TIP3   OH216966   6.888   6.864   4.834
 5670TIP3    H116967   6.876   6.811   4.755
 5670TIP3    H216968   6.816   6.838   4.892
 5671TIP3   OH216969   0.564   5.902   3.551
 5671TIP3    H116970   0.653   5.913   3.585
 5671TIP3    H216971   0.508   5.937   3.621
 5672TIP3   OH216972   5.338   4.225   5.842
 5672TIP3    H116973   5.430   4.203   5.848
 5672TIP3    H216974   5.331   4.311   5.885
 5673TIP3   OH216975   0.318   3.838   3.759
 5673TIP3    H116976   0.375   3.883   3.821
 5673TIP3    H216977   0.360   3.753   3.746
 5674TIP3   OH216978   5.933   0.831   3.961
 5674TIP3    H116979   5.863   0.776   3.997
 5674TIP3    H216980   5.997   0.769   3.927
 5675TIP3   OH216981   6.459   4.238   0.226
 5675TIP3    H116982   6.435   4.146   0.213
 5675TIP3    H216983   6.384   4.276   0.271
 5676TIP3   OH216984   2.929   6.286   5.139
 5676TIP3    H116985   2.940   6.324   5.226
 5676TIP3    H216986   2.881   6.352   5.089
 5677TIP3   OH216987   3.516   7.433   3.004
 5677TIP3    H116988   3.488   7.342   3.021
 5677TIP3    H216989   3.604   7.425   2.967
 5678TIP3   OH216990   1.900   2.482   3.577
 5678TIP3    H116991   1.921   2.563   3.531
 5678TIP3    H216992   1.840   2.508   3.646
 5679TIP3   OH216993   6.824   2.710   2.285
 5679TIP3    H116994   6.832   2.750   2.372
 5679TIP3    H216995   6.741   2.663   2.288
 5680TIP3   OH216996   4.980   3.181   6.129
 5680TIP3    H116997   4.928   3.256   6.158
 5680TIP3    H216998   5.038   3.217   6.062
 5681TIP3   OH216999   5.593   3.825   6.338
 5681TIP3    H117000   5.552   3.823   6.251
 5681TIP3    H217001   5.687   3.819   6.321
 5682TIP3   OH217002   0.961   0.929   1.196
 5682TIP3    H117003   1.043   0.976   1.211
 5682TIP3    H217004   0.936   0.895   1.282
 5683TIP3   OH217005   7.318   5.369   5.146
 5683TIP3    H117006   7.235   5.393   5.188
 5683TIP3    H217007   7.352   5.451   5.111
 5684TIP3   OH217008   3.523   7.683   2.267
 5684TIP3    H117009   3.613   7.651   2.281
 5684TIP3    H217010   3.468   7.606   2.281
 5685TIP3   OH217011   2.752   4.994   1.660
 5685TIP3    H117012   2.787   4.906   1.677
 5685TIP3    H217013   2.678   5.002   1.721
 5686TIP3   OH217014   7.894   1.852   0.935
 5686TIP3    H117015   7.913   1.764   0.968
 5686TIP3    H217016   7.949   1.910   0.987
 5687TIP3   OH217017   1.365   0.321   1.777
 5687TIP3    H117018   1.408   0.235   1.774
 5687TIP3    H217019   1.280   0.303   1.819
 5688TIP3   OH217020   8.019   7.651   1.765
 5688TIP3    H117021   8.059   7.713   1.704
 5688TIP3    H217022   8.068   7.570   1.752
 5689TIP3   OH217023   3.485   2.719   6.086
 5689TIP3    H117024   3.456   2.743   5.998
 5689TIP3    H217025   3.565   2.768   6.100
 5690TIP3   OH217026   5.805   7.685   5.633
 5690TIP3    H117027   5.828   7.765   5.585
 5690TIP3    H217028   5.720   7.705   5.673
 5691TIP3   OH217029   2.187   4.031   3.365
 5691TIP3    H117030   2.101   4.021   3.325
 5691TIP3    H217031   2.191   4.123   3.390
 5692TIP3   OH217032   7.626   1.051   2.031
 5692TIP3    H117033   7.611   1.131   2.082
 5692TIP3    H217034   7.538   1.018   2.012
 5693TIP3   OH217035   1.851   7.432   4.454
 5693TIP3    H117036   1.864   7.408   4.546
 5693TIP3    H217037   1.920   7.386   4.407
 5694TIP3   OH217038   3.853   1.227   2.292
 5694TIP3    H117039   3.937   1.273   2.288
 5694TIP3    H217040   3.844   1.186   2.206
 5695TIP3   OH217041   5.987   2.447   2.610
 5695TIP3    H117042   6.002   2.360   2.647
 5695TIP3    H217043   5.920   2.485   2.666
 5696TIP3   OH217044   4.376   5.302   5.806
 5696TIP3    H117045   4.385   5.395   5.790
 5696TIP3    H217046   4.282   5.289   5.823
 5697TIP3   OH217047   0.257   2.566   5.502
 5697TIP3    H117048   0.200   2.560   5.425
 5697TIP3    H217049   0.257   2.478   5.539
 5698TIP3   OH217050   1.827   0.806   1.426
 5698TIP3    H117051   1.787   0.789   1.511
 5698TIP3    H217052   1.752   0.828   1.369
 5699TIP3   OH217053   0.357   1.446   3.575
 5699TIP3    H117054   0.372   1.368   3.522
 5699TIP3    H217055   0.335   1.413   3.662
 5700TIP3   OH217056   2.943   3.585   2.698
 5700TIP3    H117057   2.930   3.525   2.771
 5700TIP3    H217058   2.950   3.528   2.621
 5701TIP3   OH217059   2.928   4.808   4.689
 5701TIP3    H117060   3.015   4.823   4.727
 5701TIP3    H217061   2.873   4.877   4.727
 5702TIP3   OH217062   5.805   6.748   0.897
 5702TIP3    H117063   5.898   6.729   0.912
 5702TIP3    H217064   5.785   6.816   0.961
 5703TIP3   OH217065   2.626   0.080   5.315
 5703TIP3    H117066   2.652   0.064   5.224
 5703TIP3    H217067   2.656   0.169   5.334
 5704TIP3   OH217068   2.089   2.532   2.872
 5704TIP3    H117069   2.025   2.584   2.823
 5704TIP3    H217070   2.174   2.557   2.836
 5705TIP3   OH217071   1.214   7.434   1.526
 5705TIP3    H117072   1.286   7.400   1.579
 5705TIP3    H217073   1.231   7.528   1.519
 5706TIP3   OH217074   0.987   4.952   2.080
 5706TIP3    H117075   0.922   4.950   2.009
 5706TIP3    H217076   0.938   4.931   2.159
 5707TIP3   OH217077   3.134   0.051   0.105
 5707TIP3    H117078   3.154   0.072   0.196
 5707TIP3    H217079   3.042   0.076   0.094
 5708TIP3   OH217080   3.724   0.578   2.643
 5708TIP3    H117081   3.643   0.558   2.691
 5708TIP3    H217082   3.758   0.656   2.684
 5709TIP3   OH217083   5.954   6.538   2.115
 5709TIP3    H117084   5.876   6.582   2.150
 5709TIP3    H217085   5.970   6.581   2.031
 5710TIP3   OH217086   7.602   6.370   3.455
 5710TIP3    H117087   7.600   6.275   3.464
 5710TIP3    H217088   7.527   6.390   3.399
 5711TIP3   OH217089   4.788   3.184   1.698
 5711TIP3    H117090   4.793   3.090   1.715
 5711TIP3    H217091   4.873   3.207   1.659
 5712TIP3   OH217092   2.443   5.072   0.540
 5712TIP3    H117093   2.446   5.016   0.618
 5712TIP3    H217094   2.350   5.092   0.530
 5713TIP3   OH217095   0.465   5.051   5.620
 5713TIP3    H117096   0.467   5.047   5.525
 5713TIP3    H217097   0.451   5.144   5.641
 5714TIP3   OH217098   1.892   5.231   2.186
 5714TIP3    H117099   1.820   5.180   2.148
 5714TIP3    H217100   1.970   5.200   2.139
 5715TIP3   OH217101   0.168   0.703   6.404
 5715TIP3    H117102   0.221   0.755   6.464
 5715TIP3    H217103   0.178   0.613   6.435
 5716TIP3   OH217104   2.014   3.377   5.511
 5716TIP3    H117105   2.029   3.443   5.443
 5716TIP3    H217106   2.045   3.295   5.472
 5717TIP3   OH217107   4.200   1.356   1.310
 5717TIP3    H117108   4.239   1.375   1.395
 5717TIP3    H217109   4.184   1.262   1.311
 5718TIP3   OH217110   7.788   6.601   2.634
 5718TIP3    H117111   7.762   6.513   2.607
 5718TIP3    H217112   7.753   6.658   2.566
 5719TIP3   OH217113   1.361   6.693   6.650
 5719TIP3    H117114   1.381   6.651   6.566
 5719TIP3    H217115   1.280   6.741   6.634
 5720TIP3   OH217116   8.022   2.060   1.069
 5720TIP3    H117117   8.109   2.026   1.087
 5720TIP3    H217118   8.035   2.128   1.004
 5721TIP3   OH217119   1.337   2.017   4.276
 5721TIP3    H117120   1.403   1.965   4.230
 5721TIP3    H217121   1.275   2.044   4.207
 5722TIP3   OH217122   3.845   5.020   0.726
 5722TIP3    H117123   3.887   4.965   0.792
 5722TIP3    H217124   3.907   5.091   0.712
 5723TIP3   OH217125   0.603   3.899   0.612
 5723TIP3    H117126   0.692   3.934   0.623
 5723TIP3    H217127   0.595   3.833   0.681
 5724TIP3   OH217128   1.045   5.810   2.886
 5724TIP3    H117129   1.052   5.787   2.978
 5724TIP3    H217130   0.980   5.750   2.850
 5725TIP3   OH217131   7.825   1.541   1.290
 5725TIP3    H117132   7.739   1.519   1.327
 5725TIP3    H217133   7.864   1.456   1.271
 5726TIP3   OH217134   8.042   4.049   0.056
 5726TIP3    H117135   8.009   3.960   0.048
 5726TIP3    H217136   8.136   4.038   0.072
 5727TIP3   OH217137   3.598   6.655   4.678
 5727TIP3    H117138   3.618   6.634   4.769
 5727TIP3    H217139   3.682   6.646   4.632
 5728TIP3   OH217140   6.947   2.762   0.158
 5728TIP3    H117141   6.940   2.772   0.063
 5728TIP3    H217142   6.867   2.717   0.184
 5729TIP3   OH217143   2.442   5.174   5.196
 5729TIP3    H117144   2.374   5.107   5.199
 5729TIP3    H217145   2.394   5.256   5.211
 5730TIP3   OH217146   7.118   2.766   4.508
 5730TIP3    H117147   7.119   2.695   4.573
 5730TIP3    H217148   7.060   2.832   4.546
 5731TIP3   OH217149   2.723   5.969   1.135
 5731TIP3    H117150   2.770   5.968   1.218
 5731TIP3    H217151   2.714   5.877   1.111
 5732TIP3   OH217152   6.585   1.908   2.046
 5732TIP3    H117153   6.642   1.979   2.076
 5732TIP3    H217154   6.496   1.940   2.065
 5733TIP3   OH217155   5.566   5.174   0.631
 5733TIP3    H117156   5.641   5.220   0.668
 5733TIP3    H217157   5.519   5.241   0.580
 5734TIP3   OH217158   4.358   6.953   1.913
 5734TIP3    H117159   4.422   6.928   1.846
 5734TIP3    H217160   4.346   7.047   1.900
 5735TIP3   OH217161   2.605   3.254   3.916
 5735TIP3    H117162   2.628   3.174   3.963
 5735TIP3    H217163   2.661   3.322   3.955
 5736TIP3   OH217164   2.586   2.745   5.187
 5736TIP3    H117165   2.662   2.733   5.131
 5736TIP3    H217166   2.604   2.825   5.235
 5737TIP3   OH217167   1.666   7.687   3.489
 5737TIP3    H117168   1.738   7.750   3.478
 5737TIP3    H217169   1.696   7.628   3.558
 5738TIP3   OH217170   1.269   2.356   2.664
 5738TIP3    H117171   1.200   2.387   2.722
 5738TIP3    H217172   1.224   2.334   2.582
 5739TIP3   OH217173   0.450   7.143   2.395
 5739TIP3    H117174   0.387   7.154   2.324
 5739TIP3    H217175   0.505   7.069   2.366
 5740TIP3   OH217176   6.025   0.488   2.009
 5740TIP3    H117177   5.948   0.504   1.954
 5740TIP3    H217178   6.065   0.575   2.019
 5741TIP3   OH217179   4.696   6.128   6.100
 5741TIP3    H117180   4.664   6.217   6.116
 5741TIP3    H217181   4.619   6.078   6.074
 5742TIP3   OH217182   6.410   3.746   3.836
 5742TIP3    H117183   6.417   3.665   3.887
 5742TIP3    H217184   6.345   3.727   3.769
 5743TIP3   OH217185   1.086   2.501   6.498
 5743TIP3    H117186   1.099   2.570   6.562
 5743TIP3    H217187   1.046   2.546   6.423
 5744TIP3   OH217188   0.724   1.262   5.065
 5744TIP3    H117189   0.761   1.186   5.020
 5744TIP3    H217190   0.745   1.247   5.158
 5745TIP3   OH217191   1.064   2.040   2.144
 5745TIP3    H117192   1.040   1.947   2.152
 5745TIP3    H217193   1.129   2.054   2.212
 5746TIP3   OH217194   2.119   3.476   5.773
 5746TIP3    H117195   2.072   3.468   5.690
 5746TIP3    H217196   2.050   3.493   5.838
 5747TIP3   OH217197   7.096   3.271   0.096
 5747TIP3    H117198   7.094   3.366   0.109
 5747TIP3    H217199   7.038   3.236   0.163
 5748TIP3   OH217200   1.778   7.562   1.058
 5748TIP3    H117201   1.806   7.586   1.147
 5748TIP3    H217202   1.692   7.603   1.048
 5749TIP3   OH217203   3.110   2.301   2.212
 5749TIP3    H117204   3.099   2.385   2.257
 5749TIP3    H217205   3.205   2.285   2.214
 5750TIP3   OH217206   7.495   3.764   3.961
 5750TIP3    H117207   7.478   3.852   3.995
 5750TIP3    H217208   7.544   3.721   4.031
 5751TIP3   OH217209   3.202   3.987   2.368
 5751TIP3    H117210   3.172   4.073   2.396
 5751TIP3    H217211   3.125   3.931   2.375
 5752TIP3   OH217212   4.096   2.856   0.635
 5752TIP3    H117213   4.107   2.905   0.554
 5752TIP3    H217214   4.160   2.893   0.695
 5753TIP3   OH217215   0.021   3.929   4.057
 5753TIP3    H117216   0.092   3.882   4.103
 5753TIP3    H217217  -0.030   3.969   4.127
 5754TIP3   OH217218   3.905   6.971   2.524
 5754TIP3    H117219   3.995   6.995   2.502
 5754TIP3    H217220   3.910   6.879   2.548
 5755TIP3   OH217221   5.240   2.587   1.882
 5755TIP3    H117222   5.335   2.575   1.876
 5755TIP3    H217223   5.206   2.498   1.884
 5756TIP3   OH217224   1.365   3.605   0.911
 5756TIP3    H117225   1.389   3.671   0.846
 5756TIP3    H217226   1.309   3.543   0.863
 5757TIP3   OH217227   5.354   5.138   4.653
 5757TIP3    H117228   5.381   5.211   4.708
 5757TIP3    H217229   5.409   5.144   4.575
 5758TIP3   OH217230   6.714   3.575   0.730
 5758TIP3    H117231   6.790   3.531   0.691
 5758TIP3    H217232   6.698   3.649   0.672
 5759TIP3   OH217233   1.217   6.968   2.194
 5759TIP3    H117234   1.290   6.926   2.241
 5759TIP3    H217235   1.215   6.923   2.110
 5760TIP3   OH217236   5.518   1.497   6.081
 5760TIP3    H117237   5.469   1.479   6.161
 5760TIP3    H217238   5.502   1.421   6.025
 5761TIP3   OH217239   0.630   7.027   0.590
 5761TIP3    H117240   0.546   6.985   0.607
 5761TIP3    H217241   0.681   6.961   0.543
 5762TIP3   OH217242   1.063   2.093   1.418
 5762TIP3    H117243   1.153   2.109   1.445
 5762TIP3    H217244   1.054   1.997   1.420
 5763TIP3   OH217245   4.379   4.834   5.827
 5763TIP3    H117246   4.289   4.860   5.806
 5763TIP3    H217247   4.425   4.917   5.839
 5764TIP3   OH217248   1.909   6.921   4.141
 5764TIP3    H117249   1.974   6.855   4.117
 5764TIP3    H217250   1.961   6.998   4.164
 5765TIP3   OH217251   7.435   0.091   2.449
 5765TIP3    H117252   7.368   0.023   2.451
 5765TIP3    H217253   7.511   0.051   2.491
 5766TIP3   OH217254   0.115   1.938   1.950
 5766TIP3    H117255   0.054   1.873   1.915
 5766TIP3    H217256   0.188   1.938   1.889
 5767TIP3   OH217257   4.240   5.174   4.438
 5767TIP3    H117258   4.203   5.088   4.459
 5767TIP3    H217259   4.164   5.230   4.421
 5768TIP3   OH217260   5.449   2.493   3.801
 5768TIP3    H117261   5.437   2.483   3.707
 5768TIP3    H217262   5.410   2.578   3.821
 5769TIP3   OH217263   6.554   3.651   3.289
 5769TIP3    H117264   6.635   3.694   3.318
 5769TIP3    H217265   6.528   3.596   3.362
 5770TIP3   OH217266   3.218   7.783   0.973
 5770TIP3    H117267   3.216   7.691   0.945
 5770TIP3    H217268   3.126   7.808   0.978
 5771TIP3   OH217269   0.006   0.925   3.998
 5771TIP3    H117270  -0.035   0.987   3.938
 5771TIP3    H217271   0.099   0.929   3.978
 5772TIP3   OH217272   4.010   4.247   2.668
 5772TIP3    H117273   3.920   4.216   2.671
 5772TIP3    H217274   4.005   4.340   2.691
 5773TIP3   OH217275   3.711   6.165   1.825
 5773TIP3    H117276   3.720   6.070   1.817
 5773TIP3    H217277   3.796   6.194   1.857
 5774TIP3   OH217278   1.378   6.327   1.791
 5774TIP3    H117279   1.417   6.411   1.766
 5774TIP3    H217280   1.440   6.289   1.853
 5775TIP3   OH217281   7.514   4.689   4.752
 5775TIP3    H117282   7.528   4.598   4.778
 5775TIP3    H217283   7.579   4.704   4.683
 5776TIP3   OH217284   2.351   2.754   2.711
 5776TIP3    H117285   2.260   2.786   2.704
 5776TIP3    H217286   2.404   2.831   2.690
 5777TIP3   OH217287   7.565   3.731   3.299
 5777TIP3    H117288   7.626   3.664   3.329
 5777TIP3    H217289   7.507   3.746   3.374
 5778TIP3   OH217290   3.622   3.525   4.042
 5778TIP3    H117291   3.712   3.493   4.049
 5778TIP3    H217292   3.603   3.523   3.948
 5779TIP3   OH217293   4.355   6.276   6.389
 5779TIP3    H117294   4.409   6.227   6.451
 5779TIP3    H217295   4.389   6.365   6.392
 5780TIP3   OH217296   3.511   5.694   4.984
 5780TIP3    H117297   3.419   5.701   5.009
 5780TIP3    H217298   3.545   5.783   4.990
 5781TIP3   OH217299   3.172   7.565   0.772
 5781TIP3    H117300   3.212   7.508   0.705
 5781TIP3    H217301   3.142   7.505   0.840
 5782TIP3   OH217302   2.833   0.911   3.782
 5782TIP3    H117303   2.782   0.832   3.797
 5782TIP3    H217304   2.922   0.880   3.765
 5783TIP3   OH217305   7.090   6.028   0.373
 5783TIP3    H117306   7.153   6.041   0.444
 5783TIP3    H217307   7.065   6.117   0.348
 5784TIP3   OH217308   8.189   4.307   1.748
 5784TIP3    H117309   8.222   4.242   1.687
 5784TIP3    H217310   8.128   4.360   1.697
 5785TIP3   OH217311   2.707   7.302   6.242
 5785TIP3    H117312   2.679   7.309   6.151
 5785TIP3    H217313   2.714   7.207   6.257
 5786TIP3   OH217314   4.430   0.067   5.096
 5786TIP3    H117315   4.518   0.099   5.075
 5786TIP3    H217316   4.419   0.087   5.189
 5787TIP3   OH217317   6.763   3.729   6.104
 5787TIP3    H117318   6.831   3.678   6.060
 5787TIP3    H217319   6.683   3.711   6.055
 5788TIP3   OH217320   3.795   4.554   0.412
 5788TIP3    H117321   3.881   4.572   0.448
 5788TIP3    H217322   3.789   4.459   0.408
 5789TIP3   OH217323   4.945   6.443   4.018
 5789TIP3    H117324   4.947   6.388   4.096
 5789TIP3    H217325   5.008   6.402   3.958
 5790TIP3   OH217326   4.588   2.671   4.314
 5790TIP3    H117327   4.546   2.660   4.400
 5790TIP3    H217328   4.625   2.585   4.294
 5791TIP3   OH217329   0.736   4.421   4.261
 5791TIP3    H117330   0.743   4.354   4.329
 5791TIP3    H217331   0.666   4.479   4.291
 5792TIP3   OH217332   6.762   2.220   5.702
 5792TIP3    H117333   6.713   2.190   5.626
 5792TIP3    H217334   6.845   2.172   5.697
 5793TIP3   OH217335   8.005   0.003   3.661
 5793TIP3    H117336   8.073   0.062   3.694
 5793TIP3    H217337   8.009   0.014   3.566
 5794TIP3   OH217338   1.896   6.152   2.628
 5794TIP3    H117339   1.883   6.191   2.541
 5794TIP3    H217340   1.896   6.227   2.688
 5795TIP3   OH217341   0.600   1.852   0.766
 5795TIP3    H117342   0.516   1.805   0.771
 5795TIP3    H217343   0.666   1.783   0.766
 5796TIP3   OH217344   5.498   0.937   1.064
 5796TIP3    H117345   5.539   0.965   1.145
 5796TIP3    H217346   5.507   1.012   1.005
 5797TIP3   OH217347   7.749   0.928   6.720
 5797TIP3    H117348   7.669   0.974   6.698
 5797TIP3    H217349   7.813   0.997   6.738
 5798TIP3   OH217350   1.499   0.060   1.760
 5798TIP3    H117351   1.483  -0.001   1.689
 5798TIP3    H217352   1.577   0.108   1.733
 5799TIP3   OH217353   1.875   0.728   2.584
 5799TIP3    H117354   1.920   0.653   2.623
 5799TIP3    H217355   1.938   0.762   2.520
 5800TIP3   OH217356   3.968   0.386   5.253
 5800TIP3    H117357   4.024   0.309   5.242
 5800TIP3    H217358   3.999   0.448   5.187
 5801TIP3   OH217359   2.735   3.573   4.616
 5801TIP3    H117360   2.704   3.563   4.706
 5801TIP3    H217361   2.737   3.484   4.581
 5802TIP3   OH217362   3.433   0.348   2.141
 5802TIP3    H117363   3.419   0.258   2.111
 5802TIP3    H217364   3.399   0.402   2.070
 5803TIP3   OH217365   7.420   2.551   6.285
 5803TIP3    H117366   7.450   2.462   6.266
 5803TIP3    H217367   7.496   2.594   6.324
 5804TIP3   OH217368   7.811   5.207   2.599
 5804TIP3    H117369   7.828   5.119   2.633
 5804TIP3    H217370   7.751   5.193   2.526
 5805TIP3   OH217371   6.862   5.838   4.406
 5805TIP3    H117372   6.905   5.773   4.462
 5805TIP3    H217373   6.852   5.794   4.321
 5806TIP3   OH217374   7.022   2.422   1.821
 5806TIP3    H117375   7.099   2.426   1.763
 5806TIP3    H217376   6.955   2.378   1.768
 5807TIP3   OH217377   6.479   7.049   4.311
 5807TIP3    H117378   6.523   7.014   4.388
 5807TIP3    H217379   6.547   7.054   4.244
 5808TIP3   OH217380   3.781   0.625   0.685
 5808TIP3    H117381   3.835   0.584   0.617
 5808TIP3    H217382   3.691   0.611   0.656
 5809TIP3   OH217383   0.721   3.310   1.695
 5809TIP3    H117384   0.759   3.398   1.705
 5809TIP3    H217385   0.773   3.270   1.624
 5810TIP3   OH217386  -0.015   7.334   0.877
 5810TIP3    H117387   0.072   7.333   0.919
 5810TIP3    H217388  -0.018   7.418   0.832
 5811TIP3   OH217389   0.590   2.777   4.458
 5811TIP3    H117390   0.523   2.819   4.512
 5811TIP3    H217391   0.555   2.689   4.442
 5812TIP3   OH217392   8.010   3.368   0.151
 5812TIP3    H117393   8.045   3.453   0.175
 5812TIP3    H217394   7.994   3.324   0.234
 5813TIP3   OH217395   4.938   5.908   3.074
 5813TIP3    H117396   4.903   5.970   3.137
 5813TIP3    H217397   4.865   5.849   3.054
 5814TIP3   OH217398   2.852   1.118   3.265
 5814TIP3    H117399   2.826   1.082   3.350
 5814TIP3    H217400   2.772   1.112   3.212
 5815TIP3   OH217401   3.298   7.618   1.496
 5815TIP3    H117402   3.254   7.702   1.481
 5815TIP3    H217403   3.301   7.610   1.591
 5816TIP3   OH217404   8.239   7.268   0.475
 5816TIP3    H117405   8.195   7.352   0.471
 5816TIP3    H217406   8.325   7.287   0.513
 5817TIP3   OH217407   1.797   1.877   5.690
 5817TIP3    H117408   1.858   1.949   5.703
 5817TIP3    H217409   1.767   1.888   5.599
 5818TIP3   OH217410   3.571   2.464   6.178
 5818TIP3    H117411   3.638   2.432   6.118
 5818TIP3    H217412   3.542   2.547   6.140
 5819TIP3   OH217413   7.295   4.017   3.275
 5819TIP3    H117414   7.252   3.948   3.326
 5819TIP3    H217415   7.227   4.084   3.264
 5820TIP3   OH217416   0.220   1.008   0.184
 5820TIP3    H117417   0.237   1.026   0.277
 5820TIP3    H217418   0.306   1.013   0.142
 5821TIP3   OH217419   0.039   0.484   4.781
 5821TIP3    H117420   0.117   0.447   4.822
 5821TIP3    H217421  -0.028   0.415   4.791
 5822TIP3   OH217422   6.330   0.345   1.136
 5822TIP3    H117423   6.357   0.396   1.060
 5822TIP3    H217424   6.305   0.260   1.099
 5823TIP3   OH217425   2.715   3.735   0.479
 5823TIP3    H117426   2.739   3.744   0.387
 5823TIP3    H217427   2.703   3.825   0.510
 5824TIP3   OH217428   4.556   7.648   6.158
 5824TIP3    H117429   4.558   7.620   6.249
 5824TIP3    H217430   4.517   7.574   6.111
 5825TIP3   OH217431   0.331   6.229   3.030
 5825TIP3    H117432   0.404   6.199   3.083
 5825TIP3    H217433   0.369   6.244   2.943
 5826TIP3   OH217434   3.616   3.770   0.630
 5826TIP3    H117435   3.627   3.861   0.603
 5826TIP3    H217436   3.697   3.748   0.675
 5827TIP3   OH217437   6.978   4.637   6.086
 5827TIP3    H117438   6.907   4.639   6.151
 5827TIP3    H217439   6.977   4.723   6.046
 5828TIP3   OH217440   2.666   4.753   2.242
 5828TIP3    H117441   2.610   4.743   2.320
 5828TIP3    H217442   2.644   4.678   2.187
 5829TIP3   OH217443   5.873   2.984   6.512
 5829TIP3    H117444   5.875   3.067   6.464
 5829TIP3    H217445   5.787   2.947   6.492
 5830TIP3   OH217446   1.316   4.767   1.080
 5830TIP3    H117447   1.390   4.736   1.029
 5830TIP3    H217448   1.355   4.815   1.153
 5831TIP3   OH217449   7.607   6.190   6.455
 5831TIP3    H117450   7.594   6.285   6.463
 5831TIP3    H217451   7.699   6.177   6.479
 5832TIP3   OH217452   6.105   5.832   1.491
 5832TIP3    H117453   6.193   5.847   1.526
 5832TIP3    H217454   6.102   5.886   1.412
 5833TIP3   OH217455   5.769   2.640   6.496
 5833TIP3    H117456   5.785   2.546   6.506
 5833TIP3    H217457   5.848   2.682   6.529
 5834TIP3   OH217458   2.647   0.719   4.176
 5834TIP3    H117459   2.738   0.715   4.203
 5834TIP3    H217460   2.599   0.673   4.245
 5835TIP3   OH217461   2.879   3.200   1.985
 5835TIP3    H117462   2.924   3.209   2.069
 5835TIP3    H217463   2.829   3.119   1.993
 5836TIP3   OH217464   3.334   2.844   3.475
 5836TIP3    H117465   3.271   2.817   3.408
 5836TIP3    H217466   3.404   2.779   3.469
 5837TIP3   OH217467   2.537   6.662   1.496
 5837TIP3    H117468   2.571   6.721   1.428
 5837TIP3    H217469   2.612   6.643   1.551
 5838TIP3   OH217470   2.124   7.634   3.990
 5838TIP3    H117471   2.185   7.645   3.917
 5838TIP3    H217472   2.179   7.616   4.066
 5839TIP3   OH217473   0.262   1.797   1.084
 5839TIP3    H117474   0.321   1.756   1.148
 5839TIP3    H217475   0.266   1.891   1.104
 5840TIP3   OH217476   5.725   7.725   1.687
 5840TIP3    H117477   5.631   7.742   1.700
 5840TIP3    H217478   5.742   7.754   1.597
 5841TIP3   OH217479   7.919   5.912   2.161
 5841TIP3    H117480   7.846   5.874   2.111
 5841TIP3    H217481   7.993   5.910   2.100
 5842TIP3   OH217482   2.430   6.046   5.371
 5842TIP3    H117483   2.404   6.008   5.287
 5842TIP3    H217484   2.523   6.067   5.359
 5843TIP3   OH217485   1.029   7.538   4.727
 5843TIP3    H117486   1.013   7.453   4.687
 5843TIP3    H217487   1.012   7.525   4.820
 5844TIP3   OH217488   8.132   4.323   1.385
 5844TIP3    H117489   8.124   4.270   1.305
 5844TIP3    H217490   8.189   4.396   1.359
 5845TIP3   OH217491   7.442   6.555   2.349
 5845TIP3    H117492   7.478   6.643   2.346
 5845TIP3    H217493   7.508   6.503   2.395
 5846TIP3   OH217494   4.035   6.906   1.830
 5846TIP3    H117495   4.123   6.882   1.802
 5846TIP3    H217496   4.021   6.992   1.791
 5847TIP3   OH217497   1.082   4.901   0.951
 5847TIP3    H117498   1.175   4.912   0.971
 5847TIP3    H217499   1.061   4.812   0.979
 5848TIP3   OH217500   3.252   2.698   0.261
 5848TIP3    H117501   3.191   2.747   0.315
 5848TIP3    H217502   3.229   2.722   0.171
 5849TIP3   OH217503   1.063   2.562   0.655
 5849TIP3    H117504   1.019   2.567   0.740
 5849TIP3    H217505   1.007   2.613   0.596
 5850TIP3   OH217506   1.074   1.800   1.191
 5850TIP3    H117507   1.021   1.820   1.268
 5850TIP3    H217508   1.165   1.811   1.220
 5851TIP3   OH217509   5.654   1.901   5.610
 5851TIP3    H117510   5.710   1.966   5.652
 5851TIP3    H217511   5.674   1.908   5.517
 5852TIP3   OH217512   6.213   0.645   0.278
 5852TIP3    H117513   6.237   0.676   0.191
 5852TIP3    H217514   6.234   0.552   0.277
 5853TIP3   OH217515   3.019   1.053   3.028
 5853TIP3    H117516   2.982   1.105   3.099
 5853TIP3    H217517   3.035   1.115   2.958
 5854TIP3   OH217518   4.579   6.590   5.970
 5854TIP3    H117519   4.538   6.661   5.920
 5854TIP3    H217520   4.665   6.578   5.930
 5855TIP3   OH217521   4.324   6.358   3.147
 5855TIP3    H117522   4.342   6.439   3.196
 5855TIP3    H217523   4.273   6.304   3.208
 5856TIP3   OH217524   4.457   3.123   5.636
 5856TIP3    H117525   4.492   3.080   5.558
 5856TIP3    H217526   4.468   3.217   5.619
 5857TIP3   OH217527   0.303   6.456   1.224
 5857TIP3    H117528   0.321   6.485   1.314
 5857TIP3    H217529   0.323   6.362   1.226
 5858TIP3   OH217530   1.192   6.057   4.712
 5858TIP3    H117531   1.156   6.111   4.642
 5858TIP3    H217532   1.157   5.969   4.695
 5859TIP3   OH217533   6.590   0.625   3.059
 5859TIP3    H117534   6.632   0.699   3.104
 5859TIP3    H217535   6.547   0.665   2.984
 5860TIP3   OH217536   3.142   7.294   5.302
 5860TIP3    H117537   3.156   7.384   5.272
 5860TIP3    H217538   3.086   7.255   5.235
 5861TIP3   OH217539   2.877   0.707   0.713
 5861TIP3    H117540   2.972   0.710   0.705
 5861TIP3    H217541   2.860   0.641   0.780
 5862TIP3   OH217542   6.252   7.759   3.749
 5862TIP3    H117543   6.242   7.710   3.830
 5862TIP3    H217544   6.172   7.811   3.743
 5863TIP3   OH217545   0.429   1.226   0.266
 5863TIP3    H117546   0.509   1.267   0.300
 5863TIP3    H217547   0.406   1.160   0.332
 5864TIP3   OH217548   7.580   0.676   6.710
 5864TIP3    H117549   7.644   0.747   6.698
 5864TIP3    H217550   7.537   0.668   6.625
 5865TIP3   OH217551   7.064   1.306   6.031
 5865TIP3    H117552   7.131   1.239   6.015
 5865TIP3    H217553   6.984   1.256   6.048
 5866TIP3   OH217554   4.170   6.909   6.018
 5866TIP3    H117555   4.129   6.851   5.954
 5866TIP3    H217556   4.159   6.997   5.982
 5867TIP3   OH217557   4.818   1.449   1.498
 5867TIP3    H117558   4.790   1.371   1.448
 5867TIP3    H217559   4.738   1.478   1.542
 5868TIP3   OH217560   0.118   3.653   6.501
 5868TIP3    H117561   0.046   3.717   6.496
 5868TIP3    H217562   0.161   3.673   6.584
 5869TIP3   OH217563   3.145   1.165   1.272
 5869TIP3    H117564   3.110   1.253   1.283
 5869TIP3    H217565   3.098   1.112   1.336
 5870TIP3   OH217566   7.118   5.230   3.832
 5870TIP3    H117567   7.030   5.249   3.864
 5870TIP3    H217568   7.176   5.276   3.893
 5871TIP3   OH217569   0.577   6.143   2.600
 5871TIP3    H117570   0.590   6.234   2.574
 5871TIP3    H217571   0.639   6.130   2.673
 5872TIP3   OH217572   1.591   4.770   4.619
 5872TIP3    H117573   1.576   4.752   4.712
 5872TIP3    H217574   1.630   4.858   4.619
 5873TIP3   OH217575   2.996   4.553   5.932
 5873TIP3    H117576   3.031   4.510   6.010
 5873TIP3    H217577   3.049   4.519   5.860
 5874TIP3   OH217578   5.322   7.746   2.911
 5874TIP3    H117579   5.276   7.702   2.840
 5874TIP3    H217580   5.302   7.839   2.900
 5875TIP3   OH217581   6.427   4.684   5.535
 5875TIP3    H117582   6.385   4.661   5.452
 5875TIP3    H217583   6.356   4.722   5.588
 5876TIP3   OH217584   6.165   1.705   1.122
 5876TIP3    H117585   6.070   1.702   1.132
 5876TIP3    H217586   6.198   1.711   1.211
 5877TIP3   OH217587   0.860   5.595   5.879
 5877TIP3    H117588   0.889   5.631   5.795
 5877TIP3    H217589   0.810   5.666   5.919
 5878TIP3   OH217590   8.240   6.003   4.508
 5878TIP3    H117591   8.237   6.062   4.583
 5878TIP3    H217592   8.287   5.926   4.540
 5879TIP3   OH217593   8.088   2.558   5.808
 5879TIP3    H117594   8.143   2.615   5.754
 5879TIP3    H217595   8.041   2.618   5.866
 5880TIP3   OH217596   0.276   5.309   3.826
 5880TIP3    H117597   0.254   5.367   3.752
 5880TIP3    H217598   0.206   5.244   3.827
 5881TIP3   OH217599   6.751   4.441   5.784
 5881TIP3    H117600   6.717   4.444   5.695
 5881TIP3    H217601   6.708   4.514   5.829
 5882TIP3   OH217602   5.315   3.586   1.512
 5882TIP3    H117603   5.221   3.598   1.499
 5882TIP3    H217604   5.345   3.542   1.433
 5883TIP3   OH217605   7.203   6.570   2.579
 5883TIP3    H117606   7.250   6.621   2.513
 5883TIP3    H217607   7.120   6.547   2.537
 5884TIP3   OH217608   0.423   2.463   3.230
 5884TIP3    H117609   0.402   2.505   3.314
 5884TIP3    H217610   0.367   2.508   3.166
 5885TIP3   OH217611   5.049   6.862   6.296
 5885TIP3    H117612   5.027   6.808   6.372
 5885TIP3    H217613   4.978   6.846   6.234
 5886TIP3   OH217614   3.778   5.521   3.467
 5886TIP3    H117615   3.825   5.576   3.404
 5886TIP3    H217616   3.843   5.500   3.534
 5887TIP3   OH217617   4.806   4.363   1.878
 5887TIP3    H117618   4.756   4.443   1.860
 5887TIP3    H217619   4.893   4.395   1.903
 5888TIP3   OH217620   4.188   0.546   5.634
 5888TIP3    H117621   4.095   0.521   5.627
 5888TIP3    H217622   4.196   0.623   5.577
 5889TIP3   OH217623   5.166   2.762   2.889
 5889TIP3    H117624   5.190   2.670   2.893
 5889TIP3    H217625   5.203   2.800   2.968
 5890TIP3   OH217626   4.574   1.284   0.016
 5890TIP3    H117627   4.580   1.345   0.090
 5890TIP3    H217628   4.649   1.306  -0.039
 5891TIP3   OH217629   2.952   5.859   4.258
 5891TIP3    H117630   2.997   5.859   4.173
 5891TIP3    H217631   2.904   5.776   4.260
 5892TIP3   OH217632   8.233   0.993   5.351
 5892TIP3    H117633   8.170   0.987   5.423
 5892TIP3    H217634   8.293   1.062   5.378
 5893TIP3   OH217635   3.005   3.671   3.054
 5893TIP3    H117636   2.943   3.623   2.999
 5893TIP3    H217637   2.996   3.632   3.141
 5894TIP3   OH217638   2.502   2.843   2.111
 5894TIP3    H117639   2.592   2.868   2.133
 5894TIP3    H217640   2.450   2.877   2.184
 5895TIP3   OH217641   7.714   6.066   0.603
 5895TIP3    H117642   7.628   6.054   0.643
 5895TIP3    H217643   7.772   6.086   0.676
 5896TIP3   OH217644   4.693   4.654   6.436
 5896TIP3    H117645   4.731   4.623   6.354
 5896TIP3    H217646   4.660   4.741   6.415
 5897TIP3   OH217647   1.832   6.683   2.652
 5897TIP3    H117648   1.789   6.749   2.707
 5897TIP3    H217649   1.900   6.732   2.606
 5898TIP3   OH217650   4.971   0.358   3.135
 5898TIP3    H117651   4.947   0.311   3.216
 5898TIP3    H217652   5.061   0.329   3.117
 5899TIP3   OH217653   6.314   0.220   3.121
 5899TIP3    H117654   6.387   0.281   3.134
 5899TIP3    H217655   6.326   0.187   3.032
 5900TIP3   OH217656   4.290   6.676   3.727
 5900TIP3    H117657   4.272   6.734   3.653
 5900TIP3    H217658   4.372   6.709   3.764
 5901TIP3   OH217659   7.398   3.867   1.544
 5901TIP3    H117660   7.349   3.947   1.563
 5901TIP3    H217661   7.436   3.882   1.458
 5902TIP3   OH217662   0.354   7.211   0.433
 5902TIP3    H117663   0.418   7.142   0.419
 5902TIP3    H217664   0.334   7.244   0.345
 5903TIP3   OH217665   2.949   0.655   4.820
 5903TIP3    H117666   2.981   0.703   4.896
 5903TIP3    H217667   2.867   0.615   4.849
 5904TIP3   OH217668   7.494   4.405   1.336
 5904TIP3    H117669   7.526   4.314   1.335
 5904TIP3    H217670   7.443   4.413   1.256
 5905TIP3   OH217671   4.591   1.371   6.636
 5905TIP3    H117672   4.623   1.323   6.712
 5905TIP3    H217673   4.572   1.459   6.670
 5906TIP3   OH217674   4.807   2.525   3.797
 5906TIP3    H117675   4.793   2.607   3.749
 5906TIP3    H217676   4.878   2.544   3.857
 5907TIP3   OH217677   0.145   2.483   2.002
 5907TIP3    H117678   0.222   2.464   2.054
 5907TIP3    H217679   0.104   2.558   2.046
 5908TIP3   OH217680   6.617   5.004   0.219
 5908TIP3    H117681   6.695   4.954   0.198
 5908TIP3    H217682   6.633   5.037   0.307
 5909TIP3   OH217683   3.884   6.131   2.138
 5909TIP3    H117684   3.940   6.080   2.080
 5909TIP3    H217685   3.941   6.201   2.171
 5910TIP3   OH217686   2.444   5.676   5.853
 5910TIP3    H117687   2.511   5.675   5.785
 5910TIP3    H217688   2.372   5.624   5.816
 5911TIP3   OH217689   6.277   0.983   1.999
 5911TIP3    H117690   6.257   1.061   1.947
 5911TIP3    H217691   6.291   0.914   1.934
 5912TIP3   OH217692   3.526   5.630   1.923
 5912TIP3    H117693   3.548   5.653   1.833
 5912TIP3    H217694   3.454   5.689   1.945
 5913TIP3   OH217695   2.936   3.643   4.001
 5913TIP3    H117696   2.922   3.692   3.920
 5913TIP3    H217697   3.009   3.584   3.980
 5914TIP3   OH217698   2.189   7.583   1.109
 5914TIP3    H117699   2.241   7.650   1.152
 5914TIP3    H217700   2.223   7.500   1.143
 5915TIP3   OH217701   4.671   6.587   1.601
 5915TIP3    H117702   4.710   6.503   1.628
 5915TIP3    H217703   4.725   6.616   1.527
 5916TIP3   OH217704   7.111   7.754   0.493
 5916TIP3    H117705   7.189   7.751   0.436
 5916TIP3    H217706   7.136   7.704   0.571
 5917TIP3   OH217707   6.506   0.696   2.103
 5917TIP3    H117708   6.456   0.673   2.025
 5917TIP3    H217709   6.586   0.737   2.069
 5918TIP3   OH217710   0.198   3.511   2.179
 5918TIP3    H117711   0.291   3.492   2.167
 5918TIP3    H217712   0.196   3.603   2.205
 5919TIP3   OH217713   7.200   6.198   3.423
 5919TIP3    H117714   7.215   6.111   3.461
 5919TIP3    H217715   7.108   6.217   3.441
 5920TIP3   OH217716   8.169   2.455   2.563
 5920TIP3    H117717   8.129   2.377   2.523
 5920TIP3    H217718   8.096   2.500   2.605
 5921TIP3   OH217719   3.949   6.432   1.592
 5921TIP3    H117720   3.915   6.344   1.574
 5921TIP3    H217721   3.881   6.474   1.644
 5922TIP3   OH217722   7.175   3.769   5.156
 5922TIP3    H117723   7.120   3.717   5.215
 5922TIP3    H217724   7.265   3.744   5.180
 5923TIP3   OH217725   1.892   6.060   0.902
 5923TIP3    H117726   1.897   5.971   0.937
 5923TIP3    H217727   1.868   6.114   0.977
 5924TIP3   OH217728   5.820   1.424   5.765
 5924TIP3    H117729   5.739   1.413   5.814
 5924TIP3    H217730   5.835   1.340   5.722
 5925TIP3   OH217731   2.503   6.162   2.635
 5925TIP3    H117732   2.515   6.112   2.554
 5925TIP3    H217733   2.593   6.179   2.666
 5926TIP3   OH217734   0.308   6.167   6.269
 5926TIP3    H117735   0.317   6.088   6.322
 5926TIP3    H217736   0.317   6.239   6.332
 5927TIP3   OH217737   2.090   6.884   3.491
 5927TIP3    H117738   2.055   6.873   3.579
 5927TIP3    H217739   2.064   6.804   3.445
 5928TIP3   OH217740   2.536   2.710   4.620
 5928TIP3    H117741   2.620   2.754   4.629
 5928TIP3    H217742   2.490   2.760   4.553
 5929TIP3   OH217743   8.159   1.998   4.293
 5929TIP3    H117744   8.108   2.030   4.219
 5929TIP3    H217745   8.100   1.939   4.339
 5930TIP3   OH217746   3.861   2.929   5.347
 5930TIP3    H117747   3.797   2.916   5.417
 5930TIP3    H217748   3.829   2.877   5.274
 5931TIP3   OH217749   7.856   5.442   4.435
 5931TIP3    H117750   7.785   5.402   4.385
 5931TIP3    H217751   7.813   5.480   4.511
 5932TIP3   OH217752   4.407   0.374   4.930
 5932TIP3    H117753   4.501   0.370   4.916
 5932TIP3    H217754   4.381   0.461   4.898
 5933TIP3   OH217755   1.232   2.513   3.799
 5933TIP3    H117756   1.280   2.463   3.865
 5933TIP3    H217757   1.152   2.541   3.842
 5934TIP3   OH217758   7.562   1.231   0.211
 5934TIP3    H117759   7.615   1.228   0.292
 5934TIP3    H217760   7.514   1.314   0.217
 5935TIP3   OH217761   2.601   0.744   5.069
 5935TIP3    H117762   2.524   0.743   5.013
 5935TIP3    H217763   2.665   0.797   5.022
 5936TIP3   OH217764   1.185   7.521   4.392
 5936TIP3    H117765   1.091   7.534   4.380
 5936TIP3    H217766   1.218   7.606   4.421
 5937TIP3   OH217767   0.039   4.423   3.805
 5937TIP3    H117768   0.070   4.513   3.797
 5937TIP3    H217769   0.004   4.417   3.893
 5938TIP3   OH217770   5.732   5.373   0.783
 5938TIP3    H117771   5.766   5.340   0.866
 5938TIP3    H217772   5.804   5.425   0.747
 5939TIP3   OH217773   5.944   4.330   4.783
 5939TIP3    H117774   5.992   4.265   4.834
 5939TIP3    H217775   5.861   4.341   4.830
 5940TIP3   OH217776   6.043   7.064   0.816
 5940TIP3    H117777   6.015   7.155   0.830
 5940TIP3    H217778   5.978   7.028   0.756
 5941TIP3   OH217779   6.198   5.598   0.595
 5941TIP3    H117780   6.267   5.640   0.646
 5941TIP3    H217781   6.185   5.514   0.638
 5942TIP3   OH217782   5.927   5.622   4.513
 5942TIP3    H117783   5.853   5.639   4.454
 5942TIP3    H217784   5.893   5.556   4.574
 5943TIP3   OH217785   5.523   4.926   5.224
 5943TIP3    H117786   5.429   4.931   5.212
 5943TIP3    H217787   5.536   4.938   5.318
 5944TIP3   OH217788   1.859   3.199   5.806
 5944TIP3    H117789   1.943   3.154   5.805
 5944TIP3    H217790   1.810   3.161   5.733
 5945TIP3   OH217791   8.187   2.303   3.684
 5945TIP3    H117792   8.264   2.359   3.690
 5945TIP3    H217793   8.115   2.362   3.664
 5946TIP3   OH217794   3.896   4.849   0.931
 5946TIP3    H117795   3.825   4.802   0.888
 5946TIP3    H217796   3.975   4.799   0.909
 5947TIP3   OH217797   1.254   2.636   2.943
 5947TIP3    H117798   1.317   2.643   3.014
 5947TIP3    H217799   1.215   2.549   2.954
 5948TIP3   OH217800   4.059   1.901   6.086
 5948TIP3    H117801   4.113   1.958   6.139
 5948TIP3    H217802   4.072   1.931   5.996
 5949TIP3   OH217803   2.893   0.664   0.068
 5949TIP3    H117804   2.834   0.592   0.043
 5949TIP3    H217805   2.851   0.742   0.032
 5950TIP3   OH217806   3.032   3.127   0.109
 5950TIP3    H117807   3.027   3.058   0.042
 5950TIP3    H217808   2.995   3.204   0.068
 5951TIP3   OH217809   1.532   2.126   2.855
 5951TIP3    H117810   1.616   2.149   2.894
 5951TIP3    H217811   1.474   2.199   2.877
 5952TIP3   OH217812   1.113   4.312   2.626
 5952TIP3    H117813   1.063   4.391   2.647
 5952TIP3    H217814   1.140   4.277   2.711
 5953TIP3   OH217815   7.160   1.823   3.312
 5953TIP3    H117816   7.082   1.876   3.295
 5953TIP3    H217817   7.205   1.818   3.227
 5954TIP3   OH217818   6.138   3.942   6.728
 5954TIP3    H117819   6.043   3.948   6.736
 5954TIP3    H217820   6.168   4.033   6.734
 5955TIP3   OH217821  -0.002   6.461   2.258
 5955TIP3    H117822   0.040   6.376   2.272
 5955TIP3    H217823  -0.010   6.498   2.346
 5956TIP3   OH217824   0.811   1.090   0.437
 5956TIP3    H117825   0.861   1.167   0.410
 5956TIP3    H217826   0.787   1.048   0.354
 5957TIP3   OH217827   7.412   3.200   1.726
 5957TIP3    H117828   7.350   3.254   1.775
 5957TIP3    H217829   7.486   3.257   1.708
 5958TIP3   OH217830   1.444   5.270   0.561
 5958TIP3    H117831   1.420   5.213   0.634
 5958TIP3    H217832   1.536   5.290   0.576
 5959TIP3   OH217833   1.116   2.399   5.826
 5959TIP3    H117834   1.093   2.491   5.816
 5959TIP3    H217835   1.142   2.390   5.917
 5960TIP3   OH217836   4.251   6.833   1.644
 5960TIP3    H117837   4.206   6.752   1.619
 5960TIP3    H217838   4.285   6.868   1.561
 5961TIP3   OH217839   4.185   6.472   2.516
 5961TIP3    H117840   4.247   6.405   2.545
 5961TIP3    H217841   4.099   6.436   2.541
 5962TIP3   OH217842   2.358   6.631   4.243
 5962TIP3    H117843   2.374   6.633   4.149
 5962TIP3    H217844   2.442   6.607   4.281
 5963TIP3   OH217845   5.250   4.856   5.683
 5963TIP3    H117846   5.183   4.922   5.667
 5963TIP3    H217847   5.306   4.895   5.751
 5964TIP3   OH217848   0.482   4.373   5.939
 5964TIP3    H117849   0.506   4.415   5.856
 5964TIP3    H217850   0.520   4.429   6.006
 5965TIP3   OH217851   7.792   6.543   6.357
 5965TIP3    H117852   7.769   6.616   6.415
 5965TIP3    H217853   7.812   6.585   6.273
 5966TIP3   OH217854   2.761   6.987   3.626
 5966TIP3    H117855   2.676   6.991   3.581
 5966TIP3    H217856   2.760   6.902   3.669
 5967TIP3   OH217857   2.589   5.698   0.397
 5967TIP3    H117858   2.494   5.703   0.409
 5967TIP3    H217859   2.623   5.661   0.478
 5968TIP3   OH217860   2.309   5.583   2.380
 5968TIP3    H117861   2.313   5.550   2.291
 5968TIP3    H217862   2.356   5.667   2.376
 5969TIP3   OH217863   3.304   0.624   2.940
 5969TIP3    H117864   3.231   0.648   2.997
 5969TIP3    H217865   3.355   0.705   2.933
 5970TIP3   OH217866   6.072   4.747   6.313
 5970TIP3    H117867   6.110   4.797   6.385
 5970TIP3    H217868   6.025   4.811   6.260
 5971TIP3   OH217869   3.119   4.515   3.655
 5971TIP3    H117870   3.141   4.470   3.573
 5971TIP3    H217871   3.036   4.475   3.682
 5972TIP3   OH217872   7.571   1.052   0.864
 5972TIP3    H117873   7.513   1.092   0.928
 5972TIP3    H217874   7.583   0.962   0.896
 5973TIP3   OH217875   1.613   2.720   6.354
 5973TIP3    H117876   1.701   2.731   6.318
 5973TIP3    H217877   1.624   2.726   6.449
 5974TIP3   OH217878   3.510   2.627   3.532
 5974TIP3    H117879   3.509   2.543   3.578
 5974TIP3    H217880   3.499   2.604   3.440
 5975TIP3   OH217881   6.496   5.054   1.416
 5975TIP3    H117882   6.524   5.145   1.403
 5975TIP3    H217883   6.436   5.037   1.343
 5976TIP3   OH217884   7.435   5.345   3.358
 5976TIP3    H117885   7.421   5.424   3.306
 5976TIP3    H217886   7.350   5.302   3.360
 5977TIP3   OH217887   0.484   2.163   0.568
 5977TIP3    H117888   0.424   2.231   0.538
 5977TIP3    H217889   0.447   2.082   0.533
 5978TIP3   OH217890   4.429   7.048   3.505
 5978TIP3    H117891   4.365   7.116   3.527
 5978TIP3    H217892   4.468   7.078   3.423
 5979TIP3   OH217893   7.129   3.369   6.645
 5979TIP3    H117894   7.131   3.379   6.740
 5979TIP3    H217895   7.054   3.422   6.617
 5980TIP3   OH217896   7.104   3.956   3.694
 5980TIP3    H117897   7.182   3.989   3.738
 5980TIP3    H217898   7.082   3.875   3.742
 5981TIP3   OH217899   4.411   0.043   4.756
 5981TIP3    H117900   4.372  -0.025   4.701
 5981TIP3    H217901   4.344   0.111   4.760
 5982TIP3   OH217902   5.847   4.906   1.354
 5982TIP3    H117903   5.769   4.962   1.346
 5982TIP3    H217904   5.855   4.864   1.268
 5983TIP3   OH217905   6.566   7.596   3.596
 5983TIP3    H117906   6.595   7.687   3.597
 5983TIP3    H217907   6.481   7.599   3.552
 5984TIP3   OH217908   6.609   3.707   5.838
 5984TIP3    H117909   6.563   3.786   5.813
 5984TIP3    H217910   6.695   3.715   5.797
 5985TIP3   OH217911   4.958   0.454   4.842
 5985TIP3    H117912   5.025   0.504   4.888
 5985TIP3    H217913   4.976   0.469   4.749
 5986TIP3   OH217914   6.250   7.073   5.114
 5986TIP3    H117915   6.219   6.985   5.095
 5986TIP3    H217916   6.224   7.089   5.205
 5987TIP3   OH217917   6.631   5.545   3.567
 5987TIP3    H117918   6.605   5.506   3.484
 5987TIP3    H217919   6.598   5.635   3.563
 5988TIP3   OH217920   7.269   1.100   4.156
 5988TIP3    H117921   7.358   1.069   4.139
 5988TIP3    H217922   7.279   1.168   4.222
 5989TIP3   OH217923   7.405   5.839   3.073
 5989TIP3    H117924   7.410   5.923   3.118
 5989TIP3    H217925   7.336   5.851   3.007
 5990TIP3   OH217926   5.202   3.500   0.927
 5990TIP3    H117927   5.118   3.513   0.973
 5990TIP3    H217928   5.254   3.577   0.951
 5991TIP3   OH217929   7.686   6.521   6.655
 5991TIP3    H117930   7.675   6.570   6.737
 5991TIP3    H217931   7.764   6.468   6.670
 5992TIP3   OH217932   0.821   3.403   1.386
 5992TIP3    H117933   0.823   3.497   1.367
 5992TIP3    H217934   0.888   3.391   1.453
 5993TIP3   OH217935   2.457   3.887   1.747
 5993TIP3    H117936   2.505   3.836   1.812
 5993TIP3    H217937   2.379   3.835   1.729
 5994TIP3   OH217938   2.620   4.711   1.345
 5994TIP3    H117939   2.534   4.734   1.381
 5994TIP3    H217940   2.616   4.616   1.332
 5995TIP3   OH217941   3.376   3.369   5.376
 5995TIP3    H117942   3.314   3.347   5.307
 5995TIP3    H217943   3.462   3.363   5.335
 5996TIP3   OH217944   6.735   2.009   3.753
 5996TIP3    H117945   6.795   1.970   3.689
 5996TIP3    H217946   6.792   2.046   3.820
 5997TIP3   OH217947   4.460   5.988   6.045
 5997TIP3    H117948   4.471   5.903   6.003
 5997TIP3    H217949   4.406   5.971   6.122
 5998TIP3   OH217950   0.033   5.984   2.954
 5998TIP3    H117951   0.111   6.002   2.902
 5998TIP3    H217952   0.066   5.973   3.044
 5999TIP3   OH217953   6.401   7.622   0.136
 5999TIP3    H117954   6.466   7.572   0.086
 5999TIP3    H217955   6.406   7.586   0.224
 6000TIP3   OH217956   5.000   2.706   3.202
 6000TIP3    H117957   5.020   2.656   3.123
 6000TIP3    H217958   5.073   2.688   3.262
 6001TIP3   OH217959   5.259   6.296   0.347
 6001TIP3    H117960   5.243   6.347   0.268
 6001TIP3    H217961   5.353   6.304   0.363
 6002TIP3   OH217962   6.296   4.041   1.590
 6002TIP3    H117963   6.315   3.986   1.514
 6002TIP3    H217964   6.278   3.979   1.661
 6003TIP3   OH217965   2.272   3.805   2.722
 6003TIP3    H117966   2.300   3.897   2.730
 6003TIP3    H217967   2.322   3.759   2.789
 6004TIP3   OH217968   7.406   0.686   5.546
 6004TIP3    H117969   7.332   0.743   5.566
 6004TIP3    H217970   7.447   0.727   5.470
 6005TIP3   OH217971   6.911   1.582   6.277
 6005TIP3    H117972   6.985   1.600   6.336
 6005TIP3    H217973   6.850   1.654   6.293
 6006TIP3   OH217974   4.352   1.811   3.211
 6006TIP3    H117975   4.280   1.873   3.204
 6006TIP3    H217976   4.343   1.755   3.133
 6007TIP3   OH217977   4.789   7.119   0.634
 6007TIP3    H117978   4.837   7.046   0.673
 6007TIP3    H217979   4.856   7.186   0.617
 6008TIP3   OH217980   4.440   7.676   0.774
 6008TIP3    H117981   4.370   7.724   0.729
 6008TIP3    H217982   4.437   7.708   0.864
 6009TIP3   OH217983   3.747   6.873   4.344
 6009TIP3    H117984   3.732   6.890   4.251
 6009TIP3    H217985   3.686   6.801   4.364
 6010TIP3   OH217986   2.596   3.014   4.092
 6010TIP3    H117987   2.643   2.957   4.153
 6010TIP3    H217988   2.584   2.961   4.013
 6011TIP3   OH217989   1.290   0.687   2.550
 6011TIP3    H117990   1.372   0.649   2.519
 6011TIP3    H217991   1.286   0.773   2.508
 6012TIP3   OH217992   5.330   0.334   1.655
 6012TIP3    H117993   5.419   0.325   1.623
 6012TIP3    H217994   5.339   0.342   1.750
 6013TIP3   OH217995   7.116   0.980   4.662
 6013TIP3    H117996   7.028   1.015   4.676
 6013TIP3    H217997   7.126   0.977   4.567
 6014TIP3   OH217998   7.080   2.253   0.729
 6014TIP3    H117999   7.140   2.245   0.803
 6014TIP3    H218000   7.076   2.347   0.711
 6015TIP3   OH218001   8.094   2.860   3.627
 6015TIP3    H118002   8.107   2.948   3.662
 6015TIP3    H218003   8.045   2.815   3.696
 6016TIP3   OH218004   6.293   1.346   6.214
 6016TIP3    H118005   6.283   1.264   6.263
 6016TIP3    H218006   6.246   1.411   6.266
 6017TIP3   OH218007   7.619   3.329   5.461
 6017TIP3    H118008   7.585   3.418   5.471
 6017TIP3    H218009   7.652   3.325   5.372
 6018TIP3   OH218010   6.777   5.534   5.698
 6018TIP3    H118011   6.820   5.565   5.778
 6018TIP3    H218012   6.724   5.460   5.727
 6019TIP3   OH218013   1.191   5.197   3.562
 6019TIP3    H118014   1.113   5.143   3.565
 6019TIP3    H218015   1.235   5.182   3.645
 6020TIP3   OH218016   0.005   7.215   3.646
 6020TIP3    H118017   0.084   7.178   3.685
 6020TIP3    H218018  -0.067   7.163   3.683
 6021TIP3   OH218019   2.264   0.872   5.657
 6021TIP3    H118020   2.353   0.840   5.669
 6021TIP3    H218021   2.261   0.954   5.706
 6022TIP3   OH218022   7.451   2.858   2.249
 6022TIP3    H118023   7.532   2.838   2.297
 6022TIP3    H218024   7.391   2.890   2.316
 6023TIP3   OH218025   2.321   7.204   6.708
 6023TIP3    H118026   2.251   7.268   6.695
 6023TIP3    H218027   2.359   7.226   6.793
 6024TIP3   OH218028   2.780   3.004   2.823
 6024TIP3    H118029   2.825   2.956   2.753
 6024TIP3    H218030   2.698   3.033   2.782
 6025TIP3   OH218031   0.761   3.691   4.930
 6025TIP3    H118032   0.796   3.672   4.843
 6025TIP3    H218033   0.815   3.763   4.963
 6026TIP3   OH218034   1.523   6.325   2.647
 6026TIP3    H118035   1.613   6.329   2.680
 6026TIP3    H218036   1.485   6.409   2.672
 6027TIP3   OH218037   3.583   6.617   4.251
 6027TIP3    H118038   3.531   6.591   4.175
 6027TIP3    H218039   3.672   6.625   4.218
 6028TIP3   OH218040   0.707   4.817   0.349
 6028TIP3    H118041   0.723   4.723   0.346
 6028TIP3    H218042   0.774   4.851   0.408
 6029TIP3   OH218043   7.395   4.981   4.982
 6029TIP3    H118044   7.417   5.036   5.057
 6029TIP3    H218045   7.379   4.895   5.021
 6030TIP3   OH218046   2.272   5.885   2.676
 6030TIP3    H118047   2.180   5.879   2.704
 6030TIP3    H218048   2.288   5.804   2.628
 6031TIP3   OH218049   1.655   5.564   2.930
 6031TIP3    H118050   1.749   5.547   2.937
 6031TIP3    H218051   1.648   5.659   2.927
 6032TIP3   OH218052   2.806   4.666   3.573
 6032TIP3    H118053   2.769   4.652   3.485
 6032TIP3    H218054   2.781   4.756   3.595
 6033TIP3   OH218055   1.909   2.177   0.872
 6033TIP3    H118056   1.972   2.164   0.801
 6033TIP3    H218057   1.931   2.262   0.909
 6034TIP3   OH218058   6.540   1.379   5.405
 6034TIP3    H118059   6.634   1.374   5.417
 6034TIP3    H218060   6.519   1.308   5.345
 6035TIP3   OH218061   5.807   3.821   3.587
 6035TIP3    H118062   5.878   3.807   3.650
 6035TIP3    H218063   5.788   3.734   3.553
 6036TIP3   OH218064   0.480   6.465   6.346
 6036TIP3    H118065   0.388   6.475   6.323
 6036TIP3    H218066   0.495   6.528   6.416
 6037TIP3   OH218067   3.694   2.971   5.802
 6037TIP3    H118068   3.775   2.992   5.755
 6037TIP3    H218069   3.624   2.999   5.742
 6038TIP3   OH218070   4.044   4.336   2.175
 6038TIP3    H118071   4.054   4.377   2.261
 6038TIP3    H218072   3.950   4.328   2.162
 6039TIP3   OH218073   7.412   2.546   2.714
 6039TIP3    H118074   7.426   2.634   2.747
 6039TIP3    H218075   7.346   2.508   2.772
 6040TIP3   OH218076   6.514   3.408   2.369
 6040TIP3    H118077   6.451   3.430   2.302
 6040TIP3    H218078   6.591   3.377   2.321
 6041TIP3   OH218079   0.732   4.407   1.983
 6041TIP3    H118080   0.740   4.447   2.069
 6041TIP3    H218081   0.637   4.396   1.970
 6042TIP3   OH218082   1.887   3.939   1.784
 6042TIP3    H118083   1.803   3.984   1.788
 6042TIP3    H218084   1.871   3.863   1.728
 6043TIP3   OH218085   7.304   5.945   3.520
 6043TIP3    H118086   7.340   5.895   3.594
 6043TIP3    H218087   7.379   5.960   3.463
 6044TIP3   OH218088   4.532   5.525   1.886
 6044TIP3    H118089   4.592   5.505   1.958
 6044TIP3    H218090   4.463   5.460   1.893
 6045TIP3   OH218091   1.477   4.250   2.189
 6045TIP3    H118092   1.493   4.343   2.207
 6045TIP3    H218093   1.551   4.205   2.229
 6046TIP3   OH218094   3.840   4.449   3.981
 6046TIP3    H118095   3.893   4.460   4.060
 6046TIP3    H218096   3.884   4.504   3.915
 6047TIP3   OH218097   6.706   0.644   6.150
 6047TIP3    H118098   6.661   0.569   6.112
 6047TIP3    H218099   6.757   0.681   6.078
 6048TIP3   OH218100   5.714   4.588   2.127
 6048TIP3    H118101   5.638   4.594   2.186
 6048TIP3    H218102   5.710   4.500   2.091
 6049TIP3   OH218103   4.880   5.219   2.638
 6049TIP3    H118104   4.931   5.138   2.644
 6049TIP3    H218105   4.847   5.219   2.548
 6050TIP3   OH218106   0.949   7.416   5.717
 6050TIP3    H118107   1.027   7.363   5.727
 6050TIP3    H218108   0.908   7.385   5.637
 6051TIP3   OH218109   6.774   4.173   3.963
 6051TIP3    H118110   6.685   4.209   3.958
 6051TIP3    H218111   6.789   4.133   3.877
 6052TIP3   OH218112   0.172   0.398   2.476
 6052TIP3    H118113   0.255   0.385   2.520
 6052TIP3    H218114   0.143   0.485   2.504
 6053TIP3   OH218115   5.730   5.129   5.838
 6053TIP3    H118116   5.771   5.048   5.806
 6053TIP3    H218117   5.790   5.199   5.810
 6054TIP3   OH218118   7.472   0.379   6.596
 6054TIP3    H118119   7.503   0.465   6.566
 6054TIP3    H218120   7.421   0.346   6.522
 6055TIP3   OH218121   4.587   3.595   5.821
 6055TIP3    H118122   4.652   3.550   5.876
 6055TIP3    H218123   4.507   3.594   5.873
 6056TIP3   OH218124   4.402   5.794   3.658
 6056TIP3    H118125   4.466   5.745   3.606
 6056TIP3    H218126   4.454   5.859   3.706
 6057TIP3   OH218127   1.397   7.471   0.983
 6057TIP3    H118128   1.316   7.421   0.985
 6057TIP3    H218129   1.382   7.541   0.920
 6058TIP3   OH218130   0.828   1.560   1.251
 6058TIP3    H118131   0.836   1.606   1.334
 6058TIP3    H218132   0.791   1.625   1.191
 6059TIP3   OH218133   4.891   0.745   1.008
 6059TIP3    H118134   4.815   0.777   1.056
 6059TIP3    H218135   4.904   0.808   0.937
 6060TIP3   OH218136   4.162   6.821   2.153
 6060TIP3    H118137   4.168   6.738   2.201
 6060TIP3    H218138   4.236   6.819   2.093
 6061TIP3   OH218139   4.249   3.067   0.755
 6061TIP3    H118140   4.326   3.105   0.713
 6061TIP3    H218141   4.232   3.125   0.830
 6062TIP3   OH218142   0.657   0.266   5.145
 6062TIP3    H118143   0.673   0.345   5.094
 6062TIP3    H218144   0.704   0.197   5.098
 6063TIP3   OH218145   6.873   1.208   2.016
 6063TIP3    H118146   6.801   1.184   1.957
 6063TIP3    H218147   6.830   1.240   2.095
 6064TIP3   OH218148   7.127   3.896   4.764
 6064TIP3    H118149   7.123   3.940   4.849
 6064TIP3    H218150   7.078   3.954   4.705
 6065TIP3   OH218151   2.442   3.714   5.018
 6065TIP3    H118152   2.367   3.692   5.075
 6065TIP3    H218153   2.490   3.781   5.067
 6066TIP3   OH218154   0.987   2.890   5.331
 6066TIP3    H118155   0.939   2.825   5.381
 6066TIP3    H218156   0.919   2.945   5.292
 6067TIP3   OH218157   4.182   3.787   1.235
 6067TIP3    H118158   4.153   3.736   1.310
 6067TIP3    H218159   4.237   3.856   1.273
 6068TIP3   OH218160   2.770   1.382   2.884
 6068TIP3    H118161   2.750   1.368   2.791
 6068TIP3    H218162   2.849   1.330   2.899
 6069TIP3   OH218163   7.642   5.103   5.422
 6069TIP3    H118164   7.671   5.101   5.330
 6069TIP3    H218165   7.635   5.196   5.443
 6070TIP3   OH218166   4.459   3.471   6.361
 6070TIP3    H118167   4.540   3.521   6.355
 6070TIP3    H218168   4.401   3.527   6.413
 6071TIP3   OH218169   2.991   5.987   5.577
 6071TIP3    H118170   3.033   5.951   5.655
 6071TIP3    H218171   2.991   6.082   5.592
 6072TIP3   OH218172   4.266   1.634   4.560
 6072TIP3    H118173   4.329   1.642   4.488
 6072TIP3    H218174   4.274   1.717   4.607
 6073TIP3   OH218175   7.884   0.596   4.606
 6073TIP3    H118176   7.939   0.594   4.684
 6073TIP3    H218177   7.795   0.608   4.640
 6074TIP3   OH218178   1.665   5.205   6.230
 6074TIP3    H118179   1.698   5.126   6.186
 6074TIP3    H218180   1.709   5.206   6.315
 6075TIP3   OH218181   2.055   0.445   3.688
 6075TIP3    H118182   2.110   0.509   3.643
 6075TIP3    H218183   2.104   0.424   3.768
 6076TIP3   OH218184   1.266   2.615   3.570
 6076TIP3    H118185   1.338   2.561   3.536
 6076TIP3    H218186   1.248   2.579   3.656
 6077TIP3   OH218187   8.286   3.269   4.030
 6077TIP3    H118188   8.354   3.229   3.975
 6077TIP3    H218189   8.206   3.221   4.010
 6078TIP3   OH218190   2.810   2.402   4.714
 6078TIP3    H118191   2.860   2.482   4.696
 6078TIP3    H218192   2.740   2.402   4.649
 6079TIP3   OH218193   4.754   1.132   1.712
 6079TIP3    H118194   4.801   1.049   1.702
 6079TIP3    H218195   4.671   1.118   1.668
 6080TIP3   OH218196   4.838   3.144   6.713
 6080TIP3    H118197   4.802   3.096   6.638
 6080TIP3    H218198   4.782   3.118   6.787
 6081TIP3   OH218199   3.865   6.184   4.014
 6081TIP3    H118200   3.814   6.254   3.974
 6081TIP3    H218201   3.835   6.104   3.970
 6082TIP3   OH218202   8.220   5.402   5.233
 6082TIP3    H118203   8.199   5.373   5.321
 6082TIP3    H218204   8.134   5.411   5.190
 6083TIP3   OH218205   4.524   4.379   3.763
 6083TIP3    H118206   4.603   4.330   3.742
 6083TIP3    H218207   4.500   4.422   3.681
 6084TIP3   OH218208   8.265   4.758   4.677
 6084TIP3    H118209   8.327   4.781   4.608
 6084TIP3    H218210   8.247   4.665   4.663
 6085TIP3   OH218211   6.476   1.549   6.261
 6085TIP3    H118212   6.416   1.483   6.226
 6085TIP3    H218213   6.499   1.602   6.185
 6086TIP3   OH218214   3.467   5.018   4.599
 6086TIP3    H118215   3.435   5.099   4.560
 6086TIP3    H218216   3.389   4.977   4.637
 6087TIP3   OH218217   0.068   3.149   6.671
 6087TIP3    H118218   0.007   3.220   6.651
 6087TIP3    H218219   0.075   3.100   6.589
 6088TIP3   OH218220   5.865   5.972   2.111
 6088TIP3    H118221   5.782   5.994   2.153
 6088TIP3    H218222   5.909   6.056   2.098
 6089TIP3   OH218223   6.646   2.058   0.385
 6089TIP3    H118224   6.621   2.004   0.461
 6089TIP3    H218225   6.664   2.144   0.422
 6090TIP3   OH218226   7.717   1.655   4.329
 6090TIP3    H118227   7.633   1.673   4.372
 6090TIP3    H218228   7.701   1.574   4.280
 6091TIP3   OH218229   6.348   3.773   4.514
 6091TIP3    H118230   6.320   3.819   4.435
 6091TIP3    H218231   6.419   3.828   4.550
 6092TIP3   OH218232   2.043   6.513   0.315
 6092TIP3    H118233   2.095   6.453   0.367
 6092TIP3    H218234   2.042   6.594   0.366
 6093TIP3   OH218235   2.574   3.382   6.799
 6093TIP3    H118236   2.574   3.459   6.742
 6093TIP3    H218237   2.567   3.308   6.738
 6094TIP3   OH218238   5.389   3.659   0.620
 6094TIP3    H118239   5.436   3.576   0.613
 6094TIP3    H218240   5.404   3.689   0.709
 6095TIP3   OH218241   4.050   1.710   6.655
 6095TIP3    H118242   3.988   1.690   6.585
 6095TIP3    H218243   4.108   1.633   6.659
 6096TIP3   OH218244   4.854   2.192   0.266
 6096TIP3    H118245   4.779   2.139   0.238
 6096TIP3    H218246   4.861   2.260   0.199
 6097TIP3   OH218247   7.164   6.974   4.868
 6097TIP3    H118248   7.169   6.957   4.962
 6097TIP3    H218249   7.083   6.932   4.840
 6098TIP3   OH218250   0.169   7.074   3.352
 6098TIP3    H118251   0.213   6.991   3.332
 6098TIP3    H218252   0.188   7.089   3.444
 6099TIP3   OH218253   1.134   6.052   3.950
 6099TIP3    H118254   1.068   6.081   4.013
 6099TIP3    H218255   1.137   5.957   3.961
 6100TIP3   OH218256   2.234   4.371   3.784
 6100TIP3    H118257   2.232   4.288   3.736
 6100TIP3    H218258   2.325   4.380   3.812
 6101TIP3   OH218259   7.666   6.865   1.802
 6101TIP3    H118260   7.717   6.905   1.873
 6101TIP3    H218261   7.587   6.918   1.796
 6102TIP3   OH218262   7.594   7.760   1.498
 6102TIP3    H118263   7.572   7.685   1.553
 6102TIP3    H218264   7.559   7.836   1.544
 6103TIP3   OH218265   5.436   5.446   0.812
 6103TIP3    H118266   5.521   5.402   0.805
 6103TIP3    H218267   5.372   5.379   0.790
 6104TIP3   OH218268   1.429   1.664   3.489
 6104TIP3    H118269   1.518   1.692   3.509
 6104TIP3    H218270   1.383   1.744   3.464
 6105TIP3   OH218271   2.960   2.302   5.802
 6105TIP3    H118272   3.038   2.247   5.809
 6105TIP3    H218273   2.914   2.291   5.885
 6106TIP3   OH218274   4.956   5.073   0.588
 6106TIP3    H118275   4.990   5.022   0.661
 6106TIP3    H218276   5.021   5.142   0.573
 6107TIP3   OH218277   5.001   3.372   3.376
 6107TIP3    H118278   4.929   3.433   3.394
 6107TIP3    H218279   5.079   3.427   3.382
 6108TIP3   OH218280   0.951   1.800   2.210
 6108TIP3    H118281   0.979   1.711   2.230
 6108TIP3    H218282   0.859   1.804   2.239
 6109TIP3   OH218283   6.965   0.799   1.612
 6109TIP3    H118284   7.059   0.813   1.624
 6109TIP3    H218285   6.946   0.839   1.528
 6110TIP3   OH218286   5.085   3.366   5.708
 6110TIP3    H118287   5.125   3.452   5.691
 6110TIP3    H218288   5.134   3.306   5.652
 6111TIP3   OH218289   5.916   5.054   0.414
 6111TIP3    H118290   5.864   5.074   0.335
 6111TIP3    H218291   5.932   5.139   0.454
 6112TIP3   OH218292   5.619   5.480   6.217
 6112TIP3    H118293   5.625   5.388   6.191
 6112TIP3    H218294   5.555   5.518   6.157
 6113TIP3   OH218295   0.216   5.546   4.359
 6113TIP3    H118296   0.261   5.599   4.425
 6113TIP3    H218297   0.128   5.532   4.395
 6114TIP3   OH218298   3.870   0.338   1.756
 6114TIP3    H118299   3.853   0.415   1.703
 6114TIP3    H218300   3.858   0.264   1.696
 6115TIP3   OH218301   5.579   7.150   1.751
 6115TIP3    H118302   5.666   7.186   1.770
 6115TIP3    H218303   5.576   7.069   1.802
 6116TIP3   OH218304   2.459   1.426   5.490
 6116TIP3    H118305   2.522   1.407   5.559
 6116TIP3    H218306   2.396   1.353   5.493
 6117TIP3   OH218307   2.779   2.254   6.662
 6117TIP3    H118308   2.820   2.334   6.629
 6117TIP3    H218309   2.848   2.187   6.654
 6118TIP3   OH218310   5.334   7.683   5.899
 6118TIP3    H118311   5.290   7.613   5.946
 6118TIP3    H218312   5.355   7.748   5.966
 6119TIP3   OH218313   6.255   3.087   1.335
 6119TIP3    H118314   6.297   3.173   1.335
 6119TIP3    H218315   6.294   3.042   1.260
 6120TIP3   OH218316   3.581   0.146   4.983
 6120TIP3    H118317   3.540   0.179   5.063
 6120TIP3    H218318   3.671   0.124   5.009
 6121TIP3   OH218319   6.311   0.802   4.380
 6121TIP3    H118320   6.345   0.856   4.308
 6121TIP3    H218321   6.250   0.742   4.337
 6122TIP3   OH218322   7.190   3.322   4.081
 6122TIP3    H118323   7.245   3.284   4.012
 6122TIP3    H218324   7.190   3.416   4.062
 6123TIP3   OH218325   4.266   7.071   5.072
 6123TIP3    H118326   4.263   7.138   5.004
 6123TIP3    H218327   4.310   6.996   5.029
 6124TIP3   OH218328   7.413   0.979   0.421
 6124TIP3    H118329   7.400   1.073   0.432
 6124TIP3    H218330   7.457   0.951   0.502
 6125TIP3   OH218331   2.176   5.735   4.991
 6125TIP3    H118332   2.131   5.691   5.063
 6125TIP3    H218333   2.269   5.721   5.009
 6126TIP3   OH218334   4.619   0.988   2.066
 6126TIP3    H118335   4.540   0.989   2.012
 6126TIP3    H218336   4.659   1.074   2.052
 6127TIP3   OH218337   3.502   7.166   2.523
 6127TIP3    H118338   3.585   7.162   2.475
 6127TIP3    H218339   3.527   7.149   2.614
 6128TIP3   OH218340   3.215   2.975   0.847
 6128TIP3    H118341   3.232   2.967   0.753
 6128TIP3    H218342   3.237   3.065   0.868
 6129TIP3   OH218343   6.694   4.164   4.502
 6129TIP3    H118344   6.695   4.166   4.407
 6129TIP3    H218345   6.626   4.227   4.527
 6130TIP3   OH218346   0.589   0.142   1.498
 6130TIP3    H118347   0.503   0.183   1.492
 6130TIP3    H218348   0.591   0.077   1.428
 6131TIP3   OH218349   7.263   0.460   6.143
 6131TIP3    H118350   7.203   0.392   6.113
 6131TIP3    H218351   7.349   0.418   6.143
 6132TIP3   OH218352   0.251   2.874   3.199
 6132TIP3    H118353   0.251   2.779   3.213
 6132TIP3    H218354   0.344   2.898   3.199
 6133TIP3   OH218355   3.801   1.079   1.334
 6133TIP3    H118356   3.762   1.078   1.247
 6133TIP3    H218357   3.727   1.075   1.394
 6134TIP3   OH218358   6.720   3.268   4.605
 6134TIP3    H118359   6.650   3.281   4.669
 6134TIP3    H218360   6.689   3.196   4.550
 6135TIP3   OH218361   7.447   6.862   4.705
 6135TIP3    H118362   7.370   6.809   4.685
 6135TIP3    H218363   7.444   6.872   4.801
 6136TIP3   OH218364   5.914   3.856   0.146
 6136TIP3    H118365   5.838   3.862   0.088
 6136TIP3    H218366   5.905   3.931   0.205
 6137TIP3   OH218367   6.365   6.009   3.501
 6137TIP3    H118368   6.349   6.101   3.481
 6137TIP3    H218369   6.296   5.962   3.455
 6138TIP3   OH218370   7.882   5.203   3.564
 6138TIP3    H118371   7.813   5.146   3.598
 6138TIP3    H218372   7.844   5.244   3.487
 6139TIP3   OH218373   3.883   3.368   5.631
 6139TIP3    H118374   3.818   3.429   5.595
 6139TIP3    H218375   3.917   3.413   5.708
 6140TIP3   OH218376   7.321   4.389   1.902
 6140TIP3    H118377   7.382   4.444   1.853
 6140TIP3    H218378   7.238   4.396   1.855
 6141TIP3   OH218379   2.664   4.781  -0.007
 6141TIP3    H118380   2.643   4.745   0.079
 6141TIP3    H218381   2.746   4.829   0.006
 6142TIP3   OH218382   7.529   0.685   3.526
 6142TIP3    H118383   7.448   0.633   3.532
 6142TIP3    H218384   7.595   0.631   3.571
 6143TIP3   OH218385   6.293   6.332   5.530
 6143TIP3    H118386   6.241   6.360   5.454
 6143TIP3    H218387   6.319   6.413   5.572
 6144TIP3   OH218388   2.888   0.474   0.836
 6144TIP3    H118389   2.890   0.402   0.773
 6144TIP3    H218390   2.835   0.442   0.909
 6145TIP3   OH218391   2.008   7.089   4.908
 6145TIP3    H118392   2.082   7.150   4.901
 6145TIP3    H218393   1.931   7.145   4.914
 6146TIP3   OH218394   2.067   0.720   4.382
 6146TIP3    H118395   2.085   0.673   4.464
 6146TIP3    H218396   2.091   0.657   4.314
 6147TIP3   OH218397   6.355   7.471   3.982
 6147TIP3    H118398   6.285   7.532   3.961
 6147TIP3    H218399   6.313   7.402   4.033
 6148TIP3   OH218400   4.579   0.432   1.098
 6148TIP3    H118401   4.574   0.473   1.184
 6148TIP3    H218402   4.673   0.426   1.079
 6149TIP3   OH218403   5.556   2.050   2.773
 6149TIP3    H118404   5.553   2.015   2.863
 6149TIP3    H218405   5.469   2.030   2.738
 6150TIP3   OH218406   0.012   5.446   1.305
 6150TIP3    H118407  -0.043   5.438   1.383
 6150TIP3    H218408   0.033   5.355   1.282
 6151TIP3   OH218409   2.673   1.981   3.769
 6151TIP3    H118410   2.716   1.994   3.685
 6151TIP3    H218411   2.730   1.921   3.816
 6152TIP3   OH218412   0.631   6.398   2.571
 6152TIP3    H118413   0.725   6.409   2.557
 6152TIP3    H218414   0.591   6.434   2.492
 6153TIP3   OH218415   3.661   5.995   4.602
 6153TIP3    H118416   3.609   5.963   4.675
 6153TIP3    H218417   3.667   5.919   4.543
 6154TIP3   OH218418   4.495   1.103   1.617
 6154TIP3    H118419   4.478   1.089   1.710
 6154TIP3    H218420   4.409   1.118   1.579
 6155TIP3   OH218421   7.920   6.284   6.407
 6155TIP3    H118422   7.902   6.378   6.400
 6155TIP3    H218423   7.974   6.275   6.486
 6156TIP3   OH218424   8.213   5.581   0.648
 6156TIP3    H118425   8.133   5.528   0.646
 6156TIP3    H218426   8.228   5.597   0.741
 6157TIP3   OH218427   4.428   7.036   5.958
 6157TIP3    H118428   4.371   6.959   5.961
 6157TIP3    H218429   4.377   7.102   5.912
 6158TIP3   OH218430   7.307   7.607   5.023
 6158TIP3    H118431   7.257   7.551   4.964
 6158TIP3    H218432   7.356   7.546   5.079
 6159TIP3   OH218433   2.890   7.198   6.005
 6159TIP3    H118434   2.937   7.137   5.948
 6159TIP3    H218435   2.955   7.265   6.026
 6160TIP3   OH218436   2.001   3.469   2.443
 6160TIP3    H118437   1.959   3.411   2.507
 6160TIP3    H218438   1.928   3.517   2.403
 6161TIP3   OH218439   6.177   1.013   5.151
 6161TIP3    H118440   6.216   0.927   5.163
 6161TIP3    H218441   6.161   1.019   5.057
 6162TIP3   OH218442   4.766   4.948   0.136
 6162TIP3    H118443   4.701   4.965   0.204
 6162TIP3    H218444   4.829   4.889   0.177
 6163TIP3   OH218445   5.981   2.452   3.725
 6163TIP3    H118446   5.939   2.394   3.661
 6163TIP3    H218447   5.908   2.498   3.768
 6164TIP3   OH218448   6.489   6.301   1.478
 6164TIP3    H118449   6.473   6.208   1.463
 6164TIP3    H218450   6.548   6.327   1.406
 6165TIP3   OH218451   4.713   0.178   5.660
 6165TIP3    H118452   4.728   0.139   5.573
 6165TIP3    H218453   4.668   0.260   5.641
 6166TIP3   OH218454   1.758   5.388   3.598
 6166TIP3    H118455   1.782   5.321   3.662
 6166TIP3    H218456   1.686   5.350   3.548
 6167TIP3   OH218457   0.515   3.020   6.545
 6167TIP3    H118458   0.504   3.035   6.638
 6167TIP3    H218459   0.524   2.925   6.537
 6168TIP3   OH218460   6.766   4.929   1.623
 6168TIP3    H118461   6.776   5.014   1.579
 6168TIP3    H218462   6.701   4.882   1.571
 6169TIP3   OH218463   2.254   1.865   1.421
 6169TIP3    H118464   2.316   1.919   1.469
 6169TIP3    H218465   2.190   1.837   1.487
 6170TIP3   OH218466   6.578   4.876   0.872
 6170TIP3    H118467   6.513   4.811   0.846
 6170TIP3    H218468   6.645   4.826   0.919
 6171TIP3   OH218469   1.086   5.658   5.087
 6171TIP3    H118470   0.993   5.680   5.090
 6171TIP3    H218471   1.105   5.648   4.993
 6172TIP3   OH218472   3.958   3.662   6.148
 6172TIP3    H118473   3.895   3.671   6.077
 6172TIP3    H218474   3.919   3.710   6.221
 6173TIP3   OH218475   2.023   3.804   6.711
 6173TIP3    H118476   2.021   3.853   6.629
 6173TIP3    H218477   2.058   3.718   6.687
 6174TIP3   OH218478   2.569   2.392   0.544
 6174TIP3    H118479   2.630   2.320   0.529
 6174TIP3    H218480   2.503   2.356   0.602
 6175TIP3   OH218481   5.552   1.670   2.500
 6175TIP3    H118482   5.606   1.681   2.579
 6175TIP3    H218483   5.473   1.627   2.531
 6176TIP3   OH218484   8.268   5.952   3.651
 6176TIP3    H118485   8.303   6.041   3.660
 6176TIP3    H218486   8.265   5.918   3.740
 6177TIP3   OH218487   3.408   6.210   2.817
 6177TIP3    H118488   3.489   6.248   2.851
 6177TIP3    H218489   3.401   6.243   2.727
 6178TIP3   OH218490   3.559   1.285   4.422
 6178TIP3    H118491   3.597   1.250   4.342
 6178TIP3    H218492   3.541   1.377   4.403
 6179TIP3   OH218493   2.139   0.377   6.277
 6179TIP3    H118494   2.125   0.368   6.182
 6179TIP3    H218495   2.051   0.383   6.313
 6180TIP3   OH218496   1.966   3.868   3.414
 6180TIP3    H118497   1.911   3.903   3.485
 6180TIP3    H218498   1.931   3.910   3.335
 6181TIP3   OH218499   0.295   6.666   2.535
 6181TIP3    H118500   0.217   6.704   2.573
 6181TIP3    H218501   0.366   6.692   2.594
 6182TIP3   OH218502   0.884   3.041   2.345
 6182TIP3    H118503   0.976   3.061   2.361
 6182TIP3    H218504   0.836   3.111   2.390
 6183TIP3   OH218505   6.215   3.701   2.391
 6183TIP3    H118506   6.155   3.745   2.331
 6183TIP3    H218507   6.194   3.608   2.381
 6184TIP3   OH218508   4.914   0.281   3.424
 6184TIP3    H118509   4.973   0.337   3.474
 6184TIP3    H218510   4.939   0.192   3.448
 6185TIP3   OH218511   0.013   6.986   0.837
 6185TIP3    H118512   0.050   6.992   0.925
 6185TIP3    H218513   0.081   7.023   0.780
 6186TIP3   OH218514   4.033   1.868   4.271
 6186TIP3    H118515   3.992   1.795   4.317
 6186TIP3    H218516   4.052   1.834   4.184
 6187TIP3   OH218517   1.157   1.929   3.667
 6187TIP3    H118518   1.099   2.002   3.646
 6187TIP3    H218519   1.108   1.851   3.640
 6188TIP3   OH218520   1.845   1.775   0.533
 6188TIP3    H118521   1.778   1.719   0.574
 6188TIP3    H218522   1.824   1.863   0.564
 6189TIP3   OH218523   5.380   4.556   2.965
 6189TIP3    H118524   5.347   4.513   3.045
 6189TIP3    H218525   5.352   4.498   2.894
 6190TIP3   OH218526   4.095   1.312   2.244
 6190TIP3    H118527   4.113   1.219   2.229
 6190TIP3    H218528   4.179   1.348   2.272
 6191TIP3   OH218529   0.111   1.069   2.572
 6191TIP3    H118530   0.024   1.109   2.563
 6191TIP3    H218531   0.172   1.136   2.541
 6192TIP3   OH218532   1.506   2.988   2.022
 6192TIP3    H118533   1.455   3.023   1.949
 6192TIP3    H218534   1.473   2.899   2.034
 6193TIP3   OH218535   6.311   7.326   4.976
 6193TIP3    H118536   6.292   7.246   5.025
 6193TIP3    H218537   6.236   7.383   4.996
 6194TIP3   OH218538   5.317   3.361   1.793
 6194TIP3    H118539   5.313   3.450   1.828
 6194TIP3    H218540   5.381   3.366   1.722
 6195TIP3   OH218541   4.317   1.662   6.451
 6195TIP3    H118542   4.301   1.688   6.361
 6195TIP3    H218543   4.297   1.741   6.503
 6196TIP3   OH218544   5.010   1.270   3.660
 6196TIP3    H118545   4.934   1.278   3.717
 6196TIP3    H218546   5.083   1.252   3.719
 6197TIP3   OH218547   8.193   1.762   0.123
 6197TIP3    H118548   8.237   1.846   0.109
 6197TIP3    H218549   8.105   1.774   0.088
 6198TIP3   OH218550   8.021   3.632   5.689
 6198TIP3    H118551   8.101   3.637   5.742
 6198TIP3    H218552   8.017   3.716   5.644
 6199TIP3   OH218553   4.106   4.400   4.466
 6199TIP3    H118554   4.123   4.482   4.511
 6199TIP3    H218555   4.074   4.341   4.534
 6200TIP3   OH218556   2.685   2.312   5.166
 6200TIP3    H118557   2.715   2.254   5.236
 6200TIP3    H218558   2.700   2.400   5.199
 6201TIP3   OH218559   4.302   0.044   6.105
 6201TIP3    H118560   4.317  -0.038   6.059
 6201TIP3    H218561   4.339   0.030   6.192
 6202TIP3   OH218562   6.560   5.173   6.095
 6202TIP3    H118563   6.595   5.094   6.135
 6202TIP3    H218564   6.468   5.175   6.123
 6203TIP3   OH218565   3.998   0.631   1.690
 6203TIP3    H118566   3.941   0.681   1.748
 6203TIP3    H218567   4.016   0.691   1.617
 6204TIP3   OH218568   3.364   3.272   4.721
 6204TIP3    H118569   3.384   3.195   4.775
 6204TIP3    H218570   3.304   3.239   4.655
 6205TIP3   OH218571   8.195   5.307   3.722
 6205TIP3    H118572   8.205   5.402   3.730
 6205TIP3    H218573   8.153   5.294   3.637
 6206TIP3   OH218574   0.767   2.052   4.610
 6206TIP3    H118575   0.825   2.089   4.543
 6206TIP3    H218576   0.820   1.985   4.653
 6207TIP3   OH218577   7.743   3.349   6.324
 6207TIP3    H118578   7.665   3.311   6.282
 6207TIP3    H218579   7.807   3.355   6.254
 6208TIP3   OH218580   0.615   1.633   5.956
 6208TIP3    H118581   0.708   1.644   5.937
 6208TIP3    H218582   0.603   1.671   6.043
 6209TIP3   OH218583   2.220   5.914   6.597
 6209TIP3    H118584   2.292   5.942   6.653
 6209TIP3    H218585   2.206   5.987   6.537
 6210TIP3   OH218586   3.513   2.007   6.215
 6210TIP3    H118587   3.593   2.054   6.240
 6210TIP3    H218588   3.455   2.016   6.290
 6211TIP3   OH218589   7.619   4.663   3.038
 6211TIP3    H118590   7.655   4.676   2.950
 6211TIP3    H218591   7.681   4.605   3.081
 6212TIP3   OH218592   8.062   4.643   3.240
 6212TIP3    H118593   7.966   4.635   3.242
 6212TIP3    H218594   8.077   4.726   3.195
 6213TIP3   OH218595   5.216   6.475   6.681
 6213TIP3    H118596   5.166   6.466   6.600
 6213TIP3    H218597   5.241   6.385   6.703
 6214TIP3   OH218598   5.326   5.300   2.873
 6214TIP3    H118599   5.269   5.241   2.824
 6214TIP3    H218600   5.303   5.285   2.965
 6215TIP3   OH218601   3.316   6.279   4.499
 6215TIP3    H118602   3.375   6.325   4.559
 6215TIP3    H218603   3.316   6.333   4.420
 6216TIP3   OH218604   3.094   1.668   1.528
 6216TIP3    H118605   3.139   1.721   1.594
 6216TIP3    H218606   3.157   1.659   1.457
 6217TIP3   OH218607   0.527   5.210   5.268
 6217TIP3    H118608   0.457   5.146   5.282
 6217TIP3    H218609   0.605   5.157   5.249
 6218TIP3   OH218610   5.187   4.814   4.993
 6218TIP3    H118611   5.193   4.807   5.088
 6218TIP3    H218612   5.246   4.886   4.970
 6219TIP3   OH218613   5.675   1.935  -0.027
 6219TIP3    H118614   5.607   1.878   0.008
 6219TIP3    H218615   5.740   1.941   0.043
 6220TIP3   OH218616   7.975   1.298   2.460
 6220TIP3    H118617   8.025   1.365   2.413
 6220TIP3    H218618   8.029   1.220   2.456
 6221TIP3   OH218619   6.356   4.636   3.080
 6221TIP3    H118620   6.396   4.684   3.007
 6221TIP3    H218621   6.382   4.686   3.158
 6222TIP3   OH218622   1.809   2.539   4.150
 6222TIP3    H118623   1.758   2.492   4.216
 6222TIP3    H218624   1.873   2.589   4.201
 6223TIP3   OH218625   1.349   2.481   1.212
 6223TIP3    H118626   1.417   2.483   1.280
 6223TIP3    H218627   1.350   2.391   1.180
 6224TIP3   OH218628   2.865   2.175   2.904
 6224TIP3    H118629   2.814   2.217   2.835
 6224TIP3    H218630   2.851   2.081   2.891
 6225TIP3   OH218631   2.421   2.560   2.164
 6225TIP3    H118632   2.348   2.611   2.199
 6225TIP3    H218633   2.478   2.625   2.123
 6226TIP3   OH218634   0.504   0.542   1.472
 6226TIP3    H118635   0.592   0.528   1.506
 6226TIP3    H218636   0.509   0.512   1.381
 6227TIP3   OH218637   0.843   3.403   0.245
 6227TIP3    H118638   0.868   3.490   0.214
 6227TIP3    H218639   0.747   3.403   0.239
 6228TIP3   OH218640   4.365   7.731   3.957
 6228TIP3    H118641   4.379   7.815   4.001
 6228TIP3    H218642   4.289   7.693   4.000
 6229TIP3   OH218643   5.148   3.196   6.761
 6229TIP3    H118644   5.076   3.180   6.821
 6229TIP3    H218645   5.152   3.118   6.706
 6230TIP3   OH218646   6.659   6.423   4.715
 6230TIP3    H118647   6.604   6.353   4.678
 6230TIP3    H218648   6.745   6.383   4.724
 6231TIP3   OH218649   7.993   1.338   1.282
 6231TIP3    H118650   8.017   1.310   1.370
 6231TIP3    H218651   8.051   1.288   1.224
 6232TIP3   OH218652   0.056   4.683   6.271
 6232TIP3    H118653   0.032   4.665   6.180
 6232TIP3    H218654   0.038   4.776   6.282
 6233TIP3   OH218655   4.355   0.446   5.833
 6233TIP3    H118656   4.299   0.487   5.767
 6233TIP3    H218657   4.435   0.499   5.832
 6234TIP3   OH218658   6.327   2.164   3.485
 6234TIP3    H118659   6.294   2.196   3.568
 6234TIP3    H218660   6.252   2.120   3.444
 6235TIP3   OH218661   3.539   2.909   6.469
 6235TIP3    H118662   3.581   2.964   6.403
 6235TIP3    H218663   3.458   2.954   6.490
 6236TIP3   OH218664   2.517   3.532   0.374
 6236TIP3    H118665   2.542   3.611   0.420
 6236TIP3    H218666   2.440   3.500   0.421
 6237TIP3   OH218667   0.911   5.608   0.198
 6237TIP3    H118668   0.968   5.541   0.162
 6237TIP3    H218669   0.828   5.562   0.214
 6238TIP3   OH218670   3.912   4.485   3.423
 6238TIP3    H118671   3.829   4.506   3.466
 6238TIP3    H218672   3.888   4.457   3.335
 6239TIP3   OH218673   7.193   0.587   4.477
 6239TIP3    H118674   7.245   0.565   4.400
 6239TIP3    H218675   7.206   0.513   4.537
 6240TIP3   OH218676   6.716   7.502   4.641
 6240TIP3    H118677   6.663   7.465   4.711
 6240TIP3    H218678   6.660   7.569   4.602
 6241TIP3   OH218679   4.659   1.343   5.956
 6241TIP3    H118680   4.664   1.437   5.941
 6241TIP3    H218681   4.600   1.333   6.031
 6242TIP3   OH218682   4.966   1.716   5.595
 6242TIP3    H118683   4.874   1.720   5.571
 6242TIP3    H218684   5.005   1.793   5.552
 6243TIP3   OH218685   7.576   5.065   6.043
 6243TIP3    H118686   7.518   5.016   5.986
 6243TIP3    H218687   7.608   5.137   5.989
 6244TIP3   OH218688   2.077   0.187   3.595
 6244TIP3    H118689   2.074   0.181   3.499
 6244TIP3    H218690   2.078   0.281   3.613
 6245TIP3   OH218691   3.467   6.113   6.407
 6245TIP3    H118692   3.496   6.204   6.413
 6245TIP3    H218693   3.380   6.118   6.366
 6246TIP3   OH218694   4.962   0.971   4.208
 6246TIP3    H118695   4.875   0.932   4.212
 6246TIP3    H218696   5.013   0.923   4.273
 6247TIP3   OH218697   4.167   2.049   3.377
 6247TIP3    H118698   4.237   2.075   3.437
 6247TIP3    H218699   4.161   1.954   3.387
 6248TIP3   OH218700   4.230   2.846   0.966
 6248TIP3    H118701   4.263   2.777   0.909
 6248TIP3    H218702   4.191   2.910   0.905
 6249TIP3   OH218703   2.563   5.316   2.579
 6249TIP3    H118704   2.634   5.317   2.643
 6249TIP3    H218705   2.535   5.407   2.573
 6250TIP3   OH218706   8.245   2.697   3.917
 6250TIP3    H118707   8.154   2.680   3.891
 6250TIP3    H218708   8.237   2.755   3.993
 6251TIP3   OH218709   1.189   2.690   0.054
 6251TIP3    H118710   1.095   2.682   0.042
 6251TIP3    H218711   1.222   2.601   0.041
 6252TIP3   OH218712   6.172   0.051   6.736
 6252TIP3    H118713   6.208   0.126   6.784
 6252TIP3    H218714   6.157   0.084   6.648
 6253TIP3   OH218715   2.160   3.953   4.743
 6253TIP3    H118716   2.079   3.967   4.693
 6253TIP3    H218717   2.130   3.939   4.832
 6254TIP3   OH218718   7.061   1.053   3.340
 6254TIP3    H118719   7.007   1.002   3.400
 6254TIP3    H218720   7.150   1.018   3.353
 6255TIP3   OH218721   3.360   6.426   0.749
 6255TIP3    H118722   3.272   6.464   0.756
 6255TIP3    H218723   3.392   6.455   0.664
 6256TIP3   OH218724   2.559   2.300   2.887
 6256TIP3    H118725   2.520   2.381   2.854
 6256TIP3    H218726   2.533   2.233   2.823
 6257TIP3   OH218727   2.621   0.612   6.020
 6257TIP3    H118728   2.600   0.705   6.023
 6257TIP3    H218729   2.573   0.574   6.094
 6258TIP3   OH218730   1.249   4.893   5.760
 6258TIP3    H118731   1.172   4.921   5.809
 6258TIP3    H218732   1.217   4.883   5.670
 6259TIP3   OH218733   5.216   4.203   4.716
 6259TIP3    H118734   5.304   4.234   4.695
 6259TIP3    H218735   5.218   4.188   4.811
 6260TIP3   OH218736   2.654   6.673   4.160
 6260TIP3    H118737   2.707   6.617   4.216
 6260TIP3    H218738   2.702   6.756   4.157
 6261TIP3   OH218739   5.127   3.333   3.873
 6261TIP3    H118740   5.171   3.345   3.789
 6261TIP3    H218741   5.071   3.257   3.859
 6262TIP3   OH218742   0.193   0.150   0.475
 6262TIP3    H118743   0.119   0.118   0.423
 6262TIP3    H218744   0.196   0.091   0.551
 6263TIP3   OH218745   7.632   0.018   4.871
 6263TIP3    H118746   7.686   0.017   4.792
 6263TIP3    H218747   7.694   0.039   4.942
 6264TIP3   OH218748   7.989   5.942   4.424
 6264TIP3    H118749   7.929   5.984   4.486
 6264TIP3    H218750   8.074   5.981   4.443
 6265TIP3   OH218751   6.799   2.403   2.517
 6265TIP3    H118752   6.840   2.408   2.431
 6265TIP3    H218753   6.807   2.492   2.552
 6266TIP3   OH218754   5.795   3.021   3.033
 6266TIP3    H118755   5.717   3.040   2.980
 6266TIP3    H218756   5.763   3.022   3.123
 6267TIP3   OH218757   6.553   1.077   0.335
 6267TIP3    H118758   6.542   1.046   0.245
 6267TIP3    H218759   6.542   0.998   0.389
 6268TIP3   OH218760   2.491   4.717   5.710
 6268TIP3    H118761   2.426   4.713   5.780
 6268TIP3    H218762   2.525   4.807   5.714
 6269TIP3   OH218763   2.670   1.696   1.330
 6269TIP3    H118764   2.653   1.759   1.400
 6269TIP3    H218765   2.675   1.749   1.251
 6270TIP3   OH218766   0.108   7.609   1.024
 6270TIP3    H118767   0.151   7.545   1.081
 6270TIP3    H218768   0.177   7.668   0.996
 6271TIP3   OH218769   4.879   0.705   6.532
 6271TIP3    H118770   4.786   0.720   6.515
 6271TIP3    H218771   4.923   0.738   6.453
 6272TIP3   OH218772   5.725   0.190   5.681
 6272TIP3    H118773   5.804   0.228   5.718
 6272TIP3    H218774   5.668   0.174   5.756
 6273TIP3   OH218775   5.901   7.177   6.523
 6273TIP3    H118776   5.809   7.154   6.533
 6273TIP3    H218777   5.929   7.131   6.443
 6274TIP3   OH218778   7.525   7.230   5.334
 6274TIP3    H118779   7.464   7.178   5.386
 6274TIP3    H218780   7.521   7.192   5.247
 6275TIP3   OH218781   0.805   5.708   2.858
 6275TIP3    H118782   0.785   5.717   2.765
 6275TIP3    H218783   0.756   5.778   2.900
 6276TIP3   OH218784   3.327   2.954   1.505
 6276TIP3    H118785   3.351   2.922   1.592
 6276TIP3    H218786   3.391   2.914   1.446
 6277TIP3   OH218787   3.779   3.862   3.180
 6277TIP3    H118788   3.835   3.836   3.107
 6277TIP3    H218789   3.772   3.957   3.173
 6278TIP3   OH218790   3.607   3.817   2.789
 6278TIP3    H118791   3.564   3.746   2.837
 6278TIP3    H218792   3.597   3.893   2.846
 6279TIP3   OH218793   4.136   6.878   1.272
 6279TIP3    H118794   4.087   6.843   1.347
 6279TIP3    H218795   4.085   6.853   1.196
 6280TIP3   OH218796   5.842   5.391   1.605
 6280TIP3    H118797   5.885   5.476   1.618
 6280TIP3    H218798   5.911   5.326   1.619
 6281TIP3   OH218799   0.762   2.558   6.784
 6281TIP3    H118800   0.784   2.489   6.722
 6281TIP3    H218801   0.667   2.568   6.776
 6282TIP3   OH218802   7.894   4.104   6.534
 6282TIP3    H118803   7.966   4.166   6.530
 6282TIP3    H218804   7.845   4.118   6.453
 6283TIP3   OH218805   1.340   1.310   2.046
 6283TIP3    H118806   1.257   1.310   2.093
 6283TIP3    H218807   1.361   1.218   2.034
 6284TIP3   OH218808   0.386   1.109   1.634
 6284TIP3    H118809   0.450   1.065   1.689
 6284TIP3    H218810   0.326   1.151   1.695
 6285TIP3   OH218811   3.885   4.542   4.718
 6285TIP3    H118812   3.922   4.571   4.801
 6285TIP3    H218813   3.831   4.467   4.741
 6286TIP3   OH218814   7.145   2.354   1.215
 6286TIP3    H118815   7.089   2.353   1.138
 6286TIP3    H218816   7.159   2.448   1.233
 6287TIP3   OH218817   7.661   6.563   6.087
 6287TIP3    H118818   7.619   6.524   6.010
 6287TIP3    H218819   7.704   6.642   6.053
 6288TIP3   OH218820   5.896   6.376   1.594
 6288TIP3    H118821   5.821   6.431   1.617
 6288TIP3    H218822   5.897   6.308   1.661
 6289TIP3   OH218823   7.841   2.361   6.618
 6289TIP3    H118824   7.868   2.449   6.592
 6289TIP3    H218825   7.798   2.325   6.540
 6290TIP3   OH218826   7.120   1.082   2.633
 6290TIP3    H118827   7.096   0.998   2.672
 6290TIP3    H218828   7.059   1.145   2.671
 6291TIP3   OH218829   4.484   7.583   3.457
 6291TIP3    H118830   4.403   7.587   3.508
 6291TIP3    H218831   4.551   7.553   3.519
 6292TIP3   OH218832   2.118   0.613   4.645
 6292TIP3    H118833   2.087   0.683   4.702
 6292TIP3    H218834   2.062   0.539   4.665
 6293TIP3   OH218835   3.514   4.320   0.343
 6293TIP3    H118836   3.531   4.339   0.435
 6293TIP3    H218837   3.421   4.341   0.332
 6294TIP3   OH218838   5.586   2.126   0.485
 6294TIP3    H118839   5.572   2.117   0.579
 6294TIP3    H218840   5.503   2.160   0.452
 6295TIP3   OH218841   0.949   6.495   3.855
 6295TIP3    H118842   1.013   6.541   3.801
 6295TIP3    H218843   0.954   6.404   3.826
 6296TIP3   OH218844   4.233   7.638   4.213
 6296TIP3    H118845   4.164   7.704   4.220
 6296TIP3    H218846   4.187   7.558   4.186
 6297TIP3   OH218847   7.612   4.122   6.205
 6297TIP3    H118848   7.536   4.157   6.250
 6297TIP3    H218849   7.684   4.180   6.230
 6298TIP3   OH218850   2.041   5.363   0.453
 6298TIP3    H118851   1.981   5.432   0.481
 6298TIP3    H218852   2.128   5.396   0.477
 6299TIP3   OH218853   5.712   1.793   0.901
 6299TIP3    H118854   5.677   1.730   0.838
 6299TIP3    H218855   5.802   1.809   0.872
 6300TIP3   OH218856   4.533   0.627   5.384
 6300TIP3    H118857   4.490   0.577   5.314
 6300TIP3    H218858   4.610   0.666   5.342
 6301TIP3   OH218859   3.010   0.342   0.112
 6301TIP3    H118860   2.959   0.261   0.106
 6301TIP3    H218861   3.063   0.344   0.033
 6302TIP3   OH218862   6.261   1.451   4.914
 6302TIP3    H118863   6.324   1.432   4.984
 6302TIP3    H218864   6.176   1.429   4.952
 6303TIP3   OH218865   0.716   4.739   4.247
 6303TIP3    H118866   0.704   4.825   4.208
 6303TIP3    H218867   0.731   4.680   4.173
 6304TIP3   OH218868   1.885   3.342   3.231
 6304TIP3    H118869   1.924   3.427   3.253
 6304TIP3    H218870   1.817   3.363   3.167
 6305TIP3   OH218871   5.415   0.539   1.894
 6305TIP3    H118872   5.467   0.519   1.816
 6305TIP3    H218873   5.462   0.609   1.937
 6306TIP3   OH218874   7.298   0.769   5.809
 6306TIP3    H118875   7.293   0.674   5.796
 6306TIP3    H218876   7.244   0.805   5.739
 6307TIP3   OH218877   5.363   6.350   5.231
 6307TIP3    H118878   5.368   6.329   5.138
 6307TIP3    H218879   5.283   6.307   5.261
 6308TIP3   OH218880   5.280   0.838   1.311
 6308TIP3    H118881   5.206   0.779   1.300
 6308TIP3    H218882   5.276   0.896   1.235
 6309TIP3   OH218883   2.330   0.592   6.343
 6309TIP3    H118884   2.255   0.535   6.327
 6309TIP3    H218885   2.292   0.678   6.357
 6310TIP3   OH218886   7.094   5.234   1.061
 6310TIP3    H118887   7.037   5.284   1.119
 6310TIP3    H218888   7.099   5.287   0.981
 6311TIP3   OH218889   3.364   3.714   4.466
 6311TIP3    H118890   3.322   3.707   4.380
 6311TIP3    H218891   3.407   3.629   4.478
 6312TIP3   OH218892   2.726   4.274   6.083
 6312TIP3    H118893   2.647   4.221   6.096
 6312TIP3    H218894   2.783   4.249   6.156
 6313TIP3   OH218895   5.719   7.398   4.931
 6313TIP3    H118896   5.697   7.491   4.932
 6313TIP3    H218897   5.711   7.372   4.839
 6314TIP3   OH218898   5.785   3.187   5.724
 6314TIP3    H118899   5.703   3.149   5.694
 6314TIP3    H218900   5.762   3.232   5.806
 6315TIP3   OH218901   3.781   4.304   2.202
 6315TIP3    H118902   3.750   4.392   2.180
 6315TIP3    H218903   3.722   4.274   2.271
 6316TIP3   OH218904   0.761   3.000   4.187
 6316TIP3    H118905   0.697   3.070   4.201
 6316TIP3    H218906   0.788   3.010   4.096
 6317TIP3   OH218907   5.370   4.605   5.230
 6317TIP3    H118908   5.458   4.599   5.267
 6317TIP3    H218909   5.316   4.637   5.302
 6318TIP3   OH218910   1.267   2.799   6.487
 6318TIP3    H118911   1.224   2.759   6.563
 6318TIP3    H218912   1.354   2.822   6.520
 6319TIP3   OH218913   2.901   4.008   5.024
 6319TIP3    H118914   2.892   4.002   5.119
 6319TIP3    H218915   2.948   3.929   4.999
 6320TIP3   OH218916   7.435   3.955   0.364
 6320TIP3    H118917   7.447   3.943   0.270
 6320TIP3    H218918   7.478   4.038   0.383
 6321TIP3   OH218919   2.798   1.793   1.909
 6321TIP3    H118920   2.808   1.730   1.837
 6321TIP3    H218921   2.748   1.747   1.975
 6322TIP3   OH218922   6.565   5.290   0.034
 6322TIP3    H118923   6.618   5.248   0.102
 6322TIP3    H218924   6.603   5.260  -0.048
 6323TIP3   OH218925   4.346   0.198   1.430
 6323TIP3    H118926   4.269   0.141   1.437
 6323TIP3    H218927   4.398   0.178   1.508
 6324TIP3   OH218928   2.544   2.162   4.853
 6324TIP3    H118929   2.462   2.133   4.813
 6324TIP3    H218930   2.563   2.246   4.811
 6325TIP3   OH218931   8.162   0.526   6.202
 6325TIP3    H118932   8.200   0.613   6.210
 6325TIP3    H218933   8.188   0.496   6.114
 6326TIP3   OH218934   5.643   3.132   5.149
 6326TIP3    H118935   5.643   3.119   5.244
 6326TIP3    H218936   5.596   3.214   5.136
 6327TIP3   OH218937   3.501   1.873   1.189
 6327TIP3    H118938   3.410   1.900   1.203
 6327TIP3    H218939   3.508   1.788   1.233
 6328TIP3   OH218940   7.626   3.047   0.478
 6328TIP3    H118941   7.589   3.080   0.396
 6328TIP3    H218942   7.661   2.961   0.455
 6329TIP3   OH218943   2.369   6.883   1.547
 6329TIP3    H118944   2.341   6.916   1.461
 6329TIP3    H218945   2.406   6.797   1.528
 6330TIP3   OH218946   1.725   2.461   4.395
 6330TIP3    H118947   1.725   2.455   4.491
 6330TIP3    H218948   1.698   2.374   4.365
 6331TIP3   OH218949   3.551   0.333   4.578
 6331TIP3    H118950   3.588   0.391   4.512
 6331TIP3    H218951   3.625   0.310   4.635
 6332TIP3   OH218952   3.380   3.129   1.939
 6332TIP3    H118953   3.337   3.212   1.921
 6332TIP3    H218954   3.449   3.123   1.874
 6333TIP3   OH218955   6.019   5.517   4.198
 6333TIP3    H118956   6.052   5.461   4.127
 6333TIP3    H218957   6.067   5.599   4.189
 6334TIP3   OH218958   1.183   1.600   2.397
 6334TIP3    H118959   1.126   1.641   2.463
 6334TIP3    H218960   1.272   1.620   2.426
 6335TIP3   OH218961   1.327   2.566   0.583
 6335TIP3    H118962   1.352   2.636   0.644
 6335TIP3    H218963   1.234   2.551   0.601
 6336TIP3   OH218964   1.493   1.648   2.803
 6336TIP3    H118965   1.518   1.581   2.867
 6336TIP3    H218966   1.399   1.659   2.815
 6337TIP3   OH218967   2.859   7.047   2.319
 6337TIP3    H118968   2.948   7.026   2.345
 6337TIP3    H218969   2.806   7.033   2.398
 6338TIP3   OH218970   3.294   3.020   0.539
 6338TIP3    H118971   3.241   2.972   0.475
 6338TIP3    H218972   3.258   3.108   0.540
 6339TIP3   OH218973   0.774   3.786   3.807
 6339TIP3    H118974   0.850   3.729   3.823
 6339TIP3    H218975   0.796   3.868   3.851
 6340TIP3   OH218976   1.957   0.379   0.979
 6340TIP3    H118977   1.889   0.319   1.011
 6340TIP3    H218978   2.008   0.327   0.918
 6341TIP3   OH218979   3.552   4.350   2.761
 6341TIP3    H118980   3.521   4.262   2.738
 6341TIP3    H218981   3.533   4.404   2.685
 6342TIP3   OH218982   2.213   5.136   1.139
 6342TIP3    H118983   2.242   5.182   1.061
 6342TIP3    H218984   2.234   5.044   1.122
 6343TIP3   OH218985   3.537   2.448   1.921
 6343TIP3    H118986   3.564   2.390   1.850
 6343TIP3    H218987   3.453   2.483   1.893
 6344TIP3   OH218988   5.282   3.218   6.449
 6344TIP3    H118989   5.324   3.248   6.530
 6344TIP3    H218990   5.189   3.214   6.471
 6345TIP3   OH218991   5.726   7.227   5.501
 6345TIP3    H118992   5.655   7.163   5.500
 6345TIP3    H218993   5.805   7.175   5.482
 6346TIP3   OH218994   5.268   3.652   3.786
 6346TIP3    H118995   5.238   3.563   3.763
 6346TIP3    H218996   5.196   3.688   3.838
 6347TIP3   OH218997   1.611   2.029   4.811
 6347TIP3    H118998   1.663   2.107   4.831
 6347TIP3    H218999   1.676   1.965   4.779
 6348TIP3   OH219000   0.399   1.041   0.708
 6348TIP3    H119001   0.378   1.014   0.798
 6348TIP3    H219002   0.476   0.990   0.686
 6349TIP3   OH219003   0.883   2.427   2.757
 6349TIP3    H119004   0.918   2.483   2.688
 6349TIP3    H219005   0.854   2.348   2.712
 6350TIP3   OH219006   0.684   4.276   5.727
 6350TIP3    H119007   0.659   4.197   5.774
 6350TIP3    H219008   0.774   4.259   5.697
 6351TIP3   OH219009   1.355   6.967   3.832
 6351TIP3    H119010   1.303   7.039   3.866
 6351TIP3    H219011   1.445   7.000   3.832
 6352TIP3   OH219012   0.168   2.488   4.728
 6352TIP3    H119013   0.140   2.489   4.636
 6352TIP3    H219014   0.264   2.489   4.724
 6353TIP3   OH219015   3.832   7.743   5.896
 6353TIP3    H119016   3.822   7.722   5.989
 6353TIP3    H219017   3.745   7.732   5.859
 6354TIP3   OH219018   6.751   3.727   5.479
 6354TIP3    H119019   6.722   3.647   5.437
 6354TIP3    H219020   6.672   3.779   5.491
 6355TIP3   OH219021   7.641   4.466   6.433
 6355TIP3    H119022   7.692   4.427   6.504
 6355TIP3    H219023   7.706   4.508   6.378
 6356TIP3   OH219024   4.868   4.368   6.502
 6356TIP3    H119025   4.811   4.390   6.428
 6356TIP3    H219026   4.955   4.359   6.463
 6357TIP3   OH219027   2.343   4.601   1.169
 6357TIP3    H119028   2.432   4.575   1.192
 6357TIP3    H219029   2.288   4.562   1.238
 6358TIP3   OH219030   2.117   0.649   3.933
 6358TIP3    H119031   2.202   0.629   3.974
 6358TIP3    H219032   2.136   0.719   3.871
 6359TIP3   OH219033   2.721   7.719   5.082
 6359TIP3    H119034   2.814   7.741   5.074
 6359TIP3    H219035   2.681   7.754   5.002
 6360TIP3   OH219036   4.395   4.241   0.515
 6360TIP3    H119037   4.411   4.159   0.560
 6360TIP3    H219038   4.438   4.231   0.430
 6361TIP3   OH219039   2.918   2.007   5.665
 6361TIP3    H119040   2.872   2.079   5.706
 6361TIP3    H219041   2.986   1.983   5.728
 6362TIP3   OH219042   2.506   2.105   5.348
 6362TIP3    H119043   2.601   2.104   5.362
 6362TIP3    H219044   2.484   2.013   5.332
 6363TIP3   OH219045   2.093   5.360   6.644
 6363TIP3    H119046   2.095   5.407   6.561
 6363TIP3    H219047   2.164   5.398   6.696
 6364TIP3   OH219048   3.669   0.922   6.200
 6364TIP3    H119049   3.708   0.872   6.272
 6364TIP3    H219050   3.621   0.857   6.149
 6365TIP3   OH219051   7.804   3.318   1.899
 6365TIP3    H119052   7.768   3.360   1.977
 6365TIP3    H219053   7.834   3.232   1.929
 6366TIP3   OH219054   7.989   1.338   5.136
 6366TIP3    H119055   7.947   1.262   5.175
 6366TIP3    H219056   8.082   1.315   5.132
 6367TIP3   OH219057   5.434   4.560   3.342
 6367TIP3    H119058   5.430   4.477   3.296
 6367TIP3    H219059   5.343   4.586   3.354
 6368TIP3   OH219060   5.743   4.241   3.755
 6368TIP3    H119061   5.668   4.230   3.696
 6368TIP3    H219062   5.804   4.296   3.705
 6369TIP3   OH219063   5.854   6.708   2.577
 6369TIP3    H119064   5.870   6.800   2.597
 6369TIP3    H219065   5.874   6.662   2.659
 6370TIP3   OH219066   2.063   5.601   5.906
 6370TIP3    H119067   2.048   5.572   5.816
 6370TIP3    H219068   1.995   5.667   5.921
 6371TIP3   OH219069   0.402   5.506   6.144
 6371TIP3    H119070   0.451   5.554   6.077
 6371TIP3    H219071   0.327   5.563   6.164
 6372TIP3   OH219072   2.196   0.803   2.201
 6372TIP3    H119073   2.196   0.716   2.241
 6372TIP3    H219074   2.280   0.840   2.225
 6373TIP3   OH219075   6.030   0.681   4.471
 6373TIP3    H119076   6.112   0.644   4.439
 6373TIP3    H219077   6.040   0.684   4.566
 6374TIP3   OH219078   4.566   0.387   3.971
 6374TIP3    H119079   4.544   0.345   3.888
 6374TIP3    H219080   4.622   0.461   3.947
 6375TIP3   OH219081   3.524   4.395   4.155
 6375TIP3    H119082   3.569   4.382   4.239
 6375TIP3    H219083   3.523   4.308   4.114
 6376TIP3   OH219084   5.731   7.741   4.351
 6376TIP3    H119085   5.796   7.673   4.370
 6376TIP3    H219086   5.689   7.712   4.270
 6377TIP3   OH219087   2.953   6.897   4.656
 6377TIP3    H119088   2.959   6.981   4.703
 6377TIP3    H219089   2.954   6.922   4.563
 6378TIP3   OH219090   5.289   6.904   6.652
 6378TIP3    H119091   5.204   6.942   6.628
 6378TIP3    H219092   5.345   6.980   6.666
 6379TIP3   OH219093   5.471   1.089   1.716
 6379TIP3    H119094   5.438   1.178   1.701
 6379TIP3    H219095   5.486   1.084   1.810
 6380TIP3   OH219096   4.423   1.502   2.596
 6380TIP3    H119097   4.450   1.411   2.578
 6380TIP3    H219098   4.450   1.517   2.686
 6381TIP3   OH219099   5.914   5.569   0.681
 6381TIP3    H119100   5.927   5.605   0.593
 6381TIP3    H219101   5.970   5.622   0.737
 6382TIP3   OH219102   0.458   1.650   5.061
 6382TIP3    H119103   0.458   1.723   5.000
 6382TIP3    H219104   0.490   1.576   5.010
 6383TIP3   OH219105   1.180   3.499   4.103
 6383TIP3    H119106   1.098   3.455   4.128
 6383TIP3    H219107   1.196   3.469   4.013
 6384TIP3   OH219108   6.500   6.026   5.284
 6384TIP3    H119109   6.546   6.054   5.206
 6384TIP3    H219110   6.429   6.090   5.294
 6385TIP3   OH219111   3.523   6.568   6.592
 6385TIP3    H119112   3.549   6.586   6.682
 6385TIP3    H219113   3.434   6.604   6.585
 6386TIP3   OH219114   8.179   7.601   3.379
 6386TIP3    H119115   8.145   7.671   3.322
 6386TIP3    H219116   8.102   7.571   3.428
 6387TIP3   OH219117   6.892   6.466   5.307
 6387TIP3    H119118   6.916   6.552   5.273
 6387TIP3    H219119   6.800   6.474   5.331
 6388TIP3   OH219120   6.283   1.874   2.334
 6388TIP3    H119121   6.365   1.916   2.362
 6388TIP3    H219122   6.271   1.802   2.395
 6389TIP3   OH219123   5.895   7.041   3.543
 6389TIP3    H119124   5.944   6.985   3.603
 6389TIP3    H219125   5.906   7.000   3.457
 6390TIP3   OH219126   7.844   3.262   3.448
 6390TIP3    H119127   7.926   3.295   3.411
 6390TIP3    H219128   7.783   3.335   3.441
 6391TIP3   OH219129   1.454   1.211   2.633
 6391TIP3    H119130   1.499   1.273   2.690
 6391TIP3    H219131   1.435   1.135   2.689
 6392TIP3   OH219132   3.803   7.374   0.483
 6392TIP3    H119133   3.878   7.368   0.423
 6392TIP3    H219134   3.774   7.284   0.494
 6393TIP3   OH219135   3.057   6.895   2.764
 6393TIP3    H119136   2.975   6.893   2.715
 6393TIP3    H219137   3.119   6.939   2.705
 6394TIP3   OH219138   7.373   1.593   2.203
 6394TIP3    H119139   7.419   1.667   2.166
 6394TIP3    H219140   7.311   1.566   2.135
 6395TIP3   OH219141   2.372   6.434   0.235
 6395TIP3    H119142   2.322   6.427   0.317
 6395TIP3    H219143   2.368   6.347   0.197
 6396TIP3   OH219144   7.755   0.302   3.697
 6396TIP3    H119145   7.755   0.247   3.619
 6396TIP3    H219146   7.820   0.262   3.755
 6397TIP3   OH219147   6.241   2.070   1.399
 6397TIP3    H119148   6.256   2.147   1.344
 6397TIP3    H219149   6.146   2.068   1.412
 6398TIP3   OH219150   5.245   2.173   3.635
 6398TIP3    H119151   5.208   2.121   3.707
 6398TIP3    H219152   5.185   2.247   3.627
 6399TIP3   OH219153   5.123   6.029   0.863
 6399TIP3    H119154   5.178   6.106   0.876
 6399TIP3    H219155   5.118   6.018   0.768
 6400TIP3   OH219156   2.971   0.804   5.028
 6400TIP3    H119157   2.918   0.784   5.105
 6400TIP3    H219158   2.940   0.890   4.998
 6401TIP3   OH219159   3.619   3.380   6.637
 6401TIP3    H119160   3.588   3.381   6.546
 6401TIP3    H219161   3.591   3.295   6.671
 6402TIP3   OH219162   5.023   3.119   4.531
 6402TIP3    H119163   5.036   3.124   4.626
 6402TIP3    H219164   5.109   3.097   4.496
 6403TIP3   OH219165   6.158   0.079   1.733
 6403TIP3    H119166   6.111   0.105   1.654
 6403TIP3    H219167   6.126   0.139   1.801
 6404TIP3   OH219168   4.930   6.197   4.720
 6404TIP3    H119169   5.004   6.255   4.734
 6404TIP3    H219170   4.960   6.134   4.654
 6405TIP3   OH219171   3.770   6.662   5.963
 6405TIP3    H119172   3.706   6.710   6.017
 6405TIP3    H219173   3.741   6.678   5.873
 6406TIP3   OH219174   1.009   1.191   4.038
 6406TIP3    H119175   1.075   1.124   4.055
 6406TIP3    H219176   0.929   1.142   4.020
 6407TIP3   OH219177   7.494   7.411   5.078
 6407TIP3    H119178   7.499   7.318   5.055
 6407TIP3    H219179   7.571   7.425   5.134
 6408TIP3   OH219180   3.856   6.971   3.421
 6408TIP3    H119181   3.812   6.990   3.504
 6408TIP3    H219182   3.791   6.924   3.369
 6409TIP3   OH219183   7.041   2.605   4.725
 6409TIP3    H119184   6.972   2.589   4.789
 6409TIP3    H219185   7.083   2.520   4.713
 6410TIP3   OH219186   3.432   1.960   6.677
 6410TIP3    H119187   3.444   1.925   6.765
 6410TIP3    H219188   3.432   2.055   6.688
 6411TIP3   OH219189   6.669   3.006   0.360
 6411TIP3    H119190   6.729   2.944   0.400
 6411TIP3    H219191   6.678   3.086   0.412
 6412TIP3   OH219192   0.731   2.938   0.910
 6412TIP3    H119193   0.692   3.015   0.870
 6412TIP3    H219194   0.748   2.963   1.001
 6413TIP3   OH219195   4.354   1.870   4.654
 6413TIP3    H119196   4.320   1.912   4.574
 6413TIP3    H219197   4.323   1.927   4.725
 6414TIP3   OH219198   5.323   7.812   0.535
 6414TIP3    H119199   5.382   7.838   0.464
 6414TIP3    H219200   5.305   7.720   0.519
 6415TIP3   OH219201   6.572   6.420   4.085
 6415TIP3    H119202   6.642   6.398   4.023
 6415TIP3    H219203   6.496   6.372   4.053
 6416TIP3   OH219204   2.691   4.304   2.531
 6416TIP3    H119205   2.784   4.282   2.533
 6416TIP3    H219206   2.687   4.386   2.482
 6417TIP3   OH219207   2.352   3.209   1.097
 6417TIP3    H119208   2.257   3.201   1.091
 6417TIP3    H219209   2.374   3.282   1.039
 6418TIP3   OH219210   7.465   4.826   0.659
 6418TIP3    H119211   7.454   4.887   0.586
 6418TIP3    H219212   7.443   4.878   0.737
 6419TIP3   OH219213   1.986   4.222   3.628
 6419TIP3    H119214   1.933   4.302   3.626
 6419TIP3    H219215   1.954   4.173   3.703
 6420TIP3   OH219216   0.828   0.285   3.569
 6420TIP3    H119217   0.839   0.320   3.657
 6420TIP3    H219218   0.752   0.332   3.534
 6421TIP3   OH219219   2.134   1.094   5.302
 6421TIP3    H119220   2.204   1.156   5.278
 6421TIP3    H219221   2.108   1.054   5.220
 6422TIP3   OH219222   5.821   6.486   0.802
 6422TIP3    H119223   5.792   6.544   0.872
 6422TIP3    H219224   5.825   6.541   0.724
 6423TIP3   OH219225   6.521   1.540   4.373
 6423TIP3    H119226   6.552   1.482   4.443
 6423TIP3    H219227   6.477   1.612   4.420
 6424TIP3   OH219228   5.452   0.069   0.324
 6424TIP3    H119229   5.434   0.158   0.293
 6424TIP3    H219230   5.522   0.081   0.388
 6425TIP3   OH219231   7.388   5.560   3.180
 6425TIP3    H119232   7.368   5.649   3.211
 6425TIP3    H219233   7.410   5.571   3.088
 6426TIP3   OH219234   4.688   5.504   3.192
 6426TIP3    H119235   4.626   5.436   3.218
 6426TIP3    H219236   4.706   5.486   3.100
 6427TIP3   OH219237   5.061   0.455   3.653
 6427TIP3    H119238   5.072   0.533   3.598
 6427TIP3    H219239   5.086   0.484   3.740
 6428TIP3   OH219240   4.237   3.229   1.016
 6428TIP3    H119241   4.265   3.260   1.102
 6428TIP3    H219242   4.178   3.297   0.984
 6429TIP3   OH219243   2.189   3.134   2.616
 6429TIP3    H119244   2.283   3.118   2.615
 6429TIP3    H219245   2.152   3.062   2.666
 6430TIP3   OH219246   6.082   2.430   5.447
 6430TIP3    H119247   6.135   2.359   5.484
 6430TIP3    H219248   6.057   2.483   5.522
 6431TIP3   OH219249   1.046   5.387   0.933
 6431TIP3    H119250   1.086   5.449   0.994
 6431TIP3    H219251   1.056   5.302   0.975
 6432TIP3   OH219252   4.436   0.437   5.207
 6432TIP3    H119253   4.438   0.362   5.147
 6432TIP3    H219254   4.375   0.411   5.276
 6433TIP3   OH219255   6.078   2.310   6.046
 6433TIP3    H119256   6.157   2.328   6.097
 6433TIP3    H219257   6.078   2.215   6.035
 6434TIP3   OH219258   6.401   6.627   1.245
 6434TIP3    H119259   6.480   6.575   1.257
 6434TIP3    H219260   6.385   6.627   1.151
 6435TIP3   OH219261   1.763   0.656   2.256
 6435TIP3    H119262   1.813   0.721   2.306
 6435TIP3    H219263   1.830   0.604   2.212
 6436TIP3   OH219264   4.614   0.172   0.308
 6436TIP3    H119265   4.635   0.080   0.291
 6436TIP3    H219266   4.687   0.203   0.361
 6437TIP3   OH219267   6.264   2.504   5.119
 6437TIP3    H119268   6.173   2.483   5.138
 6437TIP3    H219269   6.260   2.566   5.047
 6438TIP3   OH219270   1.196   1.570   1.969
 6438TIP3    H119271   1.148   1.529   1.897
 6438TIP3    H219272   1.166   1.524   2.047
 6439TIP3   OH219273   2.321   0.479   0.444
 6439TIP3    H119274   2.341   0.514   0.531
 6439TIP3    H219275   2.259   0.542   0.407
 6440TIP3   OH219276   4.044   3.404   0.964
 6440TIP3    H119277   3.970   3.357   1.003
 6440TIP3    H219278   4.003   3.463   0.900
 6441TIP3   OH219279   7.785   5.018   4.909
 6441TIP3    H119280   7.851   5.070   4.863
 6441TIP3    H219281   7.708   5.022   4.851
 6442TIP3   OH219282   3.341   3.723   1.047
 6442TIP3    H119283   3.389   3.746   0.967
 6442TIP3    H219284   3.395   3.657   1.090
 6443TIP3   OH219285   0.171   0.763   0.511
 6443TIP3    H119286   0.265   0.751   0.522
 6443TIP3    H219287   0.147   0.704   0.440
 6444TIP3   OH219288   1.845   2.634   5.113
 6444TIP3    H119289   1.784   2.575   5.158
 6444TIP3    H219290   1.869   2.699   5.179
 6445TIP3   OH219291   5.628   2.722   5.826
 6445TIP3    H119292   5.659   2.636   5.797
 6445TIP3    H219293   5.581   2.704   5.908
 6446TIP3   OH219294   0.157   6.905   0.235
 6446TIP3    H119295   0.122   6.818   0.218
 6446TIP3    H219296   0.092   6.947   0.292
 6447TIP3   OH219297   5.276   6.423   4.530
 6447TIP3    H119298   5.279   6.518   4.528
 6447TIP3    H219299   5.216   6.402   4.601
 6448TIP3   OH219300   5.284   4.432   6.762
 6448TIP3    H119301   5.205   4.383   6.739
 6448TIP3    H219302   5.356   4.375   6.733
 6449TIP3   OH219303   5.967   3.381   0.610
 6449TIP3    H119304   6.007   3.304   0.649
 6449TIP3    H219305   5.977   3.450   0.676
 6450TIP3   OH219306   3.477   5.613   4.720
 6450TIP3    H119307   3.491   5.627   4.814
 6450TIP3    H219308   3.559   5.642   4.679
 6451TIP3   OH219309   6.721   6.004   3.543
 6451TIP3    H119310   6.650   5.940   3.547
 6451TIP3    H219311   6.714   6.041   3.454
 6452TIP3   OH219312   5.090   3.136   3.461
 6452TIP3    H119313   5.033   3.213   3.460
 6452TIP3    H219314   5.077   3.095   3.375
 6453TIP3   OH219315   2.833   5.424   5.601
 6453TIP3    H119316   2.859   5.512   5.628
 6453TIP3    H219317   2.912   5.386   5.563
 6454TIP3   OH219318   0.336   7.133   5.344
 6454TIP3    H119319   0.349   7.186   5.265
 6454TIP3    H219320   0.390   7.175   5.411
 6455TIP3   OH219321   7.846   3.727   4.029
 6455TIP3    H119322   7.863   3.674   3.951
 6455TIP3    H219323   7.784   3.675   4.080
 6456TIP3   OH219324   7.773   3.018   3.287
 6456TIP3    H119325   7.838   2.954   3.319
 6456TIP3    H219326   7.780   3.091   3.347
 6457TIP3   OH219327   0.668   4.061   2.559
 6457TIP3    H119328   0.611   4.137   2.570
 6457TIP3    H219329   0.756   4.098   2.549
 6458TIP3   OH219330   5.861   3.817   1.393
 6458TIP3    H119331   5.887   3.842   1.304
 6458TIP3    H219332   5.794   3.750   1.380
 6459TIP3   OH219333   5.839   4.021   3.046
 6459TIP3    H119334   5.835   3.952   3.112
 6459TIP3    H219335   5.756   4.014   2.999
 6460TIP3   OH219336   1.208   7.171   3.910
 6460TIP3    H119337   1.162   7.227   3.973
 6460TIP3    H219338   1.240   7.231   3.844
 6461TIP3   OH219339   2.780   3.402   1.830
 6461TIP3    H119340   2.829   3.340   1.885
 6461TIP3    H219341   2.693   3.405   1.870
 6462TIP3   OH219342   7.427   4.333   0.212
 6462TIP3    H119343   7.416   4.249   0.256
 6462TIP3    H219344   7.485   4.315   0.138
 6463TIP3   OH219345   5.238   5.193   2.054
 6463TIP3    H119346   5.305   5.190   1.986
 6463TIP3    H219347   5.156   5.178   2.008
 6464TIP3   OH219348   7.425   0.050   5.850
 6464TIP3    H119349   7.480   0.113   5.897
 6464TIP3    H219350   7.414  -0.023   5.911
 6465TIP3   OH219351   5.660   7.350   0.023
 6465TIP3    H119352   5.624   7.407  -0.044
 6465TIP3    H219353   5.603   7.273   0.024
 6466TIP3   OH219354   5.626   7.822   3.111
 6466TIP3    H119355   5.640   7.760   3.040
 6466TIP3    H219356   5.711   7.829   3.154
 6467TIP3   OH219357   3.609   1.679   0.967
 6467TIP3    H119358   3.615   1.616   1.039
 6467TIP3    H219359   3.537   1.646   0.912
 6468TIP3   OH219360   1.219   5.516   0.495
 6468TIP3    H119361   1.142   5.482   0.541
 6468TIP3    H219362   1.194   5.604   0.468
 6469TIP3   OH219363   2.065   6.363   1.681
 6469TIP3    H119364   1.992   6.375   1.620
 6469TIP3    H219365   2.082   6.269   1.678
 6470TIP3   OH219366   3.620   6.283   5.245
 6470TIP3    H119367   3.660   6.292   5.331
 6470TIP3    H219368   3.537   6.239   5.261
 6471TIP3   OH219369   5.582   4.856   4.234
 6471TIP3    H119370   5.504   4.841   4.286
 6471TIP3    H219371   5.623   4.770   4.228
 6472TIP3   OH219372   0.754   3.316   5.733
 6472TIP3    H119373   0.685   3.382   5.724
 6472TIP3    H219374   0.764   3.281   5.645
 6473TIP3   OH219375   1.338   4.947   3.077
 6473TIP3    H119376   1.334   4.940   3.173
 6473TIP3    H219377   1.247   4.935   3.049
 6474TIP3   OH219378   0.150   4.405   0.084
 6474TIP3    H119379   0.075   4.403   0.144
 6474TIP3    H219380   0.150   4.493   0.048
 6475TIP3   OH219381   7.478   6.722   0.531
 6475TIP3    H119382   7.543   6.689   0.593
 6475TIP3    H219383   7.439   6.797   0.576
 6476TIP3   OH219384   5.831   4.416   2.867
 6476TIP3    H119385   5.828   4.322   2.850
 6476TIP3    H219386   5.741   4.439   2.888
 6477TIP3   OH219387   3.857   2.294   3.904
 6477TIP3    H119388   3.825   2.317   3.991
 6477TIP3    H219389   3.897   2.207   3.916
 6478TIP3   OH219390   6.322   0.874   2.263
 6478TIP3    H119391   6.373   0.830   2.194
 6478TIP3    H219392   6.262   0.932   2.215
 6479TIP3   OH219393   3.269   6.767   5.100
 6479TIP3    H119394   3.308   6.689   5.140
 6479TIP3    H219395   3.197   6.733   5.048
 6480TIP3   OH219396   7.872   4.354   3.764
 6480TIP3    H119397   7.957   4.397   3.759
 6480TIP3    H219398   7.842   4.350   3.674
 6481TIP3   OH219399   4.393   3.670   0.554
 6481TIP3    H119400   4.412   3.764   0.554
 6481TIP3    H219401   4.368   3.650   0.464
 6482TIP3   OH219402   2.974   5.025   5.033
 6482TIP3    H119403   3.048   4.996   4.980
 6482TIP3    H219404   2.918   4.948   5.041
 6483TIP3   OH219405   3.296   3.142   4.457
 6483TIP3    H119406   3.242   3.205   4.409
 6483TIP3    H219407   3.375   3.132   4.403
 6484TIP3   OH219408   6.953   0.548   3.277
 6484TIP3    H119409   6.963   0.638   3.246
 6484TIP3    H219410   7.033   0.503   3.247
 6485TIP3   OH219411   2.930   2.856   0.909
 6485TIP3    H119412   3.009   2.880   0.957
 6485TIP3    H219413   2.961   2.834   0.821
 6486TIP3   OH219414   0.629   1.829   3.565
 6486TIP3    H119415   0.598   1.888   3.497
 6486TIP3    H219416   0.608   1.873   3.647
 6487TIP3   OH219417   1.693   2.899   5.228
 6487TIP3    H119418   1.761   2.901   5.296
 6487TIP3    H219419   1.738   2.930   5.149
 6488TIP3   OH219420   7.613   7.497   2.330
 6488TIP3    H119421   7.633   7.591   2.338
 6488TIP3    H219422   7.541   7.482   2.391
 6489TIP3   OH219423   3.725   3.366   4.279
 6489TIP3    H119424   3.809   3.320   4.284
 6489TIP3    H219425   3.739   3.446   4.330
 6490TIP3   OH219426   5.223   3.189   1.990
 6490TIP3    H119427   5.267   3.237   1.919
 6490TIP3    H219428   5.176   3.119   1.945
 6491TIP3   OH219429   7.088   6.931   6.501
 6491TIP3    H119430   7.172   6.888   6.512
 6491TIP3    H219431   7.076   6.938   6.406
 6492TIP3   OH219432   7.523   1.055   6.645
 6492TIP3    H119433   7.469   1.016   6.714
 6492TIP3    H219434   7.495   1.147   6.641
 6493TIP3   OH219435   0.113   0.486   1.320
 6493TIP3    H119436   0.116   0.398   1.284
 6493TIP3    H219437   0.148   0.542   1.250
 6494TIP3   OH219438   7.104   4.066   0.280
 6494TIP3    H119439   7.143   4.057   0.367
 6494TIP3    H219440   7.046   4.142   0.287
 6495TIP3   OH219441   3.526   5.017   1.989
 6495TIP3    H119442   3.596   5.056   2.041
 6495TIP3    H219443   3.487   5.092   1.943
 6496TIP3   OH219444   0.768   5.620   4.117
 6496TIP3    H119445   0.718   5.632   4.198
 6496TIP3    H219446   0.702   5.611   4.049
 6497TIP3   OH219447   0.920   7.375   0.029
 6497TIP3    H119448   0.840   7.332   0.001
 6497TIP3    H219449   0.890   7.447   0.084
 6498TIP3   OH219450   6.559   5.563   1.465
 6498TIP3    H119451   6.563   5.475   1.503
 6498TIP3    H219452   6.650   5.592   1.463
 6499TIP3   OH219453   1.045   6.983   6.262
 6499TIP3    H119454   0.994   6.967   6.182
 6499TIP3    H219455   1.065   7.077   6.258
 6500TIP3   OH219456   0.280   4.934   3.867
 6500TIP3    H119457   0.344   4.981   3.813
 6500TIP3    H219458   0.213   5.000   3.887
 6501TIP3   OH219459   6.982   6.077   6.472
 6501TIP3    H119460   7.031   6.158   6.480
 6501TIP3    H219461   6.953   6.056   6.561
 6502TIP3   OH219462   0.035   0.625   6.703
 6502TIP3    H119463   0.025   0.717   6.680
 6502TIP3    H219464   0.028   0.578   6.620
 6503TIP3   OH219465   4.176   6.913   6.708
 6503TIP3    H119466   4.165   6.912   6.803
 6503TIP3    H219467   4.093   6.878   6.674
 6504TIP3   OH219468   3.054   6.369   3.491
 6504TIP3    H119469   3.056   6.313   3.413
 6504TIP3    H219470   3.145   6.390   3.508
 6505TIP3   OH219471   7.657   2.010   5.966
 6505TIP3    H119472   7.735   2.057   5.994
 6505TIP3    H219473   7.614   2.071   5.905
 6506TIP3   OH219474   5.796   0.828   0.325
 6506TIP3    H119475   5.765   0.781   0.248
 6506TIP3    H219476   5.870   0.880   0.292
 6507TIP3   OH219477   1.724   0.570   4.479
 6507TIP3    H119478   1.796   0.508   4.464
 6507TIP3    H219479   1.724   0.627   4.402
 6508TIP3   OH219480   3.105   3.666   4.548
 6508TIP3    H119481   3.199   3.663   4.533
 6508TIP3    H219482   3.091   3.745   4.600
 6509TIP3   OH219483   0.394   7.397   2.955
 6509TIP3    H119484   0.379   7.470   2.895
 6509TIP3    H219485   0.309   7.356   2.965
 6510TIP3   OH219486   6.136   1.886   3.102
 6510TIP3    H119487   6.220   1.931   3.100
 6510TIP3    H219488   6.154   1.805   3.150
 6511TIP3   OH219489   4.681   0.907   3.423
 6511TIP3    H119490   4.771   0.912   3.452
 6511TIP3    H219491   4.648   0.825   3.462
 6512TIP3   OH219492   6.769   6.790   1.707
 6512TIP3    H119493   6.705   6.857   1.685
 6512TIP3    H219494   6.839   6.837   1.753
 6513TIP3   OH219495   2.046   4.382   6.490
 6513TIP3    H119496   1.971   4.324   6.483
 6513TIP3    H219497   2.121   4.328   6.465
 6514TIP3   OH219498   8.157   0.222   1.951
 6514TIP3    H119499   8.230   0.249   2.007
 6514TIP3    H219500   8.194   0.219   1.863
 6515TIP3   OH219501   5.495   0.241   4.638
 6515TIP3    H119502   5.572   0.201   4.678
 6515TIP3    H219503   5.498   0.213   4.547
 6516TIP3   OH219504   2.698   4.590   3.904
 6516TIP3    H119505   2.644   4.656   3.860
 6516TIP3    H219506   2.642   4.556   3.973
 6517TIP3   OH219507   4.529   2.937   0.576
 6517TIP3    H119508   4.459   2.999   0.592
 6517TIP3    H219509   4.609   2.984   0.601
 6518TIP3   OH219510   2.616   4.103   2.366
 6518TIP3    H119511   2.525   4.080   2.388
 6518TIP3    H219512   2.637   4.174   2.426
 6519TIP3   OH219513   8.010   5.195   3.918
 6519TIP3    H119514   7.981   5.104   3.918
 6519TIP3    H219515   8.053   5.206   3.833
 6520TIP3   OH219516   0.700   2.037   0.212
 6520TIP3    H119517   0.708   2.009   0.121
 6520TIP3    H219518   0.771   1.992   0.257
 6521TIP3   OH219519   2.761   0.083   2.186
 6521TIP3    H119520   2.840   0.136   2.180
 6521TIP3    H219521   2.731   0.074   2.096
 6522TIP3   OH219522   0.002   3.918   0.836
 6522TIP3    H119523   0.065   3.867   0.786
 6522TIP3    H219524   0.037   3.920   0.925
 6523TIP3   OH219525   7.883   6.045   1.189
 6523TIP3    H119526   7.910   6.086   1.272
 6523TIP3    H219527   7.950   5.980   1.171
 6524TIP3   OH219528   1.204   1.595   3.286
 6524TIP3    H119529   1.189   1.680   3.244
 6524TIP3    H219530   1.286   1.606   3.334
 6525TIP3   OH219531   6.671   1.322   4.137
 6525TIP3    H119532   6.576   1.314   4.146
 6525TIP3    H219533   6.703   1.335   4.227
 6526TIP3   OH219534   5.195   6.657   6.233
 6526TIP3    H119535   5.142   6.734   6.256
 6526TIP3    H219536   5.260   6.650   6.303
 6527TIP3   OH219537   6.290   2.380   6.198
 6527TIP3    H119538   6.383   2.376   6.221
 6527TIP3    H219539   6.283   2.455   6.139
 6528TIP3   OH219540   4.130   0.545   3.185
 6528TIP3    H119541   4.069   0.474   3.205
 6528TIP3    H219542   4.107   0.571   3.096
 6529TIP3   OH219543   3.280   3.754   3.966
 6529TIP3    H119544   3.216   3.797   3.909
 6529TIP3    H219545   3.362   3.759   3.918
 6530TIP3   OH219546   6.842   3.930   2.158
 6530TIP3    H119547   6.919   3.897   2.203
 6530TIP3    H219548   6.860   3.916   2.065
 6531TIP3   OH219549   3.046   6.932   4.377
 6531TIP3    H119550   3.079   6.842   4.378
 6531TIP3    H219551   3.120   6.985   4.405
 6532TIP3   OH219552   3.484   1.100   6.286
 6532TIP3    H119553   3.558   1.058   6.243
 6532TIP3    H219554   3.508   1.100   6.379
 6533TIP3   OH219555   0.827   6.469   3.503
 6533TIP3    H119556   0.827   6.408   3.577
 6533TIP3    H219557   0.866   6.549   3.538
 6534TIP3   OH219558   7.883   4.685   3.832
 6534TIP3    H119559   7.938   4.641   3.766
 6534TIP3    H219560   7.897   4.635   3.912
 6535TIP3   OH219561   7.645   7.680   6.566
 6535TIP3    H119562   7.692   7.707   6.486
 6535TIP3    H219563   7.565   7.733   6.564
 6536TIP3   OH219564   6.271   6.836   5.435
 6536TIP3    H119565   6.191   6.789   5.461
 6536TIP3    H219566   6.323   6.770   5.388
 6537TIP3   OH219567   6.066   5.616   6.539
 6537TIP3    H119568   6.024   5.542   6.583
 6537TIP3    H219569   6.121   5.576   6.471
 6538TIP3   OH219570   8.244   1.607   1.260
 6538TIP3    H119571   8.303   1.572   1.194
 6538TIP3    H219572   8.206   1.530   1.301
 6539TIP3   OH219573   7.822   7.075   3.794
 6539TIP3    H119574   7.728   7.066   3.781
 6539TIP3    H219575   7.846   7.148   3.737
 6540TIP3   OH219576   7.492   1.064   5.098
 6540TIP3    H119577   7.556   1.025   5.157
 6540TIP3    H219578   7.451   0.990   5.053
 6541TIP3   OH219579   1.636   1.793   1.076
 6541TIP3    H119580   1.724   1.761   1.054
 6541TIP3    H219581   1.635   1.884   1.046
 6542TIP3   OH219582   0.065   0.748   4.869
 6542TIP3    H119583   0.086   0.725   4.960
 6542TIP3    H219584   0.101   0.675   4.818
 6543TIP3   OH219585   5.455   6.522   0.891
 6543TIP3    H119586   5.496   6.519   0.804
 6543TIP3    H219587   5.502   6.455   0.941
 6544TIP3   OH219588   6.156   0.113   1.156
 6544TIP3    H119589   6.097   0.187   1.141
 6544TIP3    H219590   6.136   0.052   1.085
 6545TIP3   OH219591   5.168   6.855   2.257
 6545TIP3    H119592   5.231   6.871   2.186
 6545TIP3    H219593   5.201   6.777   2.301
 6546TIP3   OH219594   7.222   4.888   1.556
 6546TIP3    H119595   7.183   4.815   1.508
 6546TIP3    H219596   7.251   4.949   1.489
 6547TIP3   OH219597   7.245   0.804   4.029
 6547TIP3    H119598   7.325   0.853   4.049
 6547TIP3    H219599   7.225   0.757   4.110
 6548TIP3   OH219600   3.142   5.615   5.984
 6548TIP3    H119601   3.055   5.585   5.956
 6548TIP3    H219602   3.199   5.595   5.910
 6549TIP3   OH219603   7.862   1.189   4.733
 6549TIP3    H119604   7.814   1.223   4.657
 6549TIP3    H219605   7.873   1.265   4.790
 6550TIP3   OH219606   0.962   4.039   3.377
 6550TIP3    H119607   0.883   4.092   3.365
 6550TIP3    H219608   1.018   4.093   3.433
 6551TIP3   OH219609   8.172   6.274   3.604
 6551TIP3    H119610   8.249   6.321   3.635
 6551TIP3    H219611   8.140   6.327   3.531
 6552TIP3   OH219612   2.484   5.411   1.372
 6552TIP3    H119613   2.400   5.445   1.341
 6552TIP3    H219614   2.461   5.342   1.435
 6553TIP3   OH219615   7.754   3.728   5.411
 6553TIP3    H119616   7.751   3.652   5.352
 6553TIP3    H219617   7.822   3.706   5.475
 6554TIP3   OH219618   8.133   5.050   1.526
 6554TIP3    H119619   8.128   5.067   1.620
 6554TIP3    H219620   8.106   4.959   1.516
 6555TIP3   OH219621   2.815   6.313   4.703
 6555TIP3    H119622   2.799   6.346   4.615
 6555TIP3    H219623   2.813   6.218   4.694
 6556TIP3   OH219624   2.129   3.707   5.549
 6556TIP3    H119625   2.225   3.703   5.546
 6556TIP3    H219626   2.100   3.663   5.470
 6557TIP3   OH219627   2.038   5.281   0.911
 6557TIP3    H119628   1.998   5.275   0.997
 6557TIP3    H219629   2.101   5.353   0.919
 6558TIP3   OH219630   1.742   3.021   4.980
 6558TIP3    H119631   1.786   3.067   4.908
 6558TIP3    H219632   1.674   2.969   4.937
 6559TIP3   OH219633   6.363   5.252   3.773
 6559TIP3    H119634   6.430   5.234   3.707
 6559TIP3    H219635   6.309   5.320   3.735
 6560TIP3   OH219636   7.663   3.337   1.660
 6560TIP3    H119637   7.696   3.301   1.742
 6560TIP3    H219638   7.742   3.364   1.612
 6561TIP3   OH219639   3.864   7.424   1.412
 6561TIP3    H119640   3.833   7.344   1.453
 6561TIP3    H219641   3.931   7.395   1.350
 6562TIP3   OH219642   1.412   1.890   6.432
 6562TIP3    H119643   1.476   1.870   6.365
 6562TIP3    H219644   1.350   1.949   6.389
 6563TIP3   OH219645   4.298   7.641   3.666
 6563TIP3    H119646   4.268   7.553   3.689
 6563TIP3    H219647   4.329   7.679   3.748
 6564TIP3   OH219648   1.189   3.335   6.228
 6564TIP3    H119649   1.241   3.400   6.276
 6564TIP3    H219650   1.156   3.276   6.296
 6565TIP3   OH219651   5.651   7.322   4.685
 6565TIP3    H119652   5.643   7.396   4.625
 6565TIP3    H219653   5.688   7.252   4.632
 6566TIP3   OH219654   7.924   2.318   3.126
 6566TIP3    H119655   7.972   2.249   3.080
 6566TIP3    H219656   7.833   2.288   3.125
 6567TIP3   OH219657   3.976   0.732   4.697
 6567TIP3    H119658   4.058   0.771   4.728
 6567TIP3    H219659   3.914   0.806   4.694
 6568TIP3   OH219660   3.589   4.351   0.634
 6568TIP3    H119661   3.586   4.293   0.710
 6568TIP3    H219662   3.677   4.391   0.638
 6569TIP3   OH219663   3.318   1.702   6.128
 6569TIP3    H119664   3.275   1.787   6.120
 6569TIP3    H219665   3.410   1.720   6.108
 6570TIP3   OH219666   1.266   0.555   5.995
 6570TIP3    H119667   1.265   0.518   5.906
 6570TIP3    H219668   1.178   0.539   6.028
 6571TIP3   OH219669   4.055   1.109   1.069
 6571TIP3    H119670   4.021   1.199   1.063
 6571TIP3    H219671   3.980   1.054   1.047
 6572TIP3   OH219672   3.211   5.876   5.453
 6572TIP3    H119673   3.260   5.909   5.377
 6572TIP3    H219674   3.147   5.944   5.471
 6573TIP3   OH219675   8.072   1.640   5.709
 6573TIP3    H119676   8.104   1.590   5.635
 6573TIP3    H219677   8.148   1.652   5.765
 6574TIP3   OH219678   7.281   6.364   4.365
 6574TIP3    H119679   7.214   6.428   4.343
 6574TIP3    H219680   7.284   6.305   4.290
 6575TIP3   OH219681   3.574   7.340   2.244
 6575TIP3    H119682   3.580   7.244   2.246
 6575TIP3    H219683   3.490   7.358   2.203
 6576TIP3   OH219684   6.942   6.446   0.864
 6576TIP3    H119685   6.904   6.400   0.789
 6576TIP3    H219686   7.001   6.382   0.904
 6577TIP3   OH219687   6.787   4.153   1.652
 6577TIP3    H119688   6.863   4.137   1.709
 6577TIP3    H219689   6.816   4.222   1.592
 6578TIP3   OH219690   0.692   2.842   2.105
 6578TIP3    H119691   0.650   2.859   2.021
 6578TIP3    H219692   0.638   2.888   2.169
 6579TIP3   OH219693   5.896   3.219   6.358
 6579TIP3    H119694   5.910   3.307   6.392
 6579TIP3    H219695   5.942   3.218   6.274
 6580TIP3   OH219696   1.206   0.992   6.655
 6580TIP3    H119697   1.172   0.907   6.683
 6580TIP3    H219698   1.231   1.036   6.736
 6581TIP3   OH219699   7.451   7.589   1.770
 6581TIP3    H119700   7.452   7.647   1.847
 6581TIP3    H219701   7.533   7.539   1.776
 6582TIP3   OH219702   2.029   0.997   5.070
 6582TIP3    H119703   1.941   1.019   5.040
 6582TIP3    H219704   2.077   0.973   4.990
 6583TIP3   OH219705   3.933   2.645   2.750
 6583TIP3    H119706   4.003   2.636   2.815
 6583TIP3    H219707   3.979   2.651   2.666
 6584TIP3   OH219708   1.671   3.764   1.615
 6584TIP3    H119709   1.708   3.702   1.551
 6584TIP3    H219710   1.605   3.813   1.566
 6585TIP3   OH219711   3.528   4.863   4.851
 6585TIP3    H119712   3.536   4.908   4.767
 6585TIP3    H219713   3.442   4.889   4.884
 6586TIP3   OH219714   7.378   0.675   1.113
 6586TIP3    H119715   7.328   0.755   1.129
 6586TIP3    H219716   7.373   0.627   1.195
 6587TIP3   OH219717   1.290   7.571   3.980
 6587TIP3    H119718   1.300   7.621   3.899
 6587TIP3    H219719   1.325   7.484   3.959
 6588TIP3   OH219720   4.708   5.606   1.135
 6588TIP3    H119721   4.793   5.649   1.143
 6588TIP3    H219722   4.701   5.583   1.042
 6589TIP3   OH219723   1.763   3.815   2.619
 6589TIP3    H119724   1.805   3.729   2.624
 6589TIP3    H219725   1.835   3.877   2.625
 6590TIP3   OH219726   8.257   6.479   1.387
 6590TIP3    H119727   8.212   6.485   1.472
 6590TIP3    H219728   8.321   6.550   1.389
 6591TIP3   OH219729   7.213   6.804   2.718
 6591TIP3    H119730   7.202   6.711   2.696
 6591TIP3    H219731   7.282   6.834   2.659
 6592TIP3   OH219732   0.441   3.756   3.374
 6592TIP3    H119733   0.517   3.728   3.425
 6592TIP3    H219734   0.466   3.738   3.283
 6593TIP3   OH219735   1.621   1.395   6.143
 6593TIP3    H119736   1.670   1.326   6.097
 6593TIP3    H219737   1.678   1.420   6.215
 6594TIP3   OH219738   3.070   4.749   2.134
 6594TIP3    H119739   3.148   4.693   2.134
 6594TIP3    H219740   3.035   4.741   2.223
 6595TIP3   OH219741   6.949   6.777   2.781
 6595TIP3    H119742   6.934   6.699   2.728
 6595TIP3    H219743   7.029   6.816   2.745
 6596TIP3   OH219744   1.359   1.224   0.912
 6596TIP3    H119745   1.270   1.236   0.880
 6596TIP3    H219746   1.376   1.130   0.899
 6597TIP3   OH219747   4.366   2.179   3.528
 6597TIP3    H119748   4.296   2.183   3.594
 6597TIP3    H219749   4.401   2.268   3.526
 6598TIP3   OH219750   8.251   1.552   6.309
 6598TIP3    H119751   8.230   1.480   6.369
 6598TIP3    H219752   8.308   1.512   6.243
 6599TIP3   OH219753   2.006   7.615   6.315
 6599TIP3    H119754   2.050   7.654   6.240
 6599TIP3    H219755   2.053   7.533   6.330
 6600TIP3   OH219756   3.602   4.538   6.671
 6600TIP3    H119757   3.548   4.479   6.618
 6600TIP3    H219758   3.692   4.510   6.653
 6601TIP3   OH219759   1.639   4.305   6.610
 6601TIP3    H119760   1.715   4.251   6.589
 6601TIP3    H219761   1.571   4.242   6.632
 6602TIP3   OH219762   8.103   6.550   6.204
 6602TIP3    H119763   8.168   6.480   6.196
 6602TIP3    H219764   8.033   6.525   6.144
 6603TIP3   OH219765   2.265   4.705   0.199
 6603TIP3    H119766   2.338   4.756   0.235
 6603TIP3    H219767   2.249   4.744   0.113
 6604TIP3   OH219768   3.589   7.728   3.599
 6604TIP3    H119769   3.497   7.730   3.571
 6604TIP3    H219770   3.632   7.789   3.539
 6605TIP3   OH219771   7.309   1.624   0.375
 6605TIP3    H119772   7.231   1.578   0.404
 6605TIP3    H219773   7.342   1.668   0.453
 6606TIP3   OH219774   7.742   6.919   4.631
 6606TIP3    H119775   7.769   6.984   4.566
 6606TIP3    H219776   7.671   6.961   4.679
 6607TIP3   OH219777   0.213   7.507   3.197
 6607TIP3    H119778   0.301   7.535   3.221
 6607TIP3    H219779   0.194   7.433   3.256
 6608TIP3   OH219780   4.313   5.528   2.684
 6608TIP3    H119781   4.298   5.470   2.609
 6608TIP3    H219782   4.404   5.511   2.710
 6609TIP3   OH219783   5.632   7.000   5.968
 6609TIP3    H119784   5.586   6.944   5.905
 6609TIP3    H219785   5.611   7.089   5.941
 6610TIP3   OH219786   6.297   1.188   5.835
 6610TIP3    H119787   6.208   1.193   5.869
 6610TIP3    H219788   6.289   1.218   5.744
 6611TIP3   OH219789   5.064   0.696   5.217
 6611TIP3    H119790   5.068   0.638   5.293
 6611TIP3    H219791   5.048   0.783   5.254
 6612TIP3   OH219792   7.824   3.994   1.280
 6612TIP3    H119793   7.852   4.011   1.190
 6612TIP3    H219794   7.905   3.977   1.328
 6613TIP3   OH219795   1.690   0.958   3.166
 6613TIP3    H119796   1.722   0.870   3.149
 6613TIP3    H219797   1.624   0.947   3.235
 6614TIP3   OH219798   7.847   7.759   0.693
 6614TIP3    H119799   7.904   7.813   0.638
 6614TIP3    H219800   7.900   7.683   0.715
 6615TIP3   OH219801   5.034   6.463   0.338
 6615TIP3    H119802   5.038   6.534   0.402
 6615TIP3    H219803   5.042   6.507   0.254
 6616TIP3   OH219804   4.352   5.438   4.832
 6616TIP3    H119805   4.430   5.474   4.875
 6616TIP3    H219806   4.280   5.494   4.862
 6617TIP3   OH219807   3.901   7.158   4.195
 6617TIP3    H119808   3.903   7.065   4.214
 6617TIP3    H219809   3.901   7.162   4.099
 6618TIP3   OH219810   2.970   1.838   4.949
 6618TIP3    H119811   2.913   1.766   4.922
 6618TIP3    H219812   3.058   1.801   4.949
 6619TIP3   OH219813   0.784   4.566   2.223
 6619TIP3    H119814   0.721   4.541   2.290
 6619TIP3    H219815   0.784   4.661   2.223
 6620TIP3   OH219816   1.448   0.188   3.338
 6620TIP3    H119817   1.368   0.225   3.300
 6620TIP3    H219818   1.435   0.094   3.334
 6621TIP3   OH219819   0.984   0.117   6.201
 6621TIP3    H119820   0.984   0.030   6.241
 6621TIP3    H219821   0.900   0.155   6.227
 6622TIP3   OH219822   5.092   2.498   0.050
 6622TIP3    H119823   5.163   2.445   0.013
 6622TIP3    H219824   5.104   2.489   0.145
 6623TIP3   OH219825   1.723   3.330   5.511
 6623TIP3    H119826   1.719   3.352   5.418
 6623TIP3    H219827   1.811   3.358   5.538
 6624TIP3   OH219828   4.791   1.858   0.637
 6624TIP3    H119829   4.720   1.911   0.602
 6624TIP3    H219830   4.786   1.871   0.732
 6625TIP3   OH219831   0.965   6.314   3.153
 6625TIP3    H119832   1.030   6.353   3.095
 6625TIP3    H219833   0.903   6.385   3.171
 6626TIP3   OH219834   5.773   1.784   6.381
 6626TIP3    H119835   5.718   1.853   6.343
 6626TIP3    H219836   5.720   1.747   6.452
 6627TIP3   OH219837   1.943   5.569   3.665
 6627TIP3    H119838   1.884   5.508   3.621
 6627TIP3    H219839   1.981   5.621   3.594
 6628TIP3   OH219840   5.384   3.607   6.653
 6628TIP3    H119841   5.331   3.536   6.689
 6628TIP3    H219842   5.402   3.579   6.563
 6629TIP3   OH219843   7.881   1.155   5.367
 6629TIP3    H119844   7.877   1.246   5.398
 6629TIP3    H219845   7.939   1.111   5.429
 6630TIP3   OH219846   1.010   3.297   5.288
 6630TIP3    H119847   0.994   3.371   5.229
 6630TIP3    H219848   1.068   3.239   5.238
 6631TIP3   OH219849   2.081   4.571   1.615
 6631TIP3    H119850   2.138   4.523   1.674
 6631TIP3    H219851   2.003   4.591   1.667
 6632TIP3   OH219852   4.834   0.454   1.024
 6632TIP3    H119853   4.843   0.411   0.939
 6632TIP3    H219854   4.871   0.541   1.011
 6633TIP3   OH219855   7.222   2.661   5.356
 6633TIP3    H119856   7.236   2.660   5.451
 6633TIP3    H219857   7.156   2.594   5.340
 6634TIP3   OH219858   3.567   7.539   0.966
 6634TIP3    H119859   3.637   7.505   0.910
 6634TIP3    H219860   3.591   7.631   0.981
 6635TIP3   OH219861   0.330   1.251   1.423
 6635TIP3    H119862   0.394   1.215   1.361
 6635TIP3    H219863   0.349   1.206   1.505
 6636TIP3   OH219864   4.325   2.806   5.994
 6636TIP3    H119865   4.302   2.797   5.901
 6636TIP3    H219866   4.379   2.885   5.997
 6637TIP3   OH219867   4.506   6.060   5.436
 6637TIP3    H119868   4.458   6.142   5.450
 6637TIP3    H219869   4.439   5.992   5.442
 6638TIP3   OH219870   1.876   2.742   3.440
 6638TIP3    H119871   1.882   2.728   3.535
 6638TIP3    H219872   1.927   2.821   3.424
 6639TIP3   OH219873   0.762   0.794   4.329
 6639TIP3    H119874   0.678   0.769   4.369
 6639TIP3    H219875   0.786   0.876   4.372
 6640TIP3   OH219876   4.891   2.706   0.143
 6640TIP3    H119877   4.871   2.732   0.233
 6640TIP3    H219878   4.979   2.742   0.126
 6641TIP3   OH219879   3.256   5.472   6.711
 6641TIP3    H119880   3.260   5.521   6.629
 6641TIP3    H219881   3.318   5.400   6.699
 6642TIP3   OH219882   3.310   5.702   1.247
 6642TIP3    H119883   3.368   5.631   1.220
 6642TIP3    H219884   3.222   5.669   1.229
 6643TIP3   OH219885   3.144   0.603   6.190
 6643TIP3    H119886   3.232   0.566   6.181
 6643TIP3    H219887   3.154   0.695   6.165
 6644TIP3   OH219888   7.230   6.416   2.287
 6644TIP3    H119889   7.151   6.460   2.320
 6644TIP3    H219890   7.301   6.478   2.305
 6645TIP3   OH219891   0.760   4.591   5.892
 6645TIP3    H119892   0.826   4.625   5.953
 6645TIP3    H219893   0.689   4.654   5.895
 6646TIP3   OH219894   2.162   5.305   2.276
 6646TIP3    H119895   2.246   5.302   2.229
 6646TIP3    H219896   2.184   5.280   2.366
 6647TIP3   OH219897   2.552   4.667   0.971
 6647TIP3    H119898   2.482   4.703   0.916
 6647TIP3    H219899   2.531   4.574   0.978
 6648TIP3   OH219900   0.345   3.416   0.507
 6648TIP3    H119901   0.369   3.415   0.415
 6648TIP3    H219902   0.276   3.482   0.514
 6649TIP3   OH219903   3.416   2.484   2.923
 6649TIP3    H119904   3.491   2.462   2.868
 6649TIP3    H219905   3.391   2.572   2.896
 6650TIP3   OH219906   3.545   1.607   0.573
 6650TIP3    H119907   3.537   1.555   0.493
 6650TIP3    H219908   3.477   1.674   0.565
 6651TIP3   OH219909   4.122   3.494   2.985
 6651TIP3    H119910   4.173   3.422   2.948
 6651TIP3    H219911   4.055   3.451   3.039
 6652TIP3   OH219912   3.722   4.399   0.162
 6652TIP3    H119913   3.683   4.429   0.081
 6652TIP3    H219914   3.648   4.376   0.218
 6653TIP3   OH219915   7.469   0.922   5.942
 6653TIP3    H119916   7.408   0.857   5.909
 6653TIP3    H219917   7.538   0.871   5.984
 6654TIP3   OH219918   1.140   4.094   4.569
 6654TIP3    H119919   1.201   4.040   4.519
 6654TIP3    H219920   1.163   4.078   4.660
 6655TIP3   OH219921   1.273   1.117   0.294
 6655TIP3    H119922   1.206   1.170   0.250
 6655TIP3    H219923   1.321   1.076   0.222
 6656TIP3   OH219924   0.840   6.581   4.094
 6656TIP3    H119925   0.887   6.551   4.016
 6656TIP3    H219926   0.841   6.677   4.087
 6657TIP3   OH219927   4.070   6.891   5.675
 6657TIP3    H119928   4.046   6.982   5.690
 6657TIP3    H219929   3.991   6.851   5.639
 6658TIP3   OH219930   2.468   1.137   1.830
 6658TIP3    H119931   2.396   1.075   1.836
 6658TIP3    H219932   2.433   1.219   1.864
 6659TIP3   OH219933   4.178   2.217   1.610
 6659TIP3    H119934   4.254   2.158   1.615
 6659TIP3    H219935   4.152   2.229   1.701
 6660TIP3   OH219936   3.992   1.613   6.074
 6660TIP3    H119937   4.027   1.696   6.107
 6660TIP3    H219938   4.008   1.616   5.980
 6661TIP3   OH219939   0.480   4.901   0.250
 6661TIP3    H119940   0.483   4.933   0.159
 6661TIP3    H219941   0.562   4.853   0.260
 6662TIP3   OH219942   1.435   6.771   3.621
 6662TIP3    H119943   1.415   6.697   3.678
 6662TIP3    H219944   1.411   6.848   3.672
 6663TIP3   OH219945   2.866   5.107   5.297
 6663TIP3    H119946   2.779   5.079   5.324
 6663TIP3    H219947   2.875   5.075   5.208
 6664TIP3   OH219948   3.360   1.201   5.149
 6664TIP3    H119949   3.312   1.118   5.146
 6664TIP3    H219950   3.333   1.248   5.071
 6665TIP3   OH219951   0.901   4.983   2.967
 6665TIP3    H119952   0.948   5.050   2.917
 6665TIP3    H219953   0.817   4.973   2.922
 6666TIP3   OH219954   7.351   7.147   2.583
 6666TIP3    H119955   7.379   7.173   2.495
 6666TIP3    H219956   7.385   7.058   2.594
 6667TIP3   OH219957   2.431   7.223   3.254
 6667TIP3    H119958   2.365   7.168   3.297
 6667TIP3    H219959   2.465   7.169   3.183
 6668TIP3   OH219960   1.051   4.935   4.824
 6668TIP3    H119961   1.097   4.947   4.741
 6668TIP3    H219962   1.119   4.937   4.890
 6669TIP3   OH219963   2.016   3.836   0.585
 6669TIP3    H119964   2.018   3.909   0.523
 6669TIP3    H219965   1.967   3.870   0.660
 6670TIP3   OH219966   6.268   2.160   0.414
 6670TIP3    H119967   6.338   2.225   0.424
 6670TIP3    H219968   6.289   2.092   0.477
 6671TIP3   OH219969   4.804   2.263   3.523
 6671TIP3    H119970   4.764   2.186   3.563
 6671TIP3    H219971   4.732   2.326   3.514
 6672TIP3   OH219972   6.218   1.837   3.574
 6672TIP3    H119973   6.299   1.856   3.622
 6672TIP3    H219974   6.206   1.912   3.516
 6673TIP3   OH219975   8.083   5.354   6.731
 6673TIP3    H119976   8.012   5.417   6.741
 6673TIP3    H219977   8.066   5.312   6.647
 6674TIP3   OH219978   4.265   0.240   4.678
 6674TIP3    H119979   4.222   0.308   4.729
 6674TIP3    H219980   4.194   0.188   4.642
 6675TIP3   OH219981   7.311   4.415   3.465
 6675TIP3    H119982   7.309   4.481   3.396
 6675TIP3    H219983   7.224   4.375   3.462
 6676TIP3   OH219984   7.600   2.477   4.630
 6676TIP3    H119985   7.653   2.496   4.553
 6676TIP3    H219986   7.510   2.498   4.603
 6677TIP3   OH219987   0.174   5.444   5.944
 6677TIP3    H119988   0.262   5.468   5.916
 6677TIP3    H219989   0.180   5.440   6.039
 6678TIP3   OH219990   1.650   4.374   1.398
 6678TIP3    H119991   1.589   4.448   1.402
 6678TIP3    H219992   1.606   4.311   1.340
 6679TIP3   OH219993   3.361   3.352   2.184
 6679TIP3    H119994   3.290   3.338   2.122
 6679TIP3    H219995   3.370   3.447   2.189
 6680TIP3   OH219996   6.091   6.451   0.851
 6680TIP3    H119997   6.008   6.440   0.898
 6680TIP3    H219998   6.067   6.455   0.759
 6681TIP3   OH219999   3.890   6.366   0.843
 6681TIP3    H120000   3.813   6.405   0.884
 6681TIP3    H220001   3.963   6.398   0.896
 6682TIP3   OH220002   4.402   6.985   4.817
 6682TIP3    H120003   4.455   7.010   4.741
 6682TIP3    H220004   4.380   6.893   4.801
 6683TIP3   OH220005   6.465   0.449   0.390
 6683TIP3    H120006   6.372   0.433   0.405
 6683TIP3    H220007   6.479   0.422   0.299
 6684TIP3   OH220008   7.425   2.217   5.488
 6684TIP3    H120009   7.351   2.245   5.434
 6684TIP3    H220010   7.467   2.298   5.516
 6685TIP3   OH220011   7.295   6.403   1.399
 6685TIP3    H120012   7.313   6.389   1.306
 6685TIP3    H220013   7.218   6.459   1.400
 6686TIP3   OH220014   4.682   1.701   2.334
 6686TIP3    H120015   4.626   1.716   2.410
 6686TIP3    H220016   4.649   1.619   2.296
 6687TIP3   OH220017   4.360   5.743   2.889
 6687TIP3    H120018   4.426   5.796   2.843
 6687TIP3    H220019   4.283   5.799   2.893
 6688TIP3   OH220020   2.245   2.993   3.544
 6688TIP3    H120021   2.260   2.971   3.636
 6688TIP3    H220022   2.319   3.048   3.520
 6689TIP3   OH220023   0.213   0.346   0.858
 6689TIP3    H120024   0.184   0.357   0.767
 6689TIP3    H220025   0.285   0.409   0.867
 6690TIP3   OH220026   5.865   1.217   2.428
 6690TIP3    H120027   5.940   1.183   2.476
 6690TIP3    H220028   5.792   1.213   2.489
 6691TIP3   OH220029   6.149   3.765   3.552
 6691TIP3    H120030   6.191   3.685   3.583
 6691TIP3    H220031   6.219   3.815   3.512
 6692TIP3   OH220032   6.569   3.663   0.347
 6692TIP3    H120033   6.484   3.621   0.351
 6692TIP3    H220034   6.618   3.612   0.282
 6693TIP3   OH220035   5.392   5.940   6.466
 6693TIP3    H120036   5.480   5.965   6.495
 6693TIP3    H220037   5.341   6.020   6.472
 6694TIP3   OH220038   1.656   0.268   5.748
 6694TIP3    H120039   1.697   0.198   5.799
 6694TIP3    H220040   1.654   0.234   5.658
 6695TIP3   OH220041   6.573   4.998   3.509
 6695TIP3    H120042   6.571   4.943   3.587
 6695TIP3    H220043   6.628   4.950   3.447
 6696TIP3   OH220044   5.050   5.767   3.457
 6696TIP3    H120045   5.093   5.753   3.372
 6696TIP3    H220046   5.119   5.749   3.521
 6697TIP3   OH220047   5.415   3.967   0.552
 6697TIP3    H120048   5.334   3.959   0.501
 6697TIP3    H220049   5.445   3.876   0.563
 6698TIP3   OH220050   5.537   3.582   4.519
 6698TIP3    H120051   5.505   3.560   4.606
 6698TIP3    H220052   5.460   3.615   4.472
 6699TIP3   OH220053   3.524   0.175   1.595
 6699TIP3    H120054   3.613   0.151   1.571
 6699TIP3    H220055   3.470   0.136   1.526
 6700TIP3   OH220056   0.754   7.679   0.448
 6700TIP3    H120057   0.792   7.708   0.366
 6700TIP3    H220058   0.707   7.598   0.425
 6701TIP3   OH220059   4.953   6.441   1.712
 6701TIP3    H120060   4.886   6.381   1.680
 6701TIP3    H220061   5.008   6.459   1.635
 6702TIP3   OH220062   7.735   1.663   5.379
 6702TIP3    H120063   7.823   1.676   5.343
 6702TIP3    H220064   7.678   1.665   5.303
 6703TIP3   OH220065   1.779   3.515   4.274
 6703TIP3    H120066   1.715   3.585   4.288
 6703TIP3    H220067   1.728   3.434   4.276
 6704TIP3   OH220068   7.832   4.561   6.685
 6704TIP3    H120069   7.927   4.556   6.686
 6704TIP3    H220070   7.803   4.472   6.705
 6705TIP3   OH220071   2.859   0.123   0.011
 6705TIP3    H120072   2.819   0.117  -0.076
 6705TIP3    H220073   2.788   0.101   0.071
 6706TIP3   OH220074   2.969   1.745   0.842
 6706TIP3    H120075   2.998   1.705   0.760
 6706TIP3    H220076   2.981   1.839   0.829
 6707TIP3   OH220077   0.285   2.708   0.841
 6707TIP3    H120078   0.369   2.681   0.878
 6707TIP3    H220079   0.228   2.632   0.855
 6708TIP3   OH220080   4.778   1.433   1.040
 6708TIP3    H120081   4.689   1.455   1.066
 6708TIP3    H220082   4.799   1.353   1.088
 6709TIP3   OH220083   2.269   0.807   5.372
 6709TIP3    H120084   2.277   0.806   5.467
 6709TIP3    H220085   2.355   0.837   5.341
 6710TIP3   OH220086   7.216   0.473   4.898
 6710TIP3    H120087   7.223   0.404   4.832
 6710TIP3    H220088   7.223   0.554   4.848
 6711TIP3   OH220089   0.998   1.700   0.536
 6711TIP3    H120090   1.051   1.740   0.605
 6711TIP3    H220091   1.044   1.719   0.455
 6712TIP3   OH220092   2.914   2.918   4.957
 6712TIP3    H120093   2.838   2.860   4.951
 6712TIP3    H220094   2.904   2.978   4.883
 6713TIP3   OH220095   3.586   0.556   2.411
 6713TIP3    H120096   3.647   0.551   2.484
 6713TIP3    H220097   3.528   0.629   2.433
 6714TIP3   OH220098   0.529   2.801   2.800
 6714TIP3    H120099   0.556   2.842   2.883
 6714TIP3    H220100   0.509   2.711   2.823
 6715TIP3   OH220101   3.794   4.214   4.460
 6715TIP3    H120102   3.800   4.162   4.541
 6715TIP3    H220103   3.854   4.170   4.400
 6716TIP3   OH220104   3.143   7.635   5.891
 6716TIP3    H120105   3.057   7.616   5.855
 6716TIP3    H220106   3.165   7.722   5.857
 6717TIP3   OH220107   2.276   5.288   5.499
 6717TIP3    H120108   2.226   5.208   5.483
 6717TIP3    H220109   2.258   5.343   5.422
 6718TIP3   OH220110   7.257   2.053  -0.001
 6718TIP3    H120111   7.236   2.018   0.085
 6718TIP3    H220112   7.349   2.079   0.005
 6719TIP3   OH220113   1.458   3.105   2.253
 6719TIP3    H120114   1.492   3.063   2.174
 6719TIP3    H220115   1.406   3.037   2.296
 6720TIP3   OH220116   5.839   0.161   3.833
 6720TIP3    H120117   5.896   0.087   3.810
 6720TIP3    H220118   5.751   0.132   3.809
 6721TIP3   OH220119   5.001   6.780   1.137
 6721TIP3    H120120   5.007   6.716   1.066
 6721TIP3    H220121   5.076   6.837   1.124
 6722TIP3   OH220122   0.538   7.603   1.848
 6722TIP3    H120123   0.606   7.603   1.915
 6722TIP3    H220124   0.565   7.671   1.786
 6723TIP3   OH220125   3.237   6.840   0.841
 6723TIP3    H120126   3.273   6.909   0.896
 6723TIP3    H220127   3.312   6.812   0.787
 6724TIP3   OH220128   3.581   1.243   3.425
 6724TIP3    H120129   3.526   1.173   3.389
 6724TIP3    H220130   3.655   1.248   3.365
 6725TIP3   OH220131   6.478   2.012   0.140
 6725TIP3    H120132   6.522   1.999   0.224
 6725TIP3    H220133   6.511   2.095   0.107
 6726TIP3   OH220134   2.655   6.314   1.561
 6726TIP3    H120135   2.685   6.334   1.472
 6726TIP3    H220136   2.574   6.264   1.548
 6727TIP3   OH220137   1.221   6.596   4.081
 6727TIP3    H120138   1.164   6.620   4.155
 6727TIP3    H220139   1.182   6.640   4.006
 6728TIP3   OH220140   7.357   3.450   3.446
 6728TIP3    H120141   7.331   3.542   3.452
 6728TIP3    H220142   7.351   3.429   3.353
 6729TIP3   OH220143   2.207   0.549   2.340
 6729TIP3    H120144   2.246   0.461   2.345
 6729TIP3    H220145   2.229   0.589   2.424
 6730TIP3   OH220146   6.915   6.391   5.042
 6730TIP3    H120147   6.899   6.378   5.136
 6730TIP3    H220148   6.838   6.438   5.011
 6731TIP3   OH220149   2.744   1.033   6.609
 6731TIP3    H120150   2.672   1.011   6.550
 6731TIP3    H220151   2.701   1.076   6.684
 6732TIP3   OH220152   5.555   4.328   6.698
 6732TIP3    H120153   5.613   4.263   6.737
 6732TIP3    H220154   5.586   4.335   6.607
 6733TIP3   OH220155   1.160   7.206   5.083
 6733TIP3    H120156   1.076   7.171   5.111
 6733TIP3    H220157   1.138   7.281   5.027
 6734TIP3   OH220158   2.997   5.326   1.352
 6734TIP3    H120159   2.984   5.412   1.391
 6734TIP3    H220160   2.935   5.269   1.398
 6735TIP3   OH220161   7.758   4.745   4.112
 6735TIP3    H120162   7.727   4.831   4.082
 6735TIP3    H220163   7.784   4.700   4.031
 6736TIP3   OH220164   6.312   4.161   2.541
 6736TIP3    H120165   6.274   4.113   2.615
 6736TIP3    H220166   6.388   4.109   2.515
 6737TIP3   OH220167   4.938   4.244   4.910
 6737TIP3    H120168   4.863   4.221   4.965
 6737TIP3    H220169   4.949   4.169   4.852
 6738TIP3   OH220170   1.457   1.036   6.217
 6738TIP3    H120171   1.409   1.115   6.196
 6738TIP3    H220172   1.426   0.971   6.154
 6739TIP3   OH220173   2.333   5.522   2.088
 6739TIP3    H120174   2.361   5.606   2.052
 6739TIP3    H220175   2.258   5.496   2.034
 6740TIP3   OH220176   1.843   4.868   2.384
 6740TIP3    H120177   1.930   4.849   2.351
 6740TIP3    H220178   1.784   4.854   2.310
 6741TIP3   OH220179   6.796   2.672   0.439
 6741TIP3    H120180   6.789   2.678   0.534
 6741TIP3    H220181   6.889   2.657   0.422
 6742TIP3   OH220182   1.407   2.699   3.160
 6742TIP3    H120183   1.407   2.739   3.247
 6742TIP3    H220184   1.462   2.621   3.169
 6743TIP3   OH220185   2.899   5.083   4.433
 6743TIP3    H120186   2.817   5.095   4.385
 6743TIP3    H220187   2.871   5.063   4.522
 6744TIP3   OH220188   8.057   1.026   5.552
 6744TIP3    H120189   8.027   0.956   5.610
 6744TIP3    H220190   8.097   1.091   5.610
 6745TIP3   OH220191   4.070   1.868   2.354
 6745TIP3    H120192   3.978   1.857   2.331
 6745TIP3    H220193   4.113   1.789   2.321
 6746TIP3   OH220194   2.270   4.928   2.592
 6746TIP3    H120195   2.341   4.979   2.629
 6746TIP3    H220196   2.265   4.955   2.500
 6747TIP3   OH220197   0.089   7.419   2.964
 6747TIP3    H120198   0.136   7.448   3.042
 6747TIP3    H220199   0.061   7.500   2.921
 6748TIP3   OH220200   1.481   2.954   5.977
 6748TIP3    H120201   1.400   3.001   5.998
 6748TIP3    H220202   1.551   3.018   5.992
 6749TIP3   OH220203   2.667   6.913   1.703
 6749TIP3    H120204   2.608   6.844   1.674
 6749TIP3    H220205   2.678   6.969   1.626
 6750TIP3   OH220206   4.211   0.922   4.843
 6750TIP3    H120207   4.163   0.981   4.785
 6750TIP3    H220208   4.204   0.962   4.929
 6751TIP3   OH220209   2.021   5.067   4.920
 6751TIP3    H120210   1.957   4.998   4.939
 6751TIP3    H220211   2.022   5.073   4.824
 6752TIP3   OH220212   0.278   2.970   0.925
 6752TIP3    H120213   0.195   2.949   0.969
 6752TIP3    H220214   0.291   2.898   0.863
 6753TIP3   OH220215   7.377   4.026   1.859
 6753TIP3    H120216   7.346   4.047   1.771
 6753TIP3    H220217   7.468   4.055   1.861
 6754TIP3   OH220218   2.991   7.698  -0.004
 6754TIP3    H120219   3.061   7.674   0.056
 6754TIP3    H220220   3.014   7.787  -0.034
 6755TIP3   OH220221   3.643   5.297   4.166
 6755TIP3    H120222   3.606   5.305   4.078
 6755TIP3    H220223   3.632   5.205   4.189
 6756TIP3   OH220224   3.642   2.856   3.603
 6756TIP3    H120225   3.623   2.763   3.589
 6756TIP3    H220226   3.722   2.871   3.553
 6757TIP3   OH220227   6.399   4.228   5.467
 6757TIP3    H120228   6.467   4.166   5.442
 6757TIP3    H220229   6.354   4.248   5.385
 6758TIP3   OH220230   4.877   3.271   1.348
 6758TIP3    H120231   4.957   3.320   1.329
 6758TIP3    H220232   4.821   3.334   1.395
 6759TIP3   OH220233   5.080   2.025   4.201
 6759TIP3    H120234   5.138   1.953   4.224
 6759TIP3    H220235   5.076   2.080   4.280
 6760TIP3   OH220236   5.175   5.625   4.652
 6760TIP3    H120237   5.155   5.651   4.563
 6760TIP3    H220238   5.090   5.619   4.696
 6761TIP3   OH220239   1.974   3.609   3.528
 6761TIP3    H120240   1.970   3.696   3.489
 6761TIP3    H220241   1.967   3.625   3.622
 6762TIP3   OH220242   1.928   2.219   4.245
 6762TIP3    H120243   1.905   2.160   4.316
 6762TIP3    H220244   1.844   2.250   4.211
 6763TIP3   OH220245   7.431   2.794   2.828
 6763TIP3    H120246   7.413   2.867   2.887
 6763TIP3    H220247   7.478   2.833   2.754
 6764TIP3   OH220248   3.371   1.643   1.706
 6764TIP3    H120249   3.327   1.728   1.697
 6764TIP3    H220250   3.376   1.610   1.616
 6765TIP3   OH220251   1.719   3.520   4.582
 6765TIP3    H120252   1.788   3.583   4.603
 6765TIP3    H220253   1.665   3.516   4.661
 6766TIP3   OH220254   6.697   1.884   4.507
 6766TIP3    H120255   6.681   1.959   4.450
 6766TIP3    H220256   6.610   1.845   4.521
 6767TIP3   OH220257   2.775   7.117   1.837
 6767TIP3    H120258   2.787   7.083   1.926
 6767TIP3    H220259   2.730   7.046   1.790
 6768TIP3   OH220260   1.109   5.300   3.894
 6768TIP3    H120261   1.136   5.244   3.821
 6768TIP3    H220262   1.182   5.298   3.955
 6769TIP3   OH220263   6.938   2.891   4.901
 6769TIP3    H120264   6.941   2.981   4.933
 6769TIP3    H220265   7.013   2.849   4.943
 6770TIP3   OH220266   2.498   3.890   4.569
 6770TIP3    H120267   2.535   3.834   4.501
 6770TIP3    H220268   2.572   3.911   4.626
 6771TIP3   OH220269   4.836   4.604   6.696
 6771TIP3    H120270   4.776   4.613   6.622
 6771TIP3    H220271   4.915   4.564   6.657
 6772TIP3   OH220272   1.467   6.586   1.725
 6772TIP3    H120273   1.422   6.667   1.703
 6772TIP3    H220274   1.548   6.613   1.766
 6773TIP3   OH220275   4.425   5.450   4.522
 6773TIP3    H120276   4.392   5.373   4.475
 6773TIP3    H220277   4.402   5.435   4.613
 6774TIP3   OH220278   2.332   1.239   5.197
 6774TIP3    H120279   2.339   1.160   5.143
 6774TIP3    H220280   2.352   1.311   5.137
 6775TIP3   OH220281   6.638   7.543   4.301
 6775TIP3    H120282   6.572   7.609   4.281
 6775TIP3    H220283   6.588   7.470   4.338
 6776TIP3   OH220284   5.102   1.006   1.101
 6776TIP3    H120285   5.056   1.006   1.184
 6776TIP3    H220286   5.037   0.978   1.037
 6777TIP3   OH220287   3.411   5.275   4.521
 6777TIP3    H120288   3.500   5.299   4.497
 6777TIP3    H220289   3.358   5.303   4.446
 6778TIP3   OH220290   6.368   2.226   1.185
 6778TIP3    H120291   6.289   2.279   1.175
 6778TIP3    H220292   6.362   2.161   1.115
 6779TIP3   OH220293   7.517   6.785   5.871
 6779TIP3    H120294   7.427   6.805   5.844
 6779TIP3    H220295   7.517   6.801   5.965
 6780TIP3   OH220296   0.036   6.946   2.856
 6780TIP3    H120297   0.109   6.973   2.801
 6780TIP3    H220298  -0.003   7.027   2.887
 6781TIP3   OH220299   1.526   7.109   4.323
 6781TIP3    H120300   1.459   7.173   4.302
 6781TIP3    H220301   1.580   7.103   4.244
 6782TIP3   OH220302   8.008   0.880   4.974
 6782TIP3    H120303   8.048   0.966   4.982
 6782TIP3    H220304   8.041   0.846   4.891
 6783TIP3   OH220305   6.740   4.326   6.038
 6783TIP3    H120306   6.753   4.395   5.973
 6783TIP3    H220307   6.664   4.277   6.007
 6784TIP3   OH220308   7.330   6.436   0.632
 6784TIP3    H120309   7.341   6.478   0.546
 6784TIP3    H220310   7.265   6.368   0.617
 6785TIP3   OH220311   5.822   6.916   1.476
 6785TIP3    H120312   5.784   6.994   1.436
 6785TIP3    H220313   5.751   6.851   1.474
 6786TIP3   OH220314   0.739   4.547   0.331
 6786TIP3    H120315   0.659   4.494   0.336
 6786TIP3    H220316   0.774   4.530   0.244
 6787TIP3   OH220317   7.894   7.738   2.627
 6787TIP3    H120318   7.827   7.774   2.569
 6787TIP3    H220319   7.944   7.679   2.571
 6788TIP3   OH220320   2.459   4.465   6.669
 6788TIP3    H120321   2.479   4.422   6.587
 6788TIP3    H220322   2.537   4.517   6.689
 6789TIP3   OH220323   7.539   4.692   2.005
 6789TIP3    H120324   7.476   4.655   2.066
 6789TIP3    H220325   7.493   4.694   1.921
 6790TIP3   OH220326   7.881   2.613   2.354
 6790TIP3    H120327   7.922   2.599   2.439
 6790TIP3    H220328   7.831   2.694   2.365
 6791TIP3   OH220329   4.929   2.130   2.881
 6791TIP3    H120330   4.947   2.109   2.790
 6791TIP3    H220331   4.895   2.049   2.918
 6792TIP3   OH220332   1.638   4.514   6.414
 6792TIP3    H120333   1.624   4.470   6.331
 6792TIP3    H220334   1.584   4.465   6.477
 6793TIP3   OH220335   2.711   1.961   6.578
 6793TIP3    H120336   2.756   1.905   6.642
 6793TIP3    H220337   2.640   1.906   6.544
 6794TIP3   OH220338   5.410   6.292   4.955
 6794TIP3    H120339   5.422   6.197   4.952
 6794TIP3    H220340   5.468   6.326   4.887
 6795TIP3   OH220341   8.092   2.998   1.427
 6795TIP3    H120342   8.054   2.912   1.440
 6795TIP3    H220343   8.024   3.049   1.383
 6796TIP3   OH220344   4.957   4.105   2.272
 6796TIP3    H120345   4.950   4.142   2.360
 6796TIP3    H220346   5.049   4.079   2.263
 6797TIP3   OH220347   3.046   2.972   4.353
 6797TIP3    H120348   3.119   2.952   4.294
 6797TIP3    H220349   2.983   3.020   4.299
 6798TIP3   OH220350   6.957   1.871   2.423
 6798TIP3    H120351   6.957   1.960   2.387
 6798TIP3    H220352   7.047   1.841   2.413
 6799TIP3   OH220353   1.726   0.670   0.872
 6799TIP3    H120354   1.788   0.726   0.825
 6799TIP3    H220355   1.700   0.604   0.808
 6800TIP3   OH220356   3.477   2.383   4.200
 6800TIP3    H120357   3.431   2.466   4.204
 6800TIP3    H220358   3.424   2.324   4.253
 6801TIP3   OH220359   4.104   6.232   6.489
 6801TIP3    H120360   4.194   6.236   6.456
 6801TIP3    H220361   4.052   6.280   6.425
 6802TIP3   OH220362   1.273   4.307   5.087
 6802TIP3    H120363   1.304   4.230   5.134
 6802TIP3    H220364   1.231   4.361   5.154
 6803TIP3   OH220365   6.490   1.849   3.312
 6803TIP3    H120366   6.500   1.787   3.239
 6803TIP3    H220367   6.485   1.935   3.269
 6804TIP3   OH220368   3.894   0.452   5.521
 6804TIP3    H120369   3.921   0.424   5.433
 6804TIP3    H220370   3.864   0.542   5.509
 6805TIP3   OH220371   4.993   0.054   3.594
 6805TIP3    H120372   5.033   0.114   3.658
 6805TIP3    H220373   5.000  -0.032   3.636
 6806TIP3   OH220374   7.166   4.786   1.995
 6806TIP3    H120375   7.189   4.725   1.925
 6806TIP3    H220376   7.243   4.843   2.004
 6807TIP3   OH220377   2.153   5.183   1.649
 6807TIP3    H120378   2.080   5.122   1.635
 6807TIP3    H220379   2.147   5.207   1.742
 6808TIP3   OH220380   3.640   0.448   4.903
 6808TIP3    H120381   3.662   0.430   4.994
 6808TIP3    H220382   3.656   0.365   4.857
 6809TIP3   OH220383   0.971   7.017   2.823
 6809TIP3    H120384   1.054   6.991   2.865
 6809TIP3    H220385   0.998   7.074   2.751
 6810TIP3   OH220386   7.194   5.571   0.831
 6810TIP3    H120387   7.148   5.489   0.818
 6810TIP3    H220388   7.286   5.546   0.841
 6811TIP3   OH220389   0.866   7.266   5.505
 6811TIP3    H120390   0.824   7.287   5.422
 6811TIP3    H220391   0.945   7.219   5.481
 6812TIP3   OH220392   0.434   0.362   2.579
 6812TIP3    H120393   0.525   0.385   2.594
 6812TIP3    H220394   0.396   0.354   2.667
 6813TIP3   OH220395   6.392   0.477   1.373
 6813TIP3    H120396   6.317   0.524   1.409
 6813TIP3    H220397   6.364   0.450   1.286
 6814TIP3   OH220398   1.864   7.536   5.904
 6814TIP3    H120399   1.784   7.514   5.952
 6814TIP3    H220400   1.866   7.632   5.902
 6815TIP3   OH220401   4.849   7.703   2.533
 6815TIP3    H120402   4.802   7.653   2.467
 6815TIP3    H220403   4.941   7.694   2.509
 6816TIP3   OH220404   3.631   5.453   1.356
 6816TIP3    H120405   3.709   5.437   1.409
 6816TIP3    H220406   3.655   5.525   1.298
 6817TIP3   OH220407   5.513   7.694   1.983
 6817TIP3    H120408   5.531   7.780   2.021
 6817TIP3    H220409   5.469   7.713   1.900
 6818TIP3   OH220410   3.508   0.821   5.488
 6818TIP3    H120411   3.534   0.732   5.465
 6818TIP3    H220412   3.554   0.877   5.425
 6819TIP3   OH220413   1.027   3.880  -0.001
 6819TIP3    H120414   1.083   3.827   0.056
 6819TIP3    H220415   1.048   3.970   0.024
 6820TIP3   OH220416   3.717   6.596   1.292
 6820TIP3    H120417   3.810   6.578   1.305
 6820TIP3    H220418   3.684   6.519   1.245
 6821TIP3   OH220419   7.720   6.693   0.700
 6821TIP3    H120420   7.792   6.718   0.642
 6821TIP3    H220421   7.719   6.597   0.697
 6822TIP3   OH220422   1.651   2.544   3.165
 6822TIP3    H120423   1.649   2.448   3.165
 6822TIP3    H220424   1.740   2.566   3.138
 6823TIP3   OH220425   5.899   0.454   4.271
 6823TIP3    H120426   5.854   0.371   4.287
 6823TIP3    H220427   5.902   0.496   4.357
 6824TIP3   OH220428   6.541   7.750   2.768
 6824TIP3    H120429   6.446   7.754   2.756
 6824TIP3    H220430   6.555   7.773   2.859
 6825TIP3   OH220431   3.861   7.698   4.120
 6825TIP3    H120432   3.863   7.608   4.153
 6825TIP3    H220433   3.922   7.745   4.176
 6826TIP3   OH220434   4.218   1.792   3.677
 6826TIP3    H120435   4.179   1.839   3.605
 6826TIP3    H220436   4.304   1.832   3.689
 6827TIP3   OH220437   5.641   2.864   3.699
 6827TIP3    H120438   5.582   2.813   3.644
 6827TIP3    H220439   5.587   2.935   3.734
 6828TIP3   OH220440   6.575   6.482   3.651
 6828TIP3    H120441   6.659   6.519   3.623
 6828TIP3    H220442   6.542   6.437   3.573
 6829TIP3   OH220443   4.957   1.194   1.885
 6829TIP3    H120444   4.988   1.250   1.814
 6829TIP3    H220445   4.872   1.161   1.855
 6830TIP3   OH220446   7.852   2.856   2.078
 6830TIP3    H120447   7.876   2.898   1.996
 6830TIP3    H220448   7.880   2.765   2.068
 6831TIP3   OH220449   5.976   4.275   3.077
 6831TIP3    H120450   5.938   4.187   3.080
 6831TIP3    H220451   5.904   4.331   3.048
 6832TIP3   OH220452   2.605   0.545   3.431
 6832TIP3    H120453   2.694   0.510   3.425
 6832TIP3    H220454   2.611   0.632   3.392
 6833TIP3   OH220455   0.717   6.733   6.167
 6833TIP3    H120456   0.757   6.732   6.255
 6833TIP3    H220457   0.636   6.783   6.178
 6834TIP3   OH220458   7.792   5.560   4.708
 6834TIP3    H120459   7.710   5.548   4.756
 6834TIP3    H220460   7.857   5.513   4.761
 6835TIP3   OH220461   6.988   4.358   0.613
 6835TIP3    H120462   7.069   4.405   0.634
 6835TIP3    H220463   6.964   4.315   0.695
 6836TIP3   OH220464   6.974   6.692   3.346
 6836TIP3    H120465   6.982   6.786   3.332
 6836TIP3    H220466   6.968   6.682   3.441
 6837TIP3   OH220467   6.365   2.593   3.224
 6837TIP3    H120468   6.390   2.543   3.302
 6837TIP3    H220469   6.436   2.657   3.214
 6838TIP3   OH220470   2.251   0.120   4.459
 6838TIP3    H120471   2.201   0.189   4.502
 6838TIP3    H220472   2.233   0.041   4.510
 6839TIP3   OH220473   5.444  -0.005   5.684
 6839TIP3    H120474   5.417   0.024   5.597
 6839TIP3    H220475   5.362  -0.009   5.734
 6840TIP3   OH220476   1.266   4.023   2.118
 6840TIP3    H120477   1.304   4.106   2.146
 6840TIP3    H220478   1.218   3.992   2.195
 6841TIP3   OH220479   0.315   6.381   2.154
 6841TIP3    H120480   0.315   6.293   2.116
 6841TIP3    H220481   0.268   6.372   2.236
 6842TIP3   OH220482   1.928   6.207   0.127
 6842TIP3    H120483   2.000   6.188   0.187
 6842TIP3    H220484   1.872   6.130   0.132
 6843TIP3   OH220485   0.975   2.427   1.908
 6843TIP3    H120486   0.909   2.454   1.971
 6843TIP3    H220487   0.982   2.332   1.920
 6844TIP3   OH220488   6.810   6.660   3.951
 6844TIP3    H120489   6.902   6.686   3.955
 6844TIP3    H220490   6.769   6.724   3.894
 6845TIP3   OH220491   8.008   5.279   0.761
 6845TIP3    H120492   7.978   5.349   0.703
 6845TIP3    H220493   8.055   5.219   0.704
 6846TIP3   OH220494   0.411   3.692   2.397
 6846TIP3    H120495   0.431   3.733   2.481
 6846TIP3    H220496   0.356   3.617   2.421
 6847TIP3   OH220497   3.762   2.351   1.417
 6847TIP3    H120498   3.849   2.382   1.392
 6847TIP3    H220499   3.722   2.427   1.461
 6848TIP3   OH220500   1.481   6.308   3.852
 6848TIP3    H120501   1.443   6.280   3.768
 6848TIP3    H220502   1.413   6.290   3.916
 6849TIP3   OH220503   6.604   1.717   3.095
 6849TIP3    H120504   6.590   1.802   3.053
 6849TIP3    H220505   6.614   1.655   3.023
 6850TIP3   OH220506   7.469   4.224   2.092
 6850TIP3    H120507   7.377   4.251   2.097
 6850TIP3    H220508   7.480   4.196   2.001
 6851TIP3   OH220509   2.834   1.654   4.746
 6851TIP3    H120510   2.908   1.625   4.692
 6851TIP3    H220511   2.811   1.578   4.799
 6852TIP3   OH220512   5.681   0.456   6.390
 6852TIP3    H120513   5.735   0.399   6.444
 6852TIP3    H220514   5.600   0.466   6.440
 6853TIP3   OH220515   4.760   0.969   5.992
 6853TIP3    H120516   4.789   1.043   5.938
 6853TIP3    H220517   4.664   0.971   5.987
 6854TIP3   OH220518   4.712   7.447   1.878
 6854TIP3    H120519   4.675   7.519   1.929
 6854TIP3    H220520   4.740   7.383   1.943
 6855TIP3   OH220521   3.159   2.303   5.132
 6855TIP3    H120522   3.219   2.338   5.066
 6855TIP3    H220523   3.073   2.335   5.105
 6856TIP3   OH220524   5.998   2.807   0.301
 6856TIP3    H120525   6.057   2.865   0.252
 6856TIP3    H220526   6.051   2.730   0.320
 6857TIP3   OH220527   8.232   2.615   5.059
 6857TIP3    H120528   8.289   2.654   4.993
 6857TIP3    H220529   8.161   2.678   5.069
 6858TIP3   OH220530   2.503   2.517   4.218
 6858TIP3    H120531   2.574   2.509   4.154
 6858TIP3    H220532   2.473   2.607   4.211
 6859TIP3   OH220533   6.891   3.984   6.108
 6859TIP3    H120534   6.827   3.947   6.169
 6859TIP3    H220535   6.964   3.922   6.109
 6860TIP3   OH220536   6.848   4.627   4.833
 6860TIP3    H120537   6.938   4.597   4.847
 6860TIP3    H220538   6.857   4.698   4.769
 6861TIP3   OH220539   4.735   1.781   3.690
 6861TIP3    H120540   4.768   1.806   3.776
 6861TIP3    H220541   4.758   1.689   3.682
 6862TIP3   OH220542   5.990   4.608   2.169
 6862TIP3    H120543   5.895   4.606   2.160
 6862TIP3    H220544   6.020   4.656   2.092
 6863TIP3   OH220545   0.793   5.568   3.790
 6863TIP3    H120546   0.717   5.556   3.732
 6863TIP3    H220547   0.816   5.480   3.818
 6864TIP3   OH220548   4.836   0.578   2.092
 6864TIP3    H120549   4.783   0.634   2.035
 6864TIP3    H220550   4.835   0.493   2.048
 6865TIP3   OH220551   2.356   5.497   6.049
 6865TIP3    H120552   2.297   5.532   6.116
 6865TIP3    H220553   2.372   5.572   5.991
 6866TIP3   OH220554   6.591   2.784   5.785
 6866TIP3    H120555   6.623   2.708   5.736
 6866TIP3    H220556   6.565   2.747   5.870
 6867TIP3   OH220557   7.975   4.918   3.943
 6867TIP3    H120558   7.931   4.852   3.891
 6867TIP3    H220559   8.048   4.872   3.985
 6868TIP3   OH220560   6.853   3.913   4.299
 6868TIP3    H120561   6.841   3.884   4.390
 6868TIP3    H220562   6.858   3.832   4.248
 6869TIP3   OH220563   1.406   3.695   3.520
 6869TIP3    H120564   1.398   3.612   3.472
 6869TIP3    H220565   1.452   3.753   3.460
 6870TIP3   OH220566   4.466   6.480   1.066
 6870TIP3    H120567   4.467   6.482   0.971
 6870TIP3    H220568   4.427   6.395   1.088
 6871TIP3   OH220569   4.392   0.083   6.535
 6871TIP3    H120570   4.354   0.047   6.454
 6871TIP3    H220571   4.477   0.118   6.507
 6872TIP3   OH220572   4.537   6.568   5.287
 6872TIP3    H120573   4.514   6.658   5.307
 6872TIP3    H220574   4.628   6.573   5.257
 6873TIP3   OH220575   2.446   6.968   5.468
 6873TIP3    H120576   2.384   7.034   5.500
 6873TIP3    H220577   2.443   6.977   5.372
 6874TIP3   OH220578   7.183   7.207   6.087
 6874TIP3    H120579   7.268   7.242   6.114
 6874TIP3    H220580   7.121   7.278   6.106
 6875TIP3   OH220581   5.866   3.296   3.336
 6875TIP3    H120582   5.796   3.304   3.401
 6875TIP3    H220583   5.840   3.221   3.282
 6876TIP3   OH220584   6.515   2.035   0.888
 6876TIP3    H120585   6.509   1.948   0.927
 6876TIP3    H220586   6.425   2.069   0.890
 6877TIP3   OH220587   1.925   5.855   1.058
 6877TIP3    H120588   1.872   5.815   1.126
 6877TIP3    H220589   2.007   5.878   1.102
 6878TIP3   OH220590   6.463   0.810   1.041
 6878TIP3    H120591   6.549   0.844   1.015
 6878TIP3    H220592   6.405   0.835   0.969
 6879TIP3   OH220593   1.518   4.020   2.668
 6879TIP3    H120594   1.488   3.934   2.638
 6879TIP3    H220595   1.603   4.032   2.625
 6880TIP3   OH220596   1.631   6.712   1.896
 6880TIP3    H120597   1.726   6.699   1.899
 6880TIP3    H220598   1.597   6.663   1.971
 6881TIP3   OH220599   5.956   5.373   4.675
 6881TIP3    H120600   6.015   5.331   4.737
 6881TIP3    H220601   5.996   5.358   4.589
 6882TIP3   OH220602   3.275   2.438   1.156
 6882TIP3    H120603   3.243   2.425   1.245
 6882TIP3    H220604   3.371   2.439   1.164
 6883TIP3   OH220605   8.124   2.859   1.776
 6883TIP3    H120606   8.050   2.800   1.770
 6883TIP3    H220607   8.174   2.843   1.696
 6884TIP3   OH220608   2.641   4.697   1.709
 6884TIP3    H120609   2.647   4.697   1.613
 6884TIP3    H220610   2.677   4.612   1.735
 6885TIP3   OH220611   5.717   6.071   1.663
 6885TIP3    H120612   5.787   6.112   1.714
 6885TIP3    H220613   5.754   6.056   1.577
 6886TIP3   OH220614   4.942   7.583   0.581
 6886TIP3    H120615   4.988   7.547   0.657
 6886TIP3    H220616   4.858   7.614   0.616
 6887TIP3   OH220617   3.738   3.456   1.038
 6887TIP3    H120618   3.652   3.488   1.066
 6887TIP3    H220619   3.719   3.378   0.986
 6888TIP3   OH220620   1.667   6.251   2.983
 6888TIP3    H120621   1.627   6.208   2.907
 6888TIP3    H220622   1.719   6.323   2.946
 6889TIP3   OH220623   3.949   0.577   4.399
 6889TIP3    H120624   3.987   0.634   4.465
 6889TIP3    H220625   4.018   0.513   4.379
 6890TIP3   OH220626   2.785   7.743   4.263
 6890TIP3    H120627   2.846   7.678   4.296
 6890TIP3    H220628   2.815   7.826   4.302
 6891TIP3   OH220629   7.671   4.445   2.182
 6891TIP3    H120630   7.606   4.511   2.205
 6891TIP3    H220631   7.621   4.376   2.139
 6892TIP3   OH220632   7.952   1.181   1.768
 6892TIP3    H120633   7.933   1.093   1.800
 6892TIP3    H220634   7.872   1.231   1.787
 6893TIP3   OH220635   5.432   0.243   3.838
 6893TIP3    H120636   5.453   0.212   3.750
 6893TIP3    H220637   5.495   0.313   3.854
 6894TIP3   OH220638   1.658   5.709   5.758
 6894TIP3    H120639   1.691   5.737   5.843
 6894TIP3    H220640   1.671   5.785   5.701
 6895TIP3   OH220641   3.497   0.301   6.624
 6895TIP3    H120642   3.535   0.221   6.659
 6895TIP3    H220643   3.553   0.371   6.658
 6896TIP3   OH220644   0.087   7.360   3.426
 6896TIP3    H120645   0.002   7.391   3.397
 6896TIP3    H220646   0.068   7.299   3.497
 6897TIP3   OH220647   5.269   4.319   5.497
 6897TIP3    H120648   5.281   4.308   5.402
 6897TIP3    H220649   5.185   4.364   5.506
 6898TIP3   OH220650   2.195   2.447   0.648
 6898TIP3    H120651   2.116   2.476   0.602
 6898TIP3    H220652   2.209   2.514   0.715
 6899TIP3   OH220653   2.150   1.677   0.714
 6899TIP3    H120654   2.222   1.614   0.706
 6899TIP3    H220655   2.077   1.625   0.748
 6900TIP3   OH220656   0.030   5.464   1.899
 6900TIP3    H120657   0.063   5.510   1.976
 6900TIP3    H220658   0.109   5.425   1.859
 6901TIP3   OH220659   5.777   4.850   6.683
 6901TIP3    H120660   5.778   4.937   6.642
 6901TIP3    H220661   5.758   4.867   6.775
 6902TIP3   OH220662   4.235   2.719   4.959
 6902TIP3    H120663   4.269   2.808   4.975
 6902TIP3    H220664   4.142   2.725   4.982
 6903TIP3   OH220665   5.043   1.402   0.207
 6903TIP3    H120666   5.053   1.325   0.150
 6903TIP3    H220667   5.094   1.470   0.165
 6904TIP3   OH220668   6.030   2.571   5.671
 6904TIP3    H120669   6.015   2.621   5.751
 6904TIP3    H220670   5.969   2.609   5.607
 6905TIP3   OH220671   8.090   2.568   0.531
 6905TIP3    H120672   8.121   2.490   0.485
 6905TIP3    H220673   8.023   2.605   0.473
 6906TIP3   OH220674   4.994   5.143   6.614
 6906TIP3    H120675   4.992   5.218   6.555
 6906TIP3    H220676   4.937   5.078   6.573
 6907TIP3   OH220677   7.224   0.918   2.453
 6907TIP3    H120678   7.181   1.001   2.475
 6907TIP3    H220679   7.187   0.855   2.515
 6908TIP3   OH220680   3.592   7.006   3.461
 6908TIP3    H120681   3.529   7.078   3.467
 6908TIP3    H220682   3.561   6.943   3.526
 6909TIP3   OH220683   4.994   6.101   6.120
 6909TIP3    H120684   4.995   6.191   6.152
 6909TIP3    H220685   4.912   6.095   6.070
 6910TIP3   OH220686   5.718   0.825   5.021
 6910TIP3    H120687   5.759   0.906   5.051
 6910TIP3    H220688   5.665   0.796   5.095
 6911TIP3   OH220689   8.237   4.703   0.418
 6911TIP3    H120690   8.240   4.684   0.511
 6911TIP3    H220691   8.257   4.796   0.412
 6912TIP3   OH220692   4.589   7.107   1.637
 6912TIP3    H120693   4.550   7.186   1.672
 6912TIP3    H220694   4.563   7.106   1.544
 6913TIP3   OH220695   2.253   4.995   5.966
 6913TIP3    H120696   2.289   5.061   6.025
 6913TIP3    H220697   2.298   5.009   5.883
 6914TIP3   OH220698   3.239   4.198   2.846
 6914TIP3    H120699   3.159   4.248   2.851
 6914TIP3    H220700   3.259   4.192   2.752
 6915TIP3   OH220701   2.072   7.049   0.101
 6915TIP3    H120702   2.127   7.075   0.027
 6915TIP3    H220703   2.110   6.966   0.131
 6916TIP3   OH220704   7.463   3.084   1.470
 6916TIP3    H120705   7.424   3.107   1.554
 6916TIP3    H220706   7.474   3.168   1.424
 6917TIP3   OH220707   2.258   1.059   1.276
 6917TIP3    H120708   2.270   1.153   1.266
 6917TIP3    H220709   2.295   1.039   1.362
 6918TIP3   OH220710   1.441   7.300   0.683
 6918TIP3    H120711   1.503   7.280   0.613
 6918TIP3    H220712   1.399   7.382   0.655
 6919TIP3   OH220713   5.499   6.427   0.173
 6919TIP3    H120714   5.543   6.343   0.158
 6919TIP3    H220715   5.461   6.449   0.088
 6920TIP3   OH220716   2.472   6.650   3.645
 6920TIP3    H120717   2.416   6.727   3.635
 6920TIP3    H220718   2.490   6.622   3.556
 6921TIP3   OH220719   2.070   7.731   4.879
 6921TIP3    H120720   2.026   7.811   4.849
 6921TIP3    H220721   2.003   7.663   4.873
 6922TIP3   OH220722   1.548   5.058   5.656
 6922TIP3    H120723   1.553   5.144   5.697
 6922TIP3    H220724   1.550   4.996   5.729
 6923TIP3   OH220725   7.262   5.911   2.585
 6923TIP3    H120726   7.227   5.991   2.545
 6923TIP3    H220727   7.218   5.840   2.537
 6924TIP3   OH220728   1.762   0.255   0.782
 6924TIP3    H120729   1.746   0.228   0.692
 6924TIP3    H220730   1.813   0.336   0.774
 6925TIP3   OH220731   7.877   6.146   3.504
 6925TIP3    H120732   7.940   6.125   3.435
 6925TIP3    H220733   7.923   6.127   3.586
 6926TIP3   OH220734   3.358   3.912   6.175
 6926TIP3    H120735   3.299   3.860   6.119
 6926TIP3    H220736   3.403   3.847   6.229
 6927TIP3   OH220737   3.427   3.606   6.737
 6927TIP3    H120738   3.496   3.545   6.709
 6927TIP3    H220739   3.468   3.657   6.807
 6928TIP3   OH220740   3.538   2.729   3.835
 6928TIP3    H120741   3.634   2.724   3.833
 6928TIP3    H220742   3.513   2.756   3.747
 6929TIP3   OH220743   7.727   3.416   1.270
 6929TIP3    H120744   7.803   3.402   1.327
 6929TIP3    H220745   7.765   3.430   1.183
 6930TIP3   OH220746   2.747   3.342   2.372
 6930TIP3    H120747   2.664   3.366   2.331
 6930TIP3    H220748   2.724   3.277   2.438
 6931TIP3   OH220749   5.145   0.073   2.257
 6931TIP3    H120750   5.138   0.019   2.336
 6931TIP3    H220751   5.208   0.141   2.281
 6932TIP3   OH220752   3.353   5.872   6.107
 6932TIP3    H120753   3.371   5.800   6.047
 6932TIP3    H220754   3.405   5.945   6.073
 6933TIP3   OH220755   4.076   1.044   2.211
 6933TIP3    H120756   4.014   1.042   2.138
 6933TIP3    H220757   4.151   0.993   2.181
 6934TIP3   OH220758   1.369   3.145   1.864
 6934TIP3    H120759   1.288   3.166   1.910
 6934TIP3    H220760   1.350   3.160   1.772
 6935TIP3   OH220761   4.807   5.662   2.662
 6935TIP3    H120762   4.860   5.739   2.641
 6935TIP3    H220763   4.806   5.612   2.581
 6936TIP3   OH220764   4.922   7.250   2.937
 6936TIP3    H120765   4.827   7.258   2.930
 6936TIP3    H220766   4.954   7.340   2.928
 6937TIP3   OH220767   4.723   6.812   5.214
 6937TIP3    H120768   4.705   6.764   5.133
 6937TIP3    H220769   4.782   6.882   5.188
 6938TIP3   OH220770   8.147   4.351   5.767
 6938TIP3    H120771   8.052   4.342   5.764
 6938TIP3    H220772   8.162   4.434   5.813
 6939TIP3   OH220773   1.542   7.585   5.907
 6939TIP3    H120774   1.544   7.504   5.957
 6939TIP3    H220775   1.454   7.620   5.920
 6940TIP3   OH220776   0.837   7.654   3.175
 6940TIP3    H120777   0.843   7.655   3.079
 6940TIP3    H220778   0.911   7.600   3.202
 6941TIP3   OH220779   1.381   1.516   0.722
 6941TIP3    H120780   1.446   1.447   0.734
 6941TIP3    H220781   1.371   1.555   0.809
 6942TIP3   OH220782   6.593   6.319   2.372
 6942TIP3    H120783   6.575   6.311   2.466
 6942TIP3    H220784   6.529   6.261   2.331
 6943TIP3   OH220785   8.239   6.324   6.136
 6943TIP3    H120786   8.281   6.325   6.050
 6943TIP3    H220787   8.226   6.231   6.155
 6944TIP3   OH220788   4.897   6.113   2.789
 6944TIP3    H120789   4.890   6.123   2.884
 6944TIP3    H220790   4.806   6.107   2.759
 6945TIP3   OH220791   6.392   2.900   2.044
 6945TIP3    H120792   6.305   2.862   2.048
 6945TIP3    H220793   6.381   2.990   2.077
 6946TIP3   OH220794   6.757   2.588   6.689
 6946TIP3    H120795   6.847   2.600   6.720
 6946TIP3    H220796   6.755   2.499   6.653
 6947TIP3   OH220797   6.108   1.087   6.076
 6947TIP3    H120798   6.202   1.075   6.081
 6947TIP3    H220799   6.086   1.142   6.151
 6948TIP3   OH220800   6.434   2.461   3.736
 6948TIP3    H120801   6.412   2.529   3.799
 6948TIP3    H220802   6.355   2.409   3.727
 6949TIP3   OH220803   4.400   2.537   6.015
 6949TIP3    H120804   4.481   2.529   6.065
 6949TIP3    H220805   4.372   2.627   6.028
 6950TIP3   OH220806   4.357   5.349   1.993
 6950TIP3    H120807   4.263   5.369   1.993
 6950TIP3    H220808   4.386   5.369   2.082
 6951TIP3   OH220809   7.181   6.737   2.317
 6951TIP3    H120810   7.230   6.818   2.330
 6951TIP3    H220811   7.095   6.766   2.286
 6952TIP3   OH220812   8.047   5.468   5.884
 6952TIP3    H120813   8.018   5.386   5.845
 6952TIP3    H220814   7.966   5.515   5.905
 6953TIP3   OH220815   5.544   5.390   2.507
 6953TIP3    H120816   5.615   5.429   2.457
 6953TIP3    H220817   5.561   5.296   2.505
 6954TIP3   OH220818   3.995   0.639   6.571
 6954TIP3    H120819   4.009   0.586   6.649
 6954TIP3    H220820   4.065   0.614   6.511
 6955TIP3   OH220821   5.314   3.308   2.937
 6955TIP3    H120822   5.358   3.353   2.866
 6955TIP3    H220823   5.298   3.219   2.904
 6956TIP3   OH220824   3.406   4.213   5.012
 6956TIP3    H120825   3.358   4.296   5.016
 6956TIP3    H220826   3.465   4.215   5.087
 6957TIP3   OH220827   2.341   4.685   3.782
 6957TIP3    H120828   2.365   4.627   3.710
 6957TIP3    H220829   2.413   4.748   3.788
 6958TIP3   OH220830   4.217   4.676   1.473
 6958TIP3    H120831   4.157   4.707   1.405
 6958TIP3    H220832   4.256   4.756   1.508
 6959TIP3   OH220833   8.025   0.986   0.567
 6959TIP3    H120834   8.065   0.988   0.654
 6959TIP3    H220835   7.974   0.905   0.566
 6960TIP3   OH220836   7.005   2.953   1.391
 6960TIP3    H120837   7.048   3.022   1.442
 6960TIP3    H220838   6.966   2.896   1.456
 6961TIP3   OH220839   3.637   3.311   1.272
 6961TIP3    H120840   3.715   3.304   1.218
 6961TIP3    H220841   3.670   3.315   1.362
 6962TIP3   OH220842   4.274   2.620   3.219
 6962TIP3    H120843   4.349   2.668   3.254
 6962TIP3    H220844   4.270   2.541   3.272
 6963TIP3   OH220845   8.298   5.170   1.188
 6963TIP3    H120846   8.325   5.126   1.268
 6963TIP3    H220847   8.210   5.137   1.170
 6964TIP3   OH220848   4.212   2.396   5.069
 6964TIP3    H120849   4.144   2.341   5.028
 6964TIP3    H220850   4.163   2.463   5.116
 6965TIP3   OH220851   5.361   4.410   3.726
 6965TIP3    H120852   5.306   4.360   3.665
 6965TIP3    H220853   5.372   4.352   3.801
 6966TIP3   OH220854   2.713   1.620   5.635
 6966TIP3    H120855   2.807   1.616   5.624
 6966TIP3    H220856   2.686   1.529   5.650
 6967TIP3   OH220857   2.143   7.048   6.590
 6967TIP3    H120858   2.061   7.096   6.604
 6967TIP3    H220859   2.210   7.102   6.631
 6968TIP3   OH220860   3.088   4.808   3.390
 6968TIP3    H120861   3.080   4.775   3.480
 6968TIP3    H220862   3.012   4.866   3.379
 6969TIP3   OH220863   3.301   5.549   0.580
 6969TIP3    H120864   3.222   5.603   0.575
 6969TIP3    H220865   3.276   5.474   0.633
 6970TIP3   OH220866   0.261   7.324   5.970
 6970TIP3    H120867   0.282   7.319   5.877
 6970TIP3    H220868   0.288   7.413   5.996
 6971TIP3   OH220869   6.715   7.308   6.067
 6971TIP3    H120870   6.780   7.378   6.067
 6971TIP3    H220871   6.761   7.233   6.029
 6972TIP3   OH220872   6.299   4.384   0.386
 6972TIP3    H120873   6.331   4.473   0.374
 6972TIP3    H220874   6.297   4.372   0.481
 6973TIP3   OH220875   2.448   0.925   3.805
 6973TIP3    H120876   2.362   0.941   3.765
 6973TIP3    H220877   2.497   1.006   3.792
 6974TIP3   OH220878   5.097   5.042   2.618
 6974TIP3    H120879   5.174   5.032   2.674
 6974TIP3    H220880   5.132   5.075   2.536
 6975TIP3   OH220881   7.019   7.621   1.218
 6975TIP3    H120882   7.068   7.605   1.299
 6975TIP3    H220883   6.962   7.545   1.209
 6976TIP3   OH220884   6.415   1.122   1.700
 6976TIP3    H120885   6.323   1.117   1.727
 6976TIP3    H220886   6.423   1.206   1.656
 6977TIP3   OH220887   7.842   2.932   5.468
 6977TIP3    H120888   7.901   2.977   5.528
 6977TIP3    H220889   7.882   2.846   5.455
 6978TIP3   OH220890   7.764   7.473   1.157
 6978TIP3    H120891   7.840   7.515   1.198
 6978TIP3    H220892   7.761   7.386   1.198
 6979TIP3   OH220893   2.120   5.708   1.818
 6979TIP3    H120894   2.047   5.734   1.874
 6979TIP3    H220895   2.143   5.787   1.770
 6980TIP3   OH220896   0.935   6.985   6.547
 6980TIP3    H120897   0.870   7.055   6.543
 6980TIP3    H220898   0.921   6.935   6.466
 6981TIP3   OH220899   0.131   1.097   4.403
 6981TIP3    H120900   0.118   1.007   4.373
 6981TIP3    H220901   0.156   1.146   4.325
 6982TIP3   OH220902   4.712   3.629   4.968
 6982TIP3    H120903   4.754   3.696   5.021
 6982TIP3    H220904   4.630   3.669   4.939
 6983TIP3   OH220905   3.230   7.257   6.401
 6983TIP3    H120906   3.269   7.344   6.391
 6983TIP3    H220907   3.144   7.264   6.361
 6984TIP3   OH220908   2.321   7.654   3.801
 6984TIP3    H120909   2.412   7.673   3.823
 6984TIP3    H220910   2.323   7.565   3.767
 6985TIP3   OH220911   6.866   0.012   4.794
 6985TIP3    H120912   6.826   0.093   4.763
 6985TIP3    H220913   6.859   0.016   4.889
 6986TIP3   OH220914   5.561   5.850   3.894
 6986TIP3    H120915   5.504   5.803   3.833
 6986TIP3    H220916   5.503   5.874   3.967
 6987TIP3   OH220917   2.324   1.632   1.891
 6987TIP3    H120918   2.232   1.624   1.918
 6987TIP3    H220919   2.373   1.634   1.973
 6988TIP3   OH220920   3.889   3.199   6.578
 6988TIP3    H120921   3.901   3.268   6.513
 6988TIP3    H220922   3.968   3.203   6.633
 6989TIP3   OH220923   1.323   3.448   2.296
 6989TIP3    H120924   1.283   3.480   2.216
 6989TIP3    H220925   1.260   3.385   2.331
 6990TIP3   OH220926   0.925   1.840   0.939
 6990TIP3    H120927   0.984   1.806   1.007
 6990TIP3    H220928   0.870   1.904   0.984
 6991TIP3   OH220929   1.679   0.520   0.647
 6991TIP3    H120930   1.661   0.503   0.555
 6991TIP3    H220931   1.770   0.493   0.659
 6992TIP3   OH220932   0.163   1.304   6.403
 6992TIP3    H120933   0.081   1.254   6.404
 6992TIP3    H220934   0.168   1.339   6.314
 6993TIP3   OH220935   3.450   2.509   6.736
 6993TIP3    H120936   3.442   2.570   6.809
 6993TIP3    H220937   3.512   2.550   6.676
 6994TIP3   OH220938   3.111   4.014   1.436
 6994TIP3    H120939   3.072   4.082   1.381
 6994TIP3    H220940   3.161   3.960   1.375
 6995TIP3   OH220941   7.999   1.263   0.579
 6995TIP3    H120942   7.917   1.236   0.622
 6995TIP3    H220943   8.043   1.180   0.558
 6996TIP3   OH220944   5.342   4.826   0.152
 6996TIP3    H120945   5.388   4.746   0.178
 6996TIP3    H220946   5.290   4.849   0.229
 6997TIP3   OH220947   6.955   2.031   2.694
 6997TIP3    H120948   6.883   2.089   2.719
 6997TIP3    H220949   6.960   2.038   2.599
 6998TIP3   OH220950   2.121   2.439   4.444
 6998TIP3    H120951   2.077   2.506   4.496
 6998TIP3    H220952   2.054   2.406   4.385
 6999TIP3   OH220953   0.082   2.998   5.032
 6999TIP3    H120954   0.098   2.935   4.961
 6999TIP3    H220955   0.033   3.069   4.991
 7000TIP3   OH220956   3.143   6.191   1.835
 7000TIP3    H120957   3.207   6.134   1.791
 7000TIP3    H220958   3.197   6.254   1.884
 7001TIP3   OH220959   6.644   2.284   0.934
 7001TIP3    H120960   6.678   2.249   1.017
 7001TIP3    H220961   6.633   2.206   0.879
 7002TIP3   OH220962   3.649   5.444   6.065
 7002TIP3    H120963   3.587   5.371   6.057
 7002TIP3    H220964   3.682   5.437   6.154
 7003TIP3   OH220965   4.271   1.617   5.216
 7003TIP3    H120966   4.178   1.593   5.216
 7003TIP3    H220967   4.272   1.710   5.193
 7004TIP3   OH220968   2.159   4.552   2.363
 7004TIP3    H120969   2.072   4.512   2.354
 7004TIP3    H220970   2.220   4.480   2.349
 7005TIP3   OH220971   5.680   0.621   2.184
 7005TIP3    H120972   5.763   0.632   2.137
 7005TIP3    H220973   5.705   0.602   2.274
 7006TIP3   OH220974   1.779   3.056   6.308
 7006TIP3    H120975   1.781   3.096   6.395
 7006TIP3    H220976   1.809   2.966   6.322
 7007TIP3   OH220977   3.455   3.076   3.630
 7007TIP3    H120978   3.519   3.011   3.659
 7007TIP3    H220979   3.423   3.042   3.546
 7008TIP3   OH220980   0.988   0.573   6.067
 7008TIP3    H120981   0.952   0.535   6.147
 7008TIP3    H220982   0.928   0.545   5.998
 7009TIP3   OH220983   0.768   1.122   5.583
 7009TIP3    H120984   0.852   1.076   5.593
 7009TIP3    H220985   0.710   1.057   5.545
 7010TIP3   OH220986   2.944   3.868   2.443
 7010TIP3    H120987   2.889   3.809   2.392
 7010TIP3    H220988   2.984   3.812   2.510
 7011TIP3   OH220989   0.923   0.100   3.208
 7011TIP3    H120990   0.871   0.180   3.210
 7011TIP3    H220991   0.902   0.060   3.124
 7012TIP3   OH220992   4.095   7.194   2.994
 7012TIP3    H120993   4.180   7.165   3.027
 7012TIP3    H220994   4.096   7.168   2.902
 7013TIP3   OH220995   4.460   0.635   2.009
 7013TIP3    H120996   4.399   0.706   2.031
 7013TIP3    H220997   4.499   0.610   2.093
 7014TIP3   OH220998   1.254   0.300   4.722
 7014TIP3    H120999   1.223   0.225   4.672
 7014TIP3    H221000   1.343   0.276   4.750
 7015TIP3   OH221001   4.443   2.645   2.270
 7015TIP3    H121002   4.357   2.679   2.295
 7015TIP3    H221003   4.427   2.596   2.189
 7016TIP3   OH221004   5.098   3.392   0.567
 7016TIP3    H121005   5.005   3.414   0.576
 7016TIP3    H221006   5.135   3.466   0.518
 7017TIP3   OH221007   2.612   3.174   5.408
 7017TIP3    H121008   2.689   3.230   5.420
 7017TIP3    H221009   2.538   3.234   5.405
 7018TIP3   OH221010   2.741   1.851   6.178
 7018TIP3    H121011   2.816   1.887   6.224
 7018TIP3    H221012   2.668   1.863   6.239
 7019TIP3   OH221013   1.000   4.863   6.250
 7019TIP3    H121014   1.037   4.943   6.287
 7019TIP3    H221015   1.050   4.792   6.291
 7020TIP3   OH221016   7.827   4.381   2.503
 7020TIP3    H121017   7.741   4.401   2.466
 7020TIP3    H221018   7.875   4.339   2.432
 7021TIP3   OH221019   7.049   6.647   5.597
 7021TIP3    H121020   7.030   6.740   5.588
 7021TIP3    H221021   7.023   6.625   5.686
 7022TIP3   OH221022   1.025   4.677   5.311
 7022TIP3    H121023   1.078   4.736   5.365
 7022TIP3    H221024   1.005   4.728   5.232
 7023TIP3   OH221025   1.446   0.375   0.915
 7023TIP3    H121026   1.356   0.394   0.888
 7023TIP3    H221027   1.495   0.375   0.832
 7024TIP3   OH221028   5.634   3.612   3.455
 7024TIP3    H121029   5.627   3.607   3.550
 7024TIP3    H221030   5.685   3.535   3.430
 7025TIP3   OH221031   0.949   0.445   1.896
 7025TIP3    H121032   0.902   0.362   1.885
 7025TIP3    H221033   0.943   0.463   1.990
 7026TIP3   OH221034   7.185   1.185   1.682
 7026TIP3    H121035   7.142   1.236   1.750
 7026TIP3    H221036   7.255   1.139   1.728
 7027TIP3   OH221037   0.357   4.634   0.118
 7027TIP3    H121038   0.271   4.672   0.102
 7027TIP3    H221039   0.416   4.685   0.062
 7028TIP3   OH221040   1.468   5.487   1.832
 7028TIP3    H121041   1.459   5.512   1.740
 7028TIP3    H221042   1.388   5.519   1.874
 7029TIP3   OH221043   7.655   5.217   4.669
 7029TIP3    H121044   7.683   5.230   4.578
 7029TIP3    H221045   7.610   5.133   4.668
 7030TIP3   OH221046   6.899   0.796   5.644
 7030TIP3    H121047   6.861   0.883   5.650
 7030TIP3    H221048   6.991   0.812   5.620
 7031TIP3   OH221049   6.967   6.643   0.592
 7031TIP3    H121050   7.058   6.617   0.580
 7031TIP3    H221051   6.952   6.635   0.686
 7032TIP3   OH221052   3.258   7.518   5.092
 7032TIP3    H121053   3.245   7.536   4.999
 7032TIP3    H221054   3.182   7.556   5.135
 7033TIP3   OH221055   7.341   4.282   3.010
 7033TIP3    H121056   7.279   4.260   3.080
 7033TIP3    H221057   7.416   4.319   3.055
 7034TIP3   OH221058   5.542   6.460   0.638
 7034TIP3    H121059   5.553   6.485   0.546
 7034TIP3    H221060   5.571   6.369   0.642
 7035TIP3   OH221061   3.460   2.446   5.543
 7035TIP3    H121062   3.530   2.415   5.484
 7035TIP3    H221063   3.507   2.488   5.615
 7036TIP3   OH221064   6.720   0.021   6.493
 7036TIP3    H121065   6.681   0.092   6.443
 7036TIP3    H221066   6.683   0.030   6.581
 7037TIP3   OH221067   4.399   5.638   3.233
 7037TIP3    H121068   4.455   5.689   3.174
 7037TIP3    H221069   4.433   5.658   3.321
 7038TIP3   OH221070   7.241   5.071   1.730
 7038TIP3    H121071   7.287   5.032   1.804
 7038TIP3    H221072   7.234   5.001   1.666
 7039TIP3   OH221073   6.505   5.498   3.296
 7039TIP3    H121074   6.592   5.499   3.256
 7039TIP3    H221075   6.497   5.410   3.332
 7040TIP3   OH221076   5.375   4.602   6.442
 7040TIP3    H121077   5.382   4.508   6.426
 7040TIP3    H221078   5.301   4.611   6.502
 7041TIP3   OH221079   3.611   1.692   3.684
 7041TIP3    H121080   3.524   1.712   3.649
 7041TIP3    H221081   3.594   1.637   3.760
 7042TIP3   OH221082   5.349   0.089   5.454
 7042TIP3    H121083   5.331   0.041   5.374
 7042TIP3    H221084   5.365   0.179   5.425
 7043TIP3   OH221085   4.607   5.754   1.680
 7043TIP3    H121086   4.596   5.723   1.770
 7043TIP3    H221087   4.518   5.761   1.646
 7044TIP3   OH221088   5.682   3.371   2.861
 7044TIP3    H121089   5.728   3.369   2.777
 7044TIP3    H221090   5.590   3.380   2.838
 7045TIP3   OH221091   5.719   2.718   1.539
 7045TIP3    H121092   5.655   2.663   1.584
 7045TIP3    H221093   5.667   2.784   1.493
 7046TIP3   OH221094   6.781   0.053   1.879
 7046TIP3    H121095   6.702   0.063   1.932
 7046TIP3    H221096   6.784   0.131   1.824
 7047TIP3   OH221097   1.847   6.030   5.197
 7047TIP3    H121098   1.781   5.977   5.241
 7047TIP3    H221099   1.886   5.971   5.132
 7048TIP3   OH221100   7.381   1.316   6.715
 7048TIP3    H121101   7.403   1.362   6.796
 7048TIP3    H221102   7.401   1.379   6.646
 7049TIP3   OH221103   6.048   1.058   3.580
 7049TIP3    H121104   6.018   1.011   3.502
 7049TIP3    H221105   5.967   1.087   3.622
 7050TIP3   OH221106   5.738   2.087   1.713
 7050TIP3    H121107   5.815   2.030   1.716
 7050TIP3    H221108   5.728   2.119   1.803
 7051TIP3   OH221109   0.095   0.015   2.195
 7051TIP3    H121110   0.064   0.106   2.191
 7051TIP3    H221111   0.177   0.015   2.147
 7052TIP3   OH221112   6.097   3.912   3.339
 7052TIP3    H121113   6.057   3.855   3.405
 7052TIP3    H221114   6.029   3.976   3.319
 7053TIP3   OH221115   4.042   0.306   0.334
 7053TIP3    H121116   4.101   0.374   0.301
 7053TIP3    H221117   4.046   0.237   0.268
 7054TIP3   OH221118   3.688   5.655   1.202
 7054TIP3    H121119   3.684   5.750   1.212
 7054TIP3    H221120   3.656   5.639   1.113
 7055TIP3   OH221121   2.882   5.264   2.087
 7055TIP3    H121122   2.816   5.196   2.099
 7055TIP3    H221123   2.920   5.246   2.001
 7056TIP3   OH221124   4.723   7.197   3.995
 7056TIP3    H121125   4.722   7.102   4.004
 7056TIP3    H221126   4.652   7.216   3.934
 7057TIP3   OH221127   6.736   6.328   5.608
 7057TIP3    H121128   6.644   6.309   5.594
 7057TIP3    H221129   6.782   6.267   5.550
 7058TIP3   OH221130   5.783   6.634   6.455
 7058TIP3    H121131   5.714   6.598   6.510
 7058TIP3    H221132   5.830   6.557   6.421
 7059TIP3   OH221133   0.403   0.413   5.207
 7059TIP3    H121134   0.453   0.491   5.229
 7059TIP3    H221135   0.465   0.356   5.162
 7060TIP3   OH221136   2.746   6.835   0.720
 7060TIP3    H121137   2.759   6.818   0.814
 7060TIP3    H221138   2.835   6.847   0.686
 7061TIP3   OH221139   7.158   1.700   1.459
 7061TIP3    H121140   7.115   1.645   1.524
 7061TIP3    H221141   7.215   1.641   1.410
 7062TIP3   OH221142   4.425   5.128   4.244
 7062TIP3    H121143   4.404   5.048   4.197
 7062TIP3    H221144   4.365   5.129   4.318
 7063TIP3   OH221145   1.790   2.815   5.731
 7063TIP3    H121146   1.807   2.894   5.680
 7063TIP3    H221147   1.733   2.762   5.675
 7064TIP3   OH221148   6.284   2.444   4.603
 7064TIP3    H121149   6.226   2.379   4.563
 7064TIP3    H221150   6.345   2.468   4.533
 7065TIP3   OH221151   6.643   4.221   6.710
 7065TIP3    H121152   6.736   4.233   6.729
 7065TIP3    H221153   6.618   4.302   6.665
 7066TIP3   OH221154   0.626   2.828   5.206
 7066TIP3    H121155   0.653   2.906   5.157
 7066TIP3    H221156   0.708   2.790   5.237
 7067TIP3   OH221157   1.999   2.418   5.406
 7067TIP3    H121158   1.992   2.467   5.488
 7067TIP3    H221159   1.915   2.431   5.363
 7068TIP3   OH221160   7.091   2.533   0.705
 7068TIP3    H121161   7.004   2.573   0.713
 7068TIP3    H221162   7.123   2.527   0.795
 7069TIP3   OH221163   0.543   4.437   3.624
 7069TIP3    H121164   0.585   4.354   3.647
 7069TIP3    H221165   0.465   4.441   3.679
 7070TIP3   OH221166   7.926   2.670   0.312
 7070TIP3    H121167   7.980   2.736   0.267
 7070TIP3    H221168   7.895   2.613   0.243
 7071TIP3   OH221169   2.089   2.763   0.653
 7071TIP3    H121170   2.176   2.780   0.618
 7071TIP3    H221171   2.053   2.850   0.670
 7072TIP3   OH221172   5.943   1.704   0.015
 7072TIP3    H121173   5.991   1.639   0.066
 7072TIP3    H221174   5.886   1.748   0.079
 7073TIP3   OH221175   1.531   0.360   1.455
 7073TIP3    H121176   1.587   0.384   1.380
 7073TIP3    H221177   1.592   0.342   1.526
 7074TIP3   OH221178   6.202   7.248   2.322
 7074TIP3    H121179   6.281   7.216   2.365
 7074TIP3    H221180   6.216   7.342   2.310
 7075TIP3   OH221181   0.374   7.279   4.166
 7075TIP3    H121182   0.466   7.307   4.164
 7075TIP3    H221183   0.349   7.287   4.258
 7076TIP3   OH221184   8.278   1.417   3.816
 7076TIP3    H121185   8.202   1.385   3.864
 7076TIP3    H221186   8.242   1.478   3.751
 7077TIP3   OH221187   7.658   3.357   0.639
 7077TIP3    H121188   7.576   3.406   0.640
 7077TIP3    H221189   7.666   3.325   0.549
 7078TIP3   OH221190   4.281   0.366   5.432
 7078TIP3    H121191   4.245   0.279   5.451
 7078TIP3    H221192   4.255   0.419   5.508
 7079TIP3   OH221193   6.039   5.591   1.328
 7079TIP3    H121194   6.042   5.681   1.358
 7079TIP3    H221195   6.100   5.588   1.254
 7080TIP3   OH221196   5.697   6.379   5.952
 7080TIP3    H121197   5.664   6.289   5.950
 7080TIP3    H221198   5.620   6.434   5.939
 7081TIP3   OH221199   7.285   4.963   6.331
 7081TIP3    H121200   7.288   5.020   6.255
 7081TIP3    H221201   7.367   4.915   6.329
 7082TIP3   OH221202   4.914   0.971   1.333
 7082TIP3    H121203   4.848   1.040   1.328
 7082TIP3    H221204   4.863   0.889   1.330
 7083TIP3   OH221205   7.039   1.276   1.174
 7083TIP3    H121206   7.023   1.184   1.154
 7083TIP3    H221207   7.121   1.276   1.224
 7084TIP3   OH221208   2.024   1.994   2.884
 7084TIP3    H121209   1.942   1.946   2.893
 7084TIP3    H221210   2.044   1.991   2.790
 7085TIP3   OH221211   3.844   5.918   6.233
 7085TIP3    H121212   3.883   5.839   6.272
 7085TIP3    H221213   3.914   5.982   6.233
 7086TIP3   OH221214   3.283   6.305   2.573
 7086TIP3    H121215   3.308   6.362   2.499
 7086TIP3    H221216   3.314   6.218   2.548
 7087TIP3   OH221217   1.382   3.114   3.592
 7087TIP3    H121218   1.426   3.171   3.655
 7087TIP3    H221219   1.289   3.132   3.604
 7088TIP3   OH221220   5.607   2.096   0.862
 7088TIP3    H121221   5.672   2.055   0.920
 7088TIP3    H221222   5.650   2.177   0.832
 7089TIP3   OH221223   7.166   2.407   6.312
 7089TIP3    H121224   7.250   2.440   6.279
 7089TIP3    H221225   7.139   2.472   6.377
 7090TIP3   OH221226   0.607   6.092   2.288
 7090TIP3    H121227   0.667   6.107   2.361
 7090TIP3    H221228   0.636   6.009   2.250
 7091TIP3   OH221229   0.461   6.302   5.481
 7091TIP3    H121230   0.376   6.289   5.438
 7091TIP3    H221231   0.471   6.226   5.537
 7092TIP3   OH221232   1.869   7.029   3.688
 7092TIP3    H121233   1.917   7.101   3.646
 7092TIP3    H221234   1.937   6.977   3.731
 7093TIP3   OH221235   4.103   5.989   2.014
 7093TIP3    H121236   4.124   5.976   2.106
 7093TIP3    H221237   4.120   5.904   1.973
 7094TIP3   OH221238   5.507   7.633   3.646
 7094TIP3    H121239   5.539   7.559   3.698
 7094TIP3    H221240   5.412   7.625   3.649
 7095TIP3   OH221241   1.888   2.507   2.148
 7095TIP3    H121242   1.968   2.455   2.142
 7095TIP3    H221243   1.917   2.598   2.140
 7096TIP3   OH221244   2.827   0.186   6.347
 7096TIP3    H121245   2.774   0.107   6.362
 7096TIP3    H221246   2.894   0.183   6.415
 7097TIP3   OH221247   5.015   5.059   0.157
 7097TIP3    H121248   4.928   5.035   0.125
 7097TIP3    H221249   5.000   5.142   0.204
 7098TIP3   OH221250   8.117   1.075   2.380
 7098TIP3    H121251   8.083   1.085   2.291
 7098TIP3    H221252   8.105   0.983   2.401
 7099TIP3   OH221253   1.619   0.446   4.882
 7099TIP3    H121254   1.526   0.436   4.904
 7099TIP3    H221255   1.665   0.423   4.963
 7100TIP3   OH221256   7.786   5.852   1.527
 7100TIP3    H121257   7.741   5.847   1.442
 7100TIP3    H221258   7.878   5.870   1.504
 7101TIP3   OH221259   4.621   7.436   0.128
 7101TIP3    H121260   4.638   7.342   0.120
 7101TIP3    H221261   4.703   7.472   0.162
 7102TIP3   OH221262   7.638   4.124   1.862
 7102TIP3    H121263   7.672   4.034   1.865
 7102TIP3    H221264   7.715   4.179   1.875
 7103TIP3   OH221265   3.246   6.182   6.262
 7103TIP3    H121266   3.250   6.253   6.325
 7103TIP3    H221267   3.160   6.143   6.275
 7104TIP3   OH221268   3.726   4.092   0.230
 7104TIP3    H121269   3.765   4.163   0.282
 7104TIP3    H221270   3.640   4.126   0.204
 7105TIP3   OH221271   4.439   5.507   0.738
 7105TIP3    H121272   4.376   5.455   0.788
 7105TIP3    H221273   4.396   5.523   0.654
 7106TIP3   OH221274   1.815   6.999   3.354
 7106TIP3    H121275   1.743   6.947   3.390
 7106TIP3    H221276   1.894   6.960   3.391
 7107TIP3   OH221277   0.199   4.561   0.927
 7107TIP3    H121278   0.281   4.581   0.973
 7107TIP3    H221279   0.220   4.576   0.835
 7108TIP3   OH221280   4.231   2.177   4.139
 7108TIP3    H121281   4.264   2.240   4.075
 7108TIP3    H221282   4.276   2.199   4.220
 7109TIP3   OH221283   1.147   3.460   0.723
 7109TIP3    H121284   1.071   3.416   0.684
 7109TIP3    H221285   1.187   3.393   0.778
 7110TIP3   OH221286   4.860   7.286   3.532
 7110TIP3    H121287   4.858   7.329   3.446
 7110TIP3    H221288   4.813   7.345   3.590
 7111TIP3   OH221289   8.139   2.367   0.372
 7111TIP3    H121290   8.086   2.325   0.305
 7111TIP3    H221291   8.227   2.332   0.360
 7112TIP3   OH221292   3.275   5.661   3.281
 7112TIP3    H121293   3.223   5.633   3.205
 7112TIP3    H221294   3.348   5.600   3.283
 7113TIP3   OH221295   0.252   2.624   0.386
 7113TIP3    H121296   0.270   2.705   0.434
 7113TIP3    H221297   0.163   2.635   0.353
 7114TIP3   OH221298   4.891   0.252   5.192
 7114TIP3    H121299   4.938   0.240   5.274
 7114TIP3    H221300   4.873   0.346   5.188
 7115TIP3   OH221301   5.587   5.763   5.008
 7115TIP3    H121302   5.678   5.788   5.024
 7115TIP3    H221303   5.536   5.833   5.050
 7116TIP3   OH221304   2.897   2.373   4.990
 7116TIP3    H121305   2.870   2.365   4.898
 7116TIP3    H221306   2.815   2.365   5.039
 7117TIP3   OH221307   0.345   0.669   2.712
 7117TIP3    H121308   0.324   0.740   2.772
 7117TIP3    H221309   0.287   0.683   2.637
 7118TIP3   OH221310   6.643   4.514   4.933
 7118TIP3    H121311   6.591   4.577   4.883
 7118TIP3    H221312   6.733   4.545   4.923
 7119TIP3   OH221313   3.610   2.917   5.475
 7119TIP3    H121314   3.568   2.848   5.525
 7119TIP3    H221315   3.544   2.943   5.410
 7120TIP3   OH221316   1.120   4.804   3.007
 7120TIP3    H121317   1.059   4.869   3.041
 7120TIP3    H221318   1.110   4.729   3.065
 7121TIP3   OH221319   1.178   0.214   4.003
 7121TIP3    H121320   1.091   0.236   3.969
 7121TIP3    H221321   1.218   0.298   4.025
 7122TIP3   OH221322   6.596   6.570   2.283
 7122TIP3    H121323   6.581   6.490   2.334
 7122TIP3    H221324   6.556   6.551   2.198
 7123TIP3   OH221325   3.709   7.232   4.372
 7123TIP3    H121326   3.748   7.255   4.455
 7123TIP3    H221327   3.782   7.201   4.318
 7124TIP3   OH221328   0.394   2.299   1.109
 7124TIP3    H121329   0.326   2.362   1.131
 7124TIP3    H221330   0.454   2.301   1.183
 7125TIP3   OH221331   7.733   5.026   4.395
 7125TIP3    H121332   7.775   4.996   4.314
 7125TIP3    H221333   7.736   5.121   4.390
 7126TIP3   OH221334   0.184   6.314   0.756
 7126TIP3    H121335   0.109   6.327   0.698
 7126TIP3    H221336   0.218   6.402   0.771
 7127TIP3   OH221337   1.457   2.506   6.671
 7127TIP3    H121338   1.403   2.427   6.679
 7127TIP3    H221339   1.431   2.544   6.587
 7128TIP3   OH221340   7.482   3.270   2.065
 7128TIP3    H121341   7.547   3.204   2.038
 7128TIP3    H221342   7.506   3.349   2.017
 7129TIP3   OH221343   5.373   4.647   2.018
 7129TIP3    H121344   5.389   4.742   2.021
 7129TIP3    H221345   5.400   4.616   2.105
 7130TIP3   OH221346   1.374   5.681   4.207
 7130TIP3    H121347   1.320   5.633   4.146
 7130TIP3    H221348   1.462   5.681   4.168
 7131TIP3   OH221349   6.657   0.460   3.597
 7131TIP3    H121350   6.683   0.501   3.515
 7131TIP3    H221351   6.692   0.371   3.592
 7132TIP3   OH221352   8.036   1.255   4.313
 7132TIP3    H121353   8.045   1.165   4.343
 7132TIP3    H221354   8.057   1.252   4.220
 7133TIP3   OH221355   3.456   6.735   5.746
 7133TIP3    H121356   3.476   6.643   5.727
 7133TIP3    H221357   3.393   6.760   5.678
 7134TIP3   OH221358   2.451   3.966   4.857
 7134TIP3    H121359   2.385   3.971   4.926
 7134TIP3    H221360   2.534   3.983   4.902
 7135TIP3   OH221361   5.098   0.493   2.156
 7135TIP3    H121362   5.004   0.510   2.148
 7135TIP3    H221363   5.108   0.454   2.243
 7136TIP3   OH221364   1.855   6.741   5.169
 7136TIP3    H121365   1.801   6.704   5.100
 7136TIP3    H221366   1.875   6.667   5.226
 7137TIP3   OH221367   3.052   0.433   3.598
 7137TIP3    H121368   3.130   0.487   3.586
 7137TIP3    H221369   3.086   0.346   3.621
 7138TIP3   OH221370   4.817   2.804   1.959
 7138TIP3    H121371   4.750   2.865   1.989
 7138TIP3    H221372   4.855   2.769   2.040
 7139TIP3   OH221373   5.526   2.111   3.788
 7139TIP3    H121374   5.580   2.040   3.754
 7139TIP3    H221375   5.440   2.072   3.801
 7140TIP3   OH221376   0.323   1.561   6.400
 7140TIP3    H121377   0.300   1.483   6.450
 7140TIP3    H221378   0.375   1.614   6.461
 7141TIP3   OH221379   6.317   2.466   2.694
 7141TIP3    H121380   6.223   2.467   2.710
 7141TIP3    H221381   6.355   2.428   2.773
 7142TIP3   OH221382   3.973   1.960   5.821
 7142TIP3    H121383   3.965   1.932   5.729
 7142TIP3    H221384   3.976   2.055   5.817
 7143TIP3   OH221385   2.874   3.586   6.535
 7143TIP3    H121386   2.856   3.664   6.483
 7143TIP3    H221387   2.929   3.532   6.478
 7144TIP3   OH221388   2.006   4.834   2.643
 7144TIP3    H121389   1.969   4.845   2.555
 7144TIP3    H221390   2.100   4.849   2.632
 7145TIP3   OH221391   2.550   7.075   3.055
 7145TIP3    H121392   2.539   6.982   3.037
 7145TIP3    H221393   2.627   7.100   3.004
 7146TIP3   OH221394   6.727   7.073   2.633
 7146TIP3    H121395   6.759   7.162   2.622
 7146TIP3    H221396   6.730   7.058   2.727
 7147TIP3   OH221397   6.194   3.535   2.809
 7147TIP3    H121398   6.264   3.510   2.748
 7147TIP3    H221399   6.138   3.593   2.757
 7148TIP3   OH221400   6.683   5.505   4.160
 7148TIP3    H121401   6.611   5.542   4.210
 7148TIP3    H221402   6.642   5.456   4.089
 7149TIP3   OH221403   1.870   6.501   4.291
 7149TIP3    H121404   1.871   6.596   4.281
 7149TIP3    H221405   1.942   6.470   4.237
 7150TIP3   OH221406   7.134   1.455   2.315
 7150TIP3    H121407   7.138   1.361   2.300
 7150TIP3    H221408   7.142   1.493   2.227
 7151TIP3   OH221409   7.155   2.363   4.709
 7151TIP3    H121410   7.242   2.334   4.683
 7151TIP3    H221411   7.117   2.287   4.755
 7152TIP3   OH221412   6.272   4.466   3.267
 7152TIP3    H121413   6.316   4.494   3.347
 7152TIP3    H221414   6.295   4.532   3.202
 7153TIP3   OH221415   5.866   2.027   0.546
 7153TIP3    H121416   5.790   1.985   0.585
 7153TIP3    H221417   5.863   2.117   0.579
 7154TIP3   OH221418   5.722   3.434   3.109
 7154TIP3    H121419   5.784   3.383   3.162
 7154TIP3    H221420   5.712   3.384   3.028
 7155TIP3   OH221421   1.750   5.035   2.022
 7155TIP3    H121422   1.750   5.038   1.927
 7155TIP3    H221423   1.672   4.985   2.045
 7156TIP3   OH221424   6.477   2.498   4.410
 7156TIP3    H121425   6.527   2.497   4.328
 7156TIP3    H221426   6.539   2.466   4.476
 7157TIP3   OH221427   2.880   6.459   5.949
 7157TIP3    H121428   2.937   6.398   5.995
 7157TIP3    H221429   2.799   6.409   5.935
 7158TIP3   OH221430   3.840   0.209   5.694
 7158TIP3    H121431   3.821   0.298   5.664
 7158TIP3    H221432   3.756   0.164   5.693
 7159TIP3   OH221433   5.212   2.434   6.089
 7159TIP3    H121434   5.260   2.372   6.035
 7159TIP3    H221435   5.279   2.492   6.125
 7160TIP3   OH221436   6.564   1.685   3.861
 7160TIP3    H121437   6.537   1.653   3.947
 7160TIP3    H221438   6.658   1.698   3.870
 7161TIP3   OH221439   7.724   3.520   5.222
 7161TIP3    H121440   7.706   3.428   5.203
 7161TIP3    H221441   7.796   3.542   5.162
 7162TIP3   OH221442   8.172   5.663   6.037
 7162TIP3    H121443   8.126   5.644   6.119
 7162TIP3    H221444   8.149   5.591   5.978
 7163TIP3   OH221445   2.718   5.151   3.537
 7163TIP3    H121446   2.745   5.106   3.617
 7163TIP3    H221447   2.715   5.244   3.562
 7164TIP3   OH221448   3.100   1.725   1.907
 7164TIP3    H121449   3.010   1.718   1.875
 7164TIP3    H221450   3.102   1.669   1.985
 7165TIP3   OH221451   6.655   1.195   2.852
 7165TIP3    H121452   6.581   1.143   2.882
 7165TIP3    H221453   6.621   1.247   2.779
 7166TIP3   OH221454   1.620   1.186   0.561
 7166TIP3    H121455   1.529   1.202   0.538
 7166TIP3    H221456   1.639   1.249   0.631
 7167TIP3   OH221457   6.150   4.791   2.320
 7167TIP3    H121458   6.219   4.756   2.376
 7167TIP3    H221459   6.122   4.716   2.266
 7168TIP3   OH221460   7.718   5.708   4.409
 7168TIP3    H121461   7.686   5.735   4.495
 7168TIP3    H221462   7.639   5.681   4.361
 7169TIP3   OH221463   0.711   7.515   2.736
 7169TIP3    H121464   0.718   7.603   2.699
 7169TIP3    H221465   0.660   7.466   2.672
 7170TIP3   OH221466   3.253   1.053   0.650
 7170TIP3    H121467   3.194   1.099   0.590
 7170TIP3    H221468   3.284   1.121   0.710
 7171TIP3   OH221469   4.732   3.831   5.784
 7171TIP3    H121470   4.780   3.840   5.867
 7171TIP3    H221471   4.727   3.737   5.769
 7172TIP3   OH221472   5.253   4.738   0.536
 7172TIP3    H121473   5.197   4.793   0.481
 7172TIP3    H221474   5.203   4.725   0.617
 7173TIP3   OH221475   1.266   1.346   2.919
 7173TIP3    H121476   1.232   1.311   2.837
 7173TIP3    H221477   1.196   1.403   2.952
 7174TIP3   OH221478   3.433   0.506   3.755
 7174TIP3    H121479   3.498   0.453   3.801
 7174TIP3    H221480   3.361   0.516   3.818
 7175TIP3   OH221481   5.918   6.581   6.032
 7175TIP3    H121482   5.851   6.544   5.975
 7175TIP3    H221483   5.973   6.507   6.057
 7176TIP3   OH221484   3.949   7.476   0.113
 7176TIP3    H121485   3.923   7.559   0.074
 7176TIP3    H221486   3.948   7.493   0.208
 7177TIP3   OH221487   8.027   0.455   1.202
 7177TIP3    H121488   7.962   0.518   1.233
 7177TIP3    H221489   7.979   0.396   1.145
 7178TIP3   OH221490   4.801   7.117   6.267
 7178TIP3    H121491   4.801   7.070   6.350
 7178TIP3    H221492   4.893   7.122   6.242
 7179TIP3   OH221493   2.630   5.105   6.161
 7179TIP3    H121494   2.596   5.082   6.247
 7179TIP3    H221495   2.695   5.173   6.177
 7180TIP3   OH221496   2.352   6.374   2.579
 7180TIP3    H121497   2.302   6.384   2.660
 7180TIP3    H221498   2.402   6.293   2.592
 7181TIP3   OH221499   6.652   4.810   5.615
 7181TIP3    H121500   6.704   4.736   5.584
 7181TIP3    H221501   6.567   4.798   5.573
 7182TIP3   OH221502  -0.022   2.186   2.002
 7182TIP3    H121503   0.065   2.226   1.995
 7182TIP3    H221504  -0.007   2.092   1.986
 7183TIP3   OH221505   1.690   1.020   0.899
 7183TIP3    H121506   1.685   0.932   0.862
 7183TIP3    H221507   1.659   1.077   0.829
 7184TIP3   OH221508   4.479   0.756   5.617
 7184TIP3    H121509   4.500   0.715   5.533
 7184TIP3    H221510   4.433   0.836   5.594
 7185TIP3   OH221511   0.522   2.617   5.700
 7185TIP3    H121512   0.436   2.658   5.695
 7185TIP3    H221513   0.542   2.614   5.793
 7186TIP3   OH221514   3.478   5.958   2.009
 7186TIP3    H121515   3.556   5.913   1.975
 7186TIP3    H221516   3.511   6.040   2.046
 7187TIP3   OH221517   3.269   0.913   3.103
 7187TIP3    H121518   3.184   0.955   3.094
 7187TIP3    H221519   3.331   0.976   3.065
 7188TIP3   OH221520   3.044   7.343   0.863
 7188TIP3    H121521   3.058   7.312   0.773
 7188TIP3    H221522   2.963   7.300   0.890
 7189TIP3   OH221523   5.225   5.422   5.722
 7189TIP3    H121524   5.141   5.459   5.695
 7189TIP3    H221525   5.248   5.471   5.801
 7190TIP3   OH221526   5.528   1.188   1.456
 7190TIP3    H121527   5.480   1.269   1.443
 7190TIP3    H221528   5.495   1.153   1.539
 7191TIP3   OH221529   4.108   1.660   5.689
 7191TIP3    H121530   4.025   1.690   5.650
 7191TIP3    H221531   4.165   1.644   5.614
 7192TIP3   OH221532   4.211   5.386  -0.014
 7192TIP3    H121533   4.233   5.399   0.079
 7192TIP3    H221534   4.191   5.474  -0.047
 7193TIP3   OH221535   1.978   6.221   2.352
 7193TIP3    H121536   2.042   6.159   2.386
 7193TIP3    H221537   2.018   6.254   2.271
 7194TIP3   OH221538   6.226   5.879   5.502
 7194TIP3    H121539   6.193   5.916   5.584
 7194TIP3    H221540   6.319   5.902   5.501
 7195TIP3   OH221541   1.877   7.483   0.823
 7195TIP3    H121542   1.837   7.538   0.889
 7195TIP3    H221543   1.966   7.468   0.854
 7196TIP3   OH221544   7.758   0.018   3.798
 7196TIP3    H121545   7.852   0.035   3.797
 7196TIP3    H221546   7.732   0.021   3.706
 7197TIP3   OH221547   4.919   2.405   4.664
 7197TIP3    H121548   4.938   2.455   4.585
 7197TIP3    H221549   5.004   2.390   4.704
 7198TIP3   OH221550   4.358   1.544   0.357
 7198TIP3    H121551   4.366   1.457   0.397
 7198TIP3    H221552   4.390   1.604   0.425
 7199TIP3   OH221553   3.269   2.990   6.465
 7199TIP3    H121554   3.204   2.976   6.534
 7199TIP3    H221555   3.236   3.064   6.415
 7200TIP3   OH221556   6.072   1.178   1.205
 7200TIP3    H121557   6.052   1.255   1.258
 7200TIP3    H221558   6.152   1.142   1.243
 7201TIP3   OH221559   2.741   6.940   4.109
 7201TIP3    H121560   2.723   6.996   4.184
 7201TIP3    H221561   2.707   6.989   4.034
 7202TIP3   OH221562   5.015   6.480   5.357
 7202TIP3    H121563   4.955   6.544   5.395
 7202TIP3    H221564   5.082   6.532   5.314
 7203TIP3   OH221565   4.059   7.436   4.769
 7203TIP3    H121566   4.021   7.497   4.833
 7203TIP3    H221567   4.087   7.493   4.697
 7204TIP3   OH221568   0.272   0.763   4.144
 7204TIP3    H121569   0.310   0.851   4.137
 7204TIP3    H221570   0.345   0.704   4.130
 7205TIP3   OH221571   5.438   1.600   3.955
 7205TIP3    H121572   5.434   1.527   4.017
 7205TIP3    H221573   5.527   1.634   3.964
 7206TIP3   OH221574   4.937   1.884   3.007
 7206TIP3    H121575   5.027   1.889   3.038
 7206TIP3    H221576   4.931   1.799   2.963
 7207TIP3   OH221577   5.475   6.824   3.986
 7207TIP3    H121578   5.476   6.729   3.981
 7207TIP3    H221579   5.384   6.849   3.969
 7208TIP3   OH221580   2.219   3.794   2.221
 7208TIP3    H121581   2.237   3.737   2.295
 7208TIP3    H221582   2.124   3.808   2.224
 7209TIP3   OH221583   8.112   5.809   0.497
 7209TIP3    H121584   8.057   5.783   0.424
 7209TIP3    H221585   8.159   5.730   0.522
 7210TIP3   OH221586   0.661   6.334   1.185
 7210TIP3    H121587   0.661   6.344   1.281
 7210TIP3    H221588   0.721   6.262   1.169
 7211TIP3   OH221589   5.478   3.729   0.862
 7211TIP3    H121590   5.527   3.770   0.933
 7211TIP3    H221591   5.490   3.635   0.876
 7212TIP3   OH221592   5.002   4.339   3.659
 7212TIP3    H121593   4.926   4.377   3.614
 7212TIP3    H221594   5.075   4.355   3.600
 7213TIP3   OH221595   0.797   7.231   6.608
 7213TIP3    H121596   0.784   7.287   6.532
 7213TIP3    H221597   0.753   7.276   6.680
 7214TIP3   OH221598   1.514   3.921   2.294
 7214TIP3    H121599   1.504   3.826   2.307
 7214TIP3    H221600   1.435   3.948   2.248
 7215TIP3   OH221601   5.994   0.941   6.684
 7215TIP3    H121602   5.989   1.005   6.613
 7215TIP3    H221603   5.970   0.857   6.643
 7216TIP3   OH221604   4.892   3.825   6.023
 7216TIP3    H121605   4.905   3.767   6.098
 7216TIP3    H221606   4.967   3.809   5.967
 7217TIP3   OH221607   2.141   4.070   0.743
 7217TIP3    H121608   2.060   4.105   0.781
 7217TIP3    H221609   2.139   4.098   0.652
 7218TIP3   OH221610   7.778   5.325   3.100
 7218TIP3    H121611   7.765   5.369   3.016
 7218TIP3    H221612   7.730   5.242   3.091
 7219TIP3   OH221613   5.109   2.685   5.663
 7219TIP3    H121614   5.024   2.641   5.666
 7219TIP3    H221615   5.106   2.747   5.736
 7220TIP3   OH221616   2.078   3.538   1.201
 7220TIP3    H121617   2.167   3.536   1.235
 7220TIP3    H221618   2.069   3.455   1.153
 7221TIP3   OH221619   3.710   4.712   0.128
 7221TIP3    H121620   3.743   4.790   0.171
 7221TIP3    H221621   3.699   4.648   0.198
 7222TIP3   OH221622   8.250   5.466   4.448
 7222TIP3    H121623   8.213   5.380   4.431
 7222TIP3    H221624   8.179   5.527   4.428
 7223TIP3   OH221625   0.126   5.404   6.465
 7223TIP3    H121626   0.082   5.325   6.496
 7223TIP3    H221627   0.132   5.460   6.542
 7224TIP3   OH221628   3.334   6.373   4.935
 7224TIP3    H121629   3.295   6.289   4.912
 7224TIP3    H221630   3.312   6.430   4.861
 7225TIP3   OH221631   1.022   2.093   3.890
 7225TIP3    H121632   1.069   2.140   3.959
 7225TIP3    H221633   1.055   2.130   3.808
 7226TIP3   OH221634   4.713   7.393   2.783
 7226TIP3    H121635   4.768   7.401   2.706
 7226TIP3    H221636   4.637   7.342   2.753
 7227TIP3   OH221637   2.437   3.245   1.617
 7227TIP3    H121638   2.396   3.322   1.657
 7227TIP3    H221639   2.384   3.172   1.648
 7228TIP3   OH221640   5.796   0.660   3.699
 7228TIP3    H121641   5.831   0.571   3.689
 7228TIP3    H221642   5.853   0.715   3.647
 7229TIP3   OH221643   6.612   3.017   1.025
 7229TIP3    H121644   6.613   3.057   1.112
 7229TIP3    H221645   6.696   2.972   1.019
 7230TIP3   OH221646   6.434   7.272   4.601
 7230TIP3    H121647   6.500   7.203   4.605
 7230TIP3    H221648   6.464   7.338   4.664
 7231TIP3   OH221649   1.753   4.691   3.502
 7231TIP3    H121650   1.695   4.668   3.429
 7231TIP3    H221651   1.800   4.768   3.472
 7232TIP3   OH221652   6.764   3.083   6.586
 7232TIP3    H121653   6.843   3.057   6.537
 7232TIP3    H221654   6.720   3.000   6.605
 7233TIP3   OH221655   3.688   0.374   5.170
 7233TIP3    H121656   3.778   0.391   5.197
 7233TIP3    H221657   3.652   0.319   5.241
 7234TIP3   OH221658   5.707   7.131   1.330
 7234TIP3    H121659   5.695   7.185   1.408
 7234TIP3    H221660   5.660   7.178   1.261
 7235TIP3   OH221661   5.244   1.750   6.149
 7235TIP3    H121662   5.196   1.827   6.178
 7235TIP3    H221663   5.181   1.678   6.159
 7236TIP3   OH221664   1.223   4.054   2.532
 7236TIP3    H121665   1.203   4.130   2.586
 7236TIP3    H221666   1.246   4.090   2.446
 7237TIP3   OH221667   0.708   2.936   6.107
 7237TIP3    H121668   0.800   2.959   6.091
 7237TIP3    H221669   0.659   2.994   6.049
 7238TIP3   OH221670   0.961   5.443   2.746
 7238TIP3    H121671   0.880   5.483   2.713
 7238TIP3    H221672   1.018   5.437   2.670
 7239TIP3   OH221673   3.338   4.223   2.582
 7239TIP3    H121674   3.411   4.182   2.536
 7239TIP3    H221675   3.296   4.278   2.515
 7240TIP3   OH221676   4.128   2.865   6.772
 7240TIP3    H121677   4.169   2.950   6.792
 7240TIP3    H221678   4.157   2.845   6.683
 7241TIP3   OH221679   3.424   2.042   5.940
 7241TIP3    H121680   3.445   1.949   5.945
 7241TIP3    H221681   3.438   2.074   6.029
 7242TIP3   OH221682   5.496   5.202   0.980
 7242TIP3    H121683   5.460   5.133   1.036
 7242TIP3    H221684   5.498   5.163   0.892
 7243TIP3   OH221685   5.270   6.121   1.272
 7243TIP3    H121686   5.311   6.089   1.192
 7243TIP3    H221687   5.277   6.048   1.333
 7244TIP3   OH221688   0.162   5.402   2.871
 7244TIP3    H121689   0.111   5.348   2.931
 7244TIP3    H221690   0.194   5.342   2.804
 7245TIP3   OH221691   5.921   3.005   2.207
 7245TIP3    H121692   5.953   3.055   2.132
 7245TIP3    H221693   5.847   3.056   2.239
 7246TIP3   OH221694   5.672   2.068   3.045
 7246TIP3    H121695   5.730   2.137   3.077
 7246TIP3    H221696   5.730   1.994   3.027
 7247TIP3   OH221697   3.030   7.314   3.032
 7247TIP3    H121698   2.971   7.382   3.064
 7247TIP3    H221699   3.071   7.278   3.111
 7248TIP3   OH221700   6.242   3.895   5.856
 7248TIP3    H121701   6.322   3.874   5.905
 7248TIP3    H221702   6.261   3.871   5.766
 7249TIP3   OH221703   4.248   6.524   4.973
 7249TIP3    H121704   4.317   6.572   4.926
 7249TIP3    H221705   4.166   6.554   4.934
 7250TIP3   OH221706   5.624   1.082   0.424
 7250TIP3    H121707   5.681   1.102   0.350
 7250TIP3    H221708   5.660   1.132   0.497
 7251TIP3   OH221709   7.624   1.874   1.464
 7251TIP3    H121710   7.555   1.905   1.405
 7251TIP3    H221711   7.668   1.804   1.414
 7252TIP3   OH221712   5.795   7.316   6.037
 7252TIP3    H121713   5.757   7.380   5.977
 7252TIP3    H221714   5.753   7.233   6.014
 7253TIP3   OH221715   4.261   3.057   3.471
 7253TIP3    H121716   4.253   3.074   3.377
 7253TIP3    H221717   4.203   3.121   3.512
 7254TIP3   OH221718   6.808   0.120   5.844
 7254TIP3    H121719   6.740   0.056   5.864
 7254TIP3    H221720   6.847   0.142   5.929
 7255TIP3   OH221721   5.720   3.971   0.710
 7255TIP3    H121722   5.636   3.931   0.687
 7255TIP3    H221723   5.732   4.042   0.646
 7256TIP3   OH221724   0.479   7.708   0.782
 7256TIP3    H121725   0.473   7.733   0.690
 7256TIP3    H221726   0.553   7.647   0.785
 7257TIP3   OH221727   8.087   1.502   0.119
 7257TIP3    H121728   8.028   1.481   0.047
 7257TIP3    H221729   8.061   1.442   0.190
 7258TIP3   OH221730   1.954   7.736   2.804
 7258TIP3    H121731   2.035   7.783   2.823
 7258TIP3    H221732   1.915   7.718   2.890
 7259TIP3   OH221733   0.630   1.935   1.526
 7259TIP3    H121734   0.604   1.943   1.618
 7259TIP3    H221735   0.564   1.986   1.478
 7260TIP3   OH221736   5.766   3.605   2.305
 7260TIP3    H121737   5.733   3.656   2.232
 7260TIP3    H221738   5.722   3.641   2.382
 7261TIP3   OH221739   3.202   3.677   4.231
 7261TIP3    H121740   3.243   3.705   4.150
 7261TIP3    H221741   3.123   3.732   4.238
 7262TIP3   OH221742   0.707   1.803   1.153
 7262TIP3    H121743   0.661   1.849   1.082
 7262TIP3    H221744   0.773   1.865   1.183
 7263TIP3   OH221745   7.338   7.579   2.930
 7263TIP3    H121746   7.382   7.509   2.978
 7263TIP3    H221747   7.344   7.655   2.987
 7264TIP3   OH221748   1.088   3.686   2.677
 7264TIP3    H121749   1.032   3.726   2.611
 7264TIP3    H221750   1.155   3.752   2.695
 7265TIP3   OH221751   0.405   4.722   5.874
 7265TIP3    H121752   0.317   4.695   5.845
 7265TIP3    H221753   0.416   4.678   5.958
 7266TIP3   OH221754   5.030   5.467   0.011
 7266TIP3    H121755   5.066   5.532   0.072
 7266TIP3    H221756   4.936   5.466   0.030
 7267TIP3   OH221757   4.048   7.846   3.384
 7267TIP3    H121758   4.000   7.766   3.406
 7267TIP3    H221759   4.135   7.815   3.359
 7268TIP3   OH221760   8.296   2.592   4.233
 7268TIP3    H121761   8.289   2.657   4.164
 7268TIP3    H221762   8.264   2.511   4.193
 7269TIP3   OH221763   7.327   2.843   5.660
 7269TIP3    H121764   7.267   2.906   5.621
 7269TIP3    H221765   7.273   2.795   5.723
 7270TIP3   OH221766   6.872   3.780   5.720
 7270TIP3    H121767   6.839   3.866   5.745
 7270TIP3    H221768   6.842   3.768   5.630
 7271TIP3   OH221769   4.581   0.102   3.388
 7271TIP3    H121770   4.567   0.118   3.481
 7271TIP3    H221771   4.516   0.158   3.344
 7272TIP3   OH221772   2.559   2.802   6.271
 7272TIP3    H121773   2.580   2.711   6.252
 7272TIP3    H221774   2.602   2.851   6.201
 7273TIP3   OH221775   7.016   2.547   3.047
 7273TIP3    H121776   7.076   2.621   3.037
 7273TIP3    H221777   6.931   2.580   3.016
 7274TIP3   OH221778   3.888   4.994   5.073
 7274TIP3    H121779   3.903   4.938   4.996
 7274TIP3    H221780   3.796   5.019   5.067
 7275TIP3   OH221781   1.894   2.591   1.386
 7275TIP3    H121782   1.870   2.530   1.317
 7275TIP3    H221783   1.983   2.566   1.411
 7276TIP3   OH221784   2.866   3.126   4.209
 7276TIP3    H121785   2.921   3.200   4.183
 7276TIP3    H221786   2.853   3.076   4.128
 7277TIP3   OH221787   5.109   2.364   1.701
 7277TIP3    H121788   5.143   2.308   1.632
 7277TIP3    H221789   5.080   2.443   1.656
 7278TIP3   OH221790   0.223   4.478   6.027
 7278TIP3    H121791   0.298   4.452   5.973
 7278TIP3    H221792   0.262   4.504   6.111
 7279TIP3   OH221793   2.719   2.147   3.318
 7279TIP3    H121794   2.739   2.190   3.234
 7279TIP3    H221795   2.631   2.179   3.341
 7280TIP3   OH221796   1.965   2.643   4.546
 7280TIP3    H121797   1.949   2.666   4.637
 7280TIP3    H221798   1.879   2.625   4.509
 7281TIP3   OH221799   5.361   6.655   2.672
 7281TIP3    H121800   5.399   6.660   2.584
 7281TIP3    H221801   5.413   6.716   2.724
 7282TIP3   OH221802   2.325   3.536   1.317
 7282TIP3    H121803   2.395   3.586   1.360
 7282TIP3    H221804   2.352   3.445   1.327
 7283TIP3   OH221805   6.207   4.044   4.519
 7283TIP3    H121806   6.295   4.012   4.503
 7283TIP3    H221807   6.173   4.067   4.432
 7284TIP3   OH221808   1.512   0.552   1.753
 7284TIP3    H121809   1.491   0.459   1.741
 7284TIP3    H221810   1.429   0.592   1.778
 7285TIP3   OH221811   3.325   1.367   4.063
 7285TIP3    H121812   3.380   1.417   4.002
 7285TIP3    H221813   3.324   1.279   4.027
 7286TIP3   OH221814   6.037   3.212   5.829
 7286TIP3    H121815   5.949   3.193   5.798
 7286TIP3    H221816   6.080   3.127   5.835
 7287TIP3   OH221817   1.628   6.193   3.404
 7287TIP3    H121818   1.546   6.143   3.401
 7287TIP3    H221819   1.679   6.150   3.472
 7288TIP3   OH221820   7.896   1.731   0.109
 7288TIP3    H121821   7.910   1.701   0.019
 7288TIP3    H221822   7.830   1.670   0.144
 7289TIP3   OH221823   7.482   5.668   2.862
 7289TIP3    H121824   7.429   5.701   2.789
 7289TIP3    H221825   7.476   5.736   2.929
 7290TIP3   OH221826   7.409   4.592   6.547
 7290TIP3    H121827   7.480   4.548   6.501
 7290TIP3    H221828   7.341   4.525   6.555
 7291TIP3   OH221829   5.241   0.879   2.908
 7291TIP3    H121830   5.147   0.861   2.911
 7291TIP3    H221831   5.273   0.849   2.993
 7292TIP3   OH221832   7.784   7.038   2.314
 7292TIP3    H121833   7.735   7.110   2.276
 7292TIP3    H221834   7.867   7.037   2.267
 7293TIP3   OH221835   6.171   0.635   3.112
 7293TIP3    H121836   6.076   0.644   3.105
 7293TIP3    H221837   6.187   0.541   3.103
 7294TIP3   OH221838   2.254   0.511   4.906
 7294TIP3    H121839   2.205   0.564   4.968
 7294TIP3    H221840   2.216   0.423   4.914
 7295TIP3   OH221841   6.389   4.919   6.074
 7295TIP3    H121842   6.475   4.910   6.117
 7295TIP3    H221843   6.343   4.838   6.094
 7296TIP3   OH221844   3.634   6.257   2.963
 7296TIP3    H121845   3.612   6.230   3.052
 7296TIP3    H221846   3.665   6.177   2.921
 7297TIP3   OH221847   2.714   4.330   4.075
 7297TIP3    H121848   2.709   4.272   4.151
 7297TIP3    H221849   2.791   4.298   4.026
 7298TIP3   OH221850   1.917   0.368   5.361
 7298TIP3    H121851   1.935   0.367   5.455
 7298TIP3    H221852   1.909   0.461   5.338
 7299TIP3   OH221853   2.914   4.119   2.287
 7299TIP3    H121854   2.820   4.130   2.302
 7299TIP3    H221855   2.930   4.027   2.307
 7300TIP3   OH221856   2.254   2.191   4.766
 7300TIP3    H121857   2.212   2.183   4.852
 7300TIP3    H221858   2.181   2.185   4.704
 7301TIP3   OH221859   5.174   7.391   0.267
 7301TIP3    H121860   5.195   7.438   0.187
 7301TIP3    H221861   5.245   7.328   0.277
 7302TIP3   OH221862   3.325   1.669   6.406
 7302TIP3    H121863   3.375   1.588   6.408
 7302TIP3    H221864   3.325   1.695   6.314
 7303TIP3   OH221865   1.018   3.862   3.959
 7303TIP3    H121866   1.040   3.781   3.914
 7303TIP3    H221867   1.098   3.915   3.955
 7304TIP3   OH221868   7.819   5.114   0.444
 7304TIP3    H121869   7.739   5.119   0.392
 7304TIP3    H221870   7.885   5.081   0.384
 7305TIP3   OH221871   4.664   4.785   2.594
 7305TIP3    H121872   4.749   4.776   2.637
 7305TIP3    H221873   4.604   4.733   2.648
 7306TIP3   OH221874   1.856   5.332   1.896
 7306TIP3    H121875   1.798   5.322   1.821
 7306TIP3    H221876   1.798   5.348   1.970
 7307TIP3   OH221877   3.000   3.979   6.639
 7307TIP3    H121878   3.044   3.918   6.699
 7307TIP3    H221879   3.032   3.955   6.553
 7308TIP3   OH221880   3.424   2.984   4.875
 7308TIP3    H121881   3.411   2.912   4.813
 7308TIP3    H221882   3.366   2.964   4.948
 7309TIP3   OH221883   3.671   2.363   6.439
 7309TIP3    H121884   3.702   2.273   6.432
 7309TIP3    H221885   3.630   2.382   6.355
 7310TIP3   OH221886   7.927   2.588   6.454
 7310TIP3    H121887   8.017   2.562   6.470
 7310TIP3    H221888   7.922   2.604   6.359
 7311TIP3   OH221889   4.546   0.465   3.041
 7311TIP3    H121890   4.588   0.490   2.959
 7311TIP3    H221891   4.537   0.547   3.089
 7312TIP3   OH221892   6.963   7.217   4.144
 7312TIP3    H121893   7.023   7.195   4.073
 7312TIP3    H221894   6.989   7.305   4.171
 7313TIP3   OH221895   2.072   3.006   1.253
 7313TIP3    H121896   2.123   2.958   1.318
 7313TIP3    H221897   2.059   2.944   1.182
 7314TIP3   OH221898   2.828   5.836   5.926
 7314TIP3    H121899   2.833   5.930   5.944
 7314TIP3    H221900   2.858   5.794   6.006
 7315TIP3   OH221901   5.991   1.178   6.539
 7315TIP3    H121902   6.026   1.268   6.538
 7315TIP3    H221903   6.015   1.143   6.453
 7316TIP3   OH221904   6.113   4.151   4.276
 7316TIP3    H121905   6.036   4.206   4.261
 7316TIP3    H221906   6.139   4.122   4.189
 7317TIP3   OH221907   2.606   4.519   0.504
 7317TIP3    H121908   2.618   4.611   0.527
 7317TIP3    H221909   2.533   4.490   0.558
 7318TIP3   OH221910   2.667   7.668   0.488
 7318TIP3    H121911   2.632   7.704   0.569
 7318TIP3    H221912   2.668   7.742   0.427
 7319TIP3   OH221913   7.988   7.637   3.147
 7319TIP3    H121914   7.930   7.628   3.070
 7319TIP3    H221915   7.965   7.562   3.203
 7320TIP3   OH221916   5.247   5.809   1.992
 7320TIP3    H121917   5.333   5.769   1.983
 7320TIP3    H221918   5.258   5.897   1.956
 7321TIP3   OH221919   7.696   5.893   5.950
 7321TIP3    H121920   7.654   5.903   6.036
 7321TIP3    H221921   7.629   5.918   5.887
 7322TIP3   OH221922   3.121   5.869   0.895
 7322TIP3    H121923   3.188   5.866   0.827
 7322TIP3    H221924   3.097   5.962   0.901
 7323TIP3   OH221925   4.682   4.125   1.741
 7323TIP3    H121926   4.744   4.152   1.673
 7323TIP3    H221927   4.716   4.166   1.821
 7324TIP3   OH221928   7.068   4.500   1.817
 7324TIP3    H121929   7.062   4.465   1.728
 7324TIP3    H221930   7.042   4.592   1.808
 7325TIP3   OH221931   3.641   6.664   5.426
 7325TIP3    H121932   3.566   6.615   5.458
 7325TIP3    H221933   3.604   6.730   5.368
 7326TIP3   OH221934   8.101   6.530   6.703
 7326TIP3    H121935   8.133   6.504   6.789
 7326TIP3    H221936   8.093   6.448   6.654
 7327TIP3   OH221937   2.041   4.505   0.760
 7327TIP3    H121938   2.104   4.520   0.829
 7327TIP3    H221939   2.093   4.473   0.686
 7328TIP3   OH221940   2.816   7.211   5.291
 7328TIP3    H121941   2.798   7.120   5.272
 7328TIP3    H221942   2.845   7.249   5.208
 7329TIP3   OH221943   6.016   3.047   2.828
 7329TIP3    H121944   6.056   2.961   2.845
 7329TIP3    H221945   5.945   3.053   2.891
 7330TIP3   OH221946   0.607   4.696   4.648
 7330TIP3    H121947   0.691   4.663   4.680
 7330TIP3    H221948   0.628   4.783   4.613
 7331TIP3   OH221949   4.267   0.746   0.509
 7331TIP3    H121950   4.322   0.762   0.585
 7331TIP3    H221951   4.184   0.788   0.529
 7332TIP3   OH221952   5.579   1.592   0.777
 7332TIP3    H121953   5.486   1.610   0.769
 7332TIP3    H221954   5.603   1.549   0.695
 7333TIP3   OH221955   7.170   4.200   4.610
 7333TIP3    H121956   7.075   4.194   4.601
 7333TIP3    H221957   7.204   4.125   4.561
 7334TIP3   OH221958   2.158   3.532   5.007
 7334TIP3    H121959   2.225   3.471   5.036
 7334TIP3    H221960   2.109   3.554   5.086
 7335TIP3   OH221961   5.347   6.621   5.307
 7335TIP3    H121962   5.279   6.620   5.375
 7335TIP3    H221963   5.349   6.531   5.274
 7336TIP3   OH221964   0.032   7.369   1.413
 7336TIP3    H121965   0.074   7.346   1.330
 7336TIP3    H221966  -0.062   7.362   1.396
 7337TIP3   OH221967   0.561   4.141   0.878
 7337TIP3    H121968   0.650   4.114   0.853
 7337TIP3    H221969   0.536   4.081   0.948
 7338TIP3   OH221970   5.928   0.734   6.517
 7338TIP3    H121971   5.936   0.640   6.528
 7338TIP3    H221972   5.892   0.745   6.429
 7339TIP3   OH221973   7.637   2.679   4.858
 7339TIP3    H121974   7.693   2.616   4.904
 7339TIP3    H221975   7.610   2.633   4.779
 7340TIP3   OH221976   6.281   6.204   6.687
 7340TIP3    H121977   6.297   6.274   6.624
 7340TIP3    H221978   6.315   6.125   6.644
 7341TIP3   OH221979   6.612   5.153   5.823
 7341TIP3    H121980   6.630   5.189   5.910
 7341TIP3    H221981   6.546   5.085   5.838
 7342TIP3   OH221982   8.064   6.364   0.948
 7342TIP3    H121983   8.078   6.456   0.967
 7342TIP3    H221984   7.983   6.342   0.994
 7343TIP3   OH221985   7.783   2.322   1.354
 7343TIP3    H121986   7.802   2.257   1.422
 7343TIP3    H221987   7.702   2.364   1.383
 7344TIP3   OH221988   1.009   2.792   6.112
 7344TIP3    H121989   1.092   2.756   6.081
 7344TIP3    H221990   0.995   2.870   6.058
 7345TIP3   OH221991   5.329   3.939   5.073
 7345TIP3    H121992   5.259   3.875   5.060
 7345TIP3    H221993   5.367   3.952   4.986
 7346TIP3   OH221994   2.194   3.280   0.835
 7346TIP3    H121995   2.255   3.229   0.781
 7346TIP3    H221996   2.245   3.355   0.864
 7347TIP3   OH221997   4.233   5.813   0.038
 7347TIP3    H121998   4.153   5.790  -0.010
 7347TIP3    H221999   4.304   5.788  -0.021
 7348TIP3   OH222000   4.553   4.608   5.894
 7348TIP3    H122001   4.522   4.533   5.844
 7348TIP3    H222002   4.520   4.684   5.846
 7349TIP3   OH222003   2.690   4.921   5.653
 7349TIP3    H122004   2.714   4.945   5.743
 7349TIP3    H222005   2.703   5.001   5.602
 7350TIP3   OH222006   2.854   4.465   3.735
 7350TIP3    H122007   2.839   4.539   3.676
 7350TIP3    H222008   2.796   4.481   3.809
 7351TIP3   OH222009   6.774   2.383   3.843
 7351TIP3    H122010   6.741   2.338   3.765
 7351TIP3    H222011   6.749   2.475   3.830
 7352TIP3   OH222012   1.736   5.406   2.320
 7352TIP3    H122013   1.712   5.405   2.228
 7352TIP3    H222014   1.709   5.493   2.351
 7353TIP3   OH222015   2.625   7.293   5.972
 7353TIP3    H122016   2.698   7.232   5.980
 7353TIP3    H222017   2.558   7.245   5.925
 7354TIP3   OH222018   4.677   3.899   6.179
 7354TIP3    H122019   4.583   3.894   6.162
 7354TIP3    H222020   4.718   3.881   6.095
 7355TIP3   OH222021   6.502   2.228   3.238
 7355TIP3    H122022   6.540   2.304   3.194
 7355TIP3    H222023   6.480   2.260   3.325
 7356TIP3   OH222024   0.350   4.236   0.084
 7356TIP3    H122025   0.268   4.284   0.094
 7356TIP3    H222026   0.324   4.148   0.057
 7357TIP3   OH222027   3.151   7.100   3.220
 7357TIP3    H122028   3.064   7.062   3.215
 7357TIP3    H222029   3.197   7.066   3.144
 7358TIP3   OH222030   3.906   2.188   2.534
 7358TIP3    H122031   3.978   2.250   2.523
 7358TIP3    H222032   3.914   2.157   2.624
 7359TIP3   OH222033   3.303   5.703   2.952
 7359TIP3    H122034   3.329   5.795   2.949
 7359TIP3    H222035   3.386   5.656   2.960
 7360TIP3   OH222036   1.219   2.955   5.086
 7360TIP3    H122037   1.176   2.876   5.117
 7360TIP3    H222038   1.295   2.965   5.142
 7361TIP3   OH222039   4.381   4.273   1.640
 7361TIP3    H122040   4.473   4.299   1.634
 7361TIP3    H222041   4.349   4.276   1.550
 7362TIP3   OH222042   1.650   4.296   2.781
 7362TIP3    H122043   1.697   4.365   2.735
 7362TIP3    H222044   1.667   4.216   2.731
 7363TIP3   OH222045   6.200   2.940   1.576
 7363TIP3    H122046   6.240   2.976   1.497
 7363TIP3    H222047   6.273   2.932   1.638
 7364TIP3   OH222048   3.923   6.381   1.911
 7364TIP3    H122049   3.857   6.436   1.870
 7364TIP3    H222050   3.992   6.441   1.937
 7365TIP3   OH222051   2.543   6.041   4.087
 7365TIP3    H122052   2.525   6.135   4.095
 7365TIP3    H222053   2.625   6.029   4.134
 7366TIP3   OH222054   3.542   4.163   2.387
 7366TIP3    H122055   3.498   4.100   2.330
 7366TIP3    H222056   3.610   4.113   2.431
 7367TIP3   OH222057   3.830   3.918   3.461
 7367TIP3    H122058   3.796   3.829   3.471
 7367TIP3    H222059   3.838   3.930   3.366
 7368TIP3   OH222060   0.219   1.630   3.816
 7368TIP3    H122061   0.166   1.554   3.793
 7368TIP3    H222062   0.270   1.649   3.737
 7369TIP3   OH222063   7.316   3.553   1.125
 7369TIP3    H122064   7.349   3.630   1.170
 7369TIP3    H222065   7.238   3.528   1.174
 7370TIP3   OH222066   2.273   7.480   6.517
 7370TIP3    H122067   2.178   7.492   6.519
 7370TIP3    H222068   2.307   7.548   6.574
 7371TIP3   OH222069   1.948   0.247   3.304
 7371TIP3    H122070   1.877   0.282   3.250
 7371TIP3    H222071   2.027   0.262   3.252
 7372TIP3   OH222072   8.185   1.249   1.117
 7372TIP3    H122073   8.177   1.154   1.108
 7372TIP3    H222074   8.251   1.261   1.186
 7373TIP3   OH222075   0.542   0.525   4.335
 7373TIP3    H122076   0.614   0.552   4.392
 7373TIP3    H222077   0.506   0.448   4.378
 7374TIP3   OH222078   5.093   2.055   1.553
 7374TIP3    H122079   5.092   1.969   1.512
 7374TIP3    H222080   5.118   2.038   1.644
 7375TIP3   OH222081   6.728   3.162   5.711
 7375TIP3    H122082   6.711   3.205   5.627
 7375TIP3    H222083   6.687   3.220   5.776
 7376TIP3   OH222084   5.987   7.400   3.350
 7376TIP3    H122085   6.026   7.342   3.415
 7376TIP3    H222086   6.046   7.475   3.345
 7377TIP3   OH222087   8.019   3.976   1.503
 7377TIP3    H122088   7.949   3.921   1.537
 7377TIP3    H222089   8.082   3.982   1.575
 7378TIP3   OH222090   5.256   0.556   0.512
 7378TIP3    H122091   5.292   0.622   0.571
 7378TIP3    H222092   5.332   0.508   0.480
 7379TIP3   OH222093   8.205   6.236   5.381
 7379TIP3    H122094   8.169   6.302   5.321
 7379TIP3    H222095   8.168   6.153   5.350
 7380TIP3   OH222096   0.719   4.344   4.612
 7380TIP3    H122097   0.754   4.433   4.618
 7380TIP3    H222098   0.770   4.294   4.676
 7381TIP3   OH222099   3.755   5.202   1.928
 7381TIP3    H122100   3.788   5.228   2.014
 7381TIP3    H222101   3.682   5.262   1.911
 7382TIP3   OH222102   5.170   0.297   5.154
 7382TIP3    H122103   5.082   0.266   5.175
 7382TIP3    H222104   5.156   0.362   5.084
 7383TIP3   OH222105   0.516   1.107   6.255
 7383TIP3    H122106   0.479   1.119   6.342
 7383TIP3    H222107   0.522   1.195   6.218
 7384TIP3   OH222108   8.070   3.466   5.458
 7384TIP3    H122109   8.039   3.490   5.545
 7384TIP3    H222110   8.006   3.402   5.427
 7385TIP3   OH222111   1.458   6.765   4.929
 7385TIP3    H122112   1.427   6.845   4.973
 7385TIP3    H222113   1.527   6.731   4.987
 7386TIP3   OH222114   5.781   2.174   4.723
 7386TIP3    H122115   5.767   2.237   4.794
 7386TIP3    H222116   5.710   2.191   4.661
 7387TIP3   OH222117   7.217   7.285   3.497
 7387TIP3    H122118   7.299   7.292   3.545
 7387TIP3    H222119   7.224   7.202   3.448
 7388TIP3   OH222120   7.484   7.338   5.639
 7388TIP3    H122121   7.422   7.349   5.712
 7388TIP3    H222122   7.523   7.252   5.654
 7389TIP3   OH222123   3.576   1.686   0.263
 7389TIP3    H122124   3.622   1.602   0.256
 7389TIP3    H222125   3.519   1.689   0.187
 7390TIP3   OH222126   3.440   3.360   0.708
 7390TIP3    H122127   3.389   3.441   0.711
 7390TIP3    H222128   3.411   3.316   0.627
 7391TIP3   OH222129   1.708   5.957   1.635
 7391TIP3    H122130   1.671   5.870   1.622
 7391TIP3    H222131   1.686   5.978   1.726
 7392TIP3   OH222132   0.118   0.845   0.800
 7392TIP3    H122133   0.029   0.816   0.781
 7392TIP3    H222134   0.161   0.849   0.714
 7393TIP3   OH222135   3.493   0.706  -0.016
 7393TIP3    H122136   3.586   0.682  -0.025
 7393TIP3    H222137   3.480   0.713   0.079
 7394TIP3   OH222138   7.678   5.257   5.713
 7394TIP3    H122139   7.745   5.317   5.747
 7394TIP3    H222140   7.636   5.305   5.642
 7395TIP3   OH222141   6.890   1.004   5.368
 7395TIP3    H122142   6.817   0.990   5.428
 7395TIP3    H222143   6.860   0.969   5.284
 7396TIP3   OH222144   4.588   2.102   2.310
 7396TIP3    H122145   4.531   2.069   2.380
 7396TIP3    H222146   4.665   2.134   2.356
 7397TIP3   OH222147   4.692   4.642   0.838
 7397TIP3    H122148   4.756   4.583   0.797
 7397TIP3    H222149   4.646   4.587   0.901
 7398TIP3   OH222150   1.339   3.335   4.522
 7398TIP3    H122151   1.310   3.245   4.505
 7398TIP3    H222152   1.260   3.388   4.509
 7399TIP3   OH222153   3.758   2.370   4.147
 7399TIP3    H122154   3.673   2.374   4.192
 7399TIP3    H222155   3.822   2.382   4.217
 7400TIP3   OH222156   2.134   1.392   5.026
 7400TIP3    H122157   2.155   1.486   5.025
 7400TIP3    H222158   2.121   1.371   5.118
 7401TIP3   OH222159   5.427   1.929   4.766
 7401TIP3    H122160   5.406   1.853   4.820
 7401TIP3    H222161   5.517   1.914   4.737
 7402TIP3   OH222162   3.938   5.136   3.765
 7402TIP3    H122163   3.843   5.136   3.749
 7402TIP3    H222164   3.948   5.098   3.852
 7403TIP3   OH222165   2.790   0.420   5.139
 7403TIP3    H122166   2.775   0.443   5.047
 7403TIP3    H222167   2.791   0.324   5.140
 7404TIP3   OH222168   3.133   1.400   1.719
 7404TIP3    H122169   3.156   1.488   1.691
 7404TIP3    H222170   3.100   1.358   1.640
 7405TIP3   OH222171   1.360   4.009   5.232
 7405TIP3    H122172   1.314   4.037   5.311
 7405TIP3    H222173   1.452   4.030   5.250
 7406TIP3   OH222174   2.653   7.799   0.759
 7406TIP3    H122175   2.577   7.818   0.814
 7406TIP3    H222176   2.689   7.718   0.795
 7407TIP3   OH222177   5.734   5.192   0.233
 7407TIP3    H122178   5.807   5.230   0.183
 7407TIP3    H222179   5.657   5.212   0.179
 7408TIP3   OH222180   7.526   1.055   1.370
 7408TIP3    H122181   7.616   1.058   1.338
 7408TIP3    H222182   7.534   1.039   1.464
 7409TIP3   OH222183   7.130   7.550   1.442
 7409TIP3    H122184   7.205   7.492   1.450
 7409TIP3    H222185   7.055   7.497   1.471
 7410TIP3   OH222186   4.952   3.305   2.092
 7410TIP3    H122187   4.958   3.376   2.156
 7410TIP3    H222188   5.043   3.290   2.065
 7411TIP3   OH222189   2.122   2.740   3.757
 7411TIP3    H122190   2.041   2.743   3.808
 7411TIP3    H222191   2.190   2.724   3.822
 7412TIP3   OH222192   0.918   2.360   6.176
 7412TIP3    H122193   1.008   2.375   6.146
 7412TIP3    H222194   0.923   2.282   6.231
 7413TIP3   OH222195   0.357   4.195   1.158
 7413TIP3    H122196   0.298   4.259   1.119
 7413TIP3    H222197   0.422   4.247   1.205
 7414TIP3   OH222198   0.367   1.550   1.380
 7414TIP3    H122199   0.388   1.637   1.345
 7414TIP3    H222200   0.437   1.493   1.349
 7415TIP3   OH222201   0.467   6.848   3.238
 7415TIP3    H122202   0.381   6.826   3.275
 7415TIP3    H222203   0.524   6.776   3.266
 7416TIP3   OH222204   7.794   5.946   6.680
 7416TIP3    H122205   7.868   5.886   6.689
 7416TIP3    H222206   7.804   6.007   6.754
 7417TIP3   OH222207   6.869   3.248   1.450
 7417TIP3    H122208   6.825   3.214   1.528
 7417TIP3    H222209   6.961   3.223   1.462
 7418TIP3   OH222210   0.931   3.629   1.160
 7418TIP3    H122211   0.940   3.614   1.066
 7418TIP3    H222212   0.845   3.670   1.169
 7419TIP3   OH222213   6.045   0.084   5.750
 7419TIP3    H122214   6.005   0.135   5.680
 7419TIP3    H222215   6.084   0.149   5.808
 7420TIP3   OH222216   5.802   1.216   1.147
 7420TIP3    H122217   5.803   1.121   1.160
 7420TIP3    H222218   5.887   1.245   1.181
 7421TIP3   OH222219   6.774   4.868   1.109
 7421TIP3    H122220   6.805   4.858   1.200
 7421TIP3    H222221   6.733   4.954   1.107
 7422TIP3   OH222222   5.170   7.608   4.538
 7422TIP3    H122223   5.248   7.580   4.586
 7422TIP3    H222224   5.151   7.535   4.479
 7423TIP3   OH222225   4.095   2.177   4.899
 7423TIP3    H122226   4.188   2.159   4.886
 7423TIP3    H222227   4.057   2.172   4.811
 7424TIP3   OH222228   7.652   7.439   0.921
 7424TIP3    H122229   7.696   7.456   1.004
 7424TIP3    H222230   7.613   7.352   0.932
 7425TIP3   OH222231   6.654   7.314   2.485
 7425TIP3    H122232   6.604   7.235   2.462
 7425TIP3    H222233   6.630   7.332   2.576
 7426TIP3   OH222234   3.666   1.974   0.990
 7426TIP3    H122235   3.719   1.894   0.982
 7426TIP3    H222236   3.605   1.954   1.061
 7427TIP3   OH222237   7.766   0.735   2.090
 7427TIP3    H122238   7.678   0.738   2.129
 7427TIP3    H222239   7.824   0.719   2.164
 7428TIP3   OH222240   0.161   6.602   1.024
 7428TIP3    H122241   0.223   6.547   1.073
 7428TIP3    H222242   0.175   6.579   0.932
 7429TIP3   OH222243   3.786   0.867   5.714
 7429TIP3    H122244   3.736   0.948   5.724
 7429TIP3    H222245   3.807   0.841   5.803
 7430TIP3   OH222246   1.229   4.453   1.397
 7430TIP3    H122247   1.225   4.393   1.472
 7430TIP3    H222248   1.306   4.507   1.413
 7431TIP3   OH222249   5.698   4.455   0.387
 7431TIP3    H122250   5.606   4.473   0.369
 7431TIP3    H222251   5.720   4.513   0.460
 7432TIP3   OH222252   6.319   2.700   3.850
 7432TIP3    H122253   6.241   2.718   3.903
 7432TIP3    H222254   6.337   2.781   3.803
 7433TIP3   OH222255   0.343   2.180   1.974
 7433TIP3    H122256   0.407   2.120   2.013
 7433TIP3    H222257   0.317   2.238   2.046
 7434TIP3   OH222258   7.671   1.838   1.156
 7434TIP3    H122259   7.738   1.812   1.094
 7434TIP3    H222260   7.672   1.934   1.154
 7435TIP3   OH222261   6.589   1.092   1.349
 7435TIP3    H122262   6.671   1.061   1.311
 7435TIP3    H222263   6.612   1.121   1.437
 7436TIP3   OH222264   2.466   6.799   0.907
 7436TIP3    H122265   2.422   6.877   0.872
 7436TIP3    H222266   2.395   6.742   0.936
 7437TIP3   OH222267   2.733   3.376   5.834
 7437TIP3    H122268   2.784   3.309   5.789
 7437TIP3    H222269   2.663   3.328   5.877
 7438TIP3   OH222270   0.141   5.672   1.430
 7438TIP3    H122271   0.134   5.580   1.406
 7438TIP3    H222272   0.174   5.671   1.520
 7439TIP3   OH222273   5.076   3.545   5.423
 7439TIP3    H122274   5.012   3.521   5.357
 7439TIP3    H222275   5.083   3.640   5.418
 7440TIP3   OH222276   0.164   1.514   4.220
 7440TIP3    H122277   0.183   1.441   4.161
 7440TIP3    H222278   0.073   1.536   4.203
 7441TIP3   OH222279   0.024   5.872   2.652
 7441TIP3    H122280   0.032   5.809   2.724
 7441TIP3    H222281   0.094   5.935   2.668
 7442TIP3   OH222282   5.411   5.882   2.399
 7442TIP3    H122283   5.408   5.825   2.476
 7442TIP3    H222284   5.339   5.851   2.344
 7443TIP3   OH222285   1.823   4.920   0.090
 7443TIP3    H122286   1.742   4.971   0.089
 7443TIP3    H222287   1.882   4.970   0.148
 7444TIP3   OH222288   3.684   5.934   2.921
 7444TIP3    H122289   3.647   5.869   2.861
 7444TIP3    H222290   3.760   5.890   2.960
 7445TIP3   OH222291   1.042   1.715   2.630
 7445TIP3    H122292   0.983   1.780   2.668
 7445TIP3    H222293   0.988   1.635   2.624
 7446TIP3   OH222294   0.751   1.976   3.097
 7446TIP3    H122295   0.767   2.067   3.073
 7446TIP3    H222296   0.660   1.960   3.074
 7447TIP3   OH222297   7.592   6.223   1.360
 7447TIP3    H122298   7.582   6.281   1.435
 7447TIP3    H222299   7.664   6.164   1.385
 7448TIP3   OH222300   0.721   7.561   6.742
 7448TIP3    H122301   0.637   7.567   6.696
 7448TIP3    H222302   0.712   7.484   6.797
 7449TIP3   OH222303   2.027   6.164   3.664
 7449TIP3    H122304   2.058   6.074   3.659
 7449TIP3    H222305   1.989   6.172   3.752
 7450TIP3   OH222306   0.610   2.612   5.976
 7450TIP3    H122307   0.639   2.643   6.062
 7450TIP3    H222308   0.676   2.549   5.949
 7451TIP3   OH222309   1.255   0.538   0.350
 7451TIP3    H122310   1.197   0.594   0.402
 7451TIP3    H222311   1.203   0.459   0.334
 7452TIP3   OH222312  -0.014   3.393   4.710
 7452TIP3    H122313   0.069   3.347   4.697
 7452TIP3    H222314  -0.044   3.364   4.796
 7453TIP3   OH222315   3.800   2.255   1.710
 7453TIP3    H122316   3.807   2.337   1.760
 7453TIP3    H222317   3.825   2.279   1.621
 7454TIP3   OH222318   3.495   6.877   5.312
 7454TIP3    H122319   3.467   6.944   5.249
 7454TIP3    H222320   3.431   6.884   5.383
 7455TIP3   OH222321   5.241   3.583   5.862
 7455TIP3    H122322   5.258   3.605   5.954
 7455TIP3    H222323   5.227   3.668   5.820
 7456TIP3   OH222324   2.896   5.723   4.573
 7456TIP3    H122325   2.819   5.771   4.604
 7456TIP3    H222326   2.960   5.791   4.552
 7457TIP3   OH222327   2.691   1.644   4.415
 7457TIP3    H122328   2.675   1.733   4.445
 7457TIP3    H222329   2.715   1.595   4.493
 7458TIP3   OH222330   1.935   5.946   0.580
 7458TIP3    H122331   1.850   5.940   0.537
 7458TIP3    H222332   1.913   5.966   0.671
 7459TIP3   OH222333   7.444   6.910   1.342
 7459TIP3    H122334   7.517   6.896   1.282
 7459TIP3    H222335   7.455   6.842   1.408
 7460TIP3   OH222336   7.259   0.091   6.217
 7460TIP3    H122337   7.278   0.005   6.179
 7460TIP3    H222338   7.165   0.088   6.236
 7461TIP3   OH222339   2.330   7.212   4.602
 7461TIP3    H122340   2.402   7.183   4.545
 7461TIP3    H222341   2.305   7.297   4.566
 7462TIP3   OH222342   1.319   1.877   1.690
 7462TIP3    H122343   1.283   1.857   1.604
 7462TIP3    H222344   1.276   1.959   1.716
 7463TIP3   OH222345   4.163   3.317   5.609
 7463TIP3    H122346   4.072   3.338   5.633
 7463TIP3    H222347   4.187   3.244   5.665
 7464TIP3   OH222348   3.131   0.966   4.213
 7464TIP3    H122349   3.192   0.944   4.142
 7464TIP3    H222350   3.185   1.010   4.278
 7465TIP3   OH222351   0.039   4.337   0.950
 7465TIP3    H122352   0.070   4.290   0.872
 7465TIP3    H222353   0.113   4.390   0.978
 7466TIP3   OH222354   3.264   0.314   1.331
 7466TIP3    H122355   3.292   0.226   1.357
 7466TIP3    H222356   3.232   0.354   1.412
 7467TIP3   OH222357   6.914   4.248   0.855
 7467TIP3    H122358   6.852   4.176   0.861
 7467TIP3    H222359   6.866   4.325   0.886
 7468TIP3   OH222360   7.144   4.453   6.161
 7468TIP3    H122361   7.077   4.384   6.160
 7468TIP3    H222362   7.100   4.530   6.126
 7469TIP3   OH222363   0.120   2.202   4.407
 7469TIP3    H122364   0.133   2.124   4.353
 7469TIP3    H222365   0.154   2.178   4.493
 7470TIP3   OH222366   4.877   0.740   4.574
 7470TIP3    H122367   4.942   0.679   4.608
 7470TIP3    H222368   4.883   0.732   4.478
 7471TIP3   OH222369   6.126   7.162   0.163
 7471TIP3    H122370   6.039   7.193   0.188
 7471TIP3    H222371   6.115   7.068   0.148
 7472TIP3   OH222372   6.425   1.313   2.178
 7472TIP3    H122373   6.409   1.393   2.229
 7472TIP3    H222374   6.521   1.302   2.180
 7473TIP3   OH222375   7.291   2.006   4.916
 7473TIP3    H122376   7.366   2.023   4.859
 7473TIP3    H222377   7.323   2.026   5.004
 7474TIP3   OH222378   0.830   6.855   2.414
 7474TIP3    H122379   0.812   6.892   2.328
 7474TIP3    H222380   0.744   6.833   2.449
 7475TIP3   OH222381   0.645   3.514   2.569
 7475TIP3    H122382   0.642   3.608   2.585
 7475TIP3    H222383   0.554   3.489   2.554
 7476TIP3   OH222384   7.436   0.195   0.571
 7476TIP3    H122385   7.438   0.258   0.643
 7476TIP3    H222386   7.346   0.201   0.536
 7477TIP3   OH222387   1.574   1.342   4.512
 7477TIP3    H122388   1.645   1.293   4.553
 7477TIP3    H222389   1.568   1.304   4.424
 7478TIP3   OH222390   7.190   5.621   1.913
 7478TIP3    H122391   7.257   5.556   1.932
 7478TIP3    H222392   7.132   5.578   1.851
 7479TIP3   OH222393   1.062   0.101   3.590
 7479TIP3    H122394   1.064   0.123   3.683
 7479TIP3    H222395   1.021   0.177   3.548
 7480TIP3   OH222396   0.102   7.031  -0.010
 7480TIP3    H122397   0.106   6.996   0.079
 7480TIP3    H222398   0.129   6.959  -0.066
 7481TIP3   OH222399   4.399   6.235   3.432
 7481TIP3    H122400   4.345   6.158   3.420
 7481TIP3    H222401   4.365   6.277   3.511
 7482TIP3   OH222402   1.101   7.752   1.513
 7482TIP3    H122403   1.036   7.730   1.446
 7482TIP3    H222404   1.068   7.833   1.552
 7483TIP3   OH222405   0.932   7.591   4.328
 7483TIP3    H122406   0.899   7.596   4.418
 7483TIP3    H222407   0.890   7.665   4.283
 7484TIP3   OH222408   7.532   3.768   1.998
 7484TIP3    H122409   7.605   3.829   1.989
 7484TIP3    H222410   7.471   3.812   2.057
 7485TIP3   OH222411   7.922   1.253   3.318
 7485TIP3    H122412   7.998   1.196   3.318
 7485TIP3    H222413   7.847   1.194   3.308
 7486TIP3   OH222414   4.644   6.173   0.422
 7486TIP3    H122415   4.689   6.253   0.449
 7486TIP3    H222416   4.556   6.181   0.458
 7487TIP3   OH222417   3.511   4.156   1.787
 7487TIP3    H122418   3.515   4.104   1.706
 7487TIP3    H222419   3.510   4.090   1.857
 7488TIP3   OH222420   7.231   2.768   4.848
 7488TIP3    H122421   7.177   2.706   4.799
 7488TIP3    H222422   7.186   2.776   4.932
 7489TIP3   OH222423   3.057   2.449   0.221
 7489TIP3    H122424   3.144   2.436   0.258
 7489TIP3    H222425   3.016   2.362   0.224
 7490TIP3   OH222426   4.883   2.602   4.422
 7490TIP3    H122427   4.809   2.662   4.429
 7490TIP3    H222428   4.859   2.543   4.350
 7491TIP3   OH222429   1.632   3.757   5.027
 7491TIP3    H122430   1.578   3.829   4.994
 7491TIP3    H222431   1.570   3.698   5.070
 7492TIP3   OH222432   5.349   3.541   0.222
 7492TIP3    H122433   5.444   3.536   0.228
 7492TIP3    H222434   5.317   3.473   0.282
 7493TIP3   OH222435   6.072   2.417   2.104
 7493TIP3    H122436   6.125   2.391   2.029
 7493TIP3    H222437   6.022   2.493   2.073
 7494TIP3   OH222438   4.601   6.136   2.299
 7494TIP3    H122439   4.522   6.191   2.297
 7494TIP3    H222440   4.646   6.155   2.217
 7495TIP3   OH222441   7.997   6.119   3.740
 7495TIP3    H122442   7.950   6.183   3.793
 7495TIP3    H222443   8.066   6.169   3.698
 7496TIP3   OH222444   1.234   7.514   0.685
 7496TIP3    H122445   1.265   7.605   0.689
 7496TIP3    H222446   1.152   7.515   0.733
 7497TIP3   OH222447   4.234   0.298   1.968
 7497TIP3    H122448   4.208   0.349   1.892
 7497TIP3    H222449   4.184   0.335   2.041
 7498TIP3   OH222450   6.868   1.869   6.685
 7498TIP3    H122451   6.857   1.832   6.772
 7498TIP3    H222452   6.949   1.919   6.690
 7499TIP3   OH222453   2.595   6.540   4.463
 7499TIP3    H122454   2.527   6.594   4.503
 7499TIP3    H222455   2.672   6.596   4.459
 7500TIP3   OH222456   3.855   1.519   5.810
 7500TIP3    H122457   3.794   1.494   5.880
 7500TIP3    H222458   3.824   1.605   5.781
 7501TIP3   OH222459   5.133   4.611   6.605
 7501TIP3    H122460   5.172   4.557   6.674
 7501TIP3    H222461   5.098   4.688   6.652
 7502TIP3   OH222462   7.447   3.518   0.664
 7502TIP3    H122463   7.353   3.525   0.646
 7502TIP3    H222464   7.477   3.609   0.666
 7503TIP3   OH222465   5.958   6.334   4.584
 7503TIP3    H122466   5.948   6.363   4.675
 7503TIP3    H222467   5.882   6.277   4.568
 7504TIP3   OH222468   2.203   6.796   6.204
 7504TIP3    H122469   2.245   6.862   6.260
 7504TIP3    H222470   2.258   6.793   6.125
 7505TIP3   OH222471   4.987   4.939   3.436
 7505TIP3    H122472   4.951   4.943   3.347
 7505TIP3    H222473   4.957   4.855   3.469
 7506TIP3   OH222474   3.854   4.749   2.557
 7506TIP3    H122475   3.759   4.752   2.549
 7506TIP3    H222476   3.871   4.768   2.650
 7507TIP3   OH222477   6.257   3.022   4.399
 7507TIP3    H122478   6.241   3.113   4.375
 7507TIP3    H222479   6.175   2.977   4.382
 7508TIP3   OH222480   7.160   3.645   4.082
 7508TIP3    H122481   7.252   3.667   4.071
 7508TIP3    H222482   7.137   3.680   4.168
 7509TIP3   OH222483   3.218   4.563   4.275
 7509TIP3    H122484   3.219   4.490   4.214
 7509TIP3    H222485   3.291   4.545   4.335
 7510TIP3   OH222486   7.711   4.847   6.144
 7510TIP3    H122487   7.684   4.938   6.127
 7510TIP3    H222488   7.654   4.819   6.216
 7511TIP3   OH222489   3.244   3.516   1.386
 7511TIP3    H122490   3.250   3.442   1.447
 7511TIP3    H222491   3.152   3.517   1.360
 7512TIP3   OH222492   1.816   1.857   5.324
 7512TIP3    H122493   1.734   1.907   5.315
 7512TIP3    H222494   1.864   1.876   5.243
 7513TIP3   OH222495   3.393   0.566   5.016
 7513TIP3    H122496   3.463   0.517   4.973
 7513TIP3    H222497   3.330   0.583   4.946
 7514TIP3   OH222498   0.524   4.871   1.017
 7514TIP3    H122499   0.539   4.784   1.052
 7514TIP3    H222500   0.445   4.862   0.963
 7515TIP3   OH222501   4.184   6.438   4.385
 7515TIP3    H122502   4.274   6.404   4.388
 7515TIP3    H222503   4.130   6.366   4.415
 7516TIP3   OH222504   0.138   7.273   2.539
 7516TIP3    H122505   0.067   7.275   2.604
 7516TIP3    H222506   0.178   7.187   2.550
 7517TIP3   OH222507   2.680   6.977   2.097
 7517TIP3    H122508   2.700   7.019   2.180
 7517TIP3    H222509   2.733   6.898   2.095
 7518TIP3   OH222510   2.059   3.546   3.247
 7518TIP3    H122511   2.107   3.621   3.282
 7518TIP3    H222512   2.043   3.569   3.156
 7519TIP3   OH222513   3.141   1.442   0.647
 7519TIP3    H122514   3.127   1.483   0.561
 7519TIP3    H222515   3.059   1.396   0.665
 7520TIP3   OH222516   5.794   3.890   5.917
 7520TIP3    H122517   5.851   3.814   5.917
 7520TIP3    H222518   5.853   3.965   5.922
 7521TIP3   OH222519   4.532   5.116   3.170
 7521TIP3    H122520   4.502   5.203   3.198
 7521TIP3    H222521   4.558   5.128   3.079
 7522TIP3   OH222522   0.771   3.351   3.890
 7522TIP3    H122523   0.753   3.439   3.924
 7522TIP3    H222524   0.815   3.367   3.806
 7523TIP3   OH222525   7.018   3.200   2.494
 7523TIP3    H122526   7.071   3.272   2.528
 7523TIP3    H222527   7.021   3.211   2.399
 7524TIP3   OH222528   1.737   4.757   1.510
 7524TIP3    H122529   1.763   4.765   1.602
 7524TIP3    H222530   1.695   4.841   1.490
 7525TIP3   OH222531   4.839   5.793   2.381
 7525TIP3    H122532   4.877   5.856   2.443
 7525TIP3    H222533   4.898   5.717   2.386
 7526TIP3   OH222534   7.813   0.160   5.040
 7526TIP3    H122535   7.777   0.220   4.975
 7526TIP3    H222536   7.875   0.105   4.991
 7527TIP3   OH222537   3.263   4.225   4.389
 7527TIP3    H122538   3.311   4.147   4.418
 7527TIP3    H222539   3.332   4.285   4.360
 7528TIP3   OH222540   6.863   5.289   5.050
 7528TIP3    H122541   6.776   5.258   5.027
 7528TIP3    H222542   6.916   5.210   5.055
 7529TIP3   OH222543   7.687   3.020   6.522
 7529TIP3    H122544   7.665   2.930   6.497
 7529TIP3    H222545   7.761   3.011   6.582
 7530TIP3   OH222546   5.364   2.576   1.140
 7530TIP3    H122547   5.357   2.487   1.104
 7530TIP3    H222548   5.401   2.628   1.069
 7531TIP3   OH222549   3.224   6.912   5.862
 7531TIP3    H122550   3.285   6.872   5.800
 7531TIP3    H222551   3.204   6.842   5.924
 7532TIP3   OH222552   5.344   7.448   6.280
 7532TIP3    H122553   5.415   7.466   6.341
 7532TIP3    H222554   5.375   7.375   6.227
 7533TIP3   OH222555   0.107   3.316   5.259
 7533TIP3    H122556   0.113   3.406   5.291
 7533TIP3    H222557   0.026   3.315   5.208
 7534TIP3   OH222558   0.719   4.711   3.967
 7534TIP3    H122559   0.707   4.623   3.930
 7534TIP3    H222560   0.631   4.749   3.968
 7535TIP3   OH222561   6.791   5.581   2.245
 7535TIP3    H122562   6.772   5.646   2.313
 7535TIP3    H222563   6.868   5.535   2.278
 7536TIP3   OH222564   6.659   6.909   5.654
 7536TIP3    H122565   6.587   6.845   5.654
 7536TIP3    H222566   6.690   6.910   5.744
 7537TIP3   OH222567   2.089   6.453   2.526
 7537TIP3    H122568   2.165   6.435   2.581
 7537TIP3    H222569   2.066   6.368   2.487
 7538TIP3   OH222570   1.564   4.799   4.333
 7538TIP3    H122571   1.472   4.775   4.342
 7538TIP3    H222572   1.610   4.737   4.390
 7539TIP3   OH222573   6.809   3.037   1.988
 7539TIP3    H122574   6.904   3.052   1.990
 7539TIP3    H222575   6.771   3.123   2.004
 7540TIP3   OH222576   5.595   4.690   1.457
 7540TIP3    H122577   5.554   4.714   1.374
 7540TIP3    H222578   5.570   4.599   1.470
 7541TIP3   OH222579   4.401   1.807   2.228
 7541TIP3    H122580   4.437   1.804   2.317
 7541TIP3    H222581   4.435   1.889   2.191
 7542TIP3   OH222582   2.700   3.508   1.577
 7542TIP3    H122583   2.671   3.451   1.649
 7542TIP3    H222584   2.754   3.451   1.522
 7543TIP3   OH222585   5.143   4.579   3.383
 7543TIP3    H122586   5.149   4.628   3.465
 7543TIP3    H222587   5.064   4.525   3.393
 7544TIP3   OH222588   4.921   5.169   4.669
 7544TIP3    H122589   4.971   5.125   4.737
 7544TIP3    H222590   4.877   5.098   4.622
 7545TIP3   OH222591   3.051   3.594   0.978
 7545TIP3    H122592   2.988   3.666   0.983
 7545TIP3    H222593   3.135   3.637   0.964
 7546TIP3   OH222594   5.075   0.797   2.442
 7546TIP3    H122595   5.163   0.783   2.406
 7546TIP3    H222596   5.089   0.860   2.513
 7547TIP3   OH222597   8.082   2.181   1.679
 7547TIP3    H122598   8.074   2.110   1.742
 7547TIP3    H222599   8.173   2.210   1.686
 7548TIP3   OH222600   6.130   2.809   2.016
 7548TIP3    H122601   6.060   2.759   2.059
 7548TIP3    H222602   6.086   2.855   1.944
 7549TIP3   OH222603   7.844   4.514   5.484
 7549TIP3    H122604   7.789   4.544   5.411
 7549TIP3    H222605   7.933   4.537   5.458
 7550TIP3   OH222606   4.185   1.095   6.458
 7550TIP3    H122607   4.181   1.039   6.535
 7550TIP3    H222608   4.277   1.120   6.450
 7551TIP3   OH222609   7.428   3.223   3.590
 7551TIP3    H122610   7.460   3.283   3.657
 7551TIP3    H222611   7.410   3.278   3.514
 7552TIP3   OH222612   3.692   5.896   1.847
 7552TIP3    H122613   3.648   5.872   1.765
 7552TIP3    H222614   3.744   5.819   1.869
 7553TIP3   OH222615   1.716   3.963   5.495
 7553TIP3    H122616   1.630   3.923   5.510
 7553TIP3    H222617   1.757   3.965   5.581
 7554TIP3   OH222618   2.725   0.949   4.941
 7554TIP3    H122619   2.666   0.968   4.868
 7554TIP3    H222620   2.789   1.021   4.940
 7555TIP3   OH222621   3.222   2.174   1.704
 7555TIP3    H122622   3.311   2.207   1.715
 7555TIP3    H222623   3.171   2.220   1.771
 7556TIP3   OH222624   4.022   4.995   3.189
 7556TIP3    H122625   4.108   5.028   3.215
 7556TIP3    H222626   3.962   5.035   3.252
 7557TIP3   OH222627   2.449   1.675   2.842
 7557TIP3    H122628   2.435   1.585   2.811
 7557TIP3    H222629   2.511   1.712   2.780
 7558TIP3   OH222630   4.222   1.998   4.458
 7558TIP3    H122631   4.289   2.043   4.406
 7558TIP3    H222632   4.166   1.955   4.393
 7559TIP3   OH222633   4.769   2.206   4.469
 7559TIP3    H122634   4.810   2.199   4.556
 7559TIP3    H222635   4.734   2.119   4.452
 7560TIP3   OH222636   5.604   1.772   4.623
 7560TIP3    H122637   5.625   1.787   4.530
 7560TIP3    H222638   5.687   1.745   4.662
 7561TIP3   OH222639   3.903   2.154   5.161
 7561TIP3    H122640   3.969   2.181   5.097
 7561TIP3    H222641   3.950   2.153   5.244
 7562TIP3   OH222642   1.827   5.637   4.914
 7562TIP3    H122643   1.805   5.586   4.836
 7562TIP3    H222644   1.743   5.652   4.957
 7563TIP3   OH222645   6.547   5.802   3.579
 7563TIP3    H122646   6.557   5.798   3.674
 7563TIP3    H222647   6.484   5.872   3.565
 7564TIP3   OH222648   7.186   2.608   0.959
 7564TIP3    H122649   7.150   2.693   0.933
 7564TIP3    H222650   7.191   2.612   1.055
 7565TIP3   OH222651   4.709   3.473   4.052
 7565TIP3    H122652   4.648   3.539   4.084
 7565TIP3    H222653   4.791   3.493   4.097
 7566TIP3   OH222654   3.532   4.664   0.599
 7566TIP3    H122655   3.450   4.614   0.597
 7566TIP3    H222656   3.591   4.615   0.542
 7567TIP3   OH222657   3.622   5.898   3.454
 7567TIP3    H122658   3.608   5.851   3.372
 7567TIP3    H222659   3.702   5.949   3.438
 7568TIP3   OH222660   5.841   4.072   0.304
 7568TIP3    H122661   5.836   4.085   0.399
 7568TIP3    H222662   5.924   4.113   0.279
 7569TIP3   OH222663   7.848   2.980   2.673
 7569TIP3    H122664   7.906   3.054   2.660
 7569TIP3    H222665   7.907   2.904   2.681
 7570TIP3   OH222666   4.411   0.857   6.242
 7570TIP3    H122667   4.411   0.951   6.261
 7570TIP3    H222668   4.502   0.829   6.256
 7571TIP3   OH222669   4.068   5.346   4.745
 7571TIP3    H122670   4.038   5.312   4.830
 7571TIP3    H222671   4.136   5.284   4.718
 7572TIP3   OH222672   0.272   6.152   1.788
 7572TIP3    H122673   0.243   6.221   1.728
 7572TIP3    H222674   0.285   6.075   1.732
 7573TIP3   OH222675   6.714   5.843   1.751
 7573TIP3    H122676   6.630   5.888   1.755
 7573TIP3    H222677   6.710   5.778   1.821
 7574TIP3   OH222678   6.983   4.578   1.097
 7574TIP3    H122679   7.075   4.599   1.109
 7574TIP3    H222680   6.961   4.613   1.011
 7575TIP3   OH222681   7.097   3.534   0.229
 7575TIP3    H122682   7.123   3.507   0.317
 7575TIP3    H222683   7.056   3.619   0.241
 7576TIP3   OH222684   4.824   4.930   4.563
 7576TIP3    H122685   4.752   4.909   4.622
 7576TIP3    H222686   4.797   4.894   4.478
 7577TIP3   OH222687   6.356   6.765   4.851
 7577TIP3    H122688   6.395   6.780   4.765
 7577TIP3    H222689   6.398   6.831   4.907
 7578TIP3   OH222690   7.547   6.724   1.531
 7578TIP3    H122691   7.600   6.660   1.484
 7578TIP3    H222692   7.610   6.776   1.582
 7579TIP3   OH222693   2.657   0.238   4.671
 7579TIP3    H122694   2.607   0.315   4.697
 7579TIP3    H222695   2.735   0.240   4.727
 7580TIP3   OH222696   3.209   1.713   2.576
 7580TIP3    H122697   3.235   1.778   2.641
 7580TIP3    H222698   3.160   1.763   2.511
 7581TIP3   OH222699   5.000   3.585   2.979
 7581TIP3    H122700   5.088   3.592   3.016
 7581TIP3    H222701   4.969   3.499   3.006
 7582TIP3   OH222702   6.991   5.011   1.985
 7582TIP3    H122703   7.049   5.071   2.030
 7582TIP3    H222704   7.047   4.938   1.958
 7583TIP3   OH222705   2.291   3.196   3.157
 7583TIP3    H122706   2.321   3.136   3.089
 7583TIP3    H222707   2.211   3.156   3.191
 7584TIP3   OH222708   0.524   5.085   0.058
 7584TIP3    H122709   0.620   5.087   0.059
 7584TIP3    H222710   0.502   5.052  -0.029
 7585TIP3   OH222711   6.319   3.144   2.823
 7585TIP3    H122712   6.350   3.088   2.894
 7585TIP3    H222713   6.398   3.188   2.791
 7586TIP3   OH222714   2.158   4.756   4.001
 7586TIP3    H122715   2.225   4.740   3.935
 7586TIP3    H222716   2.113   4.671   4.011
 7587TIP3   OH222717   4.704   0.484   6.017
 7587TIP3    H122718   4.627   0.437   5.983
 7587TIP3    H222719   4.692   0.574   5.987
 7588TIP3   OH222720   5.362   0.149   3.462
 7588TIP3    H122721   5.374   0.226   3.407
 7588TIP3    H222722   5.315   0.181   3.539
 7589TIP3   OH222723   2.034   2.026   6.149
 7589TIP3    H122724   2.048   1.949   6.205
 7589TIP3    H222725   1.972   2.081   6.198
 7590TIP3   OH222726   8.234   4.276   0.526
 7590TIP3    H122727   8.289   4.222   0.583
 7590TIP3    H222728   8.144   4.252   0.548
 7591TIP3   OH222729   6.071   6.698   4.833
 7591TIP3    H122730   6.166   6.712   4.840
 7591TIP3    H222731   6.061   6.603   4.823
 7592TIP3   OH222732   3.242   4.429   5.051
 7592TIP3    H122733   3.162   4.399   5.008
 7592TIP3    H222734   3.260   4.515   5.013
 7593TIP3   OH222735   4.672   1.007   1.195
 7593TIP3    H122736   4.614   0.983   1.268
 7593TIP3    H222737   4.662   0.936   1.132
 7594TIP3   OH222738   2.224   4.755   5.041
 7594TIP3    H122739   2.155   4.735   4.977
 7594TIP3    H222740   2.276   4.675   5.046
 7595TIP3   OH222741   4.456   1.245   2.547
 7595TIP3    H122742   4.360   1.238   2.553
 7595TIP3    H222743   4.476   1.224   2.456
 7596TIP3   OH222744   4.746   1.210   2.573
 7596TIP3    H122745   4.760   1.124   2.612
 7596TIP3    H222746   4.652   1.225   2.579
 7597TIP3   OH222747   1.476   2.533   0.162
 7597TIP3    H122748   1.516   2.603   0.110
 7597TIP3    H222749   1.427   2.481   0.099
 7598TIP3   OH222750   5.425   5.684   4.472
 7598TIP3    H122751   5.420   5.589   4.476
 7598TIP3    H222752   5.352   5.715   4.527
 7599TIP3   OH222753   7.473   5.107   4.138
 7599TIP3    H122754   7.422   5.032   4.169
 7599TIP3    H222755   7.501   5.082   4.050
 7600TIP3   OH222756   6.697   4.486   3.201
 7600TIP3    H122757   6.702   4.546   3.127
 7600TIP3    H222758   6.700   4.399   3.161
 7601TIP3   OH222759   7.917   1.273   3.592
 7601TIP3    H122760   7.928   1.287   3.498
 7601TIP3    H222761   7.846   1.209   3.598
 7602TIP3   OH222762   7.990   6.066   4.850
 7602TIP3    H122763   7.990   6.131   4.779
 7602TIP3    H222764   7.900   6.031   4.849
 7603TIP3   OH222765   1.989   3.225   2.920
 7603TIP3    H122766   1.996   3.318   2.944
 7603TIP3    H222767   2.078   3.192   2.927
 7604TIP3   OH222768   6.122   4.728   4.366
 7604TIP3    H122769   6.200   4.721   4.310
 7604TIP3    H222770   6.156   4.726   4.455
 7605TIP3   OH222771   4.063   4.154   3.317
 7605TIP3    H122772   4.137   4.106   3.280
 7605TIP3    H222773   4.090   4.246   3.314
 7606TIP3   OH222774   2.819   7.612   0.857
 7606TIP3    H122775   2.863   7.611   0.773
 7606TIP3    H222776   2.788   7.522   0.869
 7607TIP3   OH222777   5.146   1.798   2.310
 7607TIP3    H122778   5.170   1.821   2.221
 7607TIP3    H222779   5.207   1.846   2.365
 7608TIP3   OH222780   0.021   5.903   1.274
 7608TIP3    H122781  -0.001   5.814   1.246
 7608TIP3    H222782   0.109   5.896   1.311
 7609TIP3   OH222783   5.523   3.259   3.337
 7609TIP3    H122784   5.515   3.230   3.246
 7609TIP3    H222785   5.467   3.198   3.386
 7610TIP3   OH222786   3.202   4.392   4.736
 7610TIP3    H122787   3.141   4.320   4.751
 7610TIP3    H222788   3.237   4.377   4.648
 7611TIP3   OH222789   6.656   2.205   2.381
 7611TIP3    H122790   6.716   2.256   2.436
 7611TIP3    H222791   6.571   2.247   2.393
 7612TIP3   OH222792   5.419   7.773   0.843
 7612TIP3    H122793   5.497   7.751   0.792
 7612TIP3    H222794   5.449   7.836   0.908
 7613TIP3   OH222795   2.016   5.372   5.413
 7613TIP3    H122796   1.960   5.305   5.453
 7613TIP3    H222797   2.004   5.361   5.318
 7614TIP3   OH222798   1.656   0.044   5.046
 7614TIP3    H122799   1.686  -0.046   5.034
 7614TIP3    H222800   1.729   0.087   5.092
 7615TIP3   OH222801   5.000   4.658   0.667
 7615TIP3    H122802   4.999   4.564   0.685
 7615TIP3    H222803   4.993   4.664   0.572
 7616TIP3   OH222804   0.474   7.762   5.908
 7616TIP3    H122805   0.449   7.851   5.882
 7616TIP3    H222806   0.468   7.711   5.828
 7617TIP3   OH222807   5.120   6.233   5.328
 7617TIP3    H122808   5.087   6.186   5.404
 7617TIP3    H222809   5.081   6.321   5.334
 7618TIP3   OH222810   7.721   1.685   3.957
 7618TIP3    H122811   7.668   1.755   3.996
 7618TIP3    H222812   7.774   1.652   4.029
 7619TIP3   OH222813   1.785   0.137   3.492
 7619TIP3    H122814   1.840   0.075   3.540
 7619TIP3    H222815   1.846   0.180   3.431
 7620TIP3   OH222816   4.263   4.747   6.369
 7620TIP3    H122817   4.343   4.797   6.349
 7620TIP3    H222818   4.248   4.693   6.292
 7621TIP3   OH222819   0.036   3.771   5.119
 7621TIP3    H122820  -0.050   3.751   5.156
 7621TIP3    H222821   0.017   3.816   5.036
 7622TIP3   OH222822   0.337   2.345   0.439
 7622TIP3    H122823   0.350   2.438   0.421
 7622TIP3    H222824   0.391   2.301   0.374
 7623TIP3   OH222825   2.674   6.571   1.703
 7623TIP3    H122826   2.693   6.485   1.665
 7623TIP3    H222827   2.608   6.553   1.770
 7624TIP3   OH222828   6.794   5.332   6.361
 7624TIP3    H122829   6.861   5.337   6.430
 7624TIP3    H222830   6.711   5.341   6.408
 7625TIP3   OH222831   6.622   5.878   2.637
 7625TIP3    H122832   6.700   5.892   2.691
 7625TIP3    H222833   6.552   5.860   2.699
 7626TIP3   OH222834   3.480   4.254   3.158
 7626TIP3    H122835   3.426   4.310   3.101
 7626TIP3    H222836   3.437   4.258   3.243
 7627TIP3   OH222837   7.830   6.312   1.096
 7627TIP3    H122838   7.835   6.376   1.168
 7627TIP3    H222839   7.824   6.227   1.140
 7628TIP3   OH222840   7.400   6.730   6.308
 7628TIP3    H122841   7.477   6.673   6.310
 7628TIP3    H222842   7.433   6.815   6.340
 7629TIP3   OH222843   2.074   4.049   0.422
 7629TIP3    H122844   2.150   4.097   0.390
 7629TIP3    H222845   2.025   4.027   0.342
 7630TIP3   OH222846   2.871   1.589   6.021
 7630TIP3    H122847   2.906   1.537   6.093
 7630TIP3    H222848   2.925   1.564   5.946
 7631TIP3   OH222849   6.080   2.720   0.712
 7631TIP3    H122850   6.170   2.728   0.744
 7631TIP3    H222851   6.064   2.626   0.710
 7632TIP3   OH222852   2.384   2.222   4.029
 7632TIP3    H122853   2.383   2.303   4.080
 7632TIP3    H222854   2.299   2.220   3.985
 7633TIP3   OH222855   5.575   7.434   5.669
 7633TIP3    H122856   5.664   7.409   5.643
 7633TIP3    H222857   5.571   7.529   5.654
 7634TIP3   OH222858   6.408   6.041   0.019
 7634TIP3    H122859   6.335   5.994   0.059
 7634TIP3    H222860   6.455   5.973  -0.030
 7635TIP3   OH222861   2.139   7.064   2.951
 7635TIP3    H122862   2.151   6.993   3.013
 7635TIP3    H222863   2.208   7.127   2.973
 7636TIP3   OH222864   6.437   0.647   3.535
 7636TIP3    H122865   6.429   0.618   3.626
 7636TIP3    H222866   6.524   0.619   3.508
 7637TIP3   OH222867   5.963   0.327   1.070
 7637TIP3    H122868   5.869   0.323   1.054
 7637TIP3    H222869   5.996   0.390   1.005
 7638TIP3   OH222870   5.171   3.592   3.406
 7638TIP3    H122871   5.095   3.639   3.439
 7638TIP3    H222872   5.240   3.658   3.401
 7639TIP3   OH222873   3.940   3.813   6.417
 7639TIP3    H122874   3.966   3.726   6.448
 7639TIP3    H222875   3.972   3.872   6.485
 7640TIP3   OH222876   0.348   4.576   1.291
 7640TIP3    H122877   0.326   4.573   1.384
 7640TIP3    H222878   0.296   4.650   1.258
 7641TIP3   OH222879   8.184   4.179   6.028
 7641TIP3    H122880   8.262   4.222   6.063
 7641TIP3    H222881   8.198   4.178   5.933
 7642TIP3   OH222882   1.090   3.380   6.711
 7642TIP3    H122883   1.162   3.338   6.663
 7642TIP3    H222884   1.134   3.436   6.775
 7643TIP3   OH222885   2.025   1.750   4.855
 7643TIP3    H122886   1.964   1.678   4.843
 7643TIP3    H222887   2.105   1.709   4.886
 7644TIP3   OH222888   4.677   1.081   4.642
 7644TIP3    H122889   4.585   1.058   4.651
 7644TIP3    H222890   4.682   1.131   4.561
 7645TIP3   OH222891   6.040   4.288   1.322
 7645TIP3    H122892   6.014   4.379   1.331
 7645TIP3    H222893   5.978   4.251   1.259
 7646TIP3   OH222894   2.840   5.448   1.058
 7646TIP3    H122895   2.898   5.514   1.020
 7646TIP3    H222896   2.899   5.390   1.107
 7647TIP3   OH222897   2.896   3.123   6.421
 7647TIP3    H122898   2.905   3.047   6.363
 7647TIP3    H222899   2.886   3.197   6.361
 7648TIP3   OH222900   6.921   6.096   2.104
 7648TIP3    H122901   6.897   6.158   2.173
 7648TIP3    H222902   6.952   6.151   2.032
 7649TIP3   OH222903   6.495   5.113   5.534
 7649TIP3    H122904   6.514   5.113   5.628
 7649TIP3    H222905   6.417   5.058   5.526
 7650TIP3   OH222906   0.186   4.171   6.712
 7650TIP3    H122907   0.246   4.155   6.784
 7650TIP3    H222908   0.213   4.109   6.644
 7651TIP3   OH222909   1.178   6.344   0.308
 7651TIP3    H122910   1.158   6.329   0.401
 7651TIP3    H222911   1.260   6.296   0.294
 7652TIP3   OH222912   6.536   2.841   6.322
 7652TIP3    H122913   6.445   2.837   6.292
 7652TIP3    H222914   6.532   2.814   6.413
 7653TIP3   OH222915   3.524   3.172   6.014
 7653TIP3    H122916   3.575   3.199   5.937
 7653TIP3    H222917   3.435   3.158   5.981
 7654TIP3   OH222918   7.408   7.723   0.109
 7654TIP3    H122919   7.411   7.736   0.204
 7654TIP3    H222920   7.437   7.806   0.072
 7655TIP3   OH222921   7.149   7.376   0.420
 7655TIP3    H122922   7.154   7.403   0.329
 7655TIP3    H222923   7.184   7.287   0.422
 7656TIP3   OH222924   4.682   5.466   6.241
 7656TIP3    H122925   4.655   5.558   6.241
 7656TIP3    H222926   4.602   5.417   6.261
 7657TIP3   OH222927   0.897   3.360   0.551
 7657TIP3    H122928   0.956   3.284   0.542
 7657TIP3    H222929   0.872   3.381   0.462
 7658TIP3   OH222930   7.241   2.865   3.677
 7658TIP3    H122931   7.236   2.779   3.719
 7658TIP3    H222932   7.334   2.875   3.655
 7659TIP3   OH222933   1.309   3.189   1.222
 7659TIP3    H122934   1.285   3.210   1.313
 7659TIP3    H222935   1.403   3.204   1.219
 7660TIP3   OH222936   5.125   5.395   2.692
 7660TIP3    H122937   5.162   5.470   2.738
 7660TIP3    H222938   5.030   5.408   2.697
 7661TIP3   OH222939   6.173   3.272   4.815
 7661TIP3    H122940   6.161   3.363   4.842
 7661TIP3    H222941   6.088   3.231   4.831
 7662TIP3   OH222942   2.307   7.126   4.281
 7662TIP3    H122943   2.268   7.038   4.287
 7662TIP3    H222944   2.232   7.184   4.275
 7663TIP3   OH222945   7.848   0.998   6.134
 7663TIP3    H122946   7.869   0.954   6.216
 7663TIP3    H222947   7.756   0.976   6.119
 7664TIP3   OH222948   6.131   7.619   3.964
 7664TIP3    H122949   6.124   7.633   4.058
 7664TIP3    H222950   6.052   7.569   3.942
 7665TIP3   OH222951   2.667   4.775   0.564
 7665TIP3    H122952   2.676   4.868   0.546
 7665TIP3    H222953   2.716   4.762   0.645
 7666TIP3   OH222954   2.277   3.348   4.669
 7666TIP3    H122955   2.304   3.391   4.588
 7666TIP3    H222956   2.357   3.307   4.702
 7667TIP3   OH222957   1.660   5.031   1.481
 7667TIP3    H122958   1.719   5.029   1.405
 7667TIP3    H222959   1.693   5.103   1.535
 7668TIP3   OH222960   0.156   6.679   1.413
 7668TIP3    H122961   0.200   6.700   1.495
 7668TIP3    H222962   0.213   6.717   1.346
 7669TIP3   OH222963   7.598   4.409   3.741
 7669TIP3    H122964   7.562   4.438   3.825
 7669TIP3    H222965   7.675   4.357   3.764
 7670TIP3   OH222966   4.565   1.514   1.216
 7670TIP3    H122967   4.609   1.592   1.250
 7670TIP3    H222968   4.541   1.537   1.127
 7671TIP3   OH222969   4.457   7.638   2.680
 7671TIP3    H122970   4.473   7.623   2.587
 7671TIP3    H222971   4.516   7.709   2.704
 7672TIP3   OH222972   3.542   4.164   4.019
 7672TIP3    H122973   3.633   4.137   4.011
 7672TIP3    H222974   3.512   4.175   3.928
 7673TIP3   OH222975   4.767   3.958   3.480
 7673TIP3    H122976   4.741   4.014   3.554
 7673TIP3    H222977   4.692   3.900   3.466
 7674TIP3   OH222978   8.181   0.943   1.129
 7674TIP3    H122979   8.148   0.865   1.083
 7674TIP3    H222980   8.221   0.908   1.209
 7675TIP3   OH222981   7.477   2.536   1.323
 7675TIP3    H122982   7.478   2.623   1.362
 7675TIP3    H222983   7.487   2.476   1.397
 7676TIP3   OH222984   6.261   5.253   4.299
 7676TIP3    H122985   6.355   5.267   4.287
 7676TIP3    H222986   6.222   5.285   4.218
 7677TIP3   OH222987   1.929   4.030   4.092
 7677TIP3    H122988   1.989   4.049   4.164
 7677TIP3    H222989   1.867   3.967   4.128
 7678TIP3   OH222990   7.449   1.339   1.676
 7678TIP3    H122991   7.367   1.300   1.646
 7678TIP3    H222992   7.462   1.414   1.618
 7679TIP3   OH222993   4.400   4.589   6.764
 7679TIP3    H122994   4.366   4.527   6.699
 7679TIP3    H222995   4.383   4.675   6.727
 7680TIP3   OH222996   1.656   4.823   1.783
 7680TIP3    H122997   1.619   4.911   1.779
 7680TIP3    H222998   1.604   4.778   1.849
 7681TIP3   OH222999   1.864   2.806   1.688
 7681TIP3    H123000   1.862   2.875   1.755
 7681TIP3    H223001   1.822   2.845   1.612
 7682TIP3   OH223002   0.320   3.659   4.951
 7682TIP3    H123003   0.329   3.722   5.023
 7682TIP3    H223004   0.257   3.595   4.982
 7683TIP3   OH223005   5.434   7.532   2.629
 7683TIP3    H123006   5.478   7.487   2.557
 7683TIP3    H223007   5.485   7.612   2.642
 7684TIP3   OH223008   4.423   7.423   0.678
 7684TIP3    H123009   4.468   7.505   0.698
 7684TIP3    H223010   4.347   7.423   0.737
 7685TIP3   OH223011   4.498   2.969   1.551
 7685TIP3    H123012   4.569   2.906   1.540
 7685TIP3    H223013   4.488   3.009   1.465
 7686TIP3   OH223014   5.029   5.632   1.956
 7686TIP3    H123015   5.096   5.693   1.988
 7686TIP3    H223016   4.946   5.675   1.978
 7687TIP3   OH223017   4.645   4.849   4.746
 7687TIP3    H123018   4.568   4.890   4.786
 7687TIP3    H223019   4.622   4.756   4.740
 7688TIP3   OH223020   6.454   6.986   3.900
 7688TIP3    H123021   6.418   6.917   3.955
 7688TIP3    H223022   6.548   6.986   3.920
 7689TIP3   OH223023   5.609   2.859   6.519
 7689TIP3    H123024   5.662   2.784   6.493
 7689TIP3    H223025   5.521   2.839   6.486
 7690TIP3   OH223026   3.920   6.398   6.348
 7690TIP3    H123027   3.903   6.366   6.260
 7690TIP3    H223028   3.882   6.486   6.349
 7691TIP3   OH223029   4.276   5.420   0.247
 7691TIP3    H123030   4.242   5.491   0.301
 7691TIP3    H223031   4.337   5.373   0.304
 7692TIP3   OH223032   2.166   2.151   1.356
 7692TIP3    H123033   2.223   2.140   1.280
 7692TIP3    H223034   2.147   2.062   1.386
 7693TIP3   OH223035   6.173   2.418   0.863
 7693TIP3    H123036   6.183   2.513   0.869
 7693TIP3    H223037   6.078   2.405   0.854
 7694TIP3   OH223038   6.440   5.598   0.188
 7694TIP3    H123039   6.535   5.594   0.180
 7694TIP3    H223040   6.408   5.550   0.111
 7695TIP3   OH223041   2.546   2.038   2.412
 7695TIP3    H123042   2.482   2.046   2.341
 7695TIP3    H223043   2.620   1.991   2.374
 7696TIP3   OH223044   0.075   4.942   6.304
 7696TIP3    H123045   0.110   5.014   6.357
 7696TIP3    H223046   0.100   4.964   6.215
 7697TIP3   OH223047   6.053   3.852   2.903
 7697TIP3    H123048   6.002   3.773   2.920
 7697TIP3    H223049   6.009   3.921   2.953
 7698TIP3   OH223050   2.289   4.654   2.621
 7698TIP3    H123051   2.236   4.613   2.552
 7698TIP3    H223052   2.280   4.748   2.605
 7699TIP3   OH223053   6.456   0.750   4.603
 7699TIP3    H123054   6.431   0.754   4.511
 7699TIP3    H223055   6.372   0.746   4.650
 7700TIP3   OH223056   5.061   6.872   2.827
 7700TIP3    H123057   5.042   6.803   2.763
 7700TIP3    H223058   5.091   6.825   2.905
 7701TIP3   OH223059   6.089   6.513   2.369
 7701TIP3    H123060   5.998   6.487   2.379
 7701TIP3    H223061   6.094   6.549   2.280
 7702TIP3   OH223062   8.030   5.691   6.283
 7702TIP3    H123063   7.957   5.729   6.331
 7702TIP3    H223064   8.043   5.605   6.324
 7703TIP3   OH223065   1.652   2.787   0.790
 7703TIP3    H123066   1.569   2.806   0.835
 7703TIP3    H223067   1.707   2.863   0.811
 7704TIP3   OH223068   1.244   6.595   0.210
 7704TIP3    H123069   1.213   6.531   0.274
 7704TIP3    H223070   1.297   6.544   0.148
 7705TIP3   OH223071   2.274   5.230   2.493
 7705TIP3    H123072   2.356   5.236   2.541
 7705TIP3    H223073   2.207   5.218   2.561
 7706TIP3   OH223074   5.012   5.566   4.359
 7706TIP3    H123075   5.010   5.504   4.432
 7706TIP3    H223076   4.968   5.644   4.392
 7707TIP3   OH223077   6.524   1.655   4.124
 7707TIP3    H123078   6.607   1.702   4.114
 7707TIP3    H223079   6.535   1.602   4.203
 7708TIP3   OH223080   6.990   2.194   6.215
 7708TIP3    H123081   7.053   2.251   6.258
 7708TIP3    H223082   7.028   2.175   6.129
 7709TIP3   OH223083   8.186   3.606   2.729
 7709TIP3    H123084   8.165   3.576   2.641
 7709TIP3    H223085   8.157   3.535   2.787
 7710TIP3   OH223086   7.949   2.949   4.525
 7710TIP3    H123087   7.924   2.860   4.501
 7710TIP3    H223088   8.018   2.973   4.463
 7711TIP3   OH223089   7.036   1.475   1.570
 7711TIP3    H123090   6.947   1.473   1.605
 7711TIP3    H223091   7.039   1.399   1.511
 7712TIP3   OH223092   5.880   6.813   4.315
 7712TIP3    H123093   5.893   6.785   4.405
 7712TIP3    H223094   5.789   6.840   4.311
 7713TIP3   OH223095   5.911   3.348   4.032
 7713TIP3    H123096   5.922   3.361   4.126
 7713TIP3    H223097   5.825   3.309   4.023
 7714TIP3   OH223098   1.464   7.434   6.574
 7714TIP3    H123099   1.442   7.504   6.513
 7714TIP3    H223100   1.558   7.446   6.591
 7715TIP3   OH223101   4.401   0.958   2.329
 7715TIP3    H123102   4.492   0.951   2.357
 7715TIP3    H223103   4.397   1.040   2.280
 7716TIP3   OH223104   2.728   1.409   4.850
 7716TIP3    H123105   2.773   1.347   4.793
 7716TIP3    H223106   2.651   1.362   4.880
 7717TIP3   OH223107   0.479   4.923   5.054
 7717TIP3    H123108   0.386   4.898   5.044
 7717TIP3    H223109   0.492   4.992   4.988
 7718TIP3   OH223110   6.115   1.693   2.083
 7718TIP3    H123111   6.062   1.668   2.159
 7718TIP3    H223112   6.205   1.677   2.110
 7719TIP3   OH223113   3.782   3.986   1.747
 7719TIP3    H123114   3.762   4.015   1.836
 7719TIP3    H223115   3.876   4.000   1.738
 7720TIP3   OH223116   3.032   7.757   6.550
 7720TIP3    H123117   2.970   7.685   6.565
 7720TIP3    H223118   3.032   7.769   6.455
 7721TIP3   OH223119   2.310   2.682   0.350
 7721TIP3    H123120   2.311   2.776   0.370
 7721TIP3    H223121   2.217   2.659   0.351
 7722TIP3   OH223122   5.628   4.175   1.219
 7722TIP3    H123123   5.598   4.191   1.308
 7722TIP3    H223124   5.562   4.216   1.164
 7723TIP3   OH223125   1.320   5.100   3.790
 7723TIP3    H123126   1.414   5.114   3.787
 7723TIP3    H223127   1.310   5.011   3.824
 7724TIP3   OH223128   5.479   2.364   6.515
 7724TIP3    H123129   5.521   2.341   6.432
 7724TIP3    H223130   5.458   2.280   6.556
 7725TIP3   OH223131   2.480   3.788   2.977
 7725TIP3    H123132   2.409   3.832   3.024
 7725TIP3    H223133   2.545   3.768   3.045
 7726TIP3   OH223134   7.031   2.470   5.351
 7726TIP3    H123135   6.987   2.555   5.349
 7726TIP3    H223136   6.962   2.408   5.376
 7727TIP3   OH223137   3.095   7.801   0.681
 7727TIP3    H123138   3.073   7.818   0.772
 7727TIP3    H223139   3.112   7.706   0.678
 7728TIP3   OH223140   1.601   5.625   5.053
 7728TIP3    H123141   1.511   5.649   5.029
 7728TIP3    H223142   1.612   5.536   5.020
 7729TIP3   OH223143   0.384   2.686   2.469
 7729TIP3    H123144   0.468   2.664   2.510
 7729TIP3    H223145   0.390   2.650   2.381
 7730TIP3   OH223146   0.453   0.228   5.762
 7730TIP3    H123147   0.446   0.135   5.743
 7730TIP3    H223148   0.362   0.259   5.767
 7731TIP3   OH223149   5.405   0.420   1.218
 7731TIP3    H123150   5.439   0.493   1.166
 7731TIP3    H223151   5.423   0.343   1.164
 7732TIP3   OH223152   0.508   3.763   1.641
 7732TIP3    H123153   0.431   3.717   1.673
 7732TIP3    H223154   0.581   3.707   1.667
 7733TIP3   OH223155   5.023   5.154   2.309
 7733TIP3    H123156   5.034   5.184   2.219
 7733TIP3    H223157   5.071   5.219   2.361
 7734TIP3   OH223158   3.944   5.474   0.743
 7734TIP3    H123159   3.868   5.423   0.716
 7734TIP3    H223160   3.998   5.480   0.664
 7735TIP3   OH223161   4.819   1.283   6.505
 7735TIP3    H123162   4.819   1.343   6.431
 7735TIP3    H223163   4.751   1.316   6.563
 7736TIP3   OH223164   6.822   5.323   0.225
 7736TIP3    H123165   6.770   5.386   0.176
 7736TIP3    H223166   6.878   5.376   0.282
 7737TIP3   OH223167   2.266   2.478   3.184
 7737TIP3    H123168   2.222   2.399   3.154
 7737TIP3    H223169   2.195   2.535   3.214
 7738TIP3   OH223170   8.028   0.874   3.793
 7738TIP3    H123171   7.953   0.933   3.802
 7738TIP3    H223172   8.104   0.927   3.817
 7739TIP3   OH223173   3.262   2.827   2.004
 7739TIP3    H123174   3.334   2.769   2.031
 7739TIP3    H223175   3.302   2.914   2.000
 7740TIP3   OH223176   1.928   1.690   6.660
 7740TIP3    H123177   1.929   1.754   6.731
 7740TIP3    H223178   1.879   1.616   6.694
 7741TIP3   OH223179   1.983   6.843   2.096
 7741TIP3    H123180   2.040   6.772   2.125
 7741TIP3    H223181   1.914   6.847   2.162
 7742TIP3   OH223182   7.029   3.251   3.379
 7742TIP3    H123183   7.109   3.297   3.406
 7742TIP3    H223184   7.027   3.173   3.434
 7743TIP3   OH223185   6.641   0.197   0.832
 7743TIP3    H123186   6.642   0.207   0.737
 7743TIP3    H223187   6.664   0.284   0.865
 7744TIP3   OH223188   7.735   0.080   1.622
 7744TIP3    H123189   7.727   0.166   1.663
 7744TIP3    H223190   7.662   0.030   1.659
 7745TIP3   OH223191   7.987   5.439   0.997
 7745TIP3    H123192   7.971   5.399   0.911
 7745TIP3    H223193   8.020   5.527   0.976
 7746TIP3   OH223194   5.796   2.728   3.000
 7746TIP3    H123195   5.816   2.821   2.997
 7746TIP3    H223196   5.702   2.723   2.984
 7747TIP3   OH223197   6.799   2.115   6.419
 7747TIP3    H123198   6.812   2.031   6.464
 7747TIP3    H223199   6.879   2.127   6.368
 7748TIP3   OH223200   2.819   1.194   4.663
 7748TIP3    H123201   2.741   1.216   4.612
 7748TIP3    H223202   2.820   1.098   4.665
 7749TIP3   OH223203   5.900   3.201   1.064
 7749TIP3    H123204   5.959   3.158   1.002
 7749TIP3    H223205   5.836   3.134   1.087
 7750TIP3   OH223206   1.741   1.991   1.392
 7750TIP3    H123207   1.739   2.015   1.485
 7750TIP3    H223208   1.661   1.940   1.379
 7751TIP3   OH223209   2.872   0.271   4.842
 7751TIP3    H123210   2.889   0.343   4.903
 7751TIP3    H223211   2.958   0.233   4.826
 7752TIP3   OH223212   8.195   6.712   0.766
 7752TIP3    H123213   8.218   6.673   0.682
 7752TIP3    H223214   8.246   6.792   0.770
 7753TIP3   OH223215   3.840   1.100   4.045
 7753TIP3    H123216   3.814   1.060   3.962
 7753TIP3    H223217   3.768   1.158   4.068
 7754TIP3   OH223218   3.989   0.876   3.906
 7754TIP3    H123219   4.072   0.922   3.896
 7754TIP3    H223220   4.013   0.784   3.909
 7755TIP3   OH223221   6.053   6.004   6.210
 7755TIP3    H123222   6.108   6.056   6.151
 7755TIP3    H223223   6.114   5.961   6.270
 7756TIP3   OH223224   3.997   5.978   6.533
 7756TIP3    H123225   4.091   5.961   6.532
 7756TIP3    H223226   3.989   6.071   6.515
 7757TIP3   OH223227   0.990   6.117   2.113
 7757TIP3    H123228   1.022   6.173   2.184
 7757TIP3    H223229   1.056   6.125   2.044
 7758TIP3   OH223230   6.908   2.517   4.094
 7758TIP3    H123231   6.927   2.451   4.161
 7758TIP3    H223232   6.901   2.467   4.012
 7759TIP3   OH223233   1.434   2.684   2.086
 7759TIP3    H123234   1.447   2.661   2.178
 7759TIP3    H223235   1.339   2.680   2.074
 7760TIP3   OH223236   0.097   0.290   6.206
 7760TIP3    H123237   0.161   0.344   6.160
 7760TIP3    H223238   0.060   0.233   6.139
 7761TIP3   OH223239   5.696   4.874   3.102
 7761TIP3    H123240   5.778   4.920   3.120
 7761TIP3    H223241   5.662   4.851   3.188
 7762TIP3   OH223242   6.313   3.253   3.355
 7762TIP3    H123243   6.241   3.302   3.316
 7762TIP3    H223244   6.380   3.251   3.286
 7763TIP3   OH223245   6.031   6.519   1.323
 7763TIP3    H123246   5.985   6.537   1.405
 7763TIP3    H223247   6.088   6.595   1.311
 7764TIP3   OH223248   2.049   1.564   3.650
 7764TIP3    H123249   2.114   1.632   3.633
 7764TIP3    H223250   1.976   1.586   3.593
 7765TIP3   OH223251   7.322   0.154   1.415
 7765TIP3    H123252   7.323   0.211   1.492
 7765TIP3    H223253   7.231   0.129   1.404
 7766TIP3   OH223254   0.414   7.165   1.626
 7766TIP3    H123255   0.450   7.079   1.643
 7766TIP3    H223256   0.376   7.159   1.538
 7767TIP3   OH223257   6.944   7.592   3.921
 7767TIP3    H123258   7.017   7.547   3.879
 7767TIP3    H223259   6.928   7.669   3.865
 7768TIP3   OH223260   3.177   5.114   6.018
 7768TIP3    H123261   3.229   5.113   5.937
 7768TIP3    H223262   3.107   5.051   6.002
 7769TIP3   OH223263   7.390   3.418   6.227
 7769TIP3    H123264   7.403   3.503   6.184
 7769TIP3    H223265   7.353   3.439   6.312
 7770TIP3   OH223266   5.077   0.515   5.433
 7770TIP3    H123267   5.089   0.533   5.526
 7770TIP3    H223268   5.059   0.421   5.429
 7771TIP3   OH223269   2.794   1.233   0.368
 7771TIP3    H123270   2.754   1.234   0.281
 7771TIP3    H223271   2.725   1.202   0.426
 7772TIP3   OH223272   3.592   1.709   6.234
 7772TIP3    H123273   3.583   1.732   6.326
 7772TIP3    H223274   3.617   1.791   6.191
 7773TIP3   OH223275   3.040   2.510   5.646
 7773TIP3    H123276   3.046   2.460   5.564
 7773TIP3    H223277   3.014   2.445   5.711
 7774TIP3   OH223278   1.977   5.312   1.161
 7774TIP3    H123279   2.054   5.271   1.201
 7774TIP3    H223280   1.946   5.373   1.228
 7775TIP3   OH223281   2.411   7.706   0.241
 7775TIP3    H123282   2.379   7.720   0.331
 7775TIP3    H223283   2.468   7.780   0.224
 7776TIP3   OH223284   2.871   4.718   3.051
 7776TIP3    H123285   2.934   4.646   3.046
 7776TIP3    H223286   2.925   4.795   3.071
 7777TIP3   OH223287   3.770   4.801   4.082
 7777TIP3    H123288   3.690   4.749   4.089
 7777TIP3    H223289   3.805   4.779   3.995
 7778TIP3   OH223290   3.799   1.015   3.775
 7778TIP3    H123291   3.830   1.076   3.707
 7778TIP3    H223292   3.878   0.974   3.809
 7779TIP3   OH223293   4.659   3.810   3.693
 7779TIP3    H123294   4.578   3.791   3.741
 7779TIP3    H223295   4.723   3.747   3.727
 7780TIP3   OH223296   5.973   3.407   3.689
 7780TIP3    H123297   5.949   3.322   3.652
 7780TIP3    H223298   5.931   3.408   3.775
 7781TIP3   OH223299   4.399   7.625   4.635
 7781TIP3    H123300   4.406   7.534   4.664
 7781TIP3    H223301   4.482   7.665   4.660
 7782TIP3   OH223302   6.339   7.194   0.322
 7782TIP3    H123303   6.260   7.197   0.269
 7782TIP3    H223304   6.374   7.106   0.307
 7783TIP3   OH223305   6.558   7.786   5.963
 7783TIP3    H123306   6.536   7.704   6.008
 7783TIP3    H223307   6.537   7.854   6.026
 7784TIP3   OH223308   2.899   0.167   2.488
 7784TIP3    H123309   2.804   0.163   2.498
 7784TIP3    H223310   2.932   0.190   2.575
 7785TIP3   OH223311   5.448   0.169   1.091
 7785TIP3    H123312   5.450   0.076   1.112
 7785TIP3    H223313   5.357   0.185   1.064
 7786TIP3   OH223314   0.974   0.099   4.394
 7786TIP3    H123315   1.009   0.065   4.311
 7786TIP3    H223316   0.996   0.031   4.458
 7787TIP3   OH223317   6.200   7.729   1.979
 7787TIP3    H123318   6.137   7.733   1.908
 7787TIP3    H223319   6.215   7.635   1.993
 7788TIP3   OH223320   8.035   5.055   6.263
 7788TIP3    H123321   7.957   5.103   6.233
 7788TIP3    H223322   8.109   5.105   6.226
 7789TIP3   OH223323   0.885   1.276   3.385
 7789TIP3    H123324   0.867   1.360   3.427
 7789TIP3    H223325   0.963   1.291   3.333
 7790TIP3   OH223326   1.437   0.884   1.925
 7790TIP3    H123327   1.465   0.892   1.834
 7790TIP3    H223328   1.512   0.848   1.971
 7791TIP3   OH223329   7.799   3.018   1.601
 7791TIP3    H123330   7.882   3.030   1.555
 7791TIP3    H223331   7.732   3.030   1.534
 7792TIP3   OH223332   6.460   7.134   2.409
 7792TIP3    H123333   6.433   7.087   2.330
 7792TIP3    H223334   6.453   7.069   2.479
 7793TIP3   OH223335   3.596   6.052   0.185
 7793TIP3    H123336   3.657   6.119   0.216
 7793TIP3    H223337   3.564   6.010   0.265
 7794TIP3   OH223338   5.723   5.788   5.590
 7794TIP3    H123339   5.711   5.759   5.499
 7794TIP3    H223340   5.692   5.879   5.591
 7795TIP3   OH223341   7.476   1.636   1.622
 7795TIP3    H123342   7.461   1.730   1.615
 7795TIP3    H223343   7.520   1.613   1.540
 7796TIP3   OH223344   7.506   2.373   0.097
 7796TIP3    H123345   7.567   2.446   0.110
 7796TIP3    H223346   7.431   2.413   0.052
 7797TIP3   OH223347   6.004   0.967   1.817
 7797TIP3    H123348   6.086   1.015   1.824
 7797TIP3    H223349   5.937   1.035   1.815
 7798TIP3   OH223350   5.688   0.068   6.334
 7798TIP3    H123351   5.609   0.105   6.295
 7798TIP3    H223352   5.706   0.124   6.410
 7799TIP3   OH223353   7.871   6.549   2.258
 7799TIP3    H123354   7.863   6.526   2.165
 7799TIP3    H223355   7.919   6.476   2.297
 7800TIP3   OH223356   6.228   7.771   6.271
 7800TIP3    H123357   6.181   7.689   6.283
 7800TIP3    H223358   6.321   7.747   6.277
 7801TIP3   OH223359   2.501   0.062   4.394
 7801TIP3    H123360   2.409   0.077   4.411
 7801TIP3    H223361   2.547   0.123   4.451
 7802TIP3   OH223362   3.207   7.373   3.979
 7802TIP3    H123363   3.248   7.445   3.931
 7802TIP3    H223364   3.281   7.326   4.018
 7803TIP3   OH223365   6.082   3.648   1.413
 7803TIP3    H123366   6.044   3.594   1.344
 7803TIP3    H223367   6.037   3.732   1.406
 7804TIP3   OH223368   1.696   5.650   6.051
 7804TIP3    H123369   1.759   5.715   6.020
 7804TIP3    H223370   1.750   5.576   6.079
 7805TIP3   OH223371   7.801   2.212   4.552
 7805TIP3    H123372   7.776   2.203   4.644
 7805TIP3    H223373   7.774   2.130   4.512
 7806TIP3   OH223374   4.630   1.815   3.090
 7806TIP3    H123375   4.623   1.897   3.040
 7806TIP3    H223376   4.720   1.785   3.073
 7807TIP3   OH223377   1.465   4.906   6.209
 7807TIP3    H123378   1.522   4.829   6.206
 7807TIP3    H223379   1.399   4.884   6.275
 7808TIP3   OH223380   4.519   0.345   2.536
 7808TIP3    H123381   4.501   0.284   2.465
 7808TIP3    H223382   4.608   0.325   2.564
 7809TIP3   OH223383   0.520   7.234   3.159
 7809TIP3    H123384   0.535   7.320   3.118
 7809TIP3    H223385   0.426   7.218   3.146
 7810TIP3   OH223386   5.894   0.985   6.322
 7810TIP3    H123387   5.973   0.946   6.284
 7810TIP3    H223388   5.864   1.048   6.257
 7811TIP3   OH223389   5.361   2.903   2.645
 7811TIP3    H123390   5.285   2.949   2.680
 7811TIP3    H223391   5.325   2.832   2.593
 7812TIP3   OH223392   3.518   2.955   1.713
 7812TIP3    H123393   3.597   2.902   1.700
 7812TIP3    H223394   3.549   3.045   1.711
 7813TIP3   OH223395   0.696   7.159   6.241
 7813TIP3    H123396   0.638   7.133   6.312
 7813TIP3    H223397   0.656   7.238   6.205
 7814TIP3   OH223398   7.491   4.778   1.157
 7814TIP3    H123399   7.421   4.744   1.101
 7814TIP3    H223400   7.512   4.863   1.119
 7815TIP3   OH223401   7.905   3.159   1.290
 7815TIP3    H123402   7.962   3.205   1.228
 7815TIP3    H223403   7.835   3.123   1.236
 7816TIP3   OH223404   4.704   0.604   1.712
 7816TIP3    H123405   4.723   0.652   1.792
 7816TIP3    H223406   4.779   0.546   1.700
 7817TIP3   OH223407   7.224   6.822   1.127
 7817TIP3    H123408   7.311   6.804   1.093
 7817TIP3    H223409   7.239   6.885   1.198
 7818TIP3   OH223410   0.620   7.218   0.288
 7818TIP3    H123411   0.566   7.155   0.239
 7818TIP3    H223412   0.707   7.179   0.289
 7819TIP3   OH223413   2.296   4.994   4.070
 7819TIP3    H123414   2.240   4.919   4.049
 7819TIP3    H223415   2.334   5.020   3.986
 7820TIP3   OH223416   0.514   7.116   5.068
 7820TIP3    H123417   0.520   7.207   5.037
 7820TIP3    H223418   0.599   7.078   5.049
 7821TIP3   OH223419   2.195   7.149   3.357
 7821TIP3    H123420   2.172   7.057   3.364
 7821TIP3    H223421   2.113   7.196   3.371
 7822TIP3   OH223422   0.985   6.863   0.904
 7822TIP3    H123423   1.048   6.883   0.835
 7822TIP3    H223424   0.919   6.810   0.862
 7823TIP3   OH223425   4.855   0.533   5.144
 7823TIP3    H123426   4.947   0.555   5.158
 7823TIP3    H223427   4.807   0.613   5.167
 7824TIP3   OH223428   7.685   1.019   4.564
 7824TIP3    H123429   7.745   0.966   4.617
 7824TIP3    H223430   7.687   0.978   4.477
 7825TIP3   OH223431   2.456   5.073   2.721
 7825TIP3    H123432   2.450   5.107   2.810
 7825TIP3    H223433   2.497   5.143   2.671
 7826TIP3   OH223434   7.935   7.474   4.529
 7826TIP3    H123435   7.946   7.423   4.610
 7826TIP3    H223436   8.008   7.447   4.473
 7827TIP3   OH223437   3.801   1.988   6.595
 7827TIP3    H123438   3.891   1.992   6.562
 7827TIP3    H223439   3.784   1.895   6.607
 7828TIP3   OH223440   3.869   2.921   3.896
 7828TIP3    H123441   3.833   2.880   3.818
 7828TIP3    H223442   3.932   2.859   3.930
 7829TIP3   OH223443   2.729   2.380   1.984
 7829TIP3    H123444   2.677   2.446   1.938
 7829TIP3    H223445   2.789   2.347   1.917
 7830TIP3   OH223446   2.862   6.147   0.327
 7830TIP3    H123447   2.789   6.208   0.339
 7830TIP3    H223448   2.820   6.063   0.310
 7831TIP3   OH223449   3.941   4.104   0.030
 7831TIP3    H123450   3.860   4.135  -0.010
 7831TIP3    H223451   3.915   4.077   0.118
 7832TIP3   OH223452   6.758   6.945   5.933
 7832TIP3    H123453   6.667   6.968   5.954
 7832TIP3    H223454   6.805   7.028   5.935
 7833TIP3   OH223455   5.183   2.684   3.641
 7833TIP3    H123456   5.130   2.642   3.708
 7833TIP3    H223457   5.164   2.778   3.651
 7834TIP3   OH223458   0.324   3.166   4.936
 7834TIP3    H123459   0.296   3.189   4.848
 7834TIP3    H223460   0.329   3.070   4.935
 7835TIP3   OH223461   5.735   1.230   0.202
 7835TIP3    H123462   5.683   1.256   0.278
 7835TIP3    H223463   5.707   1.289   0.132
 7836TIP3   OH223464   7.107   4.208   6.411
 7836TIP3    H123465   7.146   4.122   6.429
 7836TIP3    H223466   7.144   4.233   6.326
 7837TIP3   OH223467   2.077   5.833   2.386
 7837TIP3    H123468   2.108   5.905   2.440
 7837TIP3    H223469   2.153   5.807   2.334
 7838TIP3   OH223470   4.708   7.653   2.044
 7838TIP3    H123471   4.763   7.726   2.072
 7838TIP3    H223472   4.618   7.683   2.061
 7839TIP3   OH223473   0.415   0.316   6.324
 7839TIP3    H123474   0.502   0.335   6.288
 7839TIP3    H223475   0.361   0.296   6.248
 7840TIP3   OH223476   7.623   4.671   0.283
 7840TIP3    H123477   7.615   4.616   0.361
 7840TIP3    H223478   7.619   4.609   0.210
 7841TIP3   OH223479   7.177   5.991   4.618
 7841TIP3    H123480   7.233   6.022   4.689
 7841TIP3    H223481   7.147   6.071   4.574
 7842TIP3   OH223482   2.629   3.367   0.843
 7842TIP3    H123483   2.684   3.424   0.790
 7842TIP3    H223484   2.671   3.281   0.837
 7843TIP3   OH223485   0.797   3.859   1.046
 7843TIP3    H123486   0.771   3.844   0.955
 7843TIP3    H223487   0.721   3.831   1.097
 7844TIP3   OH223488   5.778   2.737   4.385
 7844TIP3    H123489   5.780   2.820   4.339
 7844TIP3    H223490   5.769   2.671   4.316
 7845TIP3   OH223491   7.515   0.707   4.743
 7845TIP3    H123492   7.522   0.695   4.648
 7845TIP3    H223493   7.537   0.799   4.757
 7846TIP3   OH223494   1.391   1.886   4.891
 7846TIP3    H123495   1.472   1.919   4.852
 7846TIP3    H223496   1.415   1.866   4.982
 7847TIP3   OH223497   6.974   0.085   0.424
 7847TIP3    H123498   7.068   0.083   0.406
 7847TIP3    H223499   6.964   0.034   0.505
 7848TIP3   OH223500   2.905   4.245   2.818
 7848TIP3    H123501   2.875   4.208   2.901
 7848TIP3    H223502   2.881   4.180   2.752
 7849TIP3   OH223503   5.485   4.116   4.596
 7849TIP3    H123504   5.571   4.159   4.598
 7849TIP3    H223505   5.499   4.036   4.546
 7850TIP3   OH223506   7.949   2.772   1.426
 7850TIP3    H123507   7.966   2.690   1.474
 7850TIP3    H223508   7.873   2.752   1.371
 7851TIP3   OH223509   1.983   6.549   3.813
 7851TIP3    H123510   2.019   6.497   3.741
 7851TIP3    H223511   1.909   6.497   3.844
 7852TIP3   OH223512   3.498   5.843   6.347
 7852TIP3    H123513   3.474   5.932   6.371
 7852TIP3    H223514   3.459   5.830   6.260
 7853TIP3   OH223515   0.977   6.090   4.202
 7853TIP3    H123516   1.049   6.027   4.205
 7853TIP3    H223517   0.898   6.037   4.194
 7854TIP3   OH223518   3.405   2.872   2.399
 7854TIP3    H123519   3.415   2.955   2.352
 7854TIP3    H223520   3.489   2.827   2.384
 7855TIP3   OH223521   1.055   5.688   3.148
 7855TIP3    H123522   1.022   5.602   3.171
 7855TIP3    H223523   1.041   5.741   3.227
 7856TIP3   OH223524   5.025   3.848   1.472
 7856TIP3    H123525   4.932   3.868   1.476
 7856TIP3    H223526   5.066   3.929   1.442
 7857TIP3   OH223527   4.425   6.277   1.887
 7857TIP3    H123528   4.458   6.188   1.896
 7857TIP3    H223529   4.330   6.268   1.895
 7858TIP3   OH223530   3.363   4.597   6.331
 7858TIP3    H123531   3.421   4.539   6.380
 7858TIP3    H223532   3.422   4.647   6.273
 7859TIP3   OH223533   8.028   4.864   4.787
 7859TIP3    H123534   8.033   4.953   4.753
 7859TIP3    H223535   8.108   4.822   4.756
 7860TIP3   OH223536   7.867   6.001   1.775
 7860TIP3    H123537   7.839   5.977   1.687
 7860TIP3    H223538   7.817   5.945   1.833
 7861TIP3   OH223539   5.939   3.486   4.608
 7861TIP3    H123540   5.913   3.553   4.545
 7861TIP3    H223541   6.031   3.503   4.625
 7862TIP3   OH223542   1.396   3.626   1.672
 7862TIP3    H123543   1.400   3.692   1.603
 7862TIP3    H223544   1.377   3.544   1.627
 7863TIP3   OH223545   6.750   2.952   5.925
 7863TIP3    H123546   6.739   2.875   5.868
 7863TIP3    H223547   6.755   3.026   5.865
 7864TIP3   OH223548   4.909   7.291   1.425
 7864TIP3    H123549   4.928   7.206   1.385
 7864TIP3    H223550   4.893   7.271   1.517
 7865TIP3   OH223551   7.507   5.853   6.555
 7865TIP3    H123552   7.586   5.884   6.600
 7865TIP3    H223553   7.453   5.932   6.545
 7866TIP3   OH223554   2.373   6.716   5.357
 7866TIP3    H123555   2.366   6.784   5.424
 7866TIP3    H223556   2.467   6.696   5.354
 7867TIP3   OH223557   2.417   0.638   1.463
 7867TIP3    H123558   2.398   0.674   1.376
 7867TIP3    H223559   2.361   0.561   1.469
 7868TIP3   OH223560   1.588   0.533   3.123
 7868TIP3    H123561   1.668   0.567   3.082
 7868TIP3    H223562   1.537   0.610   3.145
 7869TIP3   OH223563   5.040   5.259   3.283
 7869TIP3    H123564   4.955   5.264   3.327
 7869TIP3    H223565   5.083   5.341   3.306
 7870TIP3   OH223566   7.971   1.526   6.563
 7870TIP3    H123567   8.037   1.595   6.557
 7870TIP3    H223568   8.016   1.446   6.538
 7871TIP3   OH223569   4.881   7.560   5.247
 7871TIP3    H123570   4.904   7.644   5.286
 7871TIP3    H223571   4.797   7.537   5.286
 7872TIP3   OH223572   5.668   1.781   3.654
 7872TIP3    H123573   5.683   1.780   3.749
 7872TIP3    H223574   5.573   1.774   3.645
 7873TIP3   OH223575   1.518   6.551   2.104
 7873TIP3    H123576   1.501   6.457   2.110
 7873TIP3    H223577   1.570   6.570   2.182
 7874TIP3   OH223578   0.520   2.485   0.135
 7874TIP3    H123579   0.494   2.576   0.123
 7874TIP3    H223580   0.521   2.473   0.230
 7875TIP3   OH223581   1.712   2.000   5.953
 7875TIP3    H123582   1.708   1.920   6.004
 7875TIP3    H223583   1.710   1.971   5.862
 7876TIP3   OH223584   4.741   4.797   5.126
 7876TIP3    H123585   4.794   4.794   5.047
 7876TIP3    H223586   4.677   4.726   5.114
 7877TIP3   OH223587   3.652   6.916   4.082
 7877TIP3    H123588   3.718   6.875   4.027
 7877TIP3    H223589   3.669   7.010   4.074
 7878TIP3   OH223590   0.065   5.102   3.831
 7878TIP3    H123591  -0.007   5.153   3.867
 7878TIP3    H223592   0.048   5.097   3.737
 7879TIP3   OH223593   6.054   5.967   4.181
 7879TIP3    H123594   6.056   5.919   4.264
 7879TIP3    H223595   6.127   6.029   4.188
 7880TIP3   OH223596   6.328   5.782   4.943
 7880TIP3    H123597   6.322   5.794   5.037
 7880TIP3    H223598   6.419   5.801   4.922
 7881TIP3   OH223599   5.370   3.845   6.788
 7881TIP3    H123600   5.342   3.760   6.754
 7881TIP3    H223601   5.406   3.891   6.713
 7882TIP3   OH223602   3.487   7.574   0.654
 7882TIP3    H123603   3.413   7.531   0.610
 7882TIP3    H223604   3.448   7.621   0.727
 7883TIP3   OH223605   6.665   0.971   5.528
 7883TIP3    H123606   6.643   0.881   5.504
 7883TIP3    H223607   6.618   0.987   5.609
 7884TIP3   OH223608   0.158   2.590   3.206
 7884TIP3    H123609   0.183   2.572   3.297
 7884TIP3    H223610   0.070   2.627   3.212
 7885TIP3   OH223611   8.014   5.189   6.547
 7885TIP3    H123612   7.956   5.215   6.475
 7885TIP3    H223613   8.023   5.095   6.538
 7886TIP3   OH223614   5.066   1.467   1.284
 7886TIP3    H123615   5.109   1.501   1.363
 7886TIP3    H223616   4.972   1.474   1.303
 7887TIP3   OH223617   4.132   2.989   0.412
 7887TIP3    H123618   4.107   3.073   0.375
 7887TIP3    H223619   4.206   2.960   0.358
 7888TIP3   OH223620   8.135   6.172   3.033
 7888TIP3    H123621   8.081   6.165   2.954
 7888TIP3    H223622   8.214   6.121   3.013
 7889TIP3   OH223623   7.741   4.725   1.277
 7889TIP3    H123624   7.763   4.713   1.184
 7889TIP3    H223625   7.671   4.790   1.277
 7890TIP3   OH223626   3.989   2.082   1.003
 7890TIP3    H123627   3.930   2.115   0.935
 7890TIP3    H223628   4.051   2.027   0.955
 7891TIP3   OH223629   3.299   3.606   5.481
 7891TIP3    H123630   3.356   3.532   5.460
 7891TIP3    H223631   3.223   3.595   5.424
 7892TIP3   OH223632   5.537   1.396   1.980
 7892TIP3    H123633   5.623   1.437   1.988
 7892TIP3    H223634   5.545   1.315   2.030
 7893TIP3   OH223635   5.741   3.563   1.365
 7893TIP3    H123636   5.813   3.531   1.311
 7893TIP3    H223637   5.747   3.512   1.446
 7894TIP3   OH223638   4.722   2.162   0.485
 7894TIP3    H123639   4.785   2.174   0.414
 7894TIP3    H223640   4.762   2.207   0.560
 7895TIP3   OH223641   1.446   0.505   4.266
 7895TIP3    H123642   1.497   0.430   4.236
 7895TIP3    H223643   1.447   0.498   4.362
 7896TIP3   OH223644   6.713   4.029   2.874
 7896TIP3    H123645   6.655   3.981   2.815
 7896TIP3    H223646   6.698   4.121   2.853
 7897TIP3   OH223647   5.132   0.020   3.381
 7897TIP3    H123648   5.221   0.036   3.411
 7897TIP3    H223649   5.078   0.030   3.459
 7898TIP3   OH223650   3.351   2.361   6.310
 7898TIP3    H123651   3.432   2.382   6.263
 7898TIP3    H223652   3.322   2.445   6.345
 7899TIP3   OH223653   4.078   2.665   1.834
 7899TIP3    H123654   4.096   2.653   1.740
 7899TIP3    H223655   4.060   2.759   1.843
 7900TIP3   OH223656   7.558   2.344   1.501
 7900TIP3    H123657   7.613   2.327   1.578
 7900TIP3    H223658   7.503   2.266   1.494
 7901TIP3   OH223659   0.539   3.530   0.665
 7901TIP3    H123660   0.595   3.472   0.717
 7901TIP3    H223661   0.471   3.473   0.630
 7902TIP3   OH223662   0.273   0.462   6.525
 7902TIP3    H123663   0.319   0.477   6.608
 7902TIP3    H223664   0.338   0.421   6.469
 7903TIP3   OH223665   7.509   5.545   5.045
 7903TIP3    H123666   7.567   5.473   5.021
 7903TIP3    H223667   7.487   5.587   4.961
 7904TIP3   OH223668   2.882   4.037   2.641
 7904TIP3    H123669   2.891   3.987   2.560
 7904TIP3    H223670   2.894   3.972   2.711
 7905TIP3   OH223671   6.454   7.118   6.491
 7905TIP3    H123672   6.473   7.047   6.429
 7905TIP3    H223673   6.376   7.087   6.539
 7906TIP3   OH223674   4.751   4.450   1.274
 7906TIP3    H123675   4.685   4.519   1.269
 7906TIP3    H223676   4.768   4.441   1.368
 7907TIP3   OH223677   3.792   7.767   2.322
 7907TIP3    H123678   3.773   7.687   2.371
 7907TIP3    H223679   3.888   7.774   2.323
 7908TIP3   OH223680   5.751   3.590   0.987
 7908TIP3    H123681   5.745   3.676   1.029
 7908TIP3    H223682   5.663   3.552   0.997
 7909TIP3   OH223683   7.662   3.983   3.227
 7909TIP3    H123684   7.643   3.893   3.256
 7909TIP3    H223685   7.588   4.034   3.260
 7910TIP3   OH223686   2.423   6.475   0.953
 7910TIP3    H123687   2.328   6.474   0.966
 7910TIP3    H223688   2.459   6.483   1.041
 7911TIP3   OH223689   4.150   7.251   5.461
 7911TIP3    H123690   4.090   7.313   5.420
 7911TIP3    H223691   4.155   7.178   5.400
 7912TIP3   OH223692   3.338   2.562   0.513
 7912TIP3    H123693   3.410   2.619   0.541
 7912TIP3    H223694   3.326   2.584   0.420
 7913TIP3   OH223695   5.389   6.796   5.027
 7913TIP3    H123696   5.408   6.886   5.001
 7913TIP3    H223697   5.308   6.802   5.078
 7914TIP3   OH223698   7.600   5.992   6.206
 7914TIP3    H123699   7.513   6.014   6.240
 7914TIP3    H223700   7.646   6.075   6.202
 7915TIP3   OH223701   0.171   6.017   5.599
 7915TIP3    H123702   0.179   5.923   5.580
 7915TIP3    H223703   0.192   6.060   5.517
 7916TIP3   OH223704   3.465   7.176   3.009
 7916TIP3    H123705   3.489   7.147   3.097
 7916TIP3    H223706   3.386   7.126   2.988
 7917TIP3   OH223707   6.893   0.379   4.758
 7917TIP3    H123708   6.980   0.340   4.748
 7917TIP3    H223709   6.905   0.470   4.730
 7918TIP3   OH223710   2.516   2.168   0.343
 7918TIP3    H123711   2.587   2.225   0.312
 7918TIP3    H223712   2.445   2.228   0.365
 7919TIP3   OH223713   8.092   5.869   1.932
 7919TIP3    H123714   8.023   5.913   1.883
 7919TIP3    H223715   8.172   5.912   1.904
 7920TIP3   OH223716   3.431   1.399   6.374
 7920TIP3    H123717   3.423   1.313   6.416
 7920TIP3    H223718   3.524   1.406   6.352
 7921TIP3   OH223719   2.964   1.432   0.407
 7921TIP3    H123720   2.916   1.511   0.383
 7921TIP3    H223721   2.907   1.360   0.380
 7922TIP3   OH223722   5.583   2.052   2.127
 7922TIP3    H123723   5.491   2.077   2.124
 7922TIP3    H223724   5.596   2.017   2.215
 7923TIP3   OH223725   0.885   0.752   3.869
 7923TIP3    H123726   0.948   0.717   3.931
 7923TIP3    H223727   0.810   0.692   3.873
 7924TIP3   OH223728   3.212   0.338   1.646
 7924TIP3    H123729   3.184   0.258   1.601
 7924TIP3    H223730   3.201   0.318   1.739
 7925TIP3   OH223731   1.200   6.915   0.712
 7925TIP3    H123732   1.242   6.876   0.635
 7925TIP3    H223733   1.209   7.010   0.698
 7926TIP3   OH223734   5.609   0.565   3.316
 7926TIP3    H123735   5.702   0.552   3.297
 7926TIP3    H223736   5.598   0.660   3.316
 7927TIP3   OH223737   1.123   5.853   6.154
 7927TIP3    H123738   1.177   5.814   6.086
 7927TIP3    H223739   1.145   5.805   6.234
 7928TIP3   OH223740   5.784   5.697   2.816
 7928TIP3    H123741   5.879   5.694   2.800
 7928TIP3    H223742   5.748   5.736   2.736
 7929TIP3   OH223743   1.901   6.048   4.482
 7929TIP3    H123744   1.928   6.063   4.392
 7929TIP3    H223745   1.953   5.973   4.511
 7930TIP3   OH223746   3.736   1.513   5.075
 7930TIP3    H123747   3.723   1.420   5.090
 7930TIP3    H223748   3.830   1.521   5.057
 7931TIP3   OH223749   3.734   6.503   2.474
 7931TIP3    H123750   3.666   6.544   2.527
 7931TIP3    H223751   3.746   6.562   2.400
 7932TIP3   OH223752   3.922   7.700   5.364
 7932TIP3    H123753   3.918   7.707   5.460
 7932TIP3    H223754   3.857   7.764   5.334
 7933TIP3   OH223755   5.679   3.009   0.758
 7933TIP3    H123756   5.712   2.919   0.757
 7933TIP3    H223757   5.609   3.009   0.692
 7934TIP3   OH223758   0.908   2.210   1.604
 7934TIP3    H123759   0.943   2.297   1.620
 7934TIP3    H223760   0.950   2.181   1.523
 7935TIP3   OH223761   2.524   1.235   4.893
 7935TIP3    H123762   2.450   1.262   4.839
 7935TIP3    H223763   2.515   1.139   4.898
 7936TIP3   OH223764   6.240   1.961   3.963
 7936TIP3    H123765   6.295   1.942   3.887
 7936TIP3    H223766   6.239   1.880   4.013
 7937TIP3   OH223767   4.461   3.381   1.844
 7937TIP3    H123768   4.441   3.288   1.846
 7937TIP3    H223769   4.549   3.387   1.881
 7938TIP3   OH223770   6.112   6.288   5.828
 7938TIP3    H123771   6.170   6.244   5.889
 7938TIP3    H223772   6.171   6.333   5.767
 7939TIP3   OH223773   1.187   3.271   0.982
 7939TIP3    H123774   1.111   3.214   0.971
 7939TIP3    H223775   1.216   3.255   1.072
 7940TIP3   OH223776   3.173   4.367   2.414
 7940TIP3    H123777   3.147   4.442   2.467
 7940TIP3    H223778   3.103   4.358   2.349
 7941TIP3   OH223779   3.149   0.806   0.323
 7941TIP3    H123780   3.163   0.763   0.238
 7941TIP3    H223781   3.205   0.758   0.384
 7942TIP3   OH223782   5.162   3.832   4.802
 7942TIP3    H123783   5.243   3.883   4.799
 7942TIP3    H223784   5.094   3.897   4.821
 7943TIP3   OH223785   1.430   5.541   1.578
 7943TIP3    H123786   1.497   5.549   1.510
 7943TIP3    H223787   1.377   5.620   1.568
 7944TIP3   OH223788   5.075   4.189   6.380
 7944TIP3    H123789   4.995   4.146   6.350
 7944TIP3    H223790   5.121   4.213   6.300
 7945TIP3   OH223791   0.936   2.591   0.891
 7945TIP3    H123792   0.959   2.625   0.978
 7945TIP3    H223793   0.874   2.520   0.908
 7946TIP3   OH223794   3.718   2.842   3.190
 7946TIP3    H123795   3.734   2.748   3.200
 7946TIP3    H223796   3.687   2.851   3.100
 7947TIP3   OH223797   5.922   1.207   4.155
 7947TIP3    H123798   5.933   1.117   4.184
 7947TIP3    H223799   5.859   1.201   4.083
 7948TIP3   OH223800   8.202   2.845   3.061
 7948TIP3    H123801   8.108   2.853   3.045
 7948TIP3    H223802   8.229   2.768   3.012
 7949TIP3   OH223803   6.949   1.778   4.351
 7949TIP3    H123804   6.893   1.771   4.274
 7949TIP3    H223805   6.889   1.803   4.422
 7950TIP3   OH223806   5.554   2.956   2.836
 7950TIP3    H123807   5.578   2.864   2.845
 7950TIP3    H223808   5.463   2.955   2.804
 7951TIP3   OH223809   2.527   2.878   1.498
 7951TIP3    H123810   2.518   2.782   1.503
 7951TIP3    H223811   2.442   2.911   1.527
 7952TIP3   OH223812   0.341   6.986   4.894
 7952TIP3    H123813   0.388   6.905   4.913
 7952TIP3    H223814   0.383   7.051   4.950
 7953TIP3   OH223815   2.330   3.503   4.448
 7953TIP3    H123816   2.379   3.569   4.400
 7953TIP3    H223817   2.238   3.529   4.438
 7954TIP3   OH223818   1.371   0.897   0.084
 7954TIP3    H123819   1.451   0.911   0.033
 7954TIP3    H223820   1.347   0.806   0.067
 7955TIP3   OH223821   5.552   1.147   3.571
 7955TIP3    H123822   5.500   1.227   3.571
 7955TIP3    H223823   5.562   1.125   3.478
 7956TIP3   OH223824   7.088   0.407   0.722
 7956TIP3    H123825   7.159   0.365   0.770
 7956TIP3    H223826   7.035   0.449   0.789
 7957TIP3   OH223827   6.241   3.928   1.927
 7957TIP3    H123828   6.238   4.017   1.961
 7957TIP3    H223829   6.150   3.909   1.901
 7958TIP3   OH223830   2.994   4.329   2.142
 7958TIP3    H123831   3.001   4.309   2.049
 7958TIP3    H223832   2.947   4.254   2.179
 7959TIP3   OH223833   7.735   0.495   3.046
 7959TIP3    H123834   7.765   0.542   3.124
 7959TIP3    H223835   7.786   0.532   2.975
 7960TIP3   OH223836   0.250   5.045   0.241
 7960TIP3    H123837   0.180   4.986   0.210
 7960TIP3    H223838   0.320   4.987   0.269
 7961TIP3   OH223839   0.025   6.876   2.509
 7961TIP3    H123840   0.014   6.936   2.435
 7961TIP3    H223841   0.096   6.913   2.561
 7962TIP3   OH223842   1.701   0.081   1.153
 7962TIP3    H123843   1.688   0.176   1.146
 7962TIP3    H223844   1.796   0.070   1.153
 7963TIP3   OH223845   1.765   5.754   0.743
 7963TIP3    H123846   1.745   5.782   0.654
 7963TIP3    H223847   1.681   5.722   0.778
 7964TIP3   OH223848   4.657   3.346   4.352
 7964TIP3    H123849   4.649   3.411   4.282
 7964TIP3    H223850   4.567   3.318   4.370
 7965TIP3   OH223851   7.610   0.226   1.346
 7965TIP3    H123852   7.556   0.147   1.340
 7965TIP3    H223853   7.641   0.227   1.436
 7966TIP3   OH223854   3.022   6.772   2.993
 7966TIP3    H123855   2.991   6.829   3.063
 7966TIP3    H223856   3.040   6.831   2.920
 7967TIP3   OH223857   6.417   5.185   5.283
 7967TIP3    H123858   6.464   5.179   5.366
 7967TIP3    H223859   6.446   5.109   5.234
 7968TIP3   OH223860   0.941   5.197   2.315
 7968TIP3    H123861   0.942   5.266   2.381
 7968TIP3    H223862   0.949   5.116   2.365
 7969TIP3   OH223863   2.925   5.730   0.311
 7969TIP3    H123864   2.964   5.767   0.231
 7969TIP3    H223865   2.831   5.726   0.292
 7970TIP3   OH223866   3.228   1.278   5.864
 7970TIP3    H123867   3.241   1.342   5.794
 7970TIP3    H223868   3.269   1.318   5.941
 7971TIP3   OH223869   6.119   4.395   2.274
 7971TIP3    H123870   6.212   4.420   2.273
 7971TIP3    H223871   6.074   4.473   2.243
 7972TIP3   OH223872   2.643   5.013   6.629
 7972TIP3    H123873   2.583   5.025   6.703
 7972TIP3    H223874   2.729   5.036   6.664
 7973TIP3   OH223875   1.653   4.239   3.228
 7973TIP3    H123876   1.654   4.333   3.212
 7973TIP3    H223877   1.573   4.208   3.185
 7974TIP3   OH223878   0.785   1.019   4.023
 7974TIP3    H123879   0.722   0.995   3.955
 7974TIP3    H223880   0.842   0.942   4.030
 7975TIP3   OH223881   0.548   3.974   0.367
 7975TIP3    H123882   0.559   3.927   0.450
 7975TIP3    H223883   0.514   3.907   0.306
 7976TIP3   OH223884   1.431   6.370   3.087
 7976TIP3    H123885   1.462   6.453   3.051
 7976TIP3    H223886   1.508   6.331   3.128
 7977TIP3   OH223887   7.180   7.558   3.595
 7977TIP3    H123888   7.196   7.466   3.574
 7977TIP3    H223889   7.253   7.605   3.554
 7978TIP3   OH223890   4.371   5.071   0.091
 7978TIP3    H123891   4.391   5.142   0.030
 7978TIP3    H223892   4.406   5.100   0.175
 7979TIP3   OH223893   7.400   2.422   3.697
 7979TIP3    H123894   7.377   2.414   3.605
 7979TIP3    H223895   7.324   2.463   3.738
 7980TIP3   OH223896   7.753   2.520   1.181
 7980TIP3    H123897   7.757   2.452   1.248
 7980TIP3    H223898   7.686   2.490   1.120
 7981TIP3   OH223899   7.984   6.757   3.952
 7981TIP3    H123900   7.961   6.770   3.860
 7981TIP3    H223901   8.048   6.686   3.952
 7982TIP3   OH223902   4.075   6.236   1.333
 7982TIP3    H123903   4.097   6.160   1.279
 7982TIP3    H223904   4.112   6.216   1.419
 7983TIP3   OH223905   0.235   6.771   1.998
 7983TIP3    H123906   0.219   6.696   1.942
 7983TIP3    H223907   0.320   6.753   2.039
 7984TIP3   OH223908   5.358   2.189   1.659
 7984TIP3    H123909   5.422   2.235   1.713
 7984TIP3    H223910   5.315   2.128   1.719
 7985TIP3   OH223911   1.183   4.988   1.842
 7985TIP3    H123912   1.163   4.948   1.757
 7985TIP3    H223913   1.111   4.962   1.899
 7986TIP3   OH223914   0.546   1.369   5.990
 7986TIP3    H123915   0.577   1.458   5.975
 7986TIP3    H223916   0.587   1.317   5.921
 7987TIP3   OH223917   2.065   5.240   3.054
 7987TIP3    H123918   2.094   5.157   3.016
 7987TIP3    H223919   2.104   5.241   3.142
 7988TIP3   OH223920   5.651   2.058   1.454
 7988TIP3    H123921   5.651   2.032   1.546
 7988TIP3    H223922   5.621   1.980   1.407
 7989TIP3   OH223923   0.135   6.899   2.211
 7989TIP3    H123924   0.207   6.960   2.229
 7989TIP3    H223925   0.155   6.864   2.124
 7990TIP3   OH223926   6.483   0.573   5.202
 7990TIP3    H123927   6.575   0.583   5.229
 7990TIP3    H223928   6.488   0.555   5.109
 7991TIP3   OH223929   0.827   1.180   4.807
 7991TIP3    H123930   0.921   1.185   4.788
 7991TIP3    H223931   0.785   1.179   4.721
 7992TIP3   OH223932   7.094   6.590   5.040
 7992TIP3    H123933   7.025   6.652   5.065
 7992TIP3    H223934   7.047   6.513   5.008
 7993TIP3   OH223935   2.029   6.954   5.177
 7993TIP3    H123936   2.003   6.990   5.092
 7993TIP3    H223937   1.981   6.871   5.184
 7994TIP3   OH223938   8.238   6.711   1.167
 7994TIP3    H123939   8.225   6.636   1.225
 7994TIP3    H223940   8.329   6.703   1.139
 7995TIP3   OH223941   5.689   5.205   1.757
 7995TIP3    H123942   5.670   5.140   1.689
 7995TIP3    H223943   5.755   5.262   1.717
 7996TIP3   OH223944   1.116   4.124   4.857
 7996TIP3    H123945   1.109   4.100   4.949
 7996TIP3    H223946   1.189   4.187   4.854
 7997TIP3   OH223947   4.254   2.662   2.046
 7997TIP3    H123948   4.191   2.647   1.975
 7997TIP3    H223949   4.339   2.648   2.006
 7998TIP3   OH223950   2.306   1.133   5.720
 7998TIP3    H123951   2.373   1.195   5.747
 7998TIP3    H223952   2.310   1.134   5.624
 7999TIP3   OH223953   7.518   0.879   3.021
 7999TIP3    H123954   7.549   0.970   3.020
 7999TIP3    H223955   7.559   0.839   2.945
 8000TIP3   OH223956   7.798   3.217   6.006
 8000TIP3    H123957   7.867   3.181   6.061
 8000TIP3    H223958   7.837   3.293   5.965
 8001TIP3   OH223959   7.691   5.785   3.145
 8001TIP3    H123960   7.597   5.799   3.134
 8001TIP3    H223961   7.709   5.812   3.235
 8002TIP3   OH223962   4.643   3.836   5.185
 8002TIP3    H123963   4.710   3.817   5.250
 8002TIP3    H223964   4.581   3.763   5.190
 8003TIP3   OH223965   4.596   1.494   0.204
 8003TIP3    H123966   4.668   1.457   0.254
 8003TIP3    H223967   4.518   1.452   0.239
 8004TIP3   OH223968   1.749   0.375   3.981
 8004TIP3    H123969   1.773   0.464   3.954
 8004TIP3    H223970   1.776   0.320   3.907
 8005TIP3   OH223971   6.990   6.157   5.608
 8005TIP3    H123972   7.003   6.232   5.549
 8005TIP3    H223973   7.005   6.193   5.695
 8006TIP3   OH223974   2.303   6.951   6.408
 8006TIP3    H123975   2.377   6.916   6.458
 8006TIP3    H223976   2.239   6.977   6.474
 8007TIP3   OH223977   0.172   5.430   3.195
 8007TIP3    H123978   0.218   5.387   3.267
 8007TIP3    H223979   0.111   5.364   3.162
 8008TIP3   OH223980   8.033   6.925   0.858
 8008TIP3    H123981   8.052   6.848   0.913
 8008TIP3    H223982   8.118   6.966   0.844
 8009TIP3   OH223983   3.367   7.529   6.388
 8009TIP3    H123984   3.462   7.525   6.385
 8009TIP3    H223985   3.342   7.580   6.311
 8010TIP3   OH223986   4.779   4.735   5.645
 8010TIP3    H123987   4.813   4.786   5.719
 8010TIP3    H223988   4.710   4.790   5.608
 8011TIP3   OH223989   8.032   1.907   3.394
 8011TIP3    H123990   8.082   1.831   3.365
 8011TIP3    H223991   8.097   1.969   3.424
 8012TIP3   OH223992   7.763   5.597   1.592
 8012TIP3    H123993   7.788   5.593   1.685
 8012TIP3    H223994   7.763   5.691   1.572
 8013TIP3   OH223995   7.026   2.239   5.143
 8013TIP3    H123996   7.042   2.213   5.053
 8013TIP3    H223997   7.046   2.333   5.145
 8014TIP3   OH223998   3.055   2.440   1.537
 8014TIP3    H123999   3.123   2.385   1.499
 8014TIP3    H224000   2.999   2.380   1.586
 8015TIP3   OH224001   6.199   7.424   2.872
 8015TIP3    H124002   6.215   7.331   2.854
 8015TIP3    H224003   6.227   7.469   2.792
 8016TIP3   OH224004   6.542   3.963   2.471
 8016TIP3    H124005   6.537   3.977   2.377
 8016TIP3    H224006   6.553   3.868   2.480
 8017TIP3   OH224007   0.269   1.737   4.325
 8017TIP3    H124008   0.230   1.673   4.265
 8017TIP3    H224009   0.257   1.821   4.281
 8018TIP3   OH224010   4.846   6.052   0.922
 8018TIP3    H124011   4.789   6.008   0.858
 8018TIP3    H224012   4.935   6.038   0.888
 8019TIP3   OH224013   4.968   6.970   0.311
 8019TIP3    H124014   4.976   7.026   0.233
 8019TIP3    H224015   4.890   7.003   0.356
 8020TIP3   OH224016   4.063   2.036   1.960
 8020TIP3    H124017   4.058   2.112   1.901
 8020TIP3    H224018   4.069   2.074   2.048
 8021TIP3   OH224019   5.797   3.407   2.619
 8021TIP3    H124020   5.809   3.372   2.530
 8021TIP3    H224021   5.728   3.473   2.609
 8022TIP3   OH224022   4.659   4.227   2.358
 8022TIP3    H124023   4.598   4.188   2.296
 8022TIP3    H224024   4.724   4.272   2.302
 8023TIP3   OH224025   5.820   0.576   4.792
 8023TIP3    H124026   5.859   0.537   4.870
 8023TIP3    H224027   5.746   0.628   4.825
 8024TIP3   OH224028   6.569   0.883   6.008
 8024TIP3    H124029   6.562   0.809   5.947
 8024TIP3    H224030   6.660   0.881   6.038
 8025TIP3   OH224031   0.513   7.567   1.057
 8025TIP3    H124032   0.597   7.531   1.029
 8025TIP3    H224033   0.487   7.512   1.131
 8026TIP3   OH224034   2.898   5.874   3.933
 8026TIP3    H124035   2.884   5.780   3.932
 8026TIP3    H224036   2.813   5.912   3.910
 8027TIP3   OH224037   7.886   0.630   0.153
 8027TIP3    H124038   7.791   0.617   0.148
 8027TIP3    H224039   7.919   0.591   0.072
 8028TIP3   OH224040   6.259   6.337   3.142
 8028TIP3    H124041   6.248   6.315   3.234
 8028TIP3    H224042   6.170   6.357   3.111
 8029TIP3   OH224043   7.496   3.447   0.924
 8029TIP3    H124044   7.461   3.462   0.836
 8029TIP3    H224045   7.428   3.480   0.982
 8030TIP3   OH224046   5.424   7.701   1.690
 8030TIP3    H124047   5.361   7.630   1.688
 8030TIP3    H224048   5.374   7.779   1.667
 8031TIP3   OH224049   4.888   2.738   0.408
 8031TIP3    H124050   4.800   2.702   0.421
 8031TIP3    H224051   4.940   2.662   0.381
 8032TIP3   OH224052   8.217   1.155   6.733
 8032TIP3    H124053   8.192   1.162   6.825
 8032TIP3    H224054   8.259   1.239   6.713
 8033TIP3   OH224055   0.066   1.292   4.601
 8033TIP3    H124056   0.066   1.247   4.517
 8033TIP3    H224057   0.144   1.347   4.599
 8034TIP3   OH224058   4.517   0.715   2.908
 8034TIP3    H124059   4.571   0.656   2.855
 8034TIP3    H224060   4.576   0.784   2.936
 8035TIP3   OH224061   2.607   4.364   0.938
 8035TIP3    H124062   2.632   4.378   0.847
 8035TIP3    H224063   2.515   4.337   0.934
 8036TIP3   OH224064   7.593   3.128   2.339
 8036TIP3    H124065   7.628   3.202   2.289
 8036TIP3    H224066   7.498   3.136   2.331
 8037TIP3   OH224067   7.466   3.202   6.521
 8037TIP3    H124068   7.492   3.286   6.558
 8037TIP3    H224069   7.548   3.153   6.513
 8038TIP3   OH224070   3.180   1.795   1.053
 8038TIP3    H124071   3.242   1.749   0.996
 8038TIP3    H224072   3.097   1.791   1.006
 8039TIP3   OH224073   3.009   3.451   3.202
 8039TIP3    H124074   2.996   3.356   3.206
 8039TIP3    H224075   2.992   3.482   3.291
 8040TIP3   OH224076   4.373   5.268   3.523
 8040TIP3    H124077   4.325   5.291   3.603
 8040TIP3    H224078   4.465   5.277   3.547
 8041TIP3   OH224079   6.507   4.886   2.846
 8041TIP3    H124080   6.481   4.913   2.934
 8041TIP3    H224081   6.453   4.938   2.787
 8042TIP3   OH224082   1.108   7.596   1.264
 8042TIP3    H124083   1.200   7.620   1.254
 8042TIP3    H224084   1.109   7.521   1.323
 8043TIP3   OH224085   0.299   1.474   0.307
 8043TIP3    H124086   0.242   1.488   0.383
 8043TIP3    H224087   0.331   1.384   0.317
 8044TIP3   OH224088   2.953   4.767   1.670
 8044TIP3    H124089   2.938   4.690   1.616
 8044TIP3    H224090   2.989   4.733   1.752
 8045TIP3   OH224091   7.780   6.356   1.604
 8045TIP3    H124092   7.693   6.352   1.643
 8045TIP3    H224093   7.805   6.449   1.612
 8046TIP3   OH224094   5.900   7.002   4.996
 8046TIP3    H124095   5.962   6.939   5.033
 8046TIP3    H224096   5.906   7.078   5.052
 8047TIP3   OH224097   4.189   4.676   5.073
 8047TIP3    H124098   4.224   4.620   5.142
 8047TIP3    H224099   4.209   4.765   5.102
 8048TIP3   OH224100   2.787   5.879   5.415
 8048TIP3    H124101   2.853   5.914   5.475
 8048TIP3    H224102   2.753   5.956   5.369
 8049TIP3   OH224103   5.518   2.888   0.126
 8049TIP3    H124104   5.509   2.794   0.143
 8049TIP3    H224105   5.610   2.907   0.144
 8050TIP3   OH224106   1.076   6.337   4.228
 8050TIP3    H124107   1.120   6.369   4.149
 8050TIP3    H224108   1.048   6.248   4.206
 8051TIP3   OH224109   6.451   7.348   4.290
 8051TIP3    H124110   6.357   7.352   4.277
 8051TIP3    H224111   6.469   7.256   4.308
 8052TIP3   OH224112   5.870   3.500   6.481
 8052TIP3    H124113   5.854   3.528   6.572
 8052TIP3    H224114   5.938   3.559   6.450
 8053TIP3   OH224115   7.676   6.248   5.329
 8053TIP3    H124116   7.722   6.282   5.406
 8053TIP3    H224117   7.721   6.166   5.309
 8054TIP3   OH224118   1.442   6.052   6.346
 8054TIP3    H124119   1.479   5.990   6.409
 8054TIP3    H224120   1.449   6.008   6.262
 8055TIP3   OH224121   4.548   2.092   5.113
 8055TIP3    H124122   4.563   2.011   5.064
 8055TIP3    H224123   4.625   2.100   5.169
 8056TIP3   OH224124   6.682   0.651   4.287
 8056TIP3    H124125   6.694   0.704   4.366
 8056TIP3    H224126   6.770   0.622   4.263
 8057TIP3   OH224127   3.635   7.093   6.178
 8057TIP3    H124128   3.688   7.170   6.198
 8057TIP3    H224129   3.559   7.101   6.235
 8058TIP3   OH224130   2.742   0.206   1.881
 8058TIP3    H124131   2.655   0.168   1.894
 8058TIP3    H224132   2.736   0.293   1.921
 8059TIP3   OH224133   1.399   3.198   0.330
 8059TIP3    H124134   1.436   3.142   0.397
 8059TIP3    H224135   1.363   3.138   0.264
 8060TIP3   OH224136   5.088   4.462   1.467
 8060TIP3    H124137   4.997   4.479   1.492
 8060TIP3    H224138   5.138   4.468   1.548
 8061TIP3   OH224139   1.940   4.245   1.235
 8061TIP3    H124140   1.854   4.207   1.254
 8061TIP3    H224141   1.991   4.232   1.315
 8062TIP3   OH224142   2.818   0.758   6.603
 8062TIP3    H124143   2.786   0.848   6.606
 8062TIP3    H224144   2.823   0.737   6.510
 8063TIP3   OH224145   5.205   6.438   0.669
 8063TIP3    H124146   5.299   6.437   0.690
 8063TIP3    H224147   5.199   6.493   0.591
 8064TIP3   OH224148   0.227   2.714   6.466
 8064TIP3    H124149   0.219   2.622   6.492
 8064TIP3    H224150   0.168   2.761   6.525
 8065TIP3   OH224151   3.906   1.641   6.440
 8065TIP3    H124152   3.921   1.563   6.388
 8065TIP3    H224153   3.877   1.707   6.377
 8066TIP3   OH224154   1.535   4.756   4.898
 8066TIP3    H124155   1.618   4.801   4.910
 8066TIP3    H224156   1.556   4.663   4.908
 8067TIP3   OH224157   5.200   2.794   1.497
 8067TIP3    H124158   5.207   2.889   1.507
 8067TIP3    H224159   5.196   2.780   1.403
 8068TIP3   OH224160   7.163   0.257   6.703
 8068TIP3    H124161   7.082   0.297   6.669
 8068TIP3    H224162   7.165   0.170   6.665
 8069TIP3   OH224163   2.354   1.556   4.498
 8069TIP3    H124164   2.394   1.530   4.415
 8069TIP3    H224165   2.265   1.584   4.474
 8070TIP3   OH224166   5.866   0.310   3.441
 8070TIP3    H124167   5.842   0.349   3.526
 8070TIP3    H224168   5.880   0.385   3.384
 8071TIP3   OH224169   3.330   1.296   0.791
 8071TIP3    H124170   3.298   1.280   0.880
 8071TIP3    H224171   3.262   1.350   0.750
 8072TIP3   OH224172   8.065   1.769   2.622
 8072TIP3    H124173   8.037   1.817   2.544
 8072TIP3    H224174   8.006   1.800   2.691
 8073TIP3   OH224175   7.839   3.034   0.175
 8073TIP3    H124176   7.874   3.102   0.117
 8073TIP3    H224177   7.745   3.052   0.179
 8074TIP3   OH224178   4.982   4.387   0.632
 8074TIP3    H124179   4.926   4.321   0.589
 8074TIP3    H224180   5.064   4.384   0.583
 8075TIP3   OH224181   0.181   4.280   1.770
 8075TIP3    H124182   0.100   4.327   1.788
 8075TIP3    H224183   0.173   4.198   1.819
 8076TIP3   OH224184   4.139   7.223   0.612
 8076TIP3    H124185   4.097   7.136   0.611
 8076TIP3    H224186   4.176   7.230   0.700
 8077TIP3   OH224187   6.039   6.350   3.822
 8077TIP3    H124188   6.102   6.301   3.874
 8077TIP3    H224189   6.089   6.420   3.781
 8078TIP3   OH224190   3.364   5.406   2.243
 8078TIP3    H124191   3.372   5.397   2.338
 8078TIP3    H224192   3.454   5.409   2.212
 8079TIP3   OH224193   5.048   6.189   1.485
 8079TIP3    H124194   5.012   6.268   1.446
 8079TIP3    H224195   5.110   6.156   1.420
 8080TIP3   OH224196   0.618   6.352   1.484
 8080TIP3    H124197   0.548   6.416   1.487
 8080TIP3    H224198   0.580   6.273   1.523
 8081TIP3   OH224199   4.745   3.400   1.912
 8081TIP3    H124200   4.827   3.367   1.950
 8081TIP3    H224201   4.733   3.347   1.833
 8082TIP3   OH224202   1.373   2.194   1.414
 8082TIP3    H124203   1.408   2.183   1.326
 8082TIP3    H224204   1.431   2.259   1.455
 8083TIP3   OH224205   3.117   1.933   6.111
 8083TIP3    H124206   3.091   1.926   6.020
 8083TIP3    H224207   3.135   2.026   6.124
 8084TIP3   OH224208   7.435   2.418   5.714
 8084TIP3    H124209   7.509   2.440   5.658
 8084TIP3    H224210   7.358   2.443   5.662
 8085TIP3   OH224211   6.368   7.105   2.964
 8085TIP3    H124212   6.316   7.124   2.886
 8085TIP3    H224213   6.308   7.121   3.037
 8086TIP3   OH224214   0.517   3.835   6.371
 8086TIP3    H124215   0.586   3.887   6.411
 8086TIP3    H224216   0.541   3.744   6.389
 8087TIP3   OH224217   1.092   1.145   3.076
 8087TIP3    H124218   1.134   1.202   3.140
 8087TIP3    H224219   1.118   1.180   2.991
 8088TIP3   OH224220   4.962   7.598   1.748
 8088TIP3    H124221   4.883   7.635   1.710
 8088TIP3    H224222   4.940   7.583   1.840
 8089TIP3   OH224223   0.582   6.535   5.067
 8089TIP3    H124224   0.500   6.509   5.108
 8089TIP3    H224225   0.638   6.458   5.075
 8090TIP3   OH224226   7.555   0.122   2.182
 8090TIP3    H124227   7.569   0.216   2.167
 8090TIP3    H224228   7.525   0.116   2.272
 8091TIP3   OH224229   1.805   7.143   0.179
 8091TIP3    H124230   1.889   7.113   0.146
 8091TIP3    H224231   1.817   7.236   0.196
 8092TIP3   OH224232   6.851   7.426   1.171
 8092TIP3    H124233   6.889   7.453   1.088
 8092TIP3    H224234   6.757   7.423   1.154
 8093TIP3   OH224235   5.512   7.006   6.778
 8093TIP3    H124236   5.538   6.922   6.815
 8093TIP3    H224237   5.555   7.010   6.693
 8094TIP3   OH224238   8.198   2.598   6.521
 8094TIP3    H124239   8.249   2.567   6.596
 8094TIP3    H224240   8.182   2.691   6.539
 8095TIP3   OH224241   2.558   3.089   1.922
 8095TIP3    H124242   2.598   3.008   1.955
 8095TIP3    H224243   2.595   3.100   1.834
 8096TIP3   OH224244   0.819   4.043   0.803
 8096TIP3    H124245   0.825   4.119   0.745
 8096TIP3    H224246   0.833   3.968   0.745
 8097TIP3   OH224247   4.681   5.443   2.106
 8097TIP3    H124248   4.771   5.456   2.134
 8097TIP3    H224249   4.678   5.352   2.076
 8098TIP3   OH224250   1.246   5.937   6.665
 8098TIP3    H124251   1.206   5.850   6.675
 8098TIP3    H224252   1.279   5.958   6.752
 8099TIP3   OH224253   7.425   1.048   2.319
 8099TIP3    H124254   7.381   1.130   2.339
 8099TIP3    H224255   7.374   0.981   2.365
 8100TIP3   OH224256   7.223   1.482   0.778
 8100TIP3    H124257   7.217   1.575   0.759
 8100TIP3    H224258   7.232   1.477   0.874
 8101TIP3   OH224259   6.415   3.262   0.318
 8101TIP3    H124260   6.360   3.239   0.393
 8101TIP3    H224261   6.504   3.254   0.350
 8102TIP3   OH224262   1.858   6.026   1.421
 8102TIP3    H124263   1.875   5.957   1.356
 8102TIP3    H224264   1.810   5.981   1.490
 8103TIP3   OH224265   4.392   6.263   4.479
 8103TIP3    H124266   4.374   6.175   4.445
 8103TIP3    H224267   4.354   6.263   4.567
 8104TIP3   OH224268   6.410   6.692   0.804
 8104TIP3    H124269   6.349   6.696   0.877
 8104TIP3    H224270   6.357   6.661   0.730
 8105TIP3   OH224271   6.476   1.797   1.727
 8105TIP3    H124272   6.434   1.869   1.774
 8105TIP3    H224273   6.404   1.741   1.700
 8106TIP3   OH224274   0.892   2.193   4.966
 8106TIP3    H124275   0.939   2.267   5.005
 8106TIP3    H224276   0.962   2.131   4.942
 8107TIP3   OH224277   3.071   1.184   3.657
 8107TIP3    H124278   3.058   1.107   3.712
 8107TIP3    H224279   3.102   1.252   3.718
 8108TIP3   OH224280   0.574   4.533   1.492
 8108TIP3    H124281   0.531   4.496   1.414
 8108TIP3    H224282   0.597   4.457   1.545
 8109TIP3   OH224283   4.671   7.774   1.267
 8109TIP3    H124284   4.622   7.847   1.305
 8109TIP3    H224285   4.659   7.702   1.329
 8110TIP3   OH224286   7.775   2.388   2.211
 8110TIP3    H124287   7.794   2.458   2.148
 8110TIP3    H224288   7.687   2.410   2.244
 8111TIP3   OH224289   4.093   2.080   3.008
 8111TIP3    H124290   3.998   2.082   3.012
 8111TIP3    H224291   4.114   1.997   2.965
 8112TIP3   OH224292   4.007   0.892   5.115
 8112TIP3    H124293   4.082   0.849   5.157
 8112TIP3    H224294   3.970   0.946   5.184
 8113TIP3   OH224295   2.464   1.007   3.387
 8113TIP3    H124296   2.509   0.924   3.370
 8113TIP3    H224297   2.535   1.071   3.396
 8114TIP3   OH224298   3.262   3.373   4.324
 8114TIP3    H124299   3.272   3.447   4.384
 8114TIP3    H224300   3.294   3.405   4.240
 8115TIP3   OH224301   5.190   7.516   6.041
 8115TIP3    H124302   5.257   7.477   6.096
 8115TIP3    H224303   5.146   7.580   6.096
 8116TIP3   OH224304   7.449   4.036   0.660
 8116TIP3    H124305   7.483   4.119   0.625
 8116TIP3    H224306   7.430   4.055   0.752
 8117TIP3   OH224307   8.199   3.078   0.037
 8117TIP3    H124308   8.191   3.012  -0.031
 8117TIP3    H224309   8.139   3.051   0.106
 8118TIP3   OH224310   4.923   7.524   3.714
 8118TIP3    H124311   4.915   7.448   3.771
 8118TIP3    H224312   5.016   7.544   3.713
 8119TIP3   OH224313   0.348   0.729   5.225
 8119TIP3    H124314   0.338   0.764   5.314
 8119TIP3    H224315   0.442   0.709   5.218
 8120TIP3   OH224316   2.338   3.380   3.855
 8120TIP3    H124317   2.360   3.396   3.764
 8120TIP3    H224318   2.422   3.367   3.899
 8121TIP3   OH224319   4.423   4.329   6.160
 8121TIP3    H124320   4.429   4.377   6.242
 8121TIP3    H224321   4.487   4.372   6.102
 8122TIP3   OH224322   2.229   1.565   3.408
 8122TIP3    H124323   2.288   1.625   3.454
 8122TIP3    H224324   2.262   1.478   3.429
 8123TIP3   OH224325   4.289   7.758   6.365
 8123TIP3    H124326   4.330   7.676   6.390
 8123TIP3    H224327   4.295   7.813   6.443
 8124TIP3   OH224328   0.984   5.371   0.397
 8124TIP3    H124329   0.981   5.344   0.489
 8124TIP3    H224330   1.062   5.328   0.362
 8125TIP3   OH224331   1.802   5.441   1.390
 8125TIP3    H124332   1.847   5.525   1.382
 8125TIP3    H224333   1.713   5.459   1.360
 8126TIP3   OH224334   7.277   0.695   0.172
 8126TIP3    H124335   7.272   0.675   0.079
 8126TIP3    H224336   7.218   0.770   0.184
 8127TIP3   OH224337   7.202   3.300   0.958
 8127TIP3    H124338   7.147   3.269   1.030
 8127TIP3    H224339   7.187   3.237   0.888
 8128TIP3   OH224340   3.187   7.203   4.927
 8128TIP3    H124341   3.219   7.290   4.903
 8128TIP3    H224342   3.266   7.154   4.949
 8129TIP3   OH224343   2.414   3.875   6.439
 8129TIP3    H124344   2.406   3.796   6.386
 8129TIP3    H224345   2.431   3.944   6.375
 8130TIP3   OH224346   4.066   2.496   3.858
 8130TIP3    H124347   4.075   2.496   3.763
 8130TIP3    H224348   4.008   2.422   3.877
 8131TIP3   OH224349   2.481   0.529   0.937
 8131TIP3    H124350   2.550   0.510   1.001
 8131TIP3    H224351   2.433   0.447   0.929
 8132TIP3   OH224352   1.774   0.752   0.366
 8132TIP3    H124353   1.686   0.783   0.389
 8132TIP3    H224354   1.779   0.763   0.271
 8133TIP3   OH224355   8.036   4.600   2.890
 8133TIP3    H124356   8.099   4.529   2.880
 8133TIP3    H224357   7.987   4.601   2.808
 8134TIP3   OH224358   5.641   3.780   2.918
 8134TIP3    H124359   5.585   3.767   2.995
 8134TIP3    H224360   5.582   3.806   2.848
 8135TIP3   OH224361   5.860   4.341   4.395
 8135TIP3    H124362   5.933   4.346   4.456
 8135TIP3    H224363   5.877   4.411   4.331
 8136TIP3   OH224364   5.939   7.279   1.191
 8136TIP3    H124365   5.858   7.249   1.232
 8136TIP3    H224366   6.003   7.281   1.262
 8137TIP3   OH224367   3.075   5.586   2.981
 8137TIP3    H124368   3.158   5.634   2.983
 8137TIP3    H224369   3.009   5.654   2.996
 8138TIP3   OH224370   8.233   5.338   0.300
 8138TIP3    H124371   8.241   5.429   0.330
 8138TIP3    H224372   8.139   5.324   0.291
 8139TIP3   OH224373   5.447   3.354   2.440
 8139TIP3    H124374   5.426   3.274   2.487
 8139TIP3    H224375   5.504   3.325   2.368
 8140TIP3   OH224376   0.911   1.591   5.946
 8140TIP3    H124377   0.977   1.651   5.911
 8140TIP3    H224378   0.934   1.580   6.038
 8141TIP3   OH224379   1.958   1.187   5.539
 8141TIP3    H124380   2.008   1.134   5.476
 8141TIP3    H224381   1.879   1.211   5.492
 8142TIP3   OH224382   4.168   3.554   3.879
 8142TIP3    H124383   4.214   3.470   3.874
 8142TIP3    H224384   4.170   3.577   3.972
 8143TIP3   OH224385   7.602   7.593   2.758
 8143TIP3    H124386   7.574   7.684   2.746
 8143TIP3    H224387   7.548   7.544   2.696
 8144TIP3   OH224388   3.826   4.813   4.637
 8144TIP3    H124389   3.835   4.808   4.732
 8144TIP3    H224390   3.837   4.723   4.607
 8145TIP3   OH224391   0.618   4.866   2.412
 8145TIP3    H124392   0.621   4.815   2.493
 8145TIP3    H224393   0.542   4.923   2.423
 8146TIP3   OH224394   5.029   4.313   4.516
 8146TIP3    H124395   5.104   4.354   4.472
 8146TIP3    H224396   5.065   4.281   4.599
 8147TIP3   OH224397   0.246   4.655   1.827
 8147TIP3    H124398   0.258   4.623   1.917
 8147TIP3    H224399   0.151   4.661   1.817
 8148TIP3   OH224400   5.083   4.164   5.763
 8148TIP3    H124401   5.171   4.200   5.754
 8148TIP3    H224402   5.027   4.239   5.782
 8149TIP3   OH224403   2.877   0.998   0.167
 8149TIP3    H124404   2.787   0.965   0.168
 8149TIP3    H224405   2.868   1.092   0.186
 8150TIP3   OH224406   7.006   3.106   4.530
 8150TIP3    H124407   6.951   3.137   4.458
 8150TIP3    H224408   7.086   3.157   4.522
 8151TIP3   OH224409   2.939   6.511   1.938
 8151TIP3    H124410   2.942   6.585   1.877
 8151TIP3    H224411   2.865   6.458   1.908
 8152TIP3   OH224412   5.542   6.238   2.474
 8152TIP3    H124413   5.512   6.261   2.386
 8152TIP3    H224414   5.574   6.320   2.511
 8153TIP3   OH224415   4.672   3.372   1.502
 8153TIP3    H124416   4.580   3.347   1.494
 8153TIP3    H224417   4.717   3.293   1.531
 8154TIP3   OH224418   4.159   3.955   2.909
 8154TIP3    H124419   4.220   3.881   2.921
 8154TIP3    H224420   4.197   4.005   2.837
 8155TIP3   OH224421   3.756   7.107   0.528
 8155TIP3    H124422   3.821   7.079   0.594
 8155TIP3    H224423   3.768   7.045   0.456
 8156TIP3   OH224424   0.620   0.946   1.169
 8156TIP3    H124425   0.575   0.876   1.216
 8156TIP3    H224426   0.699   0.963   1.221
 8157TIP3   OH224427   1.119   1.206   0.759
 8157TIP3    H124428   1.093   1.285   0.713
 8157TIP3    H224429   1.083   1.134   0.706
 8158TIP3   OH224430   4.490   2.293   0.409
 8158TIP3    H124431   4.576   2.261   0.437
 8158TIP3    H224432   4.492   2.289   0.314
 8159TIP3   OH224433   0.406   1.007   4.099
 8159TIP3    H124434   0.460   1.009   4.020
 8159TIP3    H224435   0.447   1.069   4.158
 8160TIP3   OH224436   3.236   4.943   4.301
 8160TIP3    H124437   3.189   5.022   4.274
 8160TIP3    H224438   3.304   4.932   4.234
 8161TIP3   OH224439   7.701   0.160   6.269
 8161TIP3    H124440   7.708   0.233   6.331
 8161TIP3    H224441   7.693   0.082   6.325
 8162TIP3   OH224442   3.605   4.987   6.585
 8162TIP3    H124443   3.691   5.017   6.614
 8162TIP3    H224444   3.585   5.040   6.508
 8163TIP3   OH224445   6.123   5.499   1.576
 8163TIP3    H124446   6.121   5.404   1.565
 8163TIP3    H224447   6.105   5.534   1.489
 8164TIP3   OH224448   1.152   6.667   1.564
 8164TIP3    H124449   1.233   6.671   1.514
 8164TIP3    H224450   1.132   6.574   1.571
 8165TIP3   OH224451   3.971   2.946   6.138
 8165TIP3    H124452   4.037   3.004   6.099
 8165TIP3    H224453   4.019   2.864   6.154
 8166TIP3   OH224454   7.461   5.845   5.103
 8166TIP3    H124455   7.398   5.776   5.083
 8166TIP3    H224456   7.532   5.831   5.041
 8167TIP3   OH224457   6.344   7.194   1.571
 8167TIP3    H124458   6.322   7.147   1.491
 8167TIP3    H224459   6.414   7.141   1.611
 8168TIP3   OH224460   6.630   0.770   4.807
 8168TIP3    H124461   6.566   0.819   4.857
 8168TIP3    H224462   6.581   0.734   4.733
 8169TIP3   OH224463   2.225   5.843   2.131
 8169TIP3    H124464   2.283   5.800   2.068
 8169TIP3    H224465   2.139   5.845   2.087
 8170TIP3   OH224466   4.827   3.598   1.756
 8170TIP3    H124467   4.840   3.667   1.820
 8170TIP3    H224468   4.789   3.526   1.805
 8171TIP3   OH224469   5.404   3.839   3.127
 8171TIP3    H124470   5.320   3.801   3.100
 8171TIP3    H224471   5.421   3.800   3.214
 8172TIP3   OH224472   3.330   1.743   5.738
 8172TIP3    H124473   3.395   1.812   5.749
 8172TIP3    H224474   3.344   1.684   5.812
 8173TIP3   OH224475   4.863   7.314   6.470
 8173TIP3    H124476   4.807   7.236   6.466
 8173TIP3    H224477   4.812   7.377   6.520
 8174TIP3   OH224478   7.035   5.339   0.811
 8174TIP3    H124479   6.989   5.394   0.748
 8174TIP3    H224480   6.988   5.256   0.810
 8175TIP3   OH224481   3.312   1.740   3.869
 8175TIP3    H124482   3.305   1.691   3.787
 8175TIP3    H224483   3.226   1.781   3.879
 8176TIP3   OH224484   7.976   4.556   4.044
 8176TIP3    H124485   7.946   4.467   4.063
 8176TIP3    H224486   8.069   4.556   4.065
 8177TIP3   OH224487   5.207   0.067   5.845
 8177TIP3    H124488   5.223   0.159   5.867
 8177TIP3    H224489   5.171   0.030   5.926
 8178TIP3   OH224490   2.760   1.881   0.219
 8178TIP3    H124491   2.678   1.898   0.173
 8178TIP3    H224492   2.822   1.942   0.180
 8179TIP3   OH224493   5.476   1.987   5.071
 8179TIP3    H124494   5.562   1.964   5.036
 8179TIP3    H224495   5.415   1.926   5.028
 8180TIP3   OH224496   0.647   5.511   5.718
 8180TIP3    H124497   0.720   5.552   5.764
 8180TIP3    H224498   0.687   5.466   5.643
 8181TIP3   OH224499   3.245   0.703   4.798
 8181TIP3    H124500   3.159   0.671   4.773
 8181TIP3    H224501   3.267   0.769   4.732
 8182TIP3   OH224502   0.629   4.717   6.701
 8182TIP3    H124503   0.578   4.798   6.707
 8182TIP3    H224504   0.564   4.651   6.674
 8183TIP3   OH224505   1.569   3.823   4.714
 8183TIP3    H124506   1.620   3.881   4.771
 8183TIP3    H224507   1.607   3.737   4.728
 8184TIP3   OH224508   6.972   0.691   0.595
 8184TIP3    H124509   7.050   0.746   0.599
 8184TIP3    H224510   6.947   0.678   0.687
 8185TIP3   OH224511   5.977   3.482   1.929
 8185TIP3    H124512   5.982   3.436   1.846
 8185TIP3    H224513   5.899   3.538   1.921
 8186TIP3   OH224514   6.701   3.803   0.576
 8186TIP3    H124515   6.777   3.856   0.552
 8186TIP3    H224516   6.643   3.808   0.500
 8187TIP3   OH224517   6.991   4.857   1.294
 8187TIP3    H124518   6.998   4.883   1.203
 8187TIP3    H224519   7.066   4.800   1.309
 8188TIP3   OH224520   1.524   5.492   5.319
 8188TIP3    H124521   1.520   5.587   5.329
 8188TIP3    H224522   1.559   5.478   5.231
 8189TIP3   OH224523   3.116   2.987   5.755
 8189TIP3    H124524   3.097   2.908   5.805
 8189TIP3    H224525   3.095   3.059   5.815
 8190TIP3   OH224526   4.426   0.801   4.040
 8190TIP3    H124527   4.422   0.710   4.068
 8190TIP3    H224528   4.345   0.840   4.073
 8191TIP3   OH224529   6.143   0.592   3.417
 8191TIP3    H124530   6.232   0.565   3.438
 8191TIP3    H224531   6.122   0.546   3.336
 8192TIP3   OH224532   7.500   6.544   2.886
 8192TIP3    H124533   7.454   6.465   2.859
 8192TIP3    H224534   7.553   6.568   2.809
 8193TIP3   OH224535   0.222   6.545   6.287
 8193TIP3    H124536   0.199   6.550   6.194
 8193TIP3    H224537   0.138   6.542   6.333
 8194TIP3   OH224538   5.152   3.306   5.958
 8194TIP3    H124539   5.132   3.332   5.868
 8194TIP3    H224540   5.207   3.377   5.991
 8195TIP3   OH224541   7.070   2.018   5.427
 8195TIP3    H124542   7.059   2.105   5.390
 8195TIP3    H224543   7.121   1.970   5.362
 8196TIP3   OH224544   5.038   3.430   1.209
 8196TIP3    H124545   4.965   3.450   1.151
 8196TIP3    H224546   5.076   3.516   1.231
 8197TIP3   OH224547   6.995   1.164   4.981
 8197TIP3    H124548   7.040   1.088   5.018
 8197TIP3    H224549   7.015   1.235   5.042
 8198TIP3   OH224550   0.790   6.139   3.419
 8198TIP3    H124551   0.697   6.154   3.433
 8198TIP3    H224552   0.812   6.193   3.343
 8199TIP3   OH224553   7.299   3.279   5.947
 8199TIP3    H124554   7.389   3.308   5.931
 8199TIP3    H224555   7.304   3.183   5.946
 8200TIP3   OH224556   6.056   1.022   0.953
 8200TIP3    H124557   6.064   1.058   1.042
 8200TIP3    H224558   6.146   1.007   0.925
 8201TIP3   OH224559   5.454   5.386   0.509
 8201TIP3    H124560   5.403   5.457   0.547
 8201TIP3    H224561   5.493   5.424   0.430
 8202TIP3   OH224562   5.057   7.071   2.082
 8202TIP3    H124563   5.077   7.163   2.096
 8202TIP3    H224564   5.014   7.044   2.163
 8203TIP3   OH224565   1.964   0.886   3.561
 8203TIP3    H124566   1.929   0.837   3.487
 8203TIP3    H224567   1.957   0.978   3.534
 8204TIP3   OH224568   6.329   4.334   4.401
 8204TIP3    H124569   6.304   4.360   4.490
 8204TIP3    H224570   6.259   4.276   4.373
 8205TIP3   OH224571   4.102   3.001   5.397
 8205TIP3    H124572   4.107   3.096   5.385
 8205TIP3    H224573   4.017   2.976   5.361
 8206TIP3   OH224574   5.693   6.496   2.948
 8206TIP3    H124575   5.779   6.514   2.987
 8206TIP3    H224576   5.636   6.565   2.982
 8207TIP3   OH224577   0.602   6.019   4.667
 8207TIP3    H124578   0.566   5.943   4.621
 8207TIP3    H224579   0.579   6.005   4.759
 8208TIP3   OH224580   4.966   4.815   3.794
 8208TIP3    H124581   4.947   4.725   3.818
 8208TIP3    H224582   4.956   4.817   3.699
 8209TIP3   OH224583   1.329   3.759   4.032
 8209TIP3    H124584   1.415   3.729   4.005
 8209TIP3    H224585   1.279   3.679   4.048
 8210TIP3   OH224586   2.896   2.328   6.352
 8210TIP3    H124587   2.808   2.361   6.335
 8210TIP3    H224588   2.954   2.393   6.311
 8211TIP3   OH224589   5.244   4.477   5.975
 8211TIP3    H124590   5.251   4.523   5.891
 8211TIP3    H224591   5.284   4.537   6.038
 8212TIP3   OH224592   2.266   3.939   0.945
 8212TIP3    H124593   2.225   3.974   0.866
 8212TIP3    H224594   2.324   3.870   0.914
 8213TIP3   OH224595   4.957   0.764   6.002
 8213TIP3    H124596   4.963   0.737   5.910
 8213TIP3    H224597   4.892   0.834   6.002
 8214TIP3   OH224598   5.625   5.844   1.765
 8214TIP3    H124599   5.665   5.926   1.736
 8214TIP3    H224600   5.597   5.801   1.685
 8215TIP3   OH224601   1.004   5.929   1.414
 8215TIP3    H124602   0.982   5.850   1.462
 8215TIP3    H224603   1.040   5.898   1.331
 8216TIP3   OH224604   1.783   3.305   6.577
 8216TIP3    H124605   1.798   3.396   6.551
 8216TIP3    H224606   1.869   3.264   6.573
 8217TIP3   OH224607   0.629   4.081   4.941
 8217TIP3    H124608   0.566   4.061   5.009
 8217TIP3    H224609   0.679   4.156   4.974
 8218TIP3   OH224610   7.319   4.571   2.848
 8218TIP3    H124611   7.371   4.574   2.768
 8218TIP3    H224612   7.326   4.481   2.878
 8219TIP3   OH224613   5.009   1.317   1.659
 8219TIP3    H124614   4.944   1.359   1.603
 8219TIP3    H224615   5.009   1.225   1.632
 8220TIP3   OH224616   2.748   5.510   1.663
 8220TIP3    H124617   2.748   5.491   1.757
 8220TIP3    H224618   2.680   5.577   1.652
 8221TIP3   OH224619   3.691   5.059   3.895
 8221TIP3    H124620   3.734   5.087   3.976
 8221TIP3    H224621   3.597   5.063   3.915
 8222TIP3   OH224622   6.340   5.827   5.209
 8222TIP3    H124623   6.299   5.779   5.281
 8222TIP3    H224624   6.402   5.887   5.252
 8223TIP3   OH224625   8.184   7.217   4.833
 8223TIP3    H124626   8.112   7.280   4.840
 8223TIP3    H224627   8.217   7.210   4.923
 8224TIP3   OH224628   0.486   7.394   1.284
 8224TIP3    H124629   0.402   7.369   1.246
 8224TIP3    H224630   0.526   7.311   1.312
 8225TIP3   OH224631   2.030   5.872   3.641
 8225TIP3    H124632   1.987   5.851   3.558
 8225TIP3    H224633   1.959   5.866   3.706
 8226TIP3   OH224634   0.371   0.323   4.456
 8226TIP3    H124635   0.390   0.281   4.540
 8226TIP3    H224636   0.282   0.356   4.465
 8227TIP3   OH224637   7.555   4.600   4.243
 8227TIP3    H124638   7.627   4.657   4.215
 8227TIP3    H224639   7.512   4.648   4.314
 8228TIP3   OH224640   0.493   7.827   4.867
 8228TIP3    H124641   0.490   7.762   4.797
 8228TIP3    H224642   0.580   7.819   4.905
 8229TIP3   OH224643   1.203   0.388   1.262
 8229TIP3    H124644   1.278   0.442   1.288
 8229TIP3    H224645   1.131   0.451   1.250
 8230TIP3   OH224646   7.031   4.020   1.169
 8230TIP3    H124647   7.125   4.035   1.166
 8230TIP3    H224648   7.021   3.938   1.218
 8231TIP3   OH224649   8.278   5.672   2.835
 8231TIP3    H124650   8.184   5.675   2.853
 8231TIP3    H224651   8.299   5.579   2.837
 8232TIP3   OH224652   2.299   7.611   1.658
 8232TIP3    H124653   2.208   7.588   1.639
 8232TIP3    H224654   2.302   7.617   1.754
 8233TIP3   OH224655   4.002   1.604   1.385
 8233TIP3    H124656   4.069   1.592   1.318
 8233TIP3    H224657   3.999   1.699   1.399
 8234TIP3   OH224658   3.119   6.532   0.682
 8234TIP3    H124659   3.091   6.618   0.714
 8234TIP3    H224660   3.038   6.482   0.674
 8235TIP3   OH224661   1.715   5.209   0.322
 8235TIP3    H124662   1.733   5.179   0.411
 8235TIP3    H224663   1.674   5.134   0.279
 8236TIP3   OH224664   8.042   0.986   5.916
 8236TIP3    H124665   7.981   1.018   5.983
 8236TIP3    H224666   7.987   0.957   5.844
 8237TIP3   OH224667   7.495   2.326   1.169
 8237TIP3    H124668   7.532   2.371   1.093
 8237TIP3    H224669   7.470   2.396   1.228
 8238TIP3   OH224670   5.641   7.436   2.087
 8238TIP3    H124671   5.599   7.521   2.077
 8238TIP3    H224672   5.568   7.373   2.092
 8239TIP3   OH224673   2.730   6.256   5.772
 8239TIP3    H124674   2.680   6.327   5.730
 8239TIP3    H224675   2.684   6.176   5.746
 8240TIP3   OH224676   6.029   5.323   1.245
 8240TIP3    H124677   5.985   5.397   1.286
 8240TIP3    H224678   6.012   5.333   1.152
 8241TIP3   OH224679   6.563   4.407   1.448
 8241TIP3    H124680   6.549   4.462   1.524
 8241TIP3    H224681   6.476   4.395   1.410
 8242TIP3   OH224682   0.856   4.239   1.792
 8242TIP3    H124683   0.844   4.274   1.880
 8242TIP3    H224684   0.880   4.147   1.806
 8243TIP3   OH224685   3.762   7.181   2.438
 8243TIP3    H124686   3.818   7.226   2.375
 8243TIP3    H224687   3.812   7.104   2.464
 8244TIP3   OH224688   0.201   6.487   3.294
 8244TIP3    H124689   0.111   6.460   3.274
 8244TIP3    H224690   0.220   6.445   3.378
 8245TIP3   OH224691   0.573   1.163   4.307
 8245TIP3    H124692   0.497   1.213   4.337
 8245TIP3    H224693   0.604   1.117   4.386
 8246TIP3   OH224694   2.951   6.844   6.115
 8246TIP3    H124695   2.870   6.894   6.124
 8246TIP3    H224696   3.011   6.884   6.179
 8247TIP3   OH224697   3.030   3.489   0.708
 8247TIP3    H124698   2.941   3.485   0.673
 8247TIP3    H224699   3.019   3.505   0.802
 8248TIP3   OH224700   5.076   7.159   4.207
 8248TIP3    H124701   5.027   7.085   4.244
 8248TIP3    H224702   5.093   7.133   4.117
 8249TIP3   OH224703   4.380   7.320   6.634
 8249TIP3    H124704   4.374   7.227   6.610
 8249TIP3    H224705   4.341   7.324   6.721
 8250TIP3   OH224706   1.568   0.871   3.412
 8250TIP3    H124707   1.561   0.917   3.496
 8250TIP3    H224708   1.529   0.785   3.428
 8251TIP3   OH224709   5.065   1.476   5.987
 8251TIP3    H124710   5.086   1.502   5.898
 8251TIP3    H224711   5.017   1.551   6.023
 8252TIP3   OH224712   0.646   0.280   6.012
 8252TIP3    H124713   0.646   0.193   5.974
 8252TIP3    H224714   0.716   0.326   5.966
 8253TIP3   OH224715   5.173   6.310   0.054
 8253TIP3    H124716   5.086   6.285   0.023
 8253TIP3    H224717   5.219   6.227   0.065
 8254TIP3   OH224718   8.247   4.255   5.505
 8254TIP3    H124719   8.200   4.272   5.587
 8254TIP3    H224720   8.282   4.167   5.516
 8255TIP3   OH224721   7.706   0.802   2.815
 8255TIP3    H124722   7.726   0.842   2.730
 8255TIP3    H224723   7.737   0.712   2.807
 8256TIP3   OH224724   0.443   4.705   3.890
 8256TIP3    H124725   0.387   4.782   3.890
 8256TIP3    H224726   0.394   4.640   3.942
 8257TIP3   OH224727   4.046   4.028   1.606
 8257TIP3    H124728   3.986   3.976   1.553
 8257TIP3    H224729   4.130   3.984   1.598
 8258TIP3   OH224730   0.991   1.222   3.700
 8258TIP3    H124731   1.078   1.238   3.736
 8258TIP3    H224732   0.932   1.276   3.752
 8259TIP3   OH224733   3.678   3.008   5.018
 8259TIP3    H124734   3.735   2.933   5.001
 8259TIP3    H224735   3.592   2.981   4.986
 8260TIP3   OH224736   4.716   6.305   0.807
 8260TIP3    H124737   4.725   6.223   0.855
 8260TIP3    H224738   4.806   6.333   0.792
 8261TIP3   OH224739   2.391   4.686   3.431
 8261TIP3    H124740   2.461   4.654   3.489
 8261TIP3    H224741   2.393   4.626   3.357
 8262TIP3   OH224742   8.095   2.141   3.000
 8262TIP3    H124743   8.137   2.148   2.915
 8262TIP3    H224744   8.144   2.073   3.046
 8263TIP3   OH224745   6.320   0.973   3.574
 8263TIP3    H124746   6.251   1.039   3.573
 8263TIP3    H224747   6.339   0.960   3.667
 8264TIP3   OH224748   7.692   0.187   4.074
 8264TIP3    H124749   7.760   0.208   4.009
 8264TIP3    H224750   7.693   0.091   4.078
 8265TIP3   OH224751   2.176  -0.015   2.409
 8265TIP3    H124752   2.090   0.014   2.440
 8265TIP3    H224753   2.228   0.066   2.404
 8266TIP3   OH224754   7.256   2.306   5.313
 8266TIP3    H124755   7.280   2.248   5.240
 8266TIP3    H224756   7.176   2.350   5.284
 8267TIP3   OH224757   5.942   1.875   0.801
 8267TIP3    H124758   5.957   1.969   0.808
 8267TIP3    H224759   6.028   1.839   0.777
 8268TIP3   OH224760   3.981   7.160   1.745
 8268TIP3    H124761   3.992   7.226   1.813
 8268TIP3    H224762   3.908   7.192   1.692
 8269TIP3   OH224763   8.108   4.196   5.264
 8269TIP3    H124764   8.102   4.218   5.357
 8269TIP3    H224765   8.018   4.184   5.236
 8270TIP3   OH224766   6.694   5.599   5.065
 8270TIP3    H124767   6.710   5.510   5.035
 8270TIP3    H224768   6.694   5.592   5.161
 8271TIP3   OH224769   0.785   6.976   2.155
 8271TIP3    H124770   0.858   7.028   2.189
 8271TIP3    H224771   0.715   7.040   2.142
 8272TIP3   OH224772   1.869   5.446   6.130
 8272TIP3    H124773   1.858   5.364   6.177
 8272TIP3    H224774   1.947   5.432   6.075
 8273TIP3   OH224775   6.740   7.718   5.148
 8273TIP3    H124776   6.649   7.745   5.159
 8273TIP3    H224777   6.791   7.796   5.171
 8274TIP3   OH224778   7.788   7.328   4.197
 8274TIP3    H124779   7.855   7.264   4.219
 8274TIP3    H224780   7.836   7.403   4.162
 8275TIP3   OH224781   2.147   1.376   5.541
 8275TIP3    H124782   2.068   1.330   5.569
 8275TIP3    H224783   2.173   1.429   5.616
 8276TIP3   OH224784   4.991   2.734   2.154
 8276TIP3    H124785   5.067   2.792   2.149
 8276TIP3    H224786   5.027   2.646   2.138
 8277TIP3   OH224787   3.939   1.581   4.440
 8277TIP3    H124788   4.010   1.520   4.417
 8277TIP3    H224789   3.881   1.580   4.364
 8278TIP3   OH224790   1.378   5.491   2.638
 8278TIP3    H124791   1.290   5.462   2.617
 8278TIP3    H224792   1.414   5.421   2.692
 8279TIP3   OH224793   2.038   7.256   2.588
 8279TIP3    H124794   1.956   7.210   2.568
 8279TIP3    H224795   2.044   7.254   2.683
 8280TIP3   OH224796   2.124   5.231   2.716
 8280TIP3    H124797   2.175   5.172   2.772
 8280TIP3    H224798   2.123   5.314   2.763
 8281TIP3   OH224799   1.933   1.309   3.063
 8281TIP3    H124800   2.025   1.321   3.041
 8281TIP3    H224801   1.919   1.215   3.059
 8282TIP3   OH224802   4.784   4.524   5.318
 8282TIP3    H124803   4.800   4.528   5.224
 8282TIP3    H224804   4.776   4.431   5.338
 8283TIP3   OH224805   0.077   1.020   2.214
 8283TIP3    H124806   0.084   1.110   2.180
 8283TIP3    H224807   0.053   1.032   2.306
 8284TIP3   OH224808   0.301   4.092   0.323
 8284TIP3    H124809   0.303   4.094   0.228
 8284TIP3    H224810   0.391   4.069   0.349
 8285TIP3   OH224811   7.281   2.019   0.440
 8285TIP3    H124812   7.253   1.947   0.382
 8285TIP3    H224813   7.288   2.095   0.382
 8286TIP3   OH224814   0.944   2.034   4.299
 8286TIP3    H124815   0.938   1.977   4.222
 8286TIP3    H224816   0.854   2.065   4.313
 8287TIP3   OH224817   5.448   4.991   3.042
 8287TIP3    H124818   5.535   4.954   3.055
 8287TIP3    H224819   5.423   5.026   3.127
 8288TIP3   OH224820   7.266   6.665   4.645
 8288TIP3    H124821   7.305   6.578   4.656
 8288TIP3    H224822   7.172   6.650   4.650
 8289TIP3   OH224823   0.468   1.732   2.186
 8289TIP3    H124824   0.471   1.655   2.243
 8289TIP3    H224825   0.385   1.775   2.206
 8290TIP3   OH224826   2.939   4.227   3.961
 8290TIP3    H124827   2.940   4.208   3.867
 8290TIP3    H224828   3.004   4.296   3.972
 8291TIP3   OH224829   4.300   5.912   6.585
 8291TIP3    H124830   4.355   5.846   6.626
 8291TIP3    H224831   4.359   5.985   6.566
 8292TIP3   OH224832   0.346   3.773   1.973
 8292TIP3    H124833   0.288   3.815   2.037
 8292TIP3    H224834   0.415   3.838   1.957
 8293TIP3   OH224835   0.459   6.860   5.177
 8293TIP3    H124836   0.465   6.808   5.096
 8293TIP3    H224837   0.485   6.948   5.151
 8294TIP3   OH224838   7.296   7.145   5.762
 8294TIP3    H124839   7.243   7.181   5.691
 8294TIP3    H224840   7.276   7.200   5.838
 8295TIP3   OH224841   0.737   3.052   1.188
 8295TIP3    H124842   0.663   3.111   1.174
 8295TIP3    H224843   0.735   3.033   1.282
 8296TIP3   OH224844   7.885   7.583   2.885
 8296TIP3    H124845   7.895   7.596   2.790
 8296TIP3    H224846   7.801   7.539   2.894
 8297TIP3   OH224847   6.501   5.243   3.033
 8297TIP3    H124848   6.479   5.157   3.068
 8297TIP3    H224849   6.594   5.255   3.055
 8298TIP3   OH224850   4.398   1.240   6.061
 8298TIP3    H124851   4.313   1.201   6.037
 8298TIP3    H224852   4.442   1.254   5.978
 8299TIP3   OH224853   6.453   3.777   0.870
 8299TIP3    H124854   6.548   3.777   0.881
 8299TIP3    H224855   6.418   3.785   0.958
 8300TIP3   OH224856   5.921   7.421   5.595
 8300TIP3    H124857   5.859   7.363   5.550
 8300TIP3    H224858   5.909   7.506   5.553
 8301TIP3   OH224859   6.206   3.657   6.676
 8301TIP3    H124860   6.177   3.748   6.679
 8301TIP3    H224861   6.226   3.641   6.583
 8302TIP3   OH224862   4.460   4.945   4.008
 8302TIP3    H124863   4.377   4.924   3.964
 8302TIP3    H224864   4.525   4.892   3.962
 8303TIP3   OH224865   5.734   0.002   3.417
 8303TIP3    H124866   5.775   0.088   3.419
 8303TIP3    H224867   5.805  -0.058   3.394
 8304TIP3   OH224868   4.650   6.800   0.377
 8304TIP3    H124869   4.669   6.787   0.285
 8304TIP3    H224870   4.619   6.715   0.408
 8305TIP3   OH224871   7.153   3.798   0.013
 8305TIP3    H124872   7.085   3.760   0.068
 8305TIP3    H224873   7.106   3.838  -0.060
 8306TIP3   OH224874   5.961   7.622   2.185
 8306TIP3    H124875   6.033   7.647   2.242
 8306TIP3    H224876   5.931   7.538   2.220
 8307TIP3   OH224877   4.503   7.316   4.677
 8307TIP3    H124878   4.566   7.252   4.711
 8307TIP3    H224879   4.539   7.342   4.592
 8308TIP3   OH224880   5.191   0.261   6.197
 8308TIP3    H124881   5.191   0.285   6.289
 8308TIP3    H224882   5.151   0.174   6.195
 8309TIP3   OH224883   1.447   3.060   6.325
 8309TIP3    H124884   1.356   3.047   6.353
 8309TIP3    H224885   1.469   2.980   6.278
 8310TIP3   OH224886   5.391   4.908   2.041
 8310TIP3    H124887   5.363   4.961   1.966
 8310TIP3    H224888   5.483   4.933   2.055
 8311TIP3   OH224889   0.612   7.114   4.534
 8311TIP3    H124890   0.575   7.140   4.450
 8311TIP3    H224891   0.569   7.031   4.554
 8312TIP3   OH224892   1.546   4.103   2.964
 8312TIP3    H124893   1.523   4.050   2.887
 8312TIP3    H224894   1.575   4.187   2.928
 8313TIP3   OH224895   2.130   0.923   4.811
 8313TIP3    H124896   2.062   0.884   4.756
 8313TIP3    H224897   2.144   1.010   4.775
 8314TIP3   OH224898   0.309   6.716   4.405
 8314TIP3    H124899   0.213   6.720   4.407
 8314TIP3    H224900   0.328   6.625   4.383
 8315TIP3   OH224901   5.632   6.542   0.384
 8315TIP3    H124902   5.567   6.510   0.321
 8315TIP3    H224903   5.609   6.634   0.397
 8316TIP3   OH224904   7.426   2.393   4.314
 8316TIP3    H124905   7.353   2.444   4.278
 8316TIP3    H224906   7.450   2.333   4.244
 8317TIP3   OH224907   7.416   5.604   2.549
 8317TIP3    H124908   7.386   5.582   2.461
 8317TIP3    H224909   7.471   5.530   2.575
 8318TIP3   OH224910   5.521   7.135   4.325
 8318TIP3    H124911   5.601   7.091   4.355
 8318TIP3    H224912   5.544   7.227   4.320
 8319TIP3   OH224913   3.008   0.739   5.474
 8319TIP3    H124914   3.078   0.772   5.417
 8319TIP3    H224915   2.962   0.818   5.502
 8320TIP3   OH224916   1.101   4.504   0.551
 8320TIP3    H124917   1.148   4.567   0.496
 8320TIP3    H224918   1.027   4.554   0.586
 8321TIP3   OH224919   2.604   0.131   2.836
 8321TIP3    H124920   2.603   0.057   2.897
 8321TIP3    H224921   2.598   0.209   2.892
 8322TIP3   OH224922   0.895   4.150   1.089
 8322TIP3    H124923   0.835   4.122   1.020
 8322TIP3    H224924   0.976   4.103   1.071
 8323TIP3   OH224925   3.739   2.792   1.794
 8323TIP3    H124926   3.823   2.837   1.802
 8323TIP3    H224927   3.722   2.758   1.882
 8324TIP3   OH224928   5.886   1.404   5.390
 8324TIP3    H124929   5.907   1.312   5.406
 8324TIP3    H224930   5.800   1.416   5.432
 8325TIP3   OH224931   0.917   6.289   6.458
 8325TIP3    H124932   0.978   6.359   6.433
 8325TIP3    H224933   0.894   6.246   6.376
 8326TIP3   OH224934   0.454   4.151   6.310
 8326TIP3    H124935   0.504   4.071   6.300
 8326TIP3    H224936   0.510   4.220   6.274
 8327TIP3   OH224937   4.876   2.920   6.530
 8327TIP3    H124938   4.785   2.913   6.559
 8327TIP3    H224939   4.880   2.863   6.453
 8328TIP3   OH224940   6.227   2.033   6.103
 8328TIP3    H124941   6.226   2.101   6.170
 8328TIP3    H224942   6.156   1.973   6.128
 8329TIP3   OH224943   3.330   4.497   3.862
 8329TIP3    H124944   3.258   4.505   3.799
 8329TIP3    H224945   3.400   4.455   3.812
 8330TIP3   OH224946   5.125   6.266   3.822
 8330TIP3    H124947   5.064   6.218   3.766
 8330TIP3    H224948   5.140   6.348   3.775
 8331TIP3   OH224949   6.693   5.068   2.195
 8331TIP3    H124950   6.770   5.120   2.174
 8331TIP3    H224951   6.673   5.020   2.115
 8332TIP3   OH224952   0.074   1.231   5.447
 8332TIP3    H124953   0.161   1.247   5.408
 8332TIP3    H224954   0.089   1.237   5.541
 8333TIP3   OH224955   0.351   3.392   6.468
 8333TIP3    H124956   0.268   3.353   6.440
 8333TIP3    H224957   0.418   3.337   6.427
 8334TIP3   OH224958   7.801   2.435   4.152
 8334TIP3    H124959   7.832   2.393   4.232
 8334TIP3    H224960   7.833   2.379   4.081
 8335TIP3   OH224961  -0.008   4.605   0.668
 8335TIP3    H124962   0.082   4.574   0.660
 8335TIP3    H224963  -0.044   4.556   0.742
 8336TIP3   OH224964   2.835   7.605   2.637
 8336TIP3    H124965   2.762   7.666   2.648
 8336TIP3    H224966   2.844   7.561   2.722
 8337TIP3   OH224967   7.363   7.402   1.531
 8337TIP3    H124968   7.329   7.316   1.554
 8337TIP3    H224969   7.457   7.395   1.545
 8338TIP3   OH224970   1.911   3.330   4.963
 8338TIP3    H124971   1.848   3.298   4.898
 8338TIP3    H224972   1.941   3.414   4.929
 8339TIP3   OH224973   7.287   0.655   0.660
 8339TIP3    H124974   7.367   0.636   0.612
 8339TIP3    H224975   7.263   0.571   0.699
 8340TIP3   OH224976   2.192   7.212   0.352
 8340TIP3    H124977   2.173   7.140   0.291
 8340TIP3    H224978   2.206   7.169   0.436
 8341TIP3   OH224979   1.141   2.673   2.092
 8341TIP3    H124980   1.075   2.643   2.155
 8341TIP3    H224981   1.096   2.740   2.040
 8342TIP3   OH224982   5.428   7.722   5.518
 8342TIP3    H124983   5.503   7.771   5.554
 8342TIP3    H224984   5.353   7.779   5.533
 8343TIP3   OH224985   3.806   3.450   6.368
 8343TIP3    H124986   3.746   3.474   6.297
 8343TIP3    H224987   3.796   3.520   6.432
 8344TIP3   OH224988   1.052   4.337   0.312
 8344TIP3    H124989   0.992   4.394   0.265
 8344TIP3    H224990   1.035   4.355   0.405
 8345TIP3   OH224991   6.915   7.655   6.597
 8345TIP3    H124992   6.881   7.682   6.682
 8345TIP3    H224993   6.947   7.566   6.611
 8346TIP3   OH224994   1.887   1.658   1.821
 8346TIP3    H124995   1.899   1.707   1.903
 8346TIP3    H224996   1.793   1.665   1.802
 8347TIP3   OH224997   0.319   5.904   0.619
 8347TIP3    H124998   0.342   5.991   0.651
 8347TIP3    H224999   0.294   5.855   0.698
 8348TIP3   OH225000   3.413   2.761   5.613
 8348TIP3    H125001   3.387   2.793   5.699
 8348TIP3    H225002   3.459   2.679   5.630
 8349TIP3   OH225003   5.693   3.675   2.556
 8349TIP3    H125004   5.769   3.733   2.551
 8349TIP3    H225005   5.633   3.720   2.617
 8350TIP3   OH225006   7.136   7.006   1.522
 8350TIP3    H125007   7.062   7.007   1.461
 8350TIP3    H225008   7.206   6.960   1.475
 8351TIP3   OH225009   3.569   1.222   5.498
 8351TIP3    H125010   3.589   1.161   5.427
 8351TIP3    H225011   3.578   1.170   5.578
 8352TIP3   OH225012   4.960   3.739   6.282
 8352TIP3    H125013   4.949   3.758   6.375
 8352TIP3    H225014   5.044   3.777   6.260
 8353TIP3   OH225015   4.701   3.485   2.987
 8353TIP3    H125016   4.652   3.426   2.930
 8353TIP3    H225017   4.769   3.430   3.026
 8354TIP3   OH225018   1.946   3.289   4.067
 8354TIP3    H125019   2.021   3.348   4.068
 8354TIP3    H225020   1.940   3.255   4.156
 8355TIP3   OH225021   0.908   0.979   4.576
 8355TIP3    H125022   0.959   0.912   4.622
 8355TIP3    H225023   0.958   1.060   4.589
 8356TIP3   OH225024   4.298   5.982   3.427
 8356TIP3    H125025   4.211   5.948   3.448
 8356TIP3    H225026   4.356   5.905   3.430
 8357TIP3   OH225027   2.500   0.069   4.110
 8357TIP3    H125028   2.481   0.154   4.071
 8357TIP3    H225029   2.514   0.087   4.202
 8358TIP3   OH225030   6.843   4.849   0.124
 8358TIP3    H125031   6.923   4.815   0.163
 8358TIP3    H225032   6.868   4.933   0.085
 8359TIP3   OH225033   1.805   7.368   3.016
 8359TIP3    H125034   1.835   7.350   2.927
 8359TIP3    H225035   1.819   7.286   3.064
 8360TIP3   OH225036   5.760   3.785   0.429
 8360TIP3    H125037   5.851   3.807   0.449
 8360TIP3    H225038   5.741   3.710   0.485
 8361TIP3   OH225039   6.320   1.316   2.904
 8361TIP3    H125040   6.326   1.227   2.869
 8361TIP3    H225041   6.232   1.345   2.881
 8362TIP3   OH225042   3.039   0.115   1.639
 8362TIP3    H125043   2.975   0.184   1.626
 8362TIP3    H225044   3.016   0.049   1.573
 8363TIP3   OH225045   5.042   7.222   5.630
 8363TIP3    H125046   5.026   7.282   5.704
 8363TIP3    H225047   5.116   7.261   5.584
 8364TIP3   OH225048   6.586   6.265   3.403
 8364TIP3    H125049   6.573   6.179   3.363
 8364TIP3    H225050   6.587   6.326   3.329
 8365TIP3   OH225051   0.201   4.942   5.008
 8365TIP3    H125052   0.163   4.955   5.095
 8365TIP3    H225053   0.148   4.872   4.970
 8366TIP3   OH225054   5.645   1.478   0.526
 8366TIP3    H125055   5.579   1.490   0.457
 8366TIP3    H225056   5.700   1.556   0.520
 8367TIP3   OH225057   8.083   5.169   4.920
 8367TIP3    H125058   8.094   5.148   5.012
 8367TIP3    H225059   8.172   5.170   4.884
 8368TIP3   OH225060   2.703   6.925   5.812
 8368TIP3    H125061   2.792   6.927   5.777
 8368TIP3    H225062   2.656   6.865   5.755
 8369TIP3   OH225063   1.343   2.254   3.534
 8369TIP3    H125064   1.422   2.307   3.543
 8369TIP3    H225065   1.322   2.258   3.440
 8370TIP3   OH225066   1.873   2.595   2.450
 8370TIP3    H125067   1.804   2.659   2.433
 8370TIP3    H225068   1.875   2.539   2.373
 8371TIP3   OH225069   4.334   3.263   6.241
 8371TIP3    H125070   4.334   3.202   6.315
 8371TIP3    H225071   4.394   3.333   6.268
 8372TIP3   OH225072   3.697   4.764   5.824
 8372TIP3    H125073   3.747   4.711   5.762
 8372TIP3    H225074   3.617   4.787   5.776
 8373TIP3   OH225075  -0.002   2.912   5.955
 8373TIP3    H125076  -0.038   2.891   5.869
 8373TIP3    H225077   0.092   2.920   5.939
 8374TIP3   OH225078   2.738   1.201   1.982
 8374TIP3    H125079   2.809   1.241   2.032
 8374TIP3    H225080   2.781   1.161   1.906
 8375TIP3   OH225081   6.828   3.601   1.789
 8375TIP3    H125082   6.751   3.572   1.837
 8375TIP3    H225083   6.797   3.673   1.734
 8376TIP3   OH225084   0.671   3.352   1.170
 8376TIP3    H125085   0.722   3.340   1.250
 8376TIP3    H225086   0.731   3.394   1.109
 8377TIP3   OH225087   1.016   2.741   1.847
 8377TIP3    H125088   0.955   2.805   1.811
 8377TIP3    H225089   0.965   2.660   1.854
 8378TIP3   OH225090   6.970   4.556   2.207
 8378TIP3    H125091   6.925   4.640   2.200
 8378TIP3    H225092   6.914   4.495   2.160
 8379TIP3   OH225093   6.083   2.874   4.220
 8379TIP3    H125094   6.078   2.854   4.126
 8379TIP3    H225095   6.090   2.788   4.262
 8380TIP3   OH225096   5.278   4.153   6.555
 8380TIP3    H125097   5.206   4.161   6.493
 8380TIP3    H225098   5.338   4.225   6.534
 8381TIP3   OH225099   3.595   5.478   5.616
 8381TIP3    H125100   3.550   5.419   5.556
 8381TIP3    H225101   3.526   5.536   5.648
 8382TIP3   OH225102   3.007   3.601   5.379
 8382TIP3    H125103   3.019   3.573   5.470
 8382TIP3    H225104   2.914   3.621   5.372
 8383TIP3   OH225105   0.310   7.517   2.524
 8383TIP3    H125106   0.236   7.457   2.538
 8383TIP3    H225107   0.387   7.461   2.528
 8384TIP3   OH225108   5.992   6.452   3.232
 8384TIP3    H125109   5.993   6.357   3.240
 8384TIP3    H225110   5.912   6.479   3.276
 8385TIP3   OH225111   6.807   0.007   4.286
 8385TIP3    H125112   6.781   0.000   4.378
 8385TIP3    H225113   6.875   0.074   4.285
 8386TIP3   OH225114   2.465   7.350   3.797
 8386TIP3    H125115   2.537   7.396   3.840
 8386TIP3    H225116   2.489   7.350   3.704
 8387TIP3   OH225117   4.092   1.853   4.821
 8387TIP3    H125118   4.034   1.784   4.789
 8387TIP3    H225119   4.087   1.921   4.754
 8388TIP3   OH225120   0.008   6.848   4.222
 8388TIP3    H125121   0.088   6.815   4.182
 8388TIP3    H225122   0.038   6.902   4.295
 8389TIP3   OH225123   6.115   5.188   2.152
 8389TIP3    H125124   6.044   5.240   2.115
 8389TIP3    H225125   6.152   5.141   2.077
 8390TIP3   OH225126   6.188   3.894   0.955
 8390TIP3    H125127   6.110   3.891   0.899
 8390TIP3    H225128   6.259   3.865   0.899
 8391TIP3   OH225129   6.800   4.553   2.527
 8391TIP3    H125130   6.745   4.475   2.530
 8391TIP3    H225131   6.805   4.582   2.618
 8392TIP3   OH225132   7.105   7.448   4.916
 8392TIP3    H125133   7.093   7.353   4.927
 8392TIP3    H225134   7.140   7.457   4.827
 8393TIP3   OH225135   6.400   4.916   0.447
 8393TIP3    H125136   6.362   4.975   0.512
 8393TIP3    H225137   6.383   4.958   0.363
 8394TIP3   OH225138   2.983   6.734   5.225
 8394TIP3    H125139   2.976   6.720   5.130
 8394TIP3    H225140   2.892   6.732   5.256
 8395TIP3   OH225141   6.899   1.884   2.962
 8395TIP3    H125142   6.917   1.924   2.877
 8395TIP3    H225143   6.839   1.812   2.942
 8396TIP3   OH225144   3.994   5.681   1.181
 8396TIP3    H125145   3.899   5.671   1.183
 8396TIP3    H225146   4.009   5.775   1.187
 8397TIP3   OH225147   5.559   3.332   6.210
 8397TIP3    H125148   5.581   3.408   6.264
 8397TIP3    H225149   5.539   3.263   6.274
 8398TIP3   OH225150   4.802   7.345   3.261
 8398TIP3    H125151   4.847   7.428   3.244
 8398TIP3    H225152   4.712   7.359   3.230
 8399TIP3   OH225153   8.038   6.841   6.453
 8399TIP3    H125154   7.958   6.793   6.475
 8399TIP3    H225155   8.103   6.811   6.516
 8400TIP3   OH225156   6.902   7.650   4.192
 8400TIP3    H125157   6.831   7.592   4.222
 8400TIP3    H225158   6.911   7.628   4.099
 8401TIP3   OH225159   7.134   5.516   4.040
 8401TIP3    H125160   7.205   5.454   4.022
 8401TIP3    H225161   7.080   5.472   4.105
 8402TIP3   OH225162   2.267   1.888   2.076
 8402TIP3    H125163   2.266   1.943   2.154
 8402TIP3    H225164   2.359   1.880   2.052
 8403TIP3   OH225165   4.233   0.719   2.932
 8403TIP3    H125166   4.196   0.634   2.905
 8403TIP3    H225167   4.327   0.706   2.929
 8404TIP3   OH225168   7.115   4.148   0.002
 8404TIP3    H125169   7.072   4.101   0.073
 8404TIP3    H225170   7.136   4.081  -0.062
 8405TIP3   OH225171   5.476   2.472   6.039
 8405TIP3    H125172   5.502   2.380   6.048
 8405TIP3    H225173   5.517   2.515   6.115
 8406TIP3   OH225174   0.287   6.391   2.691
 8406TIP3    H125175   0.223   6.442   2.741
 8406TIP3    H225176   0.301   6.441   2.611
 8407TIP3   OH225177   0.410   5.511   5.853
 8407TIP3    H125178   0.486   5.513   5.795
 8407TIP3    H225179   0.396   5.603   5.878
 8408TIP3   OH225180   7.899   2.738   4.322
 8408TIP3    H125181   7.955   2.743   4.245
 8408TIP3    H225182   7.861   2.650   4.320
 8409TIP3   OH225183   3.268   2.679   1.783
 8409TIP3    H125184   3.190   2.710   1.737
 8409TIP3    H225185   3.272   2.733   1.862
 8410TIP3   OH225186   0.033   6.281   1.157
 8410TIP3    H125187   0.071   6.297   1.243
 8410TIP3    H225188   0.022   6.369   1.119
 8411TIP3   OH225189   0.683   3.004   4.670
 8411TIP3    H125190   0.730   3.086   4.687
 8411TIP3    H225191   0.621   3.026   4.600
 8412TIP3   OH225192   0.055   2.928   1.096
 8412TIP3    H125193   0.019   2.863   1.156
 8412TIP3    H225194   0.004   2.917   1.016
 8413TIP3   OH225195   7.810   5.781   1.101
 8413TIP3    H125196   7.759   5.858   1.126
 8413TIP3    H225197   7.799   5.719   1.173
 8414TIP3   OH225198   3.586   7.695   6.617
 8414TIP3    H125199   3.513   7.735   6.665
 8414TIP3    H225200   3.664   7.740   6.650
 8415TIP3   OH225201   4.277   4.548   4.860
 8415TIP3    H125202   4.228   4.596   4.928
 8415TIP3    H225203   4.283   4.459   4.894
 8416TIP3   OH225204   8.163   4.901   2.546
 8416TIP3    H125205   8.193   4.810   2.553
 8416TIP3    H225206   8.216   4.938   2.476
 8417TIP3   OH225207   6.491   5.311   2.186
 8417TIP3    H125208   6.510   5.367   2.111
 8417TIP3    H225209   6.494   5.222   2.151
 8418TIP3   OH225210   5.729   0.025   0.908
 8418TIP3    H125211   5.656  -0.036   0.912
 8418TIP3    H225212   5.689   0.110   0.895
 8419TIP3   OH225213   1.745   4.889   1.089
 8419TIP3    H125214   1.729   4.979   1.116
 8419TIP3    H225215   1.826   4.892   1.039
 8420TIP3   OH225216   2.367   1.053   1.547
 8420TIP3    H125217   2.438   1.043   1.610
 8420TIP3    H225218   2.313   0.975   1.559
 8421TIP3   OH225219   2.475   0.004   2.257
 8421TIP3    H125220   2.419   0.072   2.295
 8421TIP3    H225221   2.564   0.036   2.272
 8422TIP3   OH225222   7.372   4.591   3.203
 8422TIP3    H125223   7.310   4.636   3.145
 8422TIP3    H225224   7.453   4.588   3.153
 8423TIP3   OH225225   2.143   2.341   6.717
 8423TIP3    H125226   2.159   2.371   6.628
 8423TIP3    H225227   2.055   2.372   6.738
 8424TIP3   OH225228   2.886   0.912   4.640
 8424TIP3    H125229   2.910   0.868   4.558
 8424TIP3    H225230   2.897   0.845   4.708
 8425TIP3   OH225231   2.140   6.075   1.427
 8425TIP3    H125232   2.143   6.146   1.363
 8425TIP3    H225233   2.047   6.063   1.445
 8426TIP3   OH225234   7.638   5.928   4.099
 8426TIP3    H125235   7.638   5.963   4.189
 8426TIP3    H225236   7.705   5.860   4.100
 8427TIP3   OH225237   4.396   5.291   2.944
 8427TIP3    H125238   4.436   5.379   2.944
 8427TIP3    H225239   4.330   5.295   3.013
 8428TIP3   OH225240   5.330   5.012   6.190
 8428TIP3    H125241   5.353   5.104   6.180
 8428TIP3    H225242   5.260   5.011   6.255
 8429TIP3   OH225243   2.151   2.026   6.420
 8429TIP3    H125244   2.153   1.933   6.445
 8429TIP3    H225245   2.243   2.049   6.408
 8430TIP3   OH225246   7.556   5.075   3.289
 8430TIP3    H125247   7.485   5.123   3.330
 8430TIP3    H225248   7.553   4.987   3.328
 8431TIP3   OH225249   7.526   4.977   6.660
 8431TIP3    H125250   7.591   4.998   6.727
 8431TIP3    H225251   7.550   4.889   6.630
 8432TIP3   OH225252   3.287   4.063   0.780
 8432TIP3    H125253   3.280   4.129   0.711
 8432TIP3    H225254   3.224   4.091   0.846
 8433TIP3   OH225255   3.819   5.671   4.216
 8433TIP3    H125256   3.855   5.584   4.235
 8433TIP3    H225257   3.770   5.659   4.134
 8434TIP3   OH225258   2.512   0.531   4.365
 8434TIP3    H125259   2.438   0.500   4.418
 8434TIP3    H225260   2.589   0.499   4.411
 8435TIP3   OH225261   7.496   3.373   1.414
 8435TIP3    H125262   7.542   3.416   1.486
 8435TIP3    H225263   7.555   3.382   1.339
 8436TIP3   OH225264   7.205   1.276   4.477
 8436TIP3    H125265   7.191   1.369   4.461
 8436TIP3    H225266   7.228   1.271   4.570
 8437TIP3   OH225267   6.357   4.669   1.900
 8437TIP3    H125268   6.410   4.712   1.968
 8437TIP3    H225269   6.385   4.578   1.902
 8438TIP3   OH225270   5.456   1.023   5.558
 8438TIP3    H125271   5.522   1.000   5.494
 8438TIP3    H225272   5.372   1.004   5.515
 8439TIP3   OH225273   2.308   2.804   3.107
 8439TIP3    H125274   2.404   2.811   3.109
 8439TIP3    H225275   2.282   2.805   3.199
 8440TIP3   OH225276   2.863   3.158   0.321
 8440TIP3    H125277   2.930   3.157   0.389
 8440TIP3    H225278   2.912   3.160   0.239
 8441TIP3   OH225279   0.172   2.190   0.693
 8441TIP3    H125280   0.126   2.143   0.762
 8441TIP3    H225281   0.254   2.217   0.733
 8442TIP3   OH225282   0.332   6.520   3.050
 8442TIP3    H125283   0.374   6.433   3.046
 8442TIP3    H225284   0.288   6.521   3.135
 8443TIP3   OH225285   4.908   2.188   1.413
 8443TIP3    H125286   4.966   2.142   1.473
 8443TIP3    H225287   4.966   2.237   1.355
 8444TIP3   OH225288   3.138   1.230   0.976
 8444TIP3    H125289   3.065   1.183   0.936
 8444TIP3    H225290   3.113   1.243   1.067
 8445TIP3   OH225291   2.919   6.413   5.379
 8445TIP3    H125292   2.923   6.346   5.448
 8445TIP3    H225293   2.839   6.461   5.398
 8446TIP3   OH225294   5.565   5.384   5.252
 8446TIP3    H125295   5.516   5.318   5.203
 8446TIP3    H225296   5.499   5.427   5.307
 8447TIP3   OH225297   2.541   1.380   3.016
 8447TIP3    H125298   2.626   1.375   2.972
 8447TIP3    H225299   2.545   1.462   3.065
 8448TIP3   OH225300   1.083   1.806   6.519
 8448TIP3    H125301   1.033   1.868   6.572
 8448TIP3    H225302   1.046   1.814   6.431
 8449TIP3   OH225303   0.029   3.099   4.539
 8449TIP3    H125304   0.110   3.134   4.501
 8449TIP3    H225305  -0.039   3.122   4.476
 8450TIP3   OH225306   4.882   6.206   4.322
 8450TIP3    H125307   4.844   6.135   4.373
 8450TIP3    H225308   4.974   6.179   4.309
 8451TIP3   OH225309   2.629   3.666   0.907
 8451TIP3    H125310   2.538   3.687   0.886
 8451TIP3    H225311   2.624   3.626   0.994
 8452TIP3   OH225312   7.853   3.300   4.539
 8452TIP3    H125313   7.798   3.222   4.546
 8452TIP3    H225314   7.819   3.360   4.605
 8453TIP3   OH225315   0.168   5.241   4.448
 8453TIP3    H125316   0.256   5.221   4.480
 8453TIP3    H225317   0.166   5.336   4.439
 8454TIP3   OH225318   4.180   4.970   3.587
 8454TIP3    H125319   4.178   5.053   3.634
 8454TIP3    H225320   4.162   4.992   3.496
 8455TIP3   OH225321   1.647   2.421   0.429
 8455TIP3    H125322   1.653   2.466   0.344
 8455TIP3    H225323   1.736   2.388   0.444
 8456TIP3   OH225324   8.312   1.676   2.267
 8456TIP3    H125325   8.290   1.621   2.342
 8456TIP3    H225326   8.242   1.742   2.265
 8457TIP3   OH225327   8.243   2.321   5.884
 8457TIP3    H125328   8.183   2.396   5.881
 8457TIP3    H225329   8.293   2.334   5.965
 8458TIP3   OH225330   0.229   4.953   5.739
 8458TIP3    H125331   0.304   4.994   5.696
 8458TIP3    H225332   0.233   4.861   5.712
 8459TIP3   OH225333   4.829   3.205   0.191
 8459TIP3    H125334   4.767   3.139   0.160
 8459TIP3    H225335   4.805   3.285   0.143
 8460TIP3   OH225336   3.450   6.494   1.786
 8460TIP3    H125337   3.434   6.487   1.880
 8460TIP3    H225338   3.431   6.407   1.751
 8461TIP3   OH225339   2.588   7.444   6.451
 8461TIP3    H125340   2.605   7.377   6.385
 8461TIP3    H225341   2.492   7.445   6.461
 8462TIP3   OH225342   3.504   2.785   1.340
 8462TIP3    H125343   3.583   2.734   1.322
 8462TIP3    H225344   3.515   2.865   1.288
 8463TIP3   OH225345   2.180   6.417   2.794
 8463TIP3    H125346   2.109   6.436   2.855
 8463TIP3    H225347   2.220   6.336   2.828
 8464TIP3   OH225348   5.367   7.079   5.700
 8464TIP3    H125349   5.348   7.163   5.660
 8464TIP3    H225350   5.456   7.058   5.670
 8465TIP3   OH225351   4.438   6.378   5.458
 8465TIP3    H125352   4.517   6.368   5.512
 8465TIP3    H225353   4.463   6.440   5.390
 8466TIP3   OH225354   7.241   1.124   5.989
 8466TIP3    H125355   7.301   1.059   6.025
 8466TIP3    H225356   7.215   1.088   5.904
 8467TIP3   OH225357   2.256   0.597   3.567
 8467TIP3    H125358   2.318   0.577   3.637
 8467TIP3    H225359   2.271   0.690   3.548
 8468TIP3   OH225360   4.634   6.814   1.304
 8468TIP3    H125361   4.581   6.830   1.382
 8468TIP3    H225362   4.696   6.746   1.330
 8469TIP3   OH225363   6.047   6.550   5.615
 8469TIP3    H125364   5.993   6.611   5.565
 8469TIP3    H225365   5.985   6.497   5.664
 8470TIP3   OH225366   4.144   1.798   3.416
 8470TIP3    H125367   4.217   1.744   3.386
 8470TIP3    H225368   4.070   1.737   3.421
 8471TIP3   OH225369   4.997   5.656   6.276
 8471TIP3    H125370   5.088   5.686   6.266
 8471TIP3    H225371   5.006   5.565   6.305
 8472TIP3   OH225372   1.627   4.377   0.769
 8472TIP3    H125373   1.692   4.331   0.715
 8472TIP3    H225374   1.550   4.384   0.713
 8473TIP3   OH225375   1.373   7.797   6.690
 8473TIP3    H125376   1.313   7.846   6.746
 8473TIP3    H225377   1.317   7.732   6.647
 8474TIP3   OH225378   4.797   2.939   5.175
 8474TIP3    H125379   4.842   2.894   5.246
 8474TIP3    H225380   4.761   2.868   5.121
 8475TIP3   OH225381   3.249   4.992   1.749
 8475TIP3    H125382   3.186   4.969   1.817
 8475TIP3    H225383   3.321   4.929   1.762
 8476TIP3   OH225384   7.224   1.933   2.742
 8476TIP3    H125385   7.274   2.013   2.727
 8476TIP3    H225386   7.133   1.961   2.749
 8477TIP3   OH225387   5.644   6.690   1.397
 8477TIP3    H125388   5.576   6.711   1.333
 8477TIP3    H225389   5.663   6.597   1.382
 8478TIP3   OH225390   2.701   6.506   1.035
 8478TIP3    H125391   2.622   6.535   1.080
 8478TIP3    H225392   2.679   6.418   1.003
 8479TIP3   OH225393   6.700   3.341   5.490
 8479TIP3    H125394   6.709   3.284   5.414
 8479TIP3    H225395   6.715   3.429   5.455
 8480TIP3   OH225396   2.259   0.561   2.007
 8480TIP3    H125397   2.178   0.612   2.001
 8480TIP3    H225398   2.268   0.542   2.101
 8481TIP3   OH225399   4.068   3.719   0.542
 8481TIP3    H125400   4.102   3.762   0.620
 8481TIP3    H225401   4.122   3.640   0.532
 8482TIP3   OH225402   0.484   6.343   4.693
 8482TIP3    H125403   0.442   6.273   4.743
 8482TIP3    H225404   0.478   6.315   4.602
 8483TIP3   OH225405   5.566   3.267   0.175
 8483TIP3    H125406   5.555   3.329   0.103
 8483TIP3    H225407   5.641   3.300   0.223
 8484TIP3   OH225408   0.746   2.197   3.362
 8484TIP3    H125409   0.741   2.225   3.271
 8484TIP3    H225410   0.697   2.263   3.411
 8485TIP3   OH225411   2.704   0.548   4.915
 8485TIP3    H125412   2.677   0.607   4.985
 8485TIP3    H225413   2.622   0.524   4.871
 8486TIP3   OH225414   7.750   4.228   4.397
 8486TIP3    H125415   7.681   4.244   4.461
 8486TIP3    H225416   7.789   4.314   4.381
 8487TIP3   OH225417   3.029   7.715   4.580
 8487TIP3    H125418   3.003   7.638   4.530
 8487TIP3    H225419   3.115   7.739   4.546
 8488TIP3   OH225420   7.082   1.882   4.669
 8488TIP3    H125421   7.109   1.912   4.582
 8488TIP3    H225422   7.133   1.802   4.683
 8489TIP3   OH225423   0.817   6.064   1.917
 8489TIP3    H125424   0.739   6.118   1.918
 8489TIP3    H225425   0.860   6.082   2.000
 8490TIP3   OH225426   8.121   6.851   3.278
 8490TIP3    H125427   8.148   6.810   3.196
 8490TIP3    H225428   8.090   6.938   3.252
 8491TIP3   OH225429   1.374   5.159   6.214
 8491TIP3    H125430   1.434   5.085   6.210
 8491TIP3    H225431   1.411   5.223   6.154
 8492TIP3   OH225432   7.136   6.883   3.687
 8492TIP3    H125433   7.200   6.924   3.745
 8492TIP3    H225434   7.129   6.793   3.718
 8493TIP3   OH225435   4.877   6.699   2.686
 8493TIP3    H125436   4.908   6.709   2.596
 8493TIP3    H225437   4.922   6.621   2.719
 8494TIP3   OH225438   8.109   6.293   4.437
 8494TIP3    H125439   8.191   6.324   4.475
 8494TIP3    H225440   8.085   6.360   4.374
 8495TIP3   OH225441   4.014   7.804   2.824
 8495TIP3    H125442   3.976   7.725   2.785
 8495TIP3    H225443   3.947   7.871   2.812
 8496TIP3   OH225444   7.364   5.260   2.463
 8496TIP3    H125445   7.328   5.184   2.509
 8496TIP3    H225446   7.399   5.316   2.532
 8497TIP3   OH225447   7.808   6.782   3.047
 8497TIP3    H125448   7.890   6.797   3.000
 8497TIP3    H225449   7.785   6.692   3.027
 8498TIP3   OH225450   6.603   5.800   4.901
 8498TIP3    H125451   6.659   5.775   4.828
 8498TIP3    H225452   6.605   5.725   4.960
 8499TIP3   OH225453   4.918   5.150   3.614
 8499TIP3    H125454   4.888   5.196   3.535
 8499TIP3    H225455   4.972   5.079   3.580
 8500TIP3   OH225456   7.794   4.989   2.995
 8500TIP3    H125457   7.823   4.954   3.079
 8500TIP3    H225458   7.713   4.943   2.976
 8501TIP3   OH225459   2.342   0.238   0.288
 8501TIP3    H125460   2.371   0.216   0.199
 8501TIP3    H225461   2.357   0.332   0.295
 8502TIP3   OH225462   2.722   6.328   1.299
 8502TIP3    H125463   2.817   6.341   1.299
 8502TIP3    H225464   2.696   6.344   1.208
 8503TIP3   OH225465   1.349   1.189   0.580
 8503TIP3    H125466   1.307   1.209   0.496
 8503TIP3    H225467   1.277   1.192   0.643
 8504TIP3   OH225468   7.759   2.375   0.492
 8504TIP3    H125469   7.839   2.361   0.441
 8504TIP3    H225470   7.704   2.299   0.473
 8505TIP3   OH225471   4.665   1.264   0.702
 8505TIP3    H125472   4.618   1.197   0.652
 8505TIP3    H225473   4.659   1.235   0.793
 8506TIP3   OH225474   7.238   1.563   1.756
 8506TIP3    H125475   7.162   1.520   1.716
 8506TIP3    H225476   7.283   1.606   1.683
 8507TIP3   OH225477   2.528   0.723   2.429
 8507TIP3    H125478   2.547   0.632   2.406
 8507TIP3    H225479   2.493   0.719   2.518
 8508TIP3   OH225480   5.708   1.687   5.795
 8508TIP3    H125481   5.762   1.608   5.787
 8508TIP3    H225482   5.710   1.727   5.709
 8509TIP3   OH225483   4.976   5.411   2.168
 8509TIP3    H125484   5.047   5.369   2.217
 8509TIP3    H225485   5.012   5.495   2.140
 8510TIP3   OH225486   5.921   2.544   5.963
 8510TIP3    H125487   5.907   2.624   6.015
 8510TIP3    H225488   5.960   2.482   6.025
 8511TIP3   OH225489   7.681   5.064   0.789
 8511TIP3    H125490   7.764   5.016   0.799
 8511TIP3    H225491   7.669   5.071   0.694
 8512TIP3   OH225492   7.663   2.683   6.158
 8512TIP3    H125493   7.588   2.655   6.105
 8512TIP3    H225494   7.703   2.754   6.108
 8513TIP3   OH225495   2.082   6.713   1.555
 8513TIP3    H125496   2.073   6.783   1.620
 8513TIP3    H225497   2.153   6.658   1.589
 8514TIP3   OH225498   5.616   2.223   1.225
 8514TIP3    H125499   5.635   2.175   1.306
 8514TIP3    H225500   5.674   2.184   1.160
 8515TIP3   OH225501   0.837   2.325   1.242
 8515TIP3    H125502   0.923   2.363   1.260
 8515TIP3    H225503   0.809   2.367   1.161
 8516TIP3   OH225504   3.222   1.290   2.411
 8516TIP3    H125505   3.235   1.196   2.406
 8516TIP3    H225506   3.185   1.314   2.326
 8517TIP3   OH225507   3.673   7.778   0.507
 8517TIP3    H125508   3.709   7.690   0.510
 8517TIP3    H225509   3.633   7.791   0.593
 8518TIP3   OH225510   1.377   4.014   0.337
 8518TIP3    H125511   1.383   4.110   0.329
 8518TIP3    H225512   1.386   3.982   0.247
 8519TIP3   OH225513   4.202   0.286   3.436
 8519TIP3    H125514   4.159   0.367   3.465
 8519TIP3    H225515   4.287   0.315   3.403
 8520TIP3   OH225516   0.495   0.841   1.865
 8520TIP3    H125517   0.410   0.798   1.857
 8520TIP3    H225518   0.555   0.784   1.816
 8521TIP3   OH225519   4.922   1.193   6.756
 8521TIP3    H125520   4.904   1.212   6.664
 8521TIP3    H225521   4.925   1.097   6.761
 8522TIP3   OH225522   2.807   6.400   2.437
 8522TIP3    H125523   2.877   6.434   2.382
 8522TIP3    H225524   2.728   6.445   2.407
 8523TIP3   OH225525   2.155   4.549   1.356
 8523TIP3    H125526   2.079   4.555   1.297
 8523TIP3    H225527   2.117   4.538   1.443
 8524TIP3   OH225528   2.343   0.743   3.018
 8524TIP3    H125529   2.300   0.773   3.099
 8524TIP3    H225530   2.420   0.799   3.010
 8525TIP3   OH225531   5.829   3.713   6.248
 8525TIP3    H125532   5.863   3.708   6.159
 8525TIP3    H225533   5.907   3.707   6.304
 8526TIP3   OH225534   6.653   3.680   2.217
 8526TIP3    H125535   6.660   3.770   2.184
 8526TIP3    H225536   6.737   3.665   2.261
 8527TIP3   OH225537   6.372   5.002   3.101
 8527TIP3    H125538   6.384   4.944   3.176
 8527TIP3    H225539   6.277   5.011   3.093
 8528TIP3   OH225540   1.818   6.618   1.110
 8528TIP3    H125541   1.822   6.590   1.018
 8528TIP3    H225542   1.825   6.714   1.106
 8529TIP3   OH225543   2.712   4.522   5.377
 8529TIP3    H125544   2.689   4.429   5.378
 8529TIP3    H225545   2.693   4.552   5.466
 8530TIP3   OH225546   5.814   0.337   0.703
 8530TIP3    H125547   5.729   0.338   0.747
 8530TIP3    H225548   5.844   0.246   0.711
 8531TIP3   OH225549   2.839   7.533   1.532
 8531TIP3    H125550   2.893   7.584   1.593
 8531TIP3    H225551   2.826   7.449   1.577
 8532TIP3   OH225552   8.260   5.842   1.642
 8532TIP3    H125553   8.225   5.755   1.659
 8532TIP3    H225554   8.280   5.878   1.728
 8533TIP3   OH225555   1.913   2.313   0.500
 8533TIP3    H125556   1.907   2.409   0.509
 8533TIP3    H225557   1.973   2.287   0.569
 8534TIP3   OH225558   5.049   2.000   4.986
 8534TIP3    H125559   5.121   1.980   5.044
 8534TIP3    H225560   5.091   2.031   4.905
 8535TIP3   OH225561   2.704   5.076   4.663
 8535TIP3    H125562   2.628   5.073   4.721
 8535TIP3    H225563   2.726   5.169   4.656
 8536TIP3   OH225564   6.072   6.955   4.748
 8536TIP3    H125565   6.073   6.876   4.802
 8536TIP3    H225566   6.164   6.980   4.740
 8537TIP3   OH225567   6.291   3.053   4.679
 8537TIP3    H125568   6.268   3.140   4.711
 8537TIP3    H225569   6.214   2.999   4.699
 8538TIP3   OH225570   2.657   5.226   5.685
 8538TIP3    H125571   2.638   5.197   5.596
 8538TIP3    H225572   2.700   5.311   5.673
 8539TIP3   OH225573   2.857   2.608   2.524
 8539TIP3    H125574   2.779   2.554   2.508
 8539TIP3    H225575   2.822   2.692   2.553
 8540TIP3   OH225576   3.201   6.365   0.987
 8540TIP3    H125577   3.173   6.335   1.073
 8540TIP3    H225578   3.169   6.455   0.981
 8541TIP3   OH225579   0.717   1.839   2.340
 8541TIP3    H125580   0.642   1.897   2.326
 8541TIP3    H225581   0.678   1.759   2.376
 8542TIP3   OH225582   7.106   6.625   1.433
 8542TIP3    H125583   7.012   6.613   1.447
 8542TIP3    H225584   7.113   6.711   1.392
 8543TIP3   OH225585   3.508   1.081   0.896
 8543TIP3    H125586   3.468   1.149   0.842
 8543TIP3    H225587   3.452   1.076   0.974
 8544TIP3   OH225588   0.463   1.933   5.190
 8544TIP3    H125589   0.429   1.946   5.102
 8544TIP3    H225590   0.437   1.843   5.212
 8545TIP3   OH225591   4.266   4.032   3.153
 8545TIP3    H125592   4.226   3.976   3.087
 8545TIP3    H225593   4.328   4.086   3.104
 8546TIP3   OH225594   0.307   3.909   3.114
 8546TIP3    H125595   0.330   3.977   3.050
 8546TIP3    H225596   0.214   3.923   3.131
 8547TIP3   OH225597   4.133   4.620   4.638
 8547TIP3    H125598   4.041   4.597   4.650
 8547TIP3    H225599   4.175   4.592   4.720
 8548TIP3   OH225600   7.881   4.273   1.847
 8548TIP3    H125601   7.930   4.267   1.765
 8548TIP3    H225602   7.876   4.367   1.864
 8549TIP3   OH225603   2.719   1.904   2.222
 8549TIP3    H125604   2.787   1.966   2.196
 8549TIP3    H225605   2.767   1.823   2.241
 8550TIP3   OH225606   5.596   2.406   2.911
 8550TIP3    H125607   5.536   2.443   2.845
 8550TIP3    H225608   5.543   2.340   2.956
 8551TIP3   OH225609   4.208   3.022   4.671
 8551TIP3    H125610   4.298   2.990   4.671
 8551TIP3    H225611   4.160   2.958   4.617
 8552TIP3   OH225612   3.515   2.589   4.870
 8552TIP3    H125613   3.487   2.631   4.788
 8552TIP3    H225614   3.506   2.657   4.936
 8553TIP3   OH225615   0.936   1.574   0.290
 8553TIP3    H125616   1.008   1.615   0.242
 8553TIP3    H225617   0.863   1.635   0.279
 8554TIP3   OH225618   2.353   6.833   6.003
 8554TIP3    H125619   2.363   6.818   5.909
 8554TIP3    H225620   2.388   6.921   6.017
 8555TIP3   OH225621   1.959   0.913   2.910
 8555TIP3    H125622   1.990   0.991   2.956
 8555TIP3    H225623   2.035   0.881   2.863
 8556TIP3   OH225624   1.685   3.993   3.332
 8556TIP3    H125625   1.717   4.083   3.328
 8556TIP3    H225626   1.608   3.998   3.389
 8557TIP3   OH225627   2.210   6.954   4.579
 8557TIP3    H125628   2.192   6.923   4.668
 8557TIP3    H225629   2.246   7.042   4.591
 8558TIP3   OH225630   7.093   7.482   0.651
 8558TIP3    H125631   7.125   7.429   0.724
 8558TIP3    H225632   7.123   7.436   0.572
 8559TIP3   OH225633   6.083   6.765   2.780
 8559TIP3    H125634   6.156   6.720   2.823
 8559TIP3    H225635   6.125   6.822   2.716
 8560TIP3   OH225636   1.429   4.937   2.418
 8560TIP3    H125637   1.461   5.018   2.379
 8560TIP3    H225638   1.334   4.939   2.406
 8561TIP3   OH225639   5.999   4.545   1.390
 8561TIP3    H125640   6.063   4.614   1.409
 8561TIP3    H225641   5.927   4.561   1.450
 8562TIP3   OH225642   7.174   4.684   4.515
 8562TIP3    H125643   7.104   4.705   4.452
 8562TIP3    H225644   7.156   4.593   4.539
 8563TIP3   OH225645   5.481   1.470   3.716
 8563TIP3    H125646   5.557   1.423   3.750
 8563TIP3    H225647   5.457   1.530   3.786
 8564TIP3   OH225648   7.293   7.770   1.562
 8564TIP3    H125649   7.250   7.704   1.508
 8564TIP3    H225650   7.346   7.719   1.623
 8565TIP3   OH225651   0.319   4.342   2.801
 8565TIP3    H125652   0.286   4.271   2.857
 8565TIP3    H225653   0.284   4.422   2.840
 8566TIP3   OH225654   0.664   6.631   5.491
 8566TIP3    H125655   0.748   6.652   5.532
 8566TIP3    H225656   0.678   6.650   5.398
 8567TIP3   OH225657   4.599   2.324   2.580
 8567TIP3    H125658   4.510   2.305   2.608
 8567TIP3    H225659   4.593   2.412   2.541
 8568TIP3   OH225660   6.874   7.531   6.065
 8568TIP3    H125661   6.967   7.554   6.064
 8568TIP3    H225662   6.835   7.594   6.126
 8569TIP3   OH225663   1.265   6.701   4.736
 8569TIP3    H125664   1.204   6.775   4.739
 8569TIP3    H225665   1.325   6.717   4.809
 8570TIP3   OH225666   0.221   3.540   1.556
 8570TIP3    H125667   0.246   3.612   1.614
 8570TIP3    H225668   0.128   3.554   1.538
 8571TIP3   OH225669   7.425   4.735   1.416
 8571TIP3    H125670   7.441   4.771   1.329
 8571TIP3    H225671   7.454   4.803   1.477
 8572TIP3   OH225672   6.323   5.112   1.189
 8572TIP3    H125673   6.336   5.189   1.245
 8572TIP3    H225674   6.229   5.113   1.169
 8573TIP3   OH225675   3.937   7.446   4.189
 8573TIP3    H125676   3.916   7.353   4.182
 8573TIP3    H225677   4.002   7.462   4.122
 8574TIP3   OH225678   7.747   4.002   3.853
 8574TIP3    H125679   7.728   4.001   3.947
 8574TIP3    H225680   7.839   4.029   3.847
 8575TIP3   OH225681   3.326   2.146   4.815
 8575TIP3    H125682   3.355   2.125   4.726
 8575TIP3    H225683   3.354   2.072   4.868
 8576TIP3   OH225684   2.693   4.620   3.322
 8576TIP3    H125685   2.713   4.678   3.247
 8576TIP3    H225686   2.611   4.577   3.298
 8577TIP3   OH225687   4.483   1.587   2.866
 8577TIP3    H125688   4.465   1.679   2.885
 8577TIP3    H225689   4.579   1.581   2.868
 8578TIP3   OH225690   2.329   3.049   4.149
 8578TIP3    H125691   2.417   3.076   4.124
 8578TIP3    H225692   2.302   3.113   4.215
 8579TIP3   OH225693   4.863   1.451   5.660
 8579TIP3    H125694   4.789   1.510   5.652
 8579TIP3    H225695   4.939   1.509   5.673
 8580TIP3   OH225696   0.345   7.566   6.112
 8580TIP3    H125697   0.398   7.631   6.065
 8580TIP3    H225698   0.377   7.570   6.202
 8581TIP3   OH225699   7.929   4.883   1.934
 8581TIP3    H125700   7.941   4.797   1.893
 8581TIP3    H225701   7.862   4.869   2.000
 8582TIP3   OH225702   0.434   6.493   2.395
 8582TIP3    H125703   0.385   6.563   2.438
 8582TIP3    H225704   0.368   6.427   2.374
 8583TIP3   OH225705   0.239   2.870   3.601
 8583TIP3    H125706   0.284   2.851   3.684
 8583TIP3    H225707   0.254   2.963   3.587
 8584TIP3   OH225708   0.608   4.713   4.926
 8584TIP3    H125709   0.603   4.740   4.834
 8584TIP3    H225710   0.583   4.791   4.976
 8585TIP3   OH225711   7.083   2.160   4.876
 8585TIP3    H125712   7.151   2.097   4.904
 8585TIP3    H225713   7.033   2.113   4.809
 8586TIP3   OH225714   4.765   2.786   2.524
 8586TIP3    H125715   4.684   2.734   2.524
 8586TIP3    H225716   4.751   2.851   2.455
 8587TIP3   OH225717   1.701   2.497   0.820
 8587TIP3    H125718   1.642   2.424   0.800
 8587TIP3    H225719   1.643   2.572   0.830
 8588TIP3   OH225720   0.200   7.709   6.737
 8588TIP3    H125721   0.233   7.649   6.669
 8588TIP3    H225722   0.113   7.734   6.707
 8589TIP3   OH225723   0.297   3.439   2.766
 8589TIP3    H125724   0.226   3.375   2.763
 8589TIP3    H225725   0.352   3.410   2.839
 8590TIP3   OH225726   7.786   0.990   3.893
 8590TIP3    H125727   7.691   0.997   3.905
 8590TIP3    H225728   7.824   1.041   3.964
 8591TIP3   OH225729   0.572   0.461   2.960
 8591TIP3    H125730   0.626   0.539   2.949
 8591TIP3    H225731   0.494   0.479   2.907
 8592TIP3   OH225732   4.985   3.175   5.491
 8592TIP3    H125733   5.073   3.209   5.474
 8592TIP3    H225734   4.998   3.081   5.502
 8593TIP3   OH225735   6.577   0.151   5.345
 8593TIP3    H125736   6.618   0.198   5.418
 8593TIP3    H225737   6.613   0.193   5.267
 8594TIP3   OH225738   4.035   1.538   1.722
 8594TIP3    H125739   3.998   1.530   1.809
 8594TIP3    H225740   4.061   1.630   1.715
 8595TIP3   OH225741   7.182   6.207   4.159
 8595TIP3    H125742   7.097   6.168   4.182
 8595TIP3    H225743   7.161   6.272   4.092
 8596TIP3   OH225744   7.926   3.012   1.870
 8596TIP3    H125745   8.020   2.996   1.865
 8596TIP3    H225746   7.900   3.027   1.778
 8597TIP3   OH225747   6.226   6.700   1.457
 8597TIP3    H125748   6.294   6.668   1.397
 8597TIP3    H225749   6.191   6.778   1.415
 8598TIP3   OH225750   1.376   6.809   0.898
 8598TIP3    H125751   1.282   6.821   0.888
 8598TIP3    H225752   1.415   6.893   0.872
 8599TIP3   OH225753   2.452   3.625   2.137
 8599TIP3    H125754   2.523   3.671   2.181
 8599TIP3    H225755   2.373   3.654   2.183
 8600TIP3   OH225756   0.612   6.452   6.771
 8600TIP3    H125757   0.631   6.545   6.761
 8600TIP3    H225758   0.649   6.411   6.693
 8601TIP3   OH225759   5.510   3.468   0.925
 8601TIP3    H125760   5.557   3.395   0.884
 8601TIP3    H225761   5.418   3.451   0.905
 8602TIP3   OH225762   7.999   0.649   1.931
 8602TIP3    H125763   7.917   0.667   1.978
 8602TIP3    H225764   8.063   0.706   1.973
 8603TIP3   OH225765   3.353   2.120   5.196
 8603TIP3    H125766   3.440   2.159   5.185
 8603TIP3    H225767   3.296   2.174   5.142
 8604TIP3   OH225768   4.447   2.252   0.134
 8604TIP3    H125769   4.433   2.160   0.157
 8604TIP3    H225770   4.384   2.299   0.189
 8605TIP3   OH225771   0.977   3.776   2.929
 8605TIP3    H125772   0.927   3.697   2.947
 8605TIP3    H225773   1.004   3.768   2.837
 8606TIP3   OH225774   1.145   1.176   6.019
 8606TIP3    H125775   1.160   1.173   6.113
 8606TIP3    H225776   1.051   1.157   6.009
 8607TIP3   OH225777   3.584   4.037   2.993
 8607TIP3    H125778   3.672   4.071   2.977
 8607TIP3    H225779   3.546   4.099   3.056
 8608TIP3   OH225780   0.501   0.573   4.077
 8608TIP3    H125781   0.493   0.541   4.167
 8608TIP3    H225782   0.594   0.588   4.064
 8609TIP3   OH225783   1.340   0.098   4.433
 8609TIP3    H125784   1.271   0.156   4.399
 8609TIP3    H225785   1.346   0.028   4.368
 8610TIP3   OH225786   5.422   2.403   4.997
 8610TIP3    H125787   5.335   2.440   5.009
 8610TIP3    H225788   5.475   2.475   4.962
 8611TIP3   OH225789   5.526   1.321   4.610
 8611TIP3    H125790   5.477   1.399   4.584
 8611TIP3    H225791   5.575   1.296   4.531
 8612TIP3   OH225792   6.751   3.308   2.551
 8612TIP3    H125793   6.842   3.278   2.545
 8612TIP3    H225794   6.730   3.338   2.462
 8613TIP3   OH225795   6.550   1.993   5.117
 8613TIP3    H125796   6.637   1.981   5.154
 8613TIP3    H225797   6.494   1.933   5.166
 8614TIP3   OH225798   6.369   2.415   5.353
 8614TIP3    H125799   6.339   2.462   5.274
 8614TIP3    H225800   6.295   2.359   5.376
 8615TIP3   OH225801   4.372   0.420   2.745
 8615TIP3    H125802   4.445   0.437   2.805
 8615TIP3    H225803   4.412   0.384   2.667
 8616TIP3   OH225804   0.583   6.966   3.786
 8616TIP3    H125805   0.673   6.938   3.774
 8616TIP3    H225806   0.589   7.043   3.843
 8617TIP3   OH225807   4.660   1.164   4.371
 8617TIP3    H125808   4.674   1.101   4.300
 8617TIP3    H225809   4.585   1.216   4.342
 8618TIP3   OH225810   2.790   6.134   0.023
 8618TIP3    H125811   2.843   6.116  -0.055
 8618TIP3    H225812   2.850   6.121   0.096
 8619TIP3   OH225813   2.059   1.465   4.097
 8619TIP3    H125814   2.079   1.510   4.179
 8619TIP3    H225815   2.059   1.372   4.120
 8620TIP3   OH225816   1.935   5.203   0.682
 8620TIP3    H125817   1.972   5.229   0.766
 8620TIP3    H225818   1.942   5.281   0.628
 8621TIP3   OH225819   2.523   2.268   6.533
 8621TIP3    H125820   2.591   2.268   6.601
 8621TIP3    H225821   2.531   2.181   6.492
 8622TIP3   OH225822   6.656   7.775   3.029
 8622TIP3    H125823   6.634   7.683   3.044
 8622TIP3    H225824   6.752   7.775   3.018
 8623TIP3   OH225825   6.411   6.070   4.919
 8623TIP3    H125826   6.494   6.052   4.963
 8623TIP3    H225827   6.350   6.006   4.956
 8624TIP3   OH225828   0.501   3.181   2.682
 8624TIP3    H125829   0.429   3.183   2.619
 8624TIP3    H225830   0.458   3.181   2.767
 8625TIP3   OH225831   6.639   6.054   5.816
 8625TIP3    H125832   6.683   6.012   5.743
 8625TIP3    H225833   6.606   6.136   5.781
 8626TIP3   OH225834   2.178   6.792   3.073
 8626TIP3    H125835   2.264   6.767   3.041
 8626TIP3    H225836   2.175   6.760   3.163
 8627TIP3   OH225837   4.470   6.009   1.822
 8627TIP3    H125838   4.391   5.978   1.778
 8627TIP3    H225839   4.493   5.939   1.883
 8628TIP3   OH225840   4.358   6.847   5.605
 8628TIP3    H125841   4.265   6.870   5.616
 8628TIP3    H225842   4.356   6.766   5.554
 8629TIP3   OH225843   1.326   3.498   3.345
 8629TIP3    H125844   1.413   3.475   3.313
 8629TIP3    H225845   1.272   3.423   3.321
 8630TIP3   OH225846   3.318   5.963   2.987
 8630TIP3    H125847   3.313   6.040   2.930
 8630TIP3    H225848   3.398   5.976   3.038
 8631TIP3   OH225849   0.344   1.755   5.569
 8631TIP3    H125850   0.381   1.836   5.605
 8631TIP3    H225851   0.421   1.705   5.541
 8632TIP3   OH225852   7.825   3.927   0.661
 8632TIP3    H125853   7.894   3.916   0.727
 8632TIP3    H225854   7.789   3.839   0.650
 8633TIP3   OH225855   7.394   7.585   3.963
 8633TIP3    H125856   7.378   7.590   4.057
 8633TIP3    H225857   7.489   7.574   3.956
 8634TIP3   OH225858   4.075   2.287   1.848
 8634TIP3    H125859   4.161   2.329   1.855
 8634TIP3    H225860   4.014   2.351   1.884
 8635TIP3   OH225861   0.522   5.908   2.894
 8635TIP3    H125862   0.541   5.937   2.805
 8635TIP3    H225863   0.441   5.856   2.885
 8636TIP3   OH225864   2.861   2.772   4.420
 8636TIP3    H125865   2.939   2.827   4.412
 8636TIP3    H225866   2.820   2.799   4.502
 8637TIP3   OH225867   6.163   6.599   3.057
 8637TIP3    H125868   6.133   6.535   3.122
 8637TIP3    H225869   6.215   6.662   3.107
 8638TIP3   OH225870   6.749   2.271   0.516
 8638TIP3    H125871   6.835   2.242   0.485
 8638TIP3    H225872   6.768   2.320   0.596
 8639TIP3   OH225873   3.421   3.666   1.583
 8639TIP3    H125874   3.490   3.709   1.632
 8639TIP3    H225875   3.349   3.729   1.581
 8640TIP3   OH225876   1.161   2.329   0.757
 8640TIP3    H125877   1.109   2.297   0.831
 8640TIP3    H225878   1.116   2.409   0.730
 8641TIP3   OH225879   0.291   2.290   2.509
 8641TIP3    H125880   0.224   2.340   2.462
 8641TIP3    H225881   0.242   2.228   2.563
 8642TIP3   OH225882   7.145   0.945   0.136
 8642TIP3    H125883   7.207   1.009   0.171
 8642TIP3    H225884   7.141   0.964   0.042
 8643TIP3   OH225885   7.991   7.498   4.132
 8643TIP3    H125886   8.079   7.522   4.161
 8643TIP3    H225887   8.001   7.472   4.041
 8644TIP3   OH225888   1.093   6.413   2.709
 8644TIP3    H125889   1.099   6.326   2.670
 8644TIP3    H225890   1.053   6.467   2.640
 8645TIP3   OH225891   0.445   2.498   4.746
 8645TIP3    H125892   0.449   2.576   4.801
 8645TIP3    H225893   0.486   2.429   4.798
 8646TIP3   OH225894   0.864   2.281   4.457
 8646TIP3    H125895   0.929   2.243   4.399
 8646TIP3    H225896   0.860   2.374   4.432
 8647TIP3   OH225897   7.527   0.510   0.541
 8647TIP3    H125898   7.495   0.454   0.471
 8647TIP3    H225899   7.576   0.452   0.598
 8648TIP3   OH225900   1.359   0.779   4.254
 8648TIP3    H125901   1.404   0.697   4.272
 8648TIP3    H225902   1.391   0.805   4.168
 8649TIP3   OH225903   4.456   3.712   3.860
 8649TIP3    H125904   4.472   3.688   3.952
 8649TIP3    H225905   4.380   3.769   3.864
 8650TIP3   OH225906   5.872   6.615   0.551
 8650TIP3    H125907   5.846   6.676   0.482
 8650TIP3    H225908   5.889   6.533   0.507
 8651TIP3   OH225909   2.430   5.228   0.895
 8651TIP3    H125910   2.443   5.134   0.905
 8651TIP3    H225911   2.518   5.265   0.901
 8652TIP3   OH225912   3.311   5.977   3.263
 8652TIP3    H125913   3.287   5.949   3.175
 8652TIP3    H225914   3.290   5.903   3.320
 8653TIP3   OH225915   3.346   6.958   4.935
 8653TIP3    H125916   3.323   6.901   5.008
 8653TIP3    H225917   3.425   6.919   4.898
 8654TIP3   OH225918   6.906   2.318   2.868
 8654TIP3    H125919   6.818   2.322   2.904
 8654TIP3    H225920   6.955   2.265   2.931
 8655TIP3   OH225921   1.808   2.182   6.290
 8655TIP3    H125922   1.729   2.233   6.307
 8655TIP3    H225923   1.844   2.163   6.377
 8656TIP3   OH225924   1.787   0.951   1.767
 8656TIP3    H125925   1.723   1.014   1.734
 8656TIP3    H225926   1.863   1.004   1.791
 8657TIP3   OH225927   7.607   5.012   1.073
 8657TIP3    H125928   7.640   5.065   1.145
 8657TIP3    H225929   7.630   5.060   0.994
 8658TIP3   OH225930   6.741   4.311   5.199
 8658TIP3    H125931   6.823   4.359   5.207
 8658TIP3    H225932   6.762   4.236   5.143
 8659TIP3   OH225933   3.898   5.106   2.509
 8659TIP3    H125934   3.948   5.066   2.438
 8659TIP3    H225935   3.816   5.133   2.468
 8660TIP3   OH225936   7.673   0.077   1.934
 8660TIP3    H125937   7.608   0.080   2.004
 8660TIP3    H225938   7.674   0.166   1.899
 8661TIP3   OH225939   5.127   1.649   6.618
 8661TIP3    H125940   5.097   1.637   6.528
 8661TIP3    H225941   5.091   1.575   6.666
 8662TIP3   OH225942   0.782   4.672   6.208
 8662TIP3    H125943   0.802   4.746   6.265
 8662TIP3    H225944   0.841   4.684   6.133
 8663TIP3   OH225945   4.100   7.680   5.165
 8663TIP3    H125946   4.143   7.603   5.204
 8663TIP3    H225947   4.032   7.704   5.228
 8664TIP3   OH225948   4.069   2.409   2.863
 8664TIP3    H125949   3.989   2.357   2.861
 8664TIP3    H225950   4.130   2.358   2.916
 8665TIP3   OH225951   1.506   5.769   0.170
 8665TIP3    H125952   1.411   5.773   0.186
 8665TIP3    H225953   1.526   5.675   0.168
 8666TIP3   OH225954   7.825   5.248   6.339
 8666TIP3    H125955   7.796   5.336   6.360
 8666TIP3    H225956   7.853   5.252   6.248
 8667TIP3   OH225957   6.009   3.634   2.644
 8667TIP3    H125958   5.935   3.607   2.698
 8667TIP3    H225959   6.001   3.581   2.565
 8668TIP3   OH225960   3.742   0.465   0.946
 8668TIP3    H125961   3.760   0.529   0.877
 8668TIP3    H225962   3.758   0.380   0.904
 8669TIP3   OH225963   7.253   0.545   2.900
 8669TIP3    H125964   7.162   0.538   2.873
 8669TIP3    H225965   7.255   0.620   2.959
 8670TIP3   OH225966   2.502   6.518   6.647
 8670TIP3    H125967   2.502   6.502   6.553
 8670TIP3    H225968   2.514   6.612   6.656
 8671TIP3   OH225969   6.006   0.244   5.515
 8671TIP3    H125970   5.986   0.333   5.487
 8671TIP3    H225971   6.079   0.217   5.459
 8672TIP3   OH225972   4.390   2.810   5.470
 8672TIP3    H125973   4.361   2.854   5.391
 8672TIP3    H225974   4.486   2.811   5.465
 8673TIP3   OH225975   6.160   4.812   6.558
 8673TIP3    H125976   6.195   4.750   6.621
 8673TIP3    H225977   6.204   4.894   6.578
 8674TIP3   OH225978   0.203   2.003   0.436
 8674TIP3    H125979   0.245   1.974   0.355
 8674TIP3    H225980   0.199   1.925   0.490
 8675TIP3   OH225981   4.803   0.724   1.439
 8675TIP3    H125982   4.873   0.681   1.391
 8675TIP3    H225983   4.725   0.673   1.418
 8676TIP3   OH225984   0.760   5.509   0.843
 8676TIP3    H125985   0.793   5.599   0.836
 8676TIP3    H225986   0.821   5.466   0.903
 8677TIP3   OH225987   2.840   5.054   2.352
 8677TIP3    H125988   2.857   5.010   2.269
 8677TIP3    H225989   2.762   5.107   2.336
 8678TIP3   OH225990   4.709   4.313   0.622
 8678TIP3    H125991   4.637   4.295   0.561
 8678TIP3    H225992   4.729   4.406   0.609
 8679TIP3   OH225993   2.897   3.085   3.912
 8679TIP3    H125994   2.981   3.056   3.949
 8679TIP3    H225995   2.885   3.029   3.835
 8680TIP3   OH225996   2.530   2.692   5.652
 8680TIP3    H125997   2.558   2.738   5.573
 8680TIP3    H225998   2.442   2.726   5.669
 8681TIP3   OH225999   1.353   7.237   4.811
 8681TIP3    H126000   1.405   7.302   4.764
 8681TIP3    H226001   1.367   7.258   4.904
 8682TIP3   OH226002   7.869   3.333   2.415
 8682TIP3    H126003   7.869   3.271   2.342
 8682TIP3    H226004   7.902   3.283   2.489
 8683TIP3   OH226005   1.222   4.167   1.794
 8683TIP3    H126006   1.258   4.221   1.864
 8683TIP3    H226007   1.128   4.186   1.795
 8684TIP3   OH226008   1.463   2.791   3.928
 8684TIP3    H126009   1.538   2.847   3.907
 8684TIP3    H226010   1.397   2.814   3.863
 8685TIP3   OH226011   2.557   6.483   5.739
 8685TIP3    H126012   2.585   6.499   5.829
 8685TIP3    H226013   2.462   6.476   5.744
 8686TIP3   OH226014   3.135   1.707   0.456
 8686TIP3    H126015   3.137   1.680   0.364
 8686TIP3    H226016   3.056   1.666   0.491
 8687TIP3   OH226017   8.102   5.727   2.542
 8687TIP3    H126018   8.178   5.750   2.596
 8687TIP3    H226019   8.026   5.743   2.598
 8688TIP3   OH226020   5.670   4.442   0.856
 8688TIP3    H126021   5.720   4.360   0.861
 8688TIP3    H226022   5.667   4.474   0.946
 8689TIP3   OH226023   2.397   2.013   0.110
 8689TIP3    H126024   2.434   2.077   0.171
 8689TIP3    H226025   2.394   1.932   0.160
 8690TIP3   OH226026   4.279   7.213   1.838
 8690TIP3    H126027   4.320   7.296   1.812
 8690TIP3    H226028   4.218   7.194   1.767
 8691TIP3   OH226029   6.119   0.185   1.475
 8691TIP3    H126030   6.157   0.196   1.388
 8691TIP3    H226031   6.083   0.272   1.496
 8692TIP3   OH226032   3.683   0.388   1.203
 8692TIP3    H126033   3.773   0.390   1.236
 8692TIP3    H226034   3.686   0.433   1.119
 8693TIP3   OH226035   6.011   6.419   4.866
 8693TIP3    H126036   5.968   6.369   4.935
 8693TIP3    H226037   6.077   6.359   4.830
 8694TIP3   OH226038   2.713   6.407   0.332
 8694TIP3    H126039   2.803   6.434   0.315
 8694TIP3    H226040   2.660   6.468   0.282
 8695TIP3   OH226041   7.566   1.448   3.557
 8695TIP3    H126042   7.568   1.368   3.610
 8695TIP3    H226043   7.627   1.507   3.600
 8696TIP3   OH226044   0.689   0.424   0.171
 8696TIP3    H126045   0.625   0.372   0.123
 8696TIP3    H226046   0.638   0.490   0.217
 8697TIP3   OH226047   1.440   4.922   2.039
 8697TIP3    H126048   1.360   4.872   2.020
 8697TIP3    H226049   1.428   5.004   1.992
 8698TIP3   OH226050   2.875   3.732   1.563
 8698TIP3    H126051   2.857   3.745   1.470
 8698TIP3    H226052   2.792   3.702   1.599
 8699TIP3   OH226053   1.129  -0.002   0.134
 8699TIP3    H126054   1.039  -0.030   0.150
 8699TIP3    H226055   1.121   0.087   0.099
 8700TIP3   OH226056   4.295   6.281   6.045
 8700TIP3    H126057   4.334   6.296   6.130
 8700TIP3    H226058   4.327   6.195   6.018
 8701TIP3   OH226059   2.034   0.151   0.066
 8701TIP3    H126060   2.114   0.105   0.041
 8701TIP3    H226061   2.050   0.181   0.155
 8702TIP3   OH226062   2.343   6.910   3.606
 8702TIP3    H126063   2.260   6.930   3.563
 8702TIP3    H226064   2.364   6.990   3.655
 8703TIP3   OH226065   3.169   2.396   3.356
 8703TIP3    H126066   3.250   2.347   3.370
 8703TIP3    H226067   3.151   2.386   3.263
 8704TIP3   OH226068   1.052   3.204   3.908
 8704TIP3    H126069   1.087   3.126   3.953
 8704TIP3    H226070   0.957   3.192   3.911
 8705TIP3   OH226071   7.206   7.450   5.269
 8705TIP3    H126072   7.257   7.519   5.227
 8705TIP3    H226073   7.117   7.462   5.236
 8706TIP3   OH226074   3.934   2.348   5.565
 8706TIP3    H126075   3.935   2.434   5.606
 8706TIP3    H226076   3.900   2.290   5.633
 8707TIP3   OH226077   5.891   7.336   1.973
 8707TIP3    H126078   5.863   7.245   1.963
 8707TIP3    H226079   5.820   7.377   2.023
 8708TIP3   OH226080   7.942   2.226   0.228
 8708TIP3    H126081   7.909   2.307   0.190
 8708TIP3    H226082   7.886   2.158   0.190
 8709TIP3   OH226083   5.931   2.996   1.688
 8709TIP3    H126084   6.016   2.978   1.647
 8709TIP3    H226085   5.871   3.008   1.614
 8710TIP3   OH226086   3.302   7.041   3.902
 8710TIP3    H126087   3.362   7.115   3.898
 8710TIP3    H226088   3.236   7.067   3.966
 8711TIP3   OH226089   3.499   1.476   1.498
 8711TIP3    H126090   3.594   1.485   1.500
 8711TIP3    H226091   3.480   1.402   1.556
 8712TIP3   OH226092   6.422   0.248   4.254
 8712TIP3    H126093   6.421   0.283   4.343
 8712TIP3    H226094   6.337   0.204   4.245
 8713TIP3   OH226095   7.693   7.580   4.563
 8713TIP3    H126096   7.774   7.533   4.541
 8713TIP3    H226097   7.627   7.512   4.573
 8714TIP3   OH226098   0.964   6.056   6.591
 8714TIP3    H126099   0.999   6.086   6.676
 8714TIP3    H226100   0.972   6.133   6.534
 8715TIP3   OH226101   5.919   5.526   0.294
 8715TIP3    H126102   6.012   5.552   0.296
 8715TIP3    H226103   5.899   5.519   0.200
 8716TIP3   OH226104   0.945   0.911   5.491
 8716TIP3    H126105   0.956   0.822   5.525
 8716TIP3    H226106   0.875   0.903   5.427
 8717TIP3   OH226107   1.423   4.381   1.892
 8717TIP3    H126108   1.447   4.298   1.935
 8717TIP3    H226109   1.498   4.401   1.836
 8718TIP3   OH226110   4.706   1.282   1.317
 8718TIP3    H126111   4.633   1.340   1.297
 8718TIP3    H226112   4.675   1.195   1.290
 8719TIP3   OH226113   4.961   4.534   2.622
 8719TIP3    H126114   4.973   4.628   2.638
 8719TIP3    H226115   4.952   4.527   2.527
 8720TIP3   OH226116   3.466   0.590   0.681
 8720TIP3    H126117   3.456   0.506   0.726
 8720TIP3    H226118   3.496   0.650   0.749
 8721TIP3   OH226119   7.250   2.729   6.384
 8721TIP3    H126120   7.317   2.665   6.360
 8721TIP3    H226121   7.170   2.677   6.394
 8722TIP3   OH226122   2.828   1.090   1.203
 8722TIP3    H126123   2.788   1.163   1.251
 8722TIP3    H226124   2.820   1.114   1.111
 8723TIP3   OH226125   6.372   4.689   1.221
 8723TIP3    H126126   6.298   4.701   1.281
 8723TIP3    H226127   6.343   4.621   1.161
 8724TIP3   OH226128   6.942   6.273   5.850
 8724TIP3    H126129   6.975   6.357   5.880
 8724TIP3    H226130   6.846   6.283   5.851
 8725TIP3   OH226131   7.301   2.969   3.275
 8725TIP3    H126132   7.210   2.950   3.300
 8725TIP3    H226133   7.351   2.954   3.355
 8726TIP3   OH226134   5.761   5.540   4.143
 8726TIP3    H126135   5.755   5.610   4.078
 8726TIP3    H226136   5.854   5.533   4.162
 8727TIP3   OH226137   5.426   2.549   1.406
 8727TIP3    H126138   5.368   2.597   1.465
 8727TIP3    H226139   5.396   2.572   1.318
 8728TIP3   OH226140   5.304   1.782   4.984
 8728TIP3    H126141   5.289   1.788   5.079
 8728TIP3    H226142   5.352   1.700   4.973
 8729TIP3   OH226143   1.917   1.943   2.581
 8729TIP3    H126144   1.852   2.011   2.600
 8729TIP3    H226145   1.866   1.871   2.544
 8730TIP3   OH226146   2.192   3.348   6.417
 8730TIP3    H126147   2.116   3.318   6.368
 8730TIP3    H226148   2.179   3.314   6.505
 8731TIP3   OH226149   5.205   4.191   4.984
 8731TIP3    H126150   5.210   4.107   5.028
 8731TIP3    H226151   5.117   4.223   5.002
 8732TIP3   OH226152   5.217   5.399   4.824
 8732TIP3    H126153   5.201   5.457   4.749
 8732TIP3    H226154   5.311   5.402   4.837
 8733TIP3   OH226155   2.214   6.688   0.849
 8733TIP3    H126156   2.217   6.658   0.759
 8733TIP3    H226157   2.165   6.770   0.845
 8734TIP3   OH226158   7.375   7.141   4.339
 8734TIP3    H126159   7.461   7.175   4.361
 8734TIP3    H226160   7.339   7.206   4.278
 8735TIP3   OH226161   2.649   2.264   3.714
 8735TIP3    H126162   2.722   2.245   3.654
 8735TIP3    H226163   2.618   2.177   3.741
 8736TIP3   OH226164  -0.001   0.681   5.610
 8736TIP3    H126165   0.085   0.718   5.591
 8736TIP3    H226166  -0.023   0.713   5.697
 8737TIP3   OH226167   7.547   0.661   0.305
 8737TIP3    H126168   7.589   0.619   0.380
 8737TIP3    H226169   7.459   0.623   0.302
 8738TIP3   OH226170   7.800   3.754   3.559
 8738TIP3    H126171   7.894   3.739   3.546
 8738TIP3    H226172   7.793   3.847   3.577
 8739TIP3   OH226173   4.605   6.811   3.587
 8739TIP3    H126174   4.541   6.829   3.519
 8739TIP3    H226175   4.646   6.895   3.605
 8740TIP3   OH226176   2.441   0.923   2.273
 8740TIP3    H126177   2.516   0.954   2.224
 8740TIP3    H226178   2.475   0.849   2.325
 8741TIP3   OH226179   3.787   4.356   1.858
 8741TIP3    H126180   3.745   4.271   1.848
 8741TIP3    H226181   3.877   4.342   1.830
 8742TIP3   OH226182   5.681   5.461   5.925
 8742TIP3    H126183   5.642   5.389   5.974
 8742TIP3    H226184   5.653   5.447   5.835
 8743TIP3   OH226185   8.303   3.949   1.731
 8743TIP3    H126186   8.287   4.018   1.666
 8743TIP3    H226187   8.217   3.914   1.750
 8744TIP3   OH226188   7.847   4.299   1.112
 8744TIP3    H126189   7.937   4.289   1.080
 8744TIP3    H226190   7.836   4.394   1.123
 8745TIP3   OH226191   7.494   1.532   1.892
 8745TIP3    H126192   7.474   1.544   1.799
 8745TIP3    H226193   7.452   1.450   1.915
 8746TIP3   OH226194   0.621   1.628   3.120
 8746TIP3    H126195   0.559   1.701   3.120
 8746TIP3    H226196   0.629   1.603   3.212
 8747TIP3   OH226197   4.298   6.052   4.324
 8747TIP3    H126198   4.325   5.987   4.259
 8747TIP3    H226199   4.203   6.056   4.316
 8748TIP3   OH226200   2.885   1.659   0.554
 8748TIP3    H126201   2.833   1.580   0.568
 8748TIP3    H226202   2.820   1.730   0.551
 8749TIP3   OH226203   7.840   0.673   3.852
 8749TIP3    H126204   7.798   0.739   3.907
 8749TIP3    H226205   7.929   0.707   3.839
 8750TIP3   OH226206   4.605   4.846   6.068
 8750TIP3    H126207   4.570   4.912   6.008
 8750TIP3    H226208   4.585   4.762   6.025
 8751TIP3   OH226209   6.171   5.194   5.140
 8751TIP3    H126210   6.165   5.113   5.191
 8751TIP3    H226211   6.234   5.248   5.188
 8752TIP3   OH226212   6.071   2.467   4.012
 8752TIP3    H126213   6.108   2.391   4.057
 8752TIP3    H226214   6.048   2.436   3.925
 8753TIP3   OH226215   0.971   4.136   3.102
 8753TIP3    H126216   0.984   4.231   3.109
 8753TIP3    H226217   0.979   4.104   3.191
 8754TIP3   OH226218   5.288   1.245   2.572
 8754TIP3    H126219   5.305   1.211   2.660
 8754TIP3    H226220   5.373   1.275   2.541
 8755TIP3   OH226221   5.802   2.092   2.359
 8755TIP3    H126222   5.838   2.179   2.344
 8755TIP3    H226223   5.857   2.054   2.427
 8756TIP3   OH226224   4.617   0.025   5.898
 8756TIP3    H126225   4.661   0.043   5.814
 8756TIP3    H226226   4.594   0.111   5.932
 8757TIP3   OH226227   4.974   6.226   0.442
 8757TIP3    H126228   5.040   6.291   0.416
 8757TIP3    H226229   4.896   6.277   0.458
 8758TIP3   OH226230   0.770   3.665   0.767
 8758TIP3    H126231   0.676   3.647   0.779
 8758TIP3    H226232   0.797   3.604   0.698
 8759TIP3   OH226233   0.987   7.144   2.257
 8759TIP3    H126234   1.071   7.100   2.270
 8759TIP3    H226235   1.005   7.237   2.276
 8760TIP3   OH226236   2.751   4.140   3.064
 8760TIP3    H126237   2.659   4.165   3.059
 8760TIP3    H226238   2.751   4.046   3.046
 8761TIP3   OH226239   2.039  -0.003   6.189
 8761TIP3    H126240   1.986   0.075   6.200
 8761TIP3    H226241   2.070   0.001   6.098
 8762TIP3   OH226242   7.620   1.920   0.497
 8762TIP3    H126243   7.577   1.870   0.566
 8762TIP3    H226244   7.691   1.967   0.541
 8763TIP3   OH226245   0.349   7.576   0.299
 8763TIP3    H126246   0.382   7.543   0.215
 8763TIP3    H226247   0.291   7.647   0.276
 8764TIP3   OH226248   1.760   6.573   0.555
 8764TIP3    H126249   1.787   6.593   0.465
 8764TIP3    H226250   1.665   6.589   0.555
 8765TIP3   OH226251   1.718   4.322   4.123
 8765TIP3    H126252   1.713   4.414   4.149
 8765TIP3    H226253   1.744   4.276   4.204
 8766TIP3   OH226254   0.002   5.163   1.880
 8766TIP3    H126255   0.072   5.223   1.856
 8766TIP3    H226256   0.047   5.086   1.914
 8767TIP3   OH226257   1.089   6.380   3.439
 8767TIP3    H126258   1.128   6.341   3.360
 8767TIP3    H226259   0.999   6.397   3.415
 8768TIP3   OH226260   4.524   3.501   3.365
 8768TIP3    H126261   4.466   3.552   3.422
 8768TIP3    H226262   4.486   3.513   3.277
 8769TIP3   OH226263   8.124   4.075   4.172
 8769TIP3    H126264   8.050   4.015   4.172
 8769TIP3    H226265   8.093   4.152   4.221
 8770TIP3   OH226266   6.961   0.902   6.629
 8770TIP3    H126267   7.056   0.898   6.619
 8770TIP3    H226268   6.928   0.904   6.539
 8771TIP3   OH226269   3.117   7.699   0.354
 8771TIP3    H126270   3.188   7.756   0.385
 8771TIP3    H226271   3.150   7.663   0.271
 8772TIP3   OH226272   4.435   1.106   6.425
 8772TIP3    H126273   4.515   1.058   6.448
 8772TIP3    H226274   4.466   1.192   6.399
 8773TIP3   OH226275   0.086   4.940   2.961
 8773TIP3    H126276   0.080   4.851   2.928
 8773TIP3    H226277   0.063   4.995   2.886
 8774TIP3   OH226278   1.633   6.300   2.177
 8774TIP3    H126279   1.702   6.365   2.186
 8774TIP3    H226280   1.638   6.250   2.259
 8775TIP3   OH226281   6.232   6.649   0.998
 8775TIP3    H126282   6.169   6.588   0.959
 8775TIP3    H226283   6.177   6.717   1.037
 8776TIP3   OH226284   3.003   0.544   2.108
 8776TIP3    H126285   3.032   0.588   2.028
 8776TIP3    H226286   3.072   0.562   2.172
 8777TIP3   OH226287   4.103   3.610   2.469
 8777TIP3    H126288   4.131   3.700   2.483
 8777TIP3    H226289   4.015   3.618   2.431
 8778TIP3   OH226290   4.631   7.775   5.570
 8778TIP3    H126291   4.720   7.753   5.599
 8778TIP3    H226292   4.624   7.869   5.585
 8779TIP3   OH226293   6.190   6.172   1.832
 8779TIP3    H126294   6.255   6.186   1.763
 8779TIP3    H226295   6.195   6.252   1.885
 8780TIP3   OH226296   3.204   3.765   6.760
 8780TIP3    H126297   3.139   3.696   6.747
 8780TIP3    H226298   3.285   3.729   6.725
 8781TIP3   OH226299   4.726   0.888   0.708
 8781TIP3    H126300   4.692   0.801   0.730
 8781TIP3    H226301   4.664   0.923   0.645
 8782TIP3   OH226302   0.646   0.311   4.076
 8782TIP3    H126303   0.569   0.362   4.051
 8782TIP3    H226304   0.714   0.377   4.091
 8783TIP3   OH226305   0.414   2.072   3.705
 8783TIP3    H126306   0.345   2.084   3.771
 8783TIP3    H226307   0.492   2.050   3.756
 8784TIP3   OH226308   5.772   5.704   5.989
 8784TIP3    H126309   5.748   5.616   5.958
 8784TIP3    H226310   5.843   5.688   6.052
 8785TIP3   OH226311   3.202   4.478   6.123
 8785TIP3    H126312   3.294   4.492   6.146
 8785TIP3    H226313   3.162   4.446   6.204
 8786TIP3   OH226314   8.021   3.657   4.303
 8786TIP3    H126315   7.994   3.732   4.250
 8786TIP3    H226316   8.034   3.693   4.391
 8787TIP3   OH226317   3.489   1.173   6.580
 8787TIP3    H126318   3.573   1.141   6.613
 8787TIP3    H226319   3.435   1.094   6.572
 8788TIP3   OH226320   5.006   1.862   0.460
 8788TIP3    H126321   4.935   1.821   0.510
 8788TIP3    H226322   4.967   1.883   0.375
 8789TIP3   OH226323   4.498   7.377   5.772
 8789TIP3    H126324   4.450   7.331   5.703
 8789TIP3    H226325   4.510   7.466   5.737
 8790TIP3   OH226326   6.866   1.418   2.551
 8790TIP3    H126327   6.837   1.342   2.500
 8790TIP3    H226328   6.960   1.423   2.533
 8791TIP3   OH226329   7.142   4.136   4.029
 8791TIP3    H126330   7.053   4.112   4.052
 8791TIP3    H226331   7.187   4.145   4.113
 8792TIP3   OH226332   5.445   0.218   4.901
 8792TIP3    H126333   5.462   0.259   4.816
 8792TIP3    H226334   5.375   0.155   4.883
 8793TIP3   OH226335   0.774   5.903   4.178
 8793TIP3    H126336   0.790   5.835   4.113
 8793TIP3    H226337   0.692   5.944   4.150
 8794TIP3   OH226338   1.385   4.916   1.292
 8794TIP3    H126339   1.395   4.928   1.386
 8794TIP3    H226340   1.342   4.997   1.263
 8795TIP3   OH226341   0.142   2.050   4.642
 8795TIP3    H126342   0.088   2.082   4.715
 8795TIP3    H226343   0.097   1.972   4.611
 8796TIP3   OH226344   2.731   6.736   3.658
 8796TIP3    H126345   2.732   6.661   3.598
 8796TIP3    H226346   2.698   6.701   3.740
 8797TIP3   OH226347   2.868   0.563   4.253
 8797TIP3    H126348   2.853   0.481   4.301
 8797TIP3    H226349   2.930   0.611   4.307
 8798TIP3   OH226350   0.582   5.879   6.655
 8798TIP3    H126351   0.516   5.850   6.718
 8798TIP3    H226352   0.553   5.967   6.629
 8799TIP3   OH226353   7.568   6.817   3.813
 8799TIP3    H126354   7.618   6.813   3.731
 8799TIP3    H226355   7.514   6.738   3.812
 8800TIP3   OH226356   0.028   0.805   3.071
 8800TIP3    H126357   0.000   0.852   2.992
 8800TIP3    H226358   0.060   0.721   3.039
 8801TIP3   OH226359   7.360   1.712   3.502
 8801TIP3    H126360   7.345   1.709   3.408
 8801TIP3    H226361   7.273   1.720   3.541
 8802TIP3   OH226362   7.671   6.060   0.336
 8802TIP3    H126363   7.647   6.153   0.339
 8802TIP3    H226364   7.706   6.041   0.423
 8803TIP3   OH226365   1.515   6.939   6.101
 8803TIP3    H126366   1.446   6.921   6.165
 8803TIP3    H226367   1.468   6.967   6.023
 8804TIP3   OH226368   7.648   4.025   5.569
 8804TIP3    H126369   7.729   4.072   5.549
 8804TIP3    H226370   7.661   3.938   5.532
 8805TIP3   OH226371   3.974   6.359   0.248
 8805TIP3    H126372   3.965   6.302   0.172
 8805TIP3    H226373   4.038   6.425   0.221
 8806TIP3   OH226374   8.134   1.857   2.212
 8806TIP3    H126375   8.168   1.946   2.223
 8806TIP3    H226376   8.039   1.869   2.204
 8807TIP3   OH226377   1.668   7.406   4.208
 8807TIP3    H126378   1.732   7.412   4.278
 8807TIP3    H226379   1.594   7.459   4.238
 8808TIP3   OH226380   4.502   0.367   1.938
 8808TIP3    H126381   4.421   0.316   1.945
 8808TIP3    H226382   4.474   0.457   1.953
 8809TIP3   OH226383   3.608   4.468   3.473
 8809TIP3    H126384   3.542   4.456   3.405
 8809TIP3    H226385   3.576   4.417   3.547
 8810TIP3   OH226386   3.182   7.519   6.570
 8810TIP3    H126387   3.121   7.592   6.560
 8810TIP3    H226388   3.257   7.542   6.514
 8811TIP3   OH226389   2.453   5.758   1.987
 8811TIP3    H126390   2.496   5.824   1.934
 8811TIP3    H226391   2.525   5.710   2.029
 8812TIP3   OH226392   7.054   6.975   6.238
 8812TIP3    H126393   6.963   7.005   6.245
 8812TIP3    H226394   7.102   7.050   6.203
 8813TIP3   OH226395   6.671   0.952   4.344
 8813TIP3    H126396   6.703   0.917   4.427
 8813TIP3    H226397   6.612   1.023   4.369
 8814TIP3   OH226398   7.045   2.343   3.247
 8814TIP3    H126399   7.058   2.411   3.181
 8814TIP3    H226400   7.064   2.261   3.202
 8815TIP3   OH226401   1.305   4.285   0.285
 8815TIP3    H126402   1.332   4.336   0.209
 8815TIP3    H226403   1.214   4.311   0.301
 8816TIP3   OH226404   4.096   5.295   2.165
 8816TIP3    H126405   4.022   5.243   2.134
 8816TIP3    H226406   4.172   5.238   2.154
 8817TIP3   OH226407   1.006   7.656   0.128
 8817TIP3    H126408   1.087   7.634   0.175
 8817TIP3    H226409   0.936   7.616   0.180
 8818TIP3   OH226410   2.366   4.963   5.507
 8818TIP3    H126411   2.372   4.875   5.472
 8818TIP3    H226412   2.292   5.003   5.460
 8819TIP3   OH226413   3.190   3.283   0.547
 8819TIP3    H126414   3.182   3.372   0.581
 8819TIP3    H226415   3.106   3.242   0.566
 8820TIP3   OH226416   5.377   2.024   6.321
 8820TIP3    H126417   5.299   2.053   6.274
 8820TIP3    H226418   5.360   1.932   6.341
 8821TIP3   OH226419   3.417   6.799   3.983
 8821TIP3    H126420   3.371   6.883   3.987
 8821TIP3    H226421   3.500   6.815   4.029
 8822TIP3   OH226422   1.021   1.403   5.585
 8822TIP3    H126423   1.068   1.485   5.595
 8822TIP3    H226424   1.000   1.399   5.491
 8823TIP3   OH226425   3.025   5.291   6.652
 8823TIP3    H126426   3.076   5.268   6.574
 8823TIP3    H226427   3.090   5.319   6.716
 8824TIP3   OH226428   5.815   3.957   2.130
 8824TIP3    H126429   5.886   3.906   2.171
 8824TIP3    H226430   5.787   4.017   2.198
 8825TIP3   OH226431   5.406   5.092   3.818
 8825TIP3    H126432   5.349   5.023   3.783
 8825TIP3    H226433   5.417   5.070   3.911
 8826TIP3   OH226434   2.727   1.807   3.100
 8826TIP3    H126435   2.787   1.733   3.100
 8826TIP3    H226436   2.761   1.866   3.032
 8827TIP3   OH226437   1.072   6.759   1.144
 8827TIP3    H126438   1.036   6.799   1.065
 8827TIP3    H226439   1.016   6.793   1.214
 8828TIP3   OH226440   4.669   7.534   3.647
 8828TIP3    H126441   4.643   7.614   3.692
 8828TIP3    H226442   4.763   7.526   3.663
 8829TIP3   OH226443   8.191   6.958   1.264
 8829TIP3    H126444   8.201   6.877   1.214
 8829TIP3    H226445   8.205   7.027   1.200
 8830TIP3   OH226446   4.178   4.097   2.116
 8830TIP3    H126447   4.232   4.102   2.037
 8830TIP3    H226448   4.148   4.186   2.130
 8831TIP3   OH226449   6.502   4.339   4.700
 8831TIP3    H126450   6.445   4.403   4.742
 8831TIP3    H226451   6.494   4.260   4.754
 8832TIP3   OH226452   7.659   5.300   4.311
 8832TIP3    H126453   7.584   5.246   4.287
 8832TIP3    H226454   7.664   5.367   4.242
 8833TIP3   OH226455   7.644   4.334   3.089
 8833TIP3    H126456   7.717   4.386   3.121
 8833TIP3    H226457   7.615   4.283   3.164
 8834TIP3   OH226458   4.426   6.755   4.674
 8834TIP3    H126459   4.424   6.747   4.579
 8834TIP3    H226460   4.335   6.740   4.701
 8835TIP3   OH226461   4.509   1.872   6.303
 8835TIP3    H126462   4.502   1.965   6.324
 8835TIP3    H226463   4.494   1.827   6.386
 8836TIP3   OH226464   2.687   2.613   6.654
 8836TIP3    H126465   2.698   2.704   6.627
 8836TIP3    H226466   2.774   2.574   6.642
 8837TIP3   OH226467   1.973   6.322   6.084
 8837TIP3    H126468   1.921   6.371   6.148
 8837TIP3    H226469   1.973   6.232   6.116
 8838TIP3   OH226470   6.778   6.384   3.934
 8838TIP3    H126471   6.764   6.473   3.902
 8838TIP3    H226472   6.832   6.342   3.868
 8839TIP3   OH226473   2.894   2.718   4.036
 8839TIP3    H126474   2.833   2.716   3.962
 8839TIP3    H226475   2.980   2.726   3.995
 8840TIP3   OH226476   1.404   0.314   6.076
 8840TIP3    H126477   1.333   0.291   6.137
 8840TIP3    H226478   1.372   0.392   6.030
 8841TIP3   OH226479   5.815   1.086   3.912
 8841TIP3    H126480   5.803   1.051   3.824
 8841TIP3    H226481   5.897   1.048   3.942
 8842TIP3   OH226482   5.118   6.697   1.707
 8842TIP3    H126483   5.118   6.653   1.622
 8842TIP3    H226484   5.087   6.631   1.769
 8843TIP3   OH226485   0.715   6.034   0.481
 8843TIP3    H126486   0.652   6.093   0.440
 8843TIP3    H226487   0.799   6.080   0.474
 8844TIP3   OH226488   6.227   4.988   5.523
 8844TIP3    H126489   6.155   5.036   5.563
 8844TIP3    H226490   6.194   4.962   5.437
 8845TIP3   OH226491   4.945   3.561   0.959
 8845TIP3    H126492   4.978   3.617   0.889
 8845TIP3    H226493   4.870   3.516   0.920
 8846TIP3   OH226494   5.564   3.958   6.083
 8846TIP3    H126495   5.625   3.950   6.009
 8846TIP3    H226496   5.585   4.043   6.122
 8847TIP3   OH226497   1.250   4.854   4.651
 8847TIP3    H126498   1.290   4.815   4.573
 8847TIP3    H226499   1.211   4.780   4.697
 8848TIP3   OH226500   2.995   2.684   3.675
 8848TIP3    H126501   3.000   2.593   3.647
 8848TIP3    H226502   3.080   2.702   3.716
 8849TIP3   OH226503   6.475   7.325   0.794
 8849TIP3    H126504   6.490   7.415   0.823
 8849TIP3    H226505   6.559   7.297   0.757
 8850TIP3   OH226506   2.032   3.576   2.079
 8850TIP3    H126507   1.973   3.518   2.032
 8850TIP3    H226508   2.114   3.527   2.085
 8851TIP3   OH226509   4.781   0.791   1.928
 8851TIP3    H126510   4.829   0.835   1.857
 8851TIP3    H226511   4.740   0.863   1.977
 8852TIP3   OH226512   5.133   2.809   0.042
 8852TIP3    H126513   5.203   2.751   0.012
 8852TIP3    H226514   5.178   2.889   0.069
 8853TIP3   OH226515   0.305   0.119   5.112
 8853TIP3    H126516   0.268   0.066   5.041
 8853TIP3    H226517   0.235   0.182   5.134
 8854TIP3   OH226518   6.527   5.607   2.706
 8854TIP3    H126519   6.484   5.586   2.623
 8854TIP3    H226520   6.565   5.525   2.735
 8855TIP3   OH226521   7.944   5.845   3.827
 8855TIP3    H126522   7.943   5.853   3.922
 8855TIP3    H226523   7.975   5.930   3.796
 8856TIP3   OH226524   2.107   1.608   4.379
 8856TIP3    H126525   2.040   1.613   4.448
 8856TIP3    H226526   2.149   1.693   4.381
 8857TIP3   OH226527   3.139   4.694   0.102
 8857TIP3    H126528   3.192   4.773   0.110
 8857TIP3    H226529   3.113   4.674   0.192
 8858TIP3   OH226530   8.037   0.213   2.921
 8858TIP3    H126531   7.968   0.221   2.987
 8858TIP3    H226532   8.116   0.241   2.967
 8859TIP3   OH226533   1.256   6.342   3.667
 8859TIP3    H126534   1.216   6.360   3.582
 8859TIP3    H226535   1.234   6.418   3.721
 8860TIP3   OH226536   0.793   6.827   3.417
 8860TIP3    H126537   0.767   6.741   3.383
 8860TIP3    H226538   0.748   6.890   3.361
 8861TIP3   OH226539   1.638   1.023   4.486
 8861TIP3    H126540   1.685   0.947   4.451
 8861TIP3    H226541   1.648   1.089   4.418
 8862TIP3   OH226542   0.788   6.062   1.537
 8862TIP3    H126543   0.836   6.007   1.477
 8862TIP3    H226544   0.703   6.076   1.495
 8863TIP3   OH226545   2.083   6.934   0.754
 8863TIP3    H126546   1.992   6.958   0.771
 8863TIP3    H226547   2.123   7.014   0.721
 8864TIP3   OH226548   5.129   3.901   3.349
 8864TIP3    H126549   5.073   3.860   3.415
 8864TIP3    H226550   5.084   3.885   3.266
 8865TIP3   OH226551   3.788   4.148   3.303
 8865TIP3    H126552   3.780   4.233   3.261
 8865TIP3    H226553   3.882   4.140   3.322
 8866TIP3   OH226554   6.430   1.546   2.698
 8866TIP3    H126555   6.473   1.543   2.784
 8866TIP3    H226556   6.460   1.466   2.654
 8867TIP3   OH226557   3.277   1.022   2.421
 8867TIP3    H126558   3.371   1.017   2.408
 8867TIP3    H226559   3.240   1.001   2.335
 8868TIP3   OH226560   5.353   2.247   3.001
 8868TIP3    H126561   5.264   2.270   3.029
 8868TIP3    H226562   5.373   2.167   3.050
 8869TIP3   OH226563   2.824   2.619   5.115
 8869TIP3    H126564   2.861   2.535   5.089
 8869TIP3    H226565   2.894   2.682   5.101
 8870TIP3   OH226566   7.833   3.596   3.285
 8870TIP3    H126567   7.790   3.573   3.368
 8870TIP3    H226568   7.911   3.645   3.311
 8871TIP3   OH226569   7.530   1.410   2.703
 8871TIP3    H126570   7.571   1.324   2.701
 8871TIP3    H226571   7.528   1.438   2.612
 8872TIP3   OH226572   1.012   7.581   6.336
 8872TIP3    H126573   1.014   7.609   6.245
 8872TIP3    H226574   1.009   7.663   6.386
 8873TIP3   OH226575   7.494   1.610   4.832
 8873TIP3    H126576   7.440   1.608   4.911
 8873TIP3    H226577   7.543   1.528   4.834
 8874TIP3   OH226578   4.018   7.722   0.295
 8874TIP3    H126579   4.086   7.655   0.290
 8874TIP3    H226580   4.060   7.795   0.340
 8875TIP3   OH226581   2.564   1.597   6.054
 8875TIP3    H126582   2.522   1.535   5.994
 8875TIP3    H226583   2.542   1.565   6.142
 8876TIP3   OH226584   7.853   6.545   3.390
 8876TIP3    H126585   7.765   6.510   3.405
 8876TIP3    H226586   7.867   6.536   3.296
 8877TIP3   OH226587   1.343   5.326   4.074
 8877TIP3    H126588   1.428   5.284   4.058
 8877TIP3    H226589   1.361   5.420   4.065
 8878TIP3   OH226590   7.127   3.819   6.106
 8878TIP3    H126591   7.201   3.879   6.097
 8878TIP3    H226592   7.154   3.740   6.059
 8879TIP3   OH226593   1.335   1.711   6.640
 8879TIP3    H126594   1.360   1.764   6.564
 8879TIP3    H226595   1.240   1.722   6.646
 8880TIP3   OH226596   7.318   3.665   4.855
 8880TIP3    H126597   7.352   3.724   4.922
 8880TIP3    H226598   7.375   3.588   4.861
 8881TIP3   OH226599   1.370   2.267   2.302
 8881TIP3    H126600   1.417   2.212   2.241
 8881TIP3    H226601   1.438   2.318   2.346
 8882TIP3   OH226602   2.703   4.631   6.656
 8882TIP3    H126603   2.735   4.643   6.746
 8882TIP3    H226604   2.683   4.719   6.625
 8883TIP3   OH226605   6.048   7.510   1.578
 8883TIP3    H126606   6.138   7.541   1.572
 8883TIP3    H226607   6.003   7.576   1.631
 8884TIP3   OH226608   3.316   7.499   2.789
 8884TIP3    H126609   3.385   7.508   2.855
 8884TIP3    H226610   3.363   7.483   2.707
 8885TIP3   OH226611   0.990   5.940   3.339
 8885TIP3    H126612   0.901   5.973   3.333
 8885TIP3    H226613   1.036   5.978   3.264
 8886TIP3   OH226614   3.451   5.888   1.391
 8886TIP3    H126615   3.403   5.829   1.333
 8886TIP3    H226616   3.533   5.907   1.344
 8887TIP3   OH226617   1.483   0.647   4.005
 8887TIP3    H126618   1.542   0.693   3.945
 8887TIP3    H226619   1.456   0.569   3.957
 8888TIP3   OH226620   4.688   7.793   3.378
 8888TIP3    H126621   4.640   7.719   3.414
 8888TIP3    H226622   4.650   7.870   3.420
 8889TIP3   OH226623   0.265   3.310   4.151
 8889TIP3    H126624   0.297   3.399   4.137
 8889TIP3    H226625   0.169   3.320   4.154
 8890TIP3   OH226626   2.258   3.922   6.121
 8890TIP3    H126627   2.322   3.871   6.071
 8890TIP3    H226628   2.191   3.945   6.057
 8891TIP3   OH226629   3.197   2.544   3.906
 8891TIP3    H126630   3.238   2.595   3.837
 8891TIP3    H226631   3.181   2.458   3.867
 8892TIP3   OH226632   0.775   0.573   4.130
 8892TIP3    H126633   0.753   0.622   4.209
 8892TIP3    H226634   0.871   0.569   4.130
 8893TIP3   OH226635   1.882   5.501   4.690
 8893TIP3    H126636   1.852   5.420   4.650
 8893TIP3    H226637   1.946   5.473   4.756
 8894TIP3   OH226638   0.782   5.707   2.578
 8894TIP3    H126639   0.793   5.639   2.511
 8894TIP3    H226640   0.846   5.774   2.554
 8895TIP3   OH226641   2.999   3.981   5.538
 8895TIP3    H126642   3.051   4.015   5.465
 8895TIP3    H226643   3.058   3.924   5.586
 8896TIP3   OH226644   4.048   3.355   6.179
 8896TIP3    H126645   4.136   3.344   6.216
 8896TIP3    H226646   4.036   3.450   6.175
 8897TIP3   OH226647   3.171   4.829   3.118
 8897TIP3    H126648   3.137   4.825   3.207
 8897TIP3    H226649   3.237   4.760   3.114
 8898TIP3   OH226650   0.176   2.941   0.201
 8898TIP3    H126651   0.100   2.977   0.156
 8898TIP3    H226652   0.158   2.847   0.207
 8899TIP3   OH226653   1.266   3.986   6.191
 8899TIP3    H126654   1.179   4.012   6.162
 8899TIP3    H226655   1.321   3.999   6.114
 8900TIP3   OH226656   4.145   5.451   1.252
 8900TIP3    H126657   4.076   5.386   1.264
 8900TIP3    H226658   4.098   5.534   1.238
 8901TIP3   OH226659   7.143   4.180   1.406
 8901TIP3    H126660   7.206   4.120   1.369
 8901TIP3    H226661   7.061   4.160   1.362
 8902TIP3   OH226662   5.844   7.409   2.281
 8902TIP3    H126663   5.817   7.419   2.372
 8902TIP3    H226664   5.763   7.411   2.231
 8903TIP3   OH226665   6.283   5.709   5.736
 8903TIP3    H126666   6.365   5.732   5.779
 8903TIP3    H226667   6.227   5.785   5.747
 8904TIP3   OH226668   7.278   4.982   0.347
 8904TIP3    H126669   7.195   4.941   0.370
 8904TIP3    H226670   7.321   4.919   0.288
 8905TIP3   OH226671   6.044   7.526   0.727
 8905TIP3    H126672   6.057   7.484   0.812
 8905TIP3    H226673   5.952   7.510   0.706
 8906TIP3   OH226674   4.450   5.304   4.028
 8906TIP3    H126675   4.434   5.279   4.119
 8906TIP3    H226676   4.489   5.225   3.989
 8907TIP3   OH226677   2.484   6.092   4.680
 8907TIP3    H126678   2.434   6.173   4.668
 8907TIP3    H226679   2.546   6.112   4.750
 8908TIP3   OH226680   2.077   0.357   0.334
 8908TIP3    H126681   2.171   0.348   0.320
 8908TIP3    H226682   2.065   0.342   0.428
 8909TIP3   OH226683   6.492   5.502   6.408
 8909TIP3    H126684   6.497   5.472   6.499
 8909TIP3    H226685   6.582   5.526   6.386
 8910TIP3   OH226686   1.165   3.882   2.318
 8910TIP3    H126687   1.099   3.824   2.354
 8910TIP3    H226688   1.191   3.939   2.391
 8911TIP3   OH226689   1.122   7.549   2.745
 8911TIP3    H126690   1.211   7.576   2.765
 8911TIP3    H226691   1.086   7.620   2.693
 8912TIP3   OH226692   2.394   7.398   2.571
 8912TIP3    H126693   2.360   7.320   2.614
 8912TIP3    H226694   2.433   7.365   2.490
 8913TIP3   OH226695   5.697   1.016   1.281
 8913TIP3    H126696   5.672   1.102   1.314
 8913TIP3    H226697   5.693   0.959   1.358
 8914TIP3   OH226698   0.476   2.194   0.241
 8914TIP3    H126699   0.416   2.153   0.179
 8914TIP3    H226700   0.558   2.146   0.229
 8915TIP3   OH226701   1.135   0.263   0.392
 8915TIP3    H126702   1.143   0.169   0.407
 8915TIP3    H226703   1.043   0.282   0.404
 8916TIP3   OH226704   3.332   5.346   0.779
 8916TIP3    H126705   3.391   5.422   0.786
 8916TIP3    H226706   3.380   5.284   0.724
 8917TIP3   OH226707   5.167   7.760   1.411
 8917TIP3    H126708   5.217   7.797   1.484
 8917TIP3    H226709   5.076   7.786   1.428
 8918TIP3   OH226710   6.851   2.469   3.375
 8918TIP3    H126711   6.800   2.439   3.451
 8918TIP3    H226712   6.918   2.402   3.362
 8919TIP3   OH226713   2.736   3.329   2.964
 8919TIP3    H126714   2.703   3.258   3.020
 8919TIP3    H226715   2.827   3.304   2.947
 8920TIP3   OH226716   1.110   1.560   0.817
 8920TIP3    H126717   1.081   1.523   0.901
 8920TIP3    H226718   1.162   1.636   0.842
 8921TIP3   OH226719   2.821   5.468   2.999
 8921TIP3    H126720   2.822   5.386   3.047
 8921TIP3    H226721   2.913   5.496   2.999
 8922TIP3   OH226722   7.190   7.200   5.157
 8922TIP3    H126723   7.279   7.184   5.124
 8922TIP3    H226724   7.186   7.295   5.169
 8923TIP3   OH226725   7.526   5.878   2.631
 8923TIP3    H126726   7.522   5.794   2.586
 8923TIP3    H226727   7.438   5.915   2.619
 8924TIP3   OH226728   7.515   4.287   0.909
 8924TIP3    H126729   7.582   4.219   0.910
 8924TIP3    H226730   7.547   4.353   0.970
 8925TIP3   OH226731   0.480   2.713   1.653
 8925TIP3    H126732   0.509   2.779   1.715
 8925TIP3    H226733   0.432   2.649   1.705
 8926TIP3   OH226734   3.710   2.890   6.085
 8926TIP3    H126735   3.715   2.909   5.991
 8926TIP3    H226736   3.802   2.889   6.114
 8927TIP3   OH226737   2.283   1.898   3.662
 8927TIP3    H126738   2.243   1.971   3.709
 8927TIP3    H226739   2.293   1.829   3.727
 8928TIP3   OH226740   5.896   2.816   5.773
 8928TIP3    H126741   5.816   2.775   5.804
 8928TIP3    H226742   5.869   2.867   5.697
 8929TIP3   OH226743   2.480   2.966   4.914
 8929TIP3    H126744   2.458   3.034   4.851
 8929TIP3    H226745   2.396   2.936   4.947
 8930TIP3   OH226746   6.980   0.642   4.686
 8930TIP3    H126747   7.072   0.652   4.665
 8930TIP3    H226748   6.974   0.662   4.780
 8931TIP3   OH226749   7.370   1.778   0.585
 8931TIP3    H126750   7.340   1.849   0.528
 8931TIP3    H226751   7.340   1.803   0.672
 8932TIP3   OH226752   4.527   5.630   1.380
 8932TIP3    H126753   4.569   5.583   1.308
 8932TIP3    H226754   4.539   5.723   1.359
 8933TIP3   OH226755   4.740   3.700   4.585
 8933TIP3    H126756   4.721   3.609   4.608
 8933TIP3    H226757   4.818   3.695   4.529
 8934TIP3   OH226758   0.598   0.806   2.616
 8934TIP3    H126759   0.616   0.898   2.636
 8934TIP3    H226760   0.516   0.787   2.662
 8935TIP3   OH226761   8.035   6.791   4.290
 8935TIP3    H126762   8.130   6.792   4.281
 8935TIP3    H226763   8.005   6.866   4.238
 8936TIP3   OH226764   5.851   3.997   4.622
 8936TIP3    H126765   5.926   3.987   4.680
 8936TIP3    H226766   5.807   4.076   4.653
 8937TIP3   OH226767   7.106   4.736   0.737
 8937TIP3    H126768   7.138   4.823   0.713
 8937TIP3    H226769   7.176   4.676   0.710
 8938TIP3   OH226770   5.717   3.516   5.818
 8938TIP3    H126771   5.656   3.561   5.876
 8938TIP3    H226772   5.776   3.469   5.877
 8939TIP3   OH226773   0.024   2.730   3.528
 8939TIP3    H126774   0.102   2.784   3.542
 8939TIP3    H226775  -0.049   2.785   3.555
 8940TIP3   OH226776   1.019   0.562   2.421
 8940TIP3    H126777   0.942   0.608   2.453
 8940TIP3    H226778   1.093   0.613   2.454
 8941TIP3   OH226779   6.068   1.580   6.154
 8941TIP3    H126780   5.978   1.558   6.174
 8941TIP3    H226781   6.100   1.625   6.232
 8942TIP3   OH226782   4.420   5.898   5.112
 8942TIP3    H126783   4.385   5.959   5.048
 8942TIP3    H226784   4.506   5.873   5.077
 8943TIP3   OH226785   1.859   4.215   5.664
 8943TIP3    H126786   1.890   4.299   5.630
 8943TIP3    H226787   1.809   4.176   5.592
 8944TIP3   OH226788   3.654   0.032   1.343
 8944TIP3    H126789   3.703   0.022   1.261
 8944TIP3    H226790   3.587  -0.035   1.340
 8945TIP3   OH226791   7.257   3.110   5.571
 8945TIP3    H126792   7.167   3.135   5.595
 8945TIP3    H226793   7.312   3.170   5.621
 8946TIP3   OH226794   5.940   4.931   4.324
 8946TIP3    H126795   5.965   4.988   4.396
 8946TIP3    H226796   6.011   4.866   4.319
 8947TIP3   OH226797   7.242   5.288   6.416
 8947TIP3    H126798   7.207   5.219   6.360
 8947TIP3    H226799   7.319   5.249   6.456
 8948TIP3   OH226800   4.986   0.915   4.777
 8948TIP3    H126801   4.985   0.995   4.725
 8948TIP3    H226802   4.945   0.849   4.720
 8949TIP3   OH226803   4.893   3.627   5.653
 8949TIP3    H126804   4.910   3.543   5.611
 8949TIP3    H226805   4.980   3.664   5.669
 8950TIP3   OH226806   8.011   1.031   4.577
 8950TIP3    H126807   8.078   1.005   4.640
 8950TIP3    H226808   7.951   1.085   4.628
 8951TIP3   OH226809   3.397   3.974   6.660
 8951TIP3    H126810   3.343   3.894   6.659
 8951TIP3    H226811   3.483   3.945   6.632
 8952TIP3   OH226812   6.339   6.389   6.482
 8952TIP3    H126813   6.368   6.480   6.485
 8952TIP3    H226814   6.310   6.377   6.391
 8953TIP3   OH226815   2.395   3.237   0.655
 8953TIP3    H126816   2.435   3.244   0.568
 8953TIP3    H226817   2.469   3.232   0.715
 8954TIP3   OH226818   5.538   1.677   1.746
 8954TIP3    H126819   5.485   1.693   1.668
 8954TIP3    H226820   5.621   1.642   1.712
 8955TIP3   OH226821   3.710   2.655   4.423
 8955TIP3    H126822   3.764   2.661   4.344
 8955TIP3    H226823   3.768   2.614   4.488
 8956TIP3   OH226824   5.202   1.573   3.732
 8956TIP3    H126825   5.109   1.591   3.745
 8956TIP3    H226826   5.225   1.514   3.804
 8957TIP3   OH226827   7.434   5.264   1.308
 8957TIP3    H126828   7.420   5.287   1.216
 8957TIP3    H226829   7.369   5.315   1.356
 8958TIP3   OH226830   4.052   5.290   0.393
 8958TIP3    H126831   4.049   5.386   0.397
 8958TIP3    H226832   4.093   5.271   0.308
 8959TIP3   OH226833   7.691   2.292   4.799
 8959TIP3    H126834   7.631   2.322   4.730
 8959TIP3    H226835   7.769   2.346   4.789
 8960TIP3   OH226836   5.153   7.581   2.708
 8960TIP3    H126837   5.189   7.492   2.719
 8960TIP3    H226838   5.163   7.600   2.615
 8961TIP3   OH226839   5.374   7.725   3.173
 8961TIP3    H126840   5.458   7.771   3.180
 8961TIP3    H226841   5.365   7.705   3.080
 8962TIP3   OH226842   2.579   7.708   3.860
 8962TIP3    H126843   2.664   7.751   3.868
 8962TIP3    H226844   2.598   7.614   3.870
 8963TIP3   OH226845   3.865   3.653   2.313
 8963TIP3    H126846   3.818   3.729   2.347
 8963TIP3    H226847   3.798   3.584   2.308
 8964TIP3   OH226848   0.606   0.668   6.426
 8964TIP3    H126849   0.681   0.713   6.387
 8964TIP3    H226850   0.641   0.584   6.454
 8965TIP3   OH226851   4.867   4.848   6.232
 8965TIP3    H126852   4.803   4.862   6.162
 8965TIP3    H226853   4.951   4.839   6.187
 8966TIP3   OH226854   4.004   3.146   3.990
 8966TIP3    H126855   3.941   3.085   3.950
 8966TIP3    H226856   3.951   3.221   4.016
 8967TIP3   OH226857   2.899   5.803   2.981
 8967TIP3    H126858   2.851   5.817   3.062
 8967TIP3    H226859   2.952   5.882   2.970
 8968TIP3   OH226860   4.776   5.693   2.964
 8968TIP3    H126861   4.843   5.628   2.985
 8968TIP3    H226862   4.787   5.709   2.870
 8969TIP3   OH226863   4.727   6.056   6.714
 8969TIP3    H126864   4.814   6.096   6.708
 8969TIP3    H226865   4.710   6.052   6.808
 8970TIP3   OH226866   6.396   1.889   5.946
 8970TIP3    H126867   6.443   1.962   5.908
 8970TIP3    H226868   6.341   1.929   6.014
 8971TIP3   OH226869   8.049   0.353   2.650
 8971TIP3    H126870   8.140   0.329   2.637
 8971TIP3    H226871   8.030   0.325   2.740
 8972TIP3   OH226872   5.536   6.416   6.327
 8972TIP3    H126873   5.629   6.404   6.311
 8972TIP3    H226874   5.523   6.393   6.419
 8973TIP3   OH226875   7.041   4.289   4.990
 8973TIP3    H126876   6.983   4.278   4.915
 8973TIP3    H226877   7.066   4.201   5.015
 8974TIP3   OH226878   6.177   6.592   0.189
 8974TIP3    H126879   6.192   6.667   0.246
 8974TIP3    H226880   6.159   6.519   0.249
 8975TIP3   OH226881   2.699   0.352   1.025
 8975TIP3    H126882   2.708   0.320   1.115
 8975TIP3    H226883   2.667   0.277   0.975
 8976TIP3   OH226884   3.694   2.583   1.527
 8976TIP3    H126885   3.684   2.643   1.453
 8976TIP3    H226886   3.754   2.629   1.586
 8977TIP3   OH226887   5.775   4.740   6.181
 8977TIP3    H126888   5.809   4.699   6.260
 8977TIP3    H226889   5.692   4.695   6.165
 8978TIP3   OH226890   5.051   2.352   3.640
 8978TIP3    H126891   5.047   2.420   3.707
 8978TIP3    H226892   4.959   2.339   3.615
 8979TIP3   OH226893   5.987   2.699   6.669
 8979TIP3    H126894   6.039   2.775   6.696
 8979TIP3    H226895   6.051   2.639   6.630
 8980TIP3   OH226896   4.716   0.611   3.887
 8980TIP3    H126897   4.799   0.656   3.869
 8980TIP3    H226898   4.651   0.660   3.836
 8981TIP3   OH226899   6.155   0.567   2.540
 8981TIP3    H126900   6.141   0.650   2.494
 8981TIP3    H226901   6.162   0.592   2.632
 8982TIP3   OH226902   3.571   6.370   3.499
 8982TIP3    H126903   3.528   6.284   3.501
 8982TIP3    H226904   3.653   6.357   3.547
 8983TIP3   OH226905   6.456   1.352   1.242
 8983TIP3    H126906   6.512   1.291   1.291
 8983TIP3    H226907   6.514   1.425   1.220
 8984TIP3   OH226908   7.316   0.977   3.456
 8984TIP3    H126909   7.344   0.968   3.547
 8984TIP3    H226910   7.398   0.985   3.406
 8985TIP3   OH226911   6.402   4.529   6.390
 8985TIP3    H126912   6.429   4.546   6.480
 8985TIP3    H226913   6.478   4.488   6.349
 8986TIP3   OH226914   6.809   5.746   4.719
 8986TIP3    H126915   6.813   5.651   4.702
 8986TIP3    H226916   6.889   5.764   4.769
 8987TIP3   OH226917   0.465   5.263   2.126
 8987TIP3    H126918   0.448   5.319   2.050
 8987TIP3    H226919   0.557   5.237   2.115
 8988TIP3   OH226920   5.134   4.883   5.974
 8988TIP3    H126921   5.184   4.822   6.029
 8988TIP3    H226922   5.161   4.970   6.003
 8989TIP3   OH226923   0.724   4.441   3.925
 8989TIP3    H126924   0.679   4.359   3.944
 8989TIP3    H226925   0.805   4.415   3.883
 8990TIP3   OH226926   3.377   2.199   3.003
 8990TIP3    H126927   3.419   2.275   2.962
 8990TIP3    H226928   3.289   2.229   3.025
 8991TIP3   OH226929   7.136   5.685   6.124
 8991TIP3    H126930   7.075   5.648   6.188
 8991TIP3    H226931   7.213   5.629   6.129
 8992TIP3   OH226932   5.768   4.055   2.425
 8992TIP3    H126933   5.790   3.992   2.494
 8992TIP3    H226934   5.824   4.130   2.443
 8993TIP3   OH226935   7.540   0.669   4.449
 8993TIP3    H126936   7.601   0.732   4.412
 8993TIP3    H226937   7.461   0.677   4.395
 8994TIP3   OH226938   5.991   7.403   3.033
 8994TIP3    H126939   6.060   7.396   2.967
 8994TIP3    H226940   6.037   7.419   3.115
 8995TIP3   OH226941   7.319   2.739   1.996
 8995TIP3    H126942   7.341   2.796   2.069
 8995TIP3    H226943   7.233   2.703   2.018
 8996TIP3   OH226944   6.580   4.425   5.567
 8996TIP3    H126945   6.533   4.346   5.538
 8996TIP3    H226946   6.541   4.496   5.516
 8997TIP3   OH226947   7.516   5.206   6.512
 8997TIP3    H126948   7.549   5.182   6.425
 8997TIP3    H226949   7.505   5.122   6.557
 8998TIP3   OH226950   4.994   1.062   2.189
 8998TIP3    H126951   4.983   0.973   2.223
 8998TIP3    H226952   4.973   1.119   2.263
 8999TIP3   OH226953   3.377   1.108   3.971
 8999TIP3    H126954   3.429   1.112   4.051
 8999TIP3    H226955   3.431   1.061   3.909
 9000TIP3   OH226956   4.034   2.743   3.350
 9000TIP3    H126957   4.059   2.827   3.313
 9000TIP3    H226958   4.092   2.679   3.309
 9001TIP3   OH226959   3.676   4.960   2.623
 9001TIP3    H126960   3.645   5.046   2.653
 9001TIP3    H226961   3.771   4.965   2.631
 9002TIP3   OH226962   2.404   5.377   3.900
 9002TIP3    H126963   2.464   5.368   3.827
 9002TIP3    H226964   2.332   5.431   3.866
 9003TIP3   OH226965   7.728   0.823   0.474
 9003TIP3    H126966   7.662   0.848   0.540
 9003TIP3    H226967   7.677   0.783   0.404
 9004TIP3   OH226968   4.459   2.374   4.939
 9004TIP3    H126969   4.390   2.421   4.986
 9004TIP3    H226970   4.521   2.349   5.008
 9005TIP3   OH226971   2.841   6.111   4.108
 9005TIP3    H126972   2.902   6.043   4.078
 9005TIP3    H226973   2.811   6.153   4.027
 9006TIP3   OH226974   5.928   2.701   1.156
 9006TIP3    H126975   5.899   2.616   1.187
 9006TIP3    H226976   6.023   2.693   1.149
 9007TIP3   OH226977   8.123   2.911   4.098
 9007TIP3    H126978   8.103   3.004   4.083
 9007TIP3    H226979   8.060   2.864   4.043
 9008TIP3   OH226980   6.908   7.333   0.259
 9008TIP3    H126981   6.964   7.317   0.334
 9008TIP3    H226982   6.920   7.426   0.239
 9009TIP3   OH226983   6.564   0.248   6.413
 9009TIP3    H126984   6.519   0.318   6.461
 9009TIP3    H226985   6.527   0.253   6.324
 9010TIP3   OH226986   3.700   0.122   3.890
 9010TIP3    H126987   3.659   0.035   3.892
 9010TIP3    H226988   3.787   0.107   3.927
 9011TIP3   OH226989   7.371   5.073   0.065
 9011TIP3    H126990   7.344   5.117   0.145
 9011TIP3    H226991   7.391   4.983   0.092
 9012TIP3   OH226992   6.339   7.154   5.640
 9012TIP3    H126993   6.333   7.087   5.708
 9012TIP3    H226994   6.426   7.192   5.651
 9013TIP3   OH226995   3.383   4.736   1.833
 9013TIP3    H126996   3.334   4.656   1.813
 9013TIP3    H226997   3.396   4.733   1.928
 9014TIP3   OH226998   6.545   3.975   5.735
 9014TIP3    H126999   6.486   4.038   5.777
 9014TIP3    H227000   6.633   4.011   5.749
 9015TIP3   OH227001   4.540   1.827   4.993
 9015TIP3    H127002   4.451   1.843   5.024
 9015TIP3    H227003   4.541   1.734   4.969
 9016TIP3   OH227004   2.031   4.073   2.758
 9016TIP3    H127005   1.995   4.122   2.684
 9016TIP3    H227006   2.122   4.057   2.734
 9017TIP3   OH227007   4.442   1.894   6.574
 9017TIP3    H127008   4.452   1.824   6.639
 9017TIP3    H227009   4.500   1.964   6.605
 9018TIP3   OH227010   6.836   6.346   2.218
 9018TIP3    H127011   6.834   6.415   2.152
 9018TIP3    H227012   6.745   6.338   2.246
 9019TIP3   OH227013   5.130   1.450   3.053
 9019TIP3    H127014   5.040   1.469   3.078
 9019TIP3    H227015   5.183   1.502   3.113
 9020TIP3   OH227016   6.846   3.518   0.469
 9020TIP3    H127017   6.782   3.586   0.446
 9020TIP3    H227018   6.921   3.567   0.504
 9021TIP3   OH227019   7.392   2.678   4.506
 9021TIP3    H127020   7.371   2.600   4.454
 9021TIP3    H227021   7.314   2.733   4.498
 9022TIP3   OH227022   4.895   5.802   4.451
 9022TIP3    H127023   4.821   5.849   4.412
 9022TIP3    H227024   4.941   5.868   4.503
 9023TIP3   OH227025   4.253   2.833   5.723
 9023TIP3    H127026   4.167   2.792   5.716
 9023TIP3    H227027   4.274   2.859   5.634
 9024TIP3   OH227028   3.372   3.984   4.503
 9024TIP3    H127029   3.361   3.891   4.481
 9024TIP3    H227030   3.388   3.983   4.598
 9025TIP3   OH227031   5.673   7.579   3.261
 9025TIP3    H127032   5.659   7.573   3.167
 9025TIP3    H227033   5.759   7.620   3.270
 9026TIP3   OH227034   3.888   7.625   2.647
 9026TIP3    H127035   3.868   7.538   2.614
 9026TIP3    H227036   3.961   7.655   2.593
 9027TIP3   OH227037   7.128   5.089   2.335
 9027TIP3    H127038   7.127   4.994   2.318
 9027TIP3    H227039   7.083   5.098   2.419
 9028TIP3   OH227040   5.649   1.093   2.648
 9028TIP3    H127041   5.710   1.056   2.712
 9028TIP3    H227042   5.592   1.020   2.624
 9029TIP3   OH227043   4.176   5.180   3.318
 9029TIP3    H127044   4.243   5.215   3.377
 9029TIP3    H227045   4.178   5.239   3.242
 9030TIP3   OH227046   2.610   0.601   0.241
 9030TIP3    H127047   2.578   0.573   0.155
 9030TIP3    H227048   2.534   0.641   0.283
 9031TIP3   OH227049   7.162   3.918   2.886
 9031TIP3    H127050   7.200   3.940   2.801
 9031TIP3    H227051   7.168   3.822   2.890
 9032TIP3   OH227052   2.274   6.205   0.121
 9032TIP3    H127053   2.206   6.138   0.118
 9032TIP3    H227054   2.285   6.232   0.029
 9033TIP3   OH227055   1.097   1.261   0.136
 9033TIP3    H127056   1.087   1.239   0.043
 9033TIP3    H227057   1.011   1.294   0.162
 9034TIP3   OH227058   3.590   0.130   6.100
 9034TIP3    H127059   3.500   0.142   6.131
 9034TIP3    H227060   3.644   0.142   6.179
 9035TIP3   OH227061   2.897   3.789   6.167
 9035TIP3    H127062   2.872   3.860   6.108
 9035TIP3    H227063   2.846   3.714   6.137
 9036TIP3   OH227064   8.076   3.519   1.757
 9036TIP3    H127065   7.993   3.474   1.774
 9036TIP3    H227066   8.143   3.452   1.772
 9037TIP3   OH227067   4.601   5.440   0.259
 9037TIP3    H127068   4.578   5.447   0.352
 9037TIP3    H227069   4.675   5.500   0.248
 9038TIP3   OH227070   0.140   2.043   2.647
 9038TIP3    H127071   0.219   1.989   2.640
 9038TIP3    H227072   0.090   2.002   2.718
 9039TIP3   OH227073   6.141   6.535   1.646
 9039TIP3    H127074   6.129   6.449   1.606
 9039TIP3    H227075   6.178   6.589   1.576
 9040TIP3   OH227076   1.244   5.665   4.459
 9040TIP3    H127077   1.178   5.603   4.430
 9040TIP3    H227078   1.291   5.689   4.379
 9041TIP3   OH227079   1.096   2.315   4.643
 9041TIP3    H127080   1.019   2.270   4.605
 9041TIP3    H227081   1.151   2.243   4.675
 9042TIP3   OH227082   3.992   2.918   1.865
 9042TIP3    H127083   3.981   2.984   1.797
 9042TIP3    H227084   3.998   2.968   1.946
 9043TIP3   OH227085   2.668   1.346   5.650
 9043TIP3    H127086   2.622   1.272   5.691
 9043TIP3    H227087   2.755   1.312   5.632
 9044TIP3   OH227088   5.019   6.224   3.240
 9044TIP3    H127089   4.997   6.171   3.317
 9044TIP3    H227090   5.028   6.313   3.274
 9045TIP3   OH227091   1.617   5.096   0.078
 9045TIP3    H127092   1.681   5.167   0.065
 9045TIP3    H227093   1.541   5.124   0.027
 9046TIP3   OH227094   4.544   0.565   4.722
 9046TIP3    H127095   4.493   0.631   4.769
 9046TIP3    H227096   4.579   0.509   4.790
 9047TIP3   OH227097   6.916   1.099   4.420
 9047TIP3    H127098   6.928   1.191   4.441
 9047TIP3    H227099   6.822   1.089   4.405
 9048TIP3   OH227100   0.643   6.259   5.039
 9048TIP3    H127101   0.606   6.276   4.953
 9048TIP3    H227102   0.643   6.164   5.047
 9049TIP3   OH227103   0.418   3.487   5.843
 9049TIP3    H127104   0.354   3.530   5.900
 9049TIP3    H227105   0.485   3.554   5.829
 9050TIP3   OH227106   5.992   5.068   0.070
 9050TIP3    H127107   5.969   5.100  -0.017
 9050TIP3    H227108   5.917   5.015   0.097
 9051TIP3   OH227109   0.345   5.613   2.679
 9051TIP3    H127110   0.327   5.645   2.767
 9051TIP3    H227111   0.382   5.688   2.633
 9052TIP3   OH227112   3.741   6.777   2.971
 9052TIP3    H127113   3.747   6.772   3.066
 9052TIP3    H227114   3.704   6.692   2.945
 9053TIP3   OH227115   4.142   4.676   0.299
 9053TIP3    H127116   4.110   4.639   0.382
 9053TIP3    H227117   4.088   4.635   0.232
 9054TIP3   OH227118   3.774   7.741   1.110
 9054TIP3    H127119   3.780   7.732   1.014
 9054TIP3    H227120   3.801   7.656   1.144
 9055TIP3   OH227121   2.209   3.973   4.220
 9055TIP3    H127122   2.265   4.007   4.150
 9055TIP3    H227123   2.209   4.042   4.286
 9056TIP3   OH227124   0.841   4.565   4.739
 9056TIP3    H127125   0.876   4.502   4.803
 9056TIP3    H227126   0.911   4.629   4.729
 9057TIP3   OH227127   7.703   5.383   0.963
 9057TIP3    H127128   7.687   5.331   1.042
 9057TIP3    H227129   7.798   5.397   0.963
 9058TIP3   OH227130   7.415   4.547   2.211
 9058TIP3    H127131   7.342   4.490   2.236
 9058TIP3    H227132   7.420   4.612   2.281
 9059TIP3   OH227133   4.988   7.735   6.407
 9059TIP3    H127134   5.042   7.761   6.482
 9059TIP3    H227135   5.051   7.704   6.342
 9060TIP3   OH227136   6.441   1.785   4.586
 9060TIP3    H127137   6.402   1.856   4.637
 9060TIP3    H227138   6.393   1.707   4.614
 9061TIP3   OH227139   8.308   4.940   0.121
 9061TIP3    H127140   8.243   4.872   0.142
 9061TIP3    H227141   8.259   5.004   0.070
 9062TIP3   OH227142   6.717   3.517   5.027
 9062TIP3    H127143   6.769   3.595   5.008
 9062TIP3    H227144   6.627   3.550   5.035
 9063TIP3   OH227145   4.692   3.443   0.856
 9063TIP3    H127146   4.622   3.488   0.809
 9063TIP3    H227147   4.650   3.365   0.892
 9064TIP3   OH227148   2.308   4.749   0.843
 9064TIP3    H127149   2.235   4.811   0.839
 9064TIP3    H227150   2.269   4.667   0.873
 9065TIP3   OH227151   2.809   3.988   3.668
 9065TIP3    H127152   2.820   3.940   3.586
 9065TIP3    H227153   2.870   4.062   3.661
 9066TIP3   OH227154   4.748   3.347   4.943
 9066TIP3    H127155   4.652   3.341   4.947
 9066TIP3    H227156   4.767   3.436   4.972
 9067TIP3   OH227157   3.721   4.637   4.402
 9067TIP3    H127158   3.709   4.542   4.405
 9067TIP3    H227159   3.635   4.671   4.376
 9068TIP3   OH227160   6.593   3.624   4.674
 9068TIP3    H127161   6.551   3.540   4.657
 9068TIP3    H227162   6.526   3.675   4.719
 9069TIP3   OH227163   0.289   1.735   2.856
 9069TIP3    H127164   0.286   1.780   2.772
 9069TIP3    H227165   0.252   1.648   2.838
 9070TIP3   OH227166   6.160   4.142   5.641
 9070TIP3    H127167   6.220   4.148   5.566
 9070TIP3    H227168   6.109   4.063   5.624
 9071TIP3   OH227169   3.292   6.673   2.018
 9071TIP3    H127170   3.284   6.683   2.113
 9071TIP3    H227171   3.376   6.714   1.997
 9072TIP3   OH227172   6.643   3.529   1.975
 9072TIP3    H127173   6.664   3.498   2.063
 9072TIP3    H227174   6.640   3.625   1.984
 9073TIP3   OH227175   4.719   2.980   0.095
 9073TIP3    H127176   4.688   2.965   0.185
 9073TIP3    H227177   4.691   2.902   0.047
 9074TIP3   OH227178   2.598   0.021   1.598
 9074TIP3    H127179   2.542   0.024   1.520
 9074TIP3    H227180   2.628   0.111   1.610
 9075TIP3   OH227181   3.601   0.937   4.445
 9075TIP3    H127182   3.579   0.951   4.353
 9075TIP3    H227183   3.539   0.993   4.493
 9076TIP3   OH227184   1.570   6.474   3.345
 9076TIP3    H127185   1.558   6.521   3.427
 9076TIP3    H227186   1.572   6.381   3.369
 9077TIP3   OH227187   1.647   3.489   0.724
 9077TIP3    H127188   1.671   3.504   0.816
 9077TIP3    H227189   1.593   3.410   0.726
 9078TIP3   OH227190   5.977   5.317   1.933
 9078TIP3    H127191   6.046   5.271   1.885
 9078TIP3    H227192   6.007   5.408   1.937
 9079TIP3   OH227193   3.361   3.516   6.034
 9079TIP3    H127194   3.355   3.488   5.942
 9079TIP3    H227195   3.322   3.604   6.034
 9080TIP3   OH227196   7.773   6.771   6.503
 9080TIP3    H127197   7.757   6.708   6.573
 9080TIP3    H227198   7.737   6.853   6.537
 9081TIP3   OH227199   2.375   1.475   3.652
 9081TIP3    H127200   2.371   1.428   3.735
 9081TIP3    H227201   2.381   1.567   3.678
 9082TIP3   OH227202   2.778   3.312   2.672
 9082TIP3    H127203   2.777   3.299   2.767
 9082TIP3    H227204   2.687   3.332   2.650
 9083TIP3   OH227205   0.585   7.207   2.092
 9083TIP3    H127206   0.491   7.188   2.103
 9083TIP3    H227207   0.591   7.244   2.003
 9084TIP3   OH227208   7.589   6.535   3.130
 9084TIP3    H127209   7.569   6.537   3.037
 9084TIP3    H227210   7.515   6.578   3.172
 9085TIP3   OH227211   3.477   7.795   5.311
 9085TIP3    H127212   3.382   7.793   5.314
 9085TIP3    H227213   3.505   7.714   5.354
 9086TIP3   OH227214   0.697   6.370   5.316
 9086TIP3    H127215   0.615   6.361   5.365
 9086TIP3    H227216   0.701   6.291   5.262
 9087TIP3   OH227217   0.148   6.843   5.344
 9087TIP3    H127218   0.218   6.898   5.379
 9087TIP3    H227219   0.106   6.806   5.422
 9088TIP3   OH227220   5.585   6.725   5.366
 9088TIP3    H127221   5.639   6.647   5.372
 9088TIP3    H227222   5.500   6.693   5.336
 9089TIP3   OH227223   7.054   1.809   0.109
 9089TIP3    H127224   7.004   1.728   0.102
 9089TIP3    H227225   7.140   1.782   0.141
 9090TIP3   OH227226   6.600   2.818   4.083
 9090TIP3    H127227   6.678   2.800   4.135
 9090TIP3    H227228   6.567   2.901   4.117
 9091TIP3   OH227229   6.655   3.477   0.157
 9091TIP3    H127230   6.616   3.460   0.071
 9091TIP3    H227231   6.719   3.407   0.169
 9092TIP3   OH227232   0.761   3.986   6.374
 9092TIP3    H127233   0.840   4.034   6.398
 9092TIP3    H227234   0.785   3.937   6.296
 9093TIP3   OH227235   4.947   0.889   5.366
 9093TIP3    H127236   4.967   0.839   5.445
 9093TIP3    H227237   4.978   0.977   5.385
 9094TIP3   OH227238   0.476   4.760   2.129
 9094TIP3    H127239   0.397   4.706   2.129
 9094TIP3    H227240   0.492   4.780   2.221
 9095TIP3   OH227241   6.271   2.107   6.646
 9095TIP3    H127242   6.203   2.082   6.709
 9095TIP3    H227243   6.353   2.077   6.684
 9096TIP3   OH227244   2.914   2.205   0.461
 9096TIP3    H127245   2.964   2.131   0.427
 9096TIP3    H227246   2.934   2.206   0.554
 9097TIP3   OH227247   7.376   5.176   2.189
 9097TIP3    H127248   7.433   5.109   2.226
 9097TIP3    H227249   7.297   5.171   2.243
 9098TIP3   OH227250   2.262   7.490   4.996
 9098TIP3    H127251   2.265   7.496   5.092
 9098TIP3    H227252   2.277   7.398   4.978
 9099TIP3   OH227253   3.389   3.816   0.804
 9099TIP3    H127254   3.436   3.796   0.723
 9099TIP3    H227255   3.354   3.904   0.789
 9100TIP3   OH227256   2.341   0.834   4.077
 9100TIP3    H127257   2.385   0.858   3.995
 9100TIP3    H227258   2.367   0.744   4.092
 9101TIP3   OH227259   2.773   7.237   3.410
 9101TIP3    H127260   2.818   7.183   3.474
 9101TIP3    H227261   2.842   7.285   3.365
 9102TIP3   OH227262   7.753   4.704   4.927
 9102TIP3    H127263   7.715   4.635   4.982
 9102TIP3    H227264   7.684   4.727   4.865
 9103TIP3   OH227265   0.996   1.093   6.500
 9103TIP3    H127266   1.058   1.030   6.536
 9103TIP3    H227267   0.999   1.167   6.560
 9104TIP3   OH227268   6.805   2.777   1.993
 9104TIP3    H127269   6.779   2.866   2.016
 9104TIP3    H227270   6.874   2.755   2.056
 9105TIP3   OH227271   7.697   6.949   0.214
 9105TIP3    H127272   7.767   6.939   0.279
 9105TIP3    H227273   7.660   7.036   0.231
 9106TIP3   OH227274   3.710   5.591   3.936
 9106TIP3    H127275   3.630   5.625   3.897
 9106TIP3    H227276   3.686   5.503   3.967
 9107TIP3   OH227277   5.444   1.732   3.315
 9107TIP3    H127278   5.536   1.715   3.334
 9107TIP3    H227279   5.405   1.753   3.400
 9108TIP3   OH227280   2.624   4.696   6.061
 9108TIP3    H127281   2.672   4.647   5.994
 9108TIP3    H227282   2.647   4.653   6.144
 9109TIP3   OH227283   3.909   3.021   5.663
 9109TIP3    H127284   3.992   3.052   5.700
 9109TIP3    H227285   3.907   3.056   5.574
 9110TIP3   OH227286   7.947   2.875   3.018
 9110TIP3    H127287   7.860   2.915   3.009
 9110TIP3    H227288   7.929   2.787   3.050
 9111TIP3   OH227289   1.590   1.332   0.801
 9111TIP3    H127290   1.514   1.312   0.856
 9111TIP3    H227291   1.659   1.355   0.863
 9112TIP3   OH227292   5.558   7.422   6.475
 9112TIP3    H127293   5.592   7.493   6.529
 9112TIP3    H227294   5.636   7.375   6.445
 9113TIP3   OH227295   6.630   3.437   3.735
 9113TIP3    H127296   6.576   3.392   3.669
 9113TIP3    H227297   6.609   3.530   3.724
 9114TIP3   OH227298   0.060   1.165   1.522
 9114TIP3    H127299   0.060   1.073   1.549
 9114TIP3    H227300   0.078   1.163   1.428
 9115TIP3   OH227301   2.377   4.215   0.914
 9115TIP3    H127302   2.320   4.146   0.949
 9115TIP3    H227303   2.395   4.187   0.825
 9116TIP3   OH227304   5.813   6.372   6.347
 9116TIP3    H127305   5.896   6.357   6.392
 9116TIP3    H227306   5.790   6.286   6.309
 9117TIP3   OH227307   4.723   0.769   5.224
 9117TIP3    H127308   4.799   0.790   5.278
 9117TIP3    H227309   4.706   0.849   5.175
 9118TIP3   OH227310   3.729   6.805   1.757
 9118TIP3    H127311   3.717   6.889   1.713
 9118TIP3    H227312   3.821   6.806   1.786
 9119TIP3   OH227313   0.793   6.621   2.616
 9119TIP3    H127314   0.857   6.628   2.545
 9119TIP3    H227315   0.797   6.706   2.659
 9120TIP3   OH227316   0.518   4.589   6.096
 9120TIP3    H127317   0.469   4.583   6.178
 9120TIP3    H227318   0.609   4.604   6.123
 9121TIP3   OH227319   5.396   1.762   3.613
 9121TIP3    H127320   5.335   1.825   3.574
 9121TIP3    H227321   5.340   1.692   3.647
 9122TIP3   OH227322   2.705   7.355   0.821
 9122TIP3    H127323   2.744   7.319   0.741
 9122TIP3    H227324   2.626   7.303   0.834
 9123TIP3   OH227325   4.897   1.228   5.941
 9123TIP3    H127326   4.816   1.277   5.927
 9123TIP3    H227327   4.963   1.296   5.958
 9124TIP3   OH227328   2.419   7.062   2.555
 9124TIP3    H127329   2.407   7.008   2.476
 9124TIP3    H227330   2.340   7.046   2.607
 9125TIP3   OH227331   4.569   4.728   3.111
 9125TIP3    H127332   4.565   4.806   3.166
 9125TIP3    H227333   4.540   4.657   3.168
 9126TIP3   OH227334   5.242   4.874   3.831
 9126TIP3    H127335   5.157   4.832   3.819
 9126TIP3    H227336   5.291   4.813   3.886
 9127TIP3   OH227337   3.520   1.864   4.329
 9127TIP3    H127338   3.501   1.827   4.243
 9127TIP3    H227339   3.520   1.958   4.315
 9128TIP3   OH227340   7.106   6.545   3.583
 9128TIP3    H127341   7.171   6.558   3.652
 9128TIP3    H227342   7.126   6.459   3.547
 9129TIP3   OH227343   2.611   3.172   3.135
 9129TIP3    H127344   2.610   3.076   3.144
 9129TIP3    H227345   2.519   3.196   3.124
 9130TIP3   OH227346   2.534   3.924   5.484
 9130TIP3    H127347   2.498   3.911   5.572
 9130TIP3    H227348   2.464   3.966   5.435
 9131TIP3   OH227349   0.065   1.680   5.840
 9131TIP3    H127350   0.089   1.747   5.905
 9131TIP3    H227351   0.113   1.602   5.868
 9132TIP3   OH227352   6.014   4.572   3.230
 9132TIP3    H127353   6.100   4.530   3.231
 9132TIP3    H227354   6.024   4.649   3.286
 9133TIP3   OH227355   5.965   6.189   3.322
 9133TIP3    H127356   5.886   6.176   3.373
 9133TIP3    H227357   5.974   6.109   3.271
 9134TIP3   OH227358   2.364   3.496   5.923
 9134TIP3    H127359   2.407   3.570   5.879
 9134TIP3    H227360   2.304   3.462   5.857
 9135TIP3   OH227361   6.518   7.060   3.335
 9135TIP3    H127362   6.480   7.148   3.341
 9135TIP3    H227363   6.442   7.002   3.329
 9136TIP3   OH227364   2.123   1.795   3.233
 9136TIP3    H127365   2.167   1.783   3.149
 9136TIP3    H227366   2.159   1.726   3.289
 9137TIP3   OH227367   1.023   5.307   2.073
 9137TIP3    H127368   0.952   5.341   2.019
 9137TIP3    H227369   0.979   5.261   2.144
 9138TIP3   OH227370   1.457   1.911   2.701
 9138TIP3    H127371   1.493   1.986   2.748
 9138TIP3    H227372   1.480   1.836   2.755
 9139TIP3   OH227373   3.342   7.584   3.914
 9139TIP3    H127374   3.347   7.599   4.008
 9139TIP3    H227375   3.315   7.668   3.877
 9140TIP3   OH227376   2.808   2.162   5.369
 9140TIP3    H127377   2.748   2.189   5.439
 9140TIP3    H227378   2.894   2.193   5.398
 9141TIP3   OH227379   6.891   7.397   1.457
 9141TIP3    H127380   6.878   7.422   1.366
 9141TIP3    H227381   6.813   7.346   1.480
 9142TIP3   OH227382   0.797   6.907   4.696
 9142TIP3    H127383   0.765   6.835   4.642
 9142TIP3    H227384   0.773   6.986   4.647
 9143TIP3   OH227385   7.072   4.789   5.026
 9143TIP3    H127386   7.105   4.778   5.115
 9143TIP3    H227387   7.096   4.709   4.980
 9144TIP3   OH227388   3.314   1.938   2.381
 9144TIP3    H127389   3.356   1.874   2.438
 9144TIP3    H227390   3.224   1.906   2.369
 9145TIP3   OH227391   0.633   5.979   4.950
 9145TIP3    H127392   0.728   5.969   4.961
 9145TIP3    H227393   0.595   5.908   5.002
 9146TIP3   OH227394   6.834   4.089   3.684
 9146TIP3    H127395   6.924   4.058   3.683
 9146TIP3    H227396   6.807   4.089   3.592
 9147TIP3   OH227397   6.612   5.221   6.544
 9147TIP3    H127398   6.527   5.222   6.499
 9147TIP3    H227399   6.592   5.189   6.632
 9148TIP3   OH227400   4.441   2.842   3.039
 9148TIP3    H127401   4.406   2.814   3.123
 9148TIP3    H227402   4.507   2.776   3.017
 9149TIP3   OH227403   8.109   0.790   4.698
 9149TIP3    H127404   8.194   0.802   4.740
 9149TIP3    H227405   8.130   0.774   4.606
 9150TIP3   OH227406   1.380   7.210   5.346
 9150TIP3    H127407   1.306   7.150   5.338
 9150TIP3    H227408   1.415   7.193   5.433
 9151TIP3   OH227409   4.912   2.680   1.361
 9151TIP3    H127410   4.909   2.775   1.369
 9151TIP3    H227411   4.970   2.665   1.285
 9152TIP3   OH227412   5.385   7.601   2.275
 9152TIP3    H127413   5.370   7.593   2.181
 9152TIP3    H227414   5.447   7.674   2.283
 9153TIP3   OH227415   4.147   1.394   1.967
 9153TIP3    H127416   4.088   1.388   2.042
 9153TIP3    H227417   4.137   1.311   1.921
 9154TIP3   OH227418   2.791   3.895   3.420
 9154TIP3    H127419   2.767   3.803   3.432
 9154TIP3    H227420   2.719   3.932   3.369
 9155TIP3   OH227421   8.175   0.260   4.345
 9155TIP3    H127422   8.261   0.300   4.354
 9155TIP3    H227423   8.141   0.255   4.434
 9156TIP3   OH227424   1.757   5.193   3.118
 9156TIP3    H127425   1.746   5.182   3.212
 9156TIP3    H227426   1.852   5.187   3.104
 9157TIP3   OH227427   6.376   4.395   3.685
 9157TIP3    H127428   6.455   4.395   3.631
 9157TIP3    H227429   6.374   4.308   3.725
 9158TIP3   OH227430   2.648   0.792   3.331
 9158TIP3    H127431   2.708   0.774   3.259
 9158TIP3    H227432   2.697   0.846   3.392
 9159TIP3   OH227433   7.178   3.640   2.440
 9159TIP3    H127434   7.216   3.654   2.526
 9159TIP3    H227435   7.251   3.653   2.379
 9160TIP3   OH227436   7.334   3.171   3.889
 9160TIP3    H127437   7.343   3.107   3.819
 9160TIP3    H227438   7.409   3.154   3.946
 9161TIP3   OH227439   6.120   7.825   4.765
 9161TIP3    H127440   6.046   7.764   4.764
 9161TIP3    H227441   6.168   7.806   4.684
 9162TIP3   OH227442   7.701   4.014   3.598
 9162TIP3    H127443   7.696   4.001   3.693
 9162TIP3    H227444   7.621   4.061   3.576
 9163TIP3   OH227445   0.455   4.090   1.778
 9163TIP3    H127446   0.488   4.021   1.836
 9163TIP3    H227447   0.423   4.158   1.837
 9164TIP3   OH227448   4.877   1.800   0.183
 9164TIP3    H127449   4.806   1.774   0.124
 9164TIP3    H227450   4.957   1.780   0.134
 9165TIP3   OH227451   1.497   6.127   2.454
 9165TIP3    H127452   1.503   6.206   2.509
 9165TIP3    H227453   1.584   6.118   2.417
 9166TIP3   OH227454   6.022   2.714   4.832
 9166TIP3    H127455   6.014   2.673   4.745
 9166TIP3    H227456   6.109   2.689   4.862
 9167TIP3   OH227457   7.958   3.206   6.474
 9167TIP3    H127458   8.026   3.243   6.418
 9167TIP3    H227459   7.882   3.262   6.460
 9168TIP3   OH227460   7.829   3.549   1.509
 9168TIP3    H127461   7.856   3.564   1.600
 9168TIP3    H227462   7.777   3.626   1.486
 9169TIP3   OH227463   7.246   7.445   1.875
 9169TIP3    H127464   7.192   7.400   1.810
 9169TIP3    H227465   7.303   7.502   1.823
 9170TIP3   OH227466   7.993   5.577   2.341
 9170TIP3    H127467   7.914   5.614   2.302
 9170TIP3    H227468   8.040   5.652   2.377
 9171TIP3   OH227469   6.457   4.147   5.934
 9171TIP3    H127470   6.460   4.067   5.986
 9171TIP3    H227471   6.369   4.182   5.948
 9172TIP3   OH227472   1.518   5.351   4.584
 9172TIP3    H127473   1.502   5.341   4.490
 9172TIP3    H227474   1.438   5.319   4.625
 9173TIP3   OH227475   1.779   1.695   0.263
 9173TIP3    H127476   1.792   1.776   0.312
 9173TIP3    H227477   1.857   1.686   0.209
 9174TIP3   OH227478   5.338   7.114   6.448
 9174TIP3    H127479   5.288   7.077   6.376
 9174TIP3    H227480   5.289   7.192   6.474
 9175TIP3   OH227481   1.376   6.034   0.272
 9175TIP3    H127482   1.447   5.974   0.248
 9175TIP3    H227483   1.323   6.042   0.193
 9176TIP3   OH227484   7.660   3.485   3.465
 9176TIP3    H127485   7.582   3.435   3.439
 9176TIP3    H227486   7.633   3.531   3.544
 9177TIP3   OH227487   2.080   6.227   1.163
 9177TIP3    H127488   1.990   6.211   1.136
 9177TIP3    H227489   2.094   6.320   1.143
 9178TIP3   OH227490   4.822   0.134   1.704
 9178TIP3    H127491   4.840   0.145   1.611
 9178TIP3    H227492   4.904   0.159   1.748
 9179TIP3   OH227493   2.738   0.889   2.504
 9179TIP3    H127494   2.668   0.827   2.481
 9179TIP3    H227495   2.805   0.834   2.545
 9180TIP3   OH227496   3.997   5.385   5.264
 9180TIP3    H127497   4.023   5.301   5.303
 9180TIP3    H227498   4.050   5.449   5.311
 9181TIP3   OH227499   5.204   5.864   6.201
 9181TIP3    H127500   5.135   5.923   6.232
 9181TIP3    H227501   5.236   5.905   6.120
 9182TIP3   OH227502   5.001   7.171   6.043
 9182TIP3    H127503   5.083   7.122   6.043
 9182TIP3    H227504   5.023   7.255   6.003
 9183TIP3   OH227505   8.060   6.662   1.851
 9183TIP3    H127506   8.087   6.753   1.844
 9183TIP3    H227507   8.091   6.634   1.937
 9184TIP3   OH227508   3.488   7.633   6.056
 9184TIP3    H127509   3.395   7.611   6.051
 9184TIP3    H227510   3.532   7.548   6.058
 9185TIP3   OH227511   2.291   5.411   5.202
 9185TIP3    H127512   2.203   5.438   5.175
 9185TIP3    H227513   2.336   5.493   5.223
 9186TIP3   OH227514   2.584   5.992   4.419
 9186TIP3    H127515   2.560   5.961   4.507
 9186TIP3    H227516   2.546   6.079   4.413
 9187TIP3   OH227517   1.008   0.149   2.160
 9187TIP3    H127518   1.042   0.068   2.123
 9187TIP3    H227519   0.913   0.144   2.147
 9188TIP3   OH227520   6.999   2.178   0.479
 9188TIP3    H127521   7.028   2.194   0.568
 9188TIP3    H227522   7.023   2.087   0.461
 9189TIP3   OH227523   8.247   7.547   2.633
 9189TIP3    H127524   8.309   7.584   2.695
 9189TIP3    H227525   8.266   7.591   2.550
 9190TIP3   OH227526   3.394   2.700   2.740
 9190TIP3    H127527   3.376   2.793   2.749
 9190TIP3    H227528   3.347   2.674   2.660
 9191TIP3   OH227529   7.152   2.774   4.234
 9191TIP3    H127530   7.083   2.838   4.214
 9191TIP3    H227531   7.128   2.738   4.319
 9192TIP3   OH227532   4.264   5.078   6.735
 9192TIP3    H127533   4.304   5.085   6.822
 9192TIP3    H227534   4.205   5.153   6.730
 9193TIP3   OH227535   4.061   6.727   3.271
 9193TIP3    H127536   4.088   6.785   3.342
 9193TIP3    H227537   4.092   6.771   3.191
 9194TIP3   OH227538   5.106   6.260   2.659
 9194TIP3    H127539   5.036   6.200   2.687
 9194TIP3    H227540   5.139   6.222   2.578
 9195TIP3   OH227541   7.386   7.373   4.197
 9195TIP3    H127542   7.291   7.382   4.195
 9195TIP3    H227543   7.418   7.457   4.230
 9196TIP3   OH227544   0.517   6.263   3.434
 9196TIP3    H127545   0.541   6.281   3.525
 9196TIP3    H227546   0.427   6.295   3.425
 9197TIP3   OH227547   3.070   5.474   6.423
 9197TIP3    H127548   3.109   5.508   6.342
 9197TIP3    H227549   3.093   5.381   6.423
 9198TIP3   OH227550   6.109   5.803   0.390
 9198TIP3    H127551   6.101   5.736   0.459
 9198TIP3    H227552   6.128   5.884   0.437
 9199TIP3   OH227553   5.293   3.909   3.693
 9199TIP3    H127554   5.271   3.820   3.718
 9199TIP3    H227555   5.383   3.905   3.663
 9200TIP3   OH227556   3.226   4.596   0.634
 9200TIP3    H127557   3.196   4.556   0.552
 9200TIP3    H227558   3.210   4.530   0.701
 9201TIP3   OH227559   4.816   1.816   5.341
 9201TIP3    H127560   4.841   1.741   5.288
 9201TIP3    H227561   4.722   1.826   5.324
 9202TIP3   OH227562   7.558   7.260   0.552
 9202TIP3    H127563   7.549   7.326   0.621
 9202TIP3    H227564   7.650   7.234   0.556
 9203TIP3   OH227565   5.361   1.357   3.494
 9203TIP3    H127566   5.411   1.422   3.543
 9203TIP3    H227567   5.271   1.367   3.525
 9204TIP3   OH227568   7.053   5.467   4.959
 9204TIP3    H127569   7.135   5.444   5.003
 9204TIP3    H227570   6.984   5.436   5.018
 9205TIP3   OH227571   7.280   2.867   3.998
 9205TIP3    H127572   7.292   2.831   4.086
 9205TIP3    H227573   7.220   2.940   4.010
 9206TIP3   OH227574   6.585   5.084   1.078
 9206TIP3    H127575   6.494   5.110   1.090
 9206TIP3    H227576   6.589   5.050   0.988
 9207TIP3   OH227577   1.254   3.090   6.073
 9207TIP3    H127578   1.210   3.169   6.104
 9207TIP3    H227579   1.235   3.024   6.140
 9208TIP3   OH227580   4.737   3.152   1.144
 9208TIP3    H127581   4.794   3.217   1.187
 9208TIP3    H227582   4.681   3.204   1.087
 9209TIP3   OH227583   6.569   7.382   5.860
 9209TIP3    H127584   6.511   7.452   5.892
 9209TIP3    H227585   6.634   7.372   5.929
 9210TIP3   OH227586   0.585   4.419   4.865
 9210TIP3    H127587   0.596   4.467   4.947
 9210TIP3    H227588   0.665   4.436   4.815
 9211TIP3   OH227589   0.548   6.538   1.848
 9211TIP3    H127590   0.623   6.583   1.808
 9211TIP3    H227591   0.526   6.592   1.925
 9212TIP3   OH227592   7.165   0.667   2.195
 9212TIP3    H127593   7.193   0.576   2.208
 9212TIP3    H227594   7.152   0.701   2.284
 9213TIP3   OH227595   5.582   3.238   2.180
 9213TIP3    H127596   5.581   3.267   2.088
 9213TIP3    H227597   5.520   3.165   2.182
 9214TIP3   OH227598   4.295   7.633   0.508
 9214TIP3    H127599   4.350   7.561   0.540
 9214TIP3    H227600   4.325   7.647   0.419
 9215TIP3   OH227601   3.620   1.301   2.415
 9215TIP3    H127602   3.577   1.216   2.405
 9215TIP3    H227603   3.705   1.290   2.372
 9216TIP3   OH227604   4.062   5.292   2.700
 9216TIP3    H127605   4.049   5.230   2.772
 9216TIP3    H227606   3.997   5.267   2.634
 9217TIP3   OH227607   0.333   1.333   5.284
 9217TIP3    H127608   0.338   1.275   5.208
 9217TIP3    H227609   0.285   1.409   5.253
 9218TIP3   OH227610   0.653   6.306   6.524
 9218TIP3    H127611   0.619   6.374   6.466
 9218TIP3    H227612   0.746   6.303   6.505
 9219TIP3   OH227613   6.931   6.196   3.502
 9219TIP3    H127614   6.926   6.254   3.579
 9219TIP3    H227615   6.874   6.122   3.525
 9220TIP3   OH227616   3.107   1.591   6.526
 9220TIP3    H127617   3.046   1.643   6.473
 9220TIP3    H227618   3.193   1.612   6.491
 9221TIP3   OH227619   2.637   0.108   2.583
 9221TIP3    H127620   2.546   0.119   2.555
 9221TIP3    H227621   2.632   0.093   2.677
 9222TIP3   OH227622   4.607   0.840   4.874
 9222TIP3    H127623   4.692   0.879   4.896
 9222TIP3    H227624   4.611   0.827   4.779
 9223TIP3   OH227625   6.995   6.581   4.645
 9223TIP3    H127626   6.974   6.640   4.572
 9223TIP3    H227627   6.911   6.543   4.669
 9224TIP3   OH227628   4.988   4.209   4.241
 9224TIP3    H127629   5.047   4.133   4.236
 9224TIP3    H227630   5.001   4.243   4.329
 9225TIP3   OH227631   6.601   0.780   2.824
 9225TIP3    H127632   6.555   0.863   2.813
 9225TIP3    H227633   6.653   0.770   2.744
 9226TIP3   OH227634   2.484   2.550   1.408
 9226TIP3    H127635   2.504   2.546   1.315
 9226TIP3    H227636   2.569   2.550   1.451
 9227TIP3   OH227637   4.530   2.905   0.998
 9227TIP3    H127638   4.452   2.885   0.946
 9227TIP3    H227639   4.603   2.882   0.940
 9228TIP3   OH227640   0.571   3.725   4.625
 9228TIP3    H127641   0.646   3.778   4.653
 9228TIP3    H227642   0.604   3.674   4.551
 9229TIP3   OH227643   0.584   4.324   1.256
 9229TIP3    H127644   0.651   4.274   1.304
 9229TIP3    H227645   0.633   4.392   1.210
 9230TIP3   OH227646   2.498   4.543   4.160
 9230TIP3    H127647   2.518   4.636   4.156
 9230TIP3    H227648   2.558   4.508   4.226
 9231TIP3   OH227649   7.319   6.030   1.006
 9231TIP3    H127650   7.345   6.043   1.097
 9231TIP3    H227651   7.229   6.063   1.002
 9232TIP3   OH227652   2.951   2.887   6.270
 9232TIP3    H127653   2.902   2.818   6.226
 9232TIP3    H227654   3.040   2.853   6.276
 9233TIP3   OH227655   1.591   4.093   1.522
 9233TIP3    H127656   1.519   4.157   1.529
 9233TIP3    H227657   1.639   4.102   1.604
 9234TIP3   OH227658   1.613   6.237   5.503
 9234TIP3    H127659   1.589   6.246   5.411
 9234TIP3    H227660   1.709   6.239   5.503
 9235TIP3   OH227661   5.532   1.381   4.123
 9235TIP3    H127662   5.578   1.432   4.190
 9235TIP3    H227663   5.602   1.347   4.067
 9236TIP3   OH227664   2.464   6.737   2.357
 9236TIP3    H127665   2.458   6.822   2.312
 9236TIP3    H227666   2.389   6.737   2.417
 9237TIP3   OH227667   5.199   4.936   2.275
 9237TIP3    H127668   5.271   4.949   2.214
 9237TIP3    H227669   5.154   5.020   2.277
 9238TIP3   OH227670   2.033   5.806   5.537
 9238TIP3    H127671   1.964   5.750   5.502
 9238TIP3    H227672   2.020   5.804   5.632
 9239TIP3   OH227673   1.036   5.799   1.801
 9239TIP3    H127674   0.955   5.836   1.766
 9239TIP3    H227675   1.041   5.833   1.890
 9240TIP3   OH227676   3.816   0.227   1.483
 9240TIP3    H127677   3.865   0.304   1.457
 9240TIP3    H227678   3.807   0.175   1.403
 9241TIP3   OH227679   5.584   3.379   5.483
 9241TIP3    H127680   5.538   3.371   5.400
 9241TIP3    H227681   5.528   3.435   5.537
 9242TIP3   OH227682   6.604   1.862   6.559
 9242TIP3    H127683   6.687   1.863   6.607
 9242TIP3    H227684   6.557   1.940   6.588
 9243TIP3   OH227685   6.579   6.229   2.692
 9243TIP3    H127686   6.504   6.289   2.688
 9243TIP3    H227687   6.552   6.160   2.752
 9244TIP3   OH227688   4.595   0.744   4.540
 9244TIP3    H127689   4.573   0.666   4.592
 9244TIP3    H227690   4.688   0.757   4.555
 9245TIP3   OH227691   6.402   6.650   6.400
 9245TIP3    H127692   6.324   6.705   6.406
 9245TIP3    H227693   6.448   6.682   6.322
 9246TIP3   OH227694   3.666   5.142   5.398
 9246TIP3    H127695   3.640   5.069   5.343
 9246TIP3    H227696   3.655   5.219   5.342
 9247TIP3   OH227697   0.399   0.769   6.254
 9247TIP3    H127698   0.313   0.750   6.291
 9247TIP3    H227699   0.461   0.755   6.326
 9248TIP3   OH227700   3.227   1.061   3.434
 9248TIP3    H127701   3.206   1.082   3.524
 9248TIP3    H227702   3.320   1.039   3.436
 9249TIP3   OH227703   3.738   7.157   0.855
 9249TIP3    H127704   3.663   7.116   0.812
 9249TIP3    H227705   3.749   7.240   0.810
 9250TIP3   OH227706   4.675   3.878   4.788
 9250TIP3    H127707   4.601   3.824   4.817
 9250TIP3    H227708   4.706   3.835   4.708
 9251TIP3   OH227709   1.705   0.517   1.944
 9251TIP3    H127710   1.628   0.521   1.886
 9251TIP3    H227711   1.708   0.426   1.973
 9252TIP3   OH227712   7.763   4.491   1.431
 9252TIP3    H127713   7.777   4.570   1.380
 9252TIP3    H227714   7.670   4.472   1.421
 9253TIP3   OH227715   7.777   0.255   4.328
 9253TIP3    H127716   7.779   0.262   4.232
 9253TIP3    H227717   7.760   0.163   4.345
 9254TIP3   OH227718   0.478   7.480   6.340
 9254TIP3    H127719   0.565   7.505   6.371
 9254TIP3    H227720   0.475   7.385   6.352
 9255TIP3   OH227721   6.425   3.477   3.925
 9255TIP3    H127722   6.333   3.452   3.930
 9255TIP3    H227723   6.464   3.412   3.867
 9256TIP3   OH227724   0.139   0.707   1.057
 9256TIP3    H127725   0.138   0.782   0.997
 9256TIP3    H227726   0.048   0.680   1.063
 9257TIP3   OH227727   2.973   2.850   5.413
 9257TIP3    H127728   3.010   2.807   5.336
 9257TIP3    H227729   3.034   2.920   5.433
 9258TIP3   OH227730   2.906   6.227   2.184
 9258TIP3    H127731   2.999   6.238   2.204
 9258TIP3    H227732   2.869   6.315   2.197
 9259TIP3   OH227733   1.286   3.980   3.261
 9259TIP3    H127734   1.323   4.061   3.226
 9259TIP3    H227735   1.278   3.923   3.185
 9260TIP3   OH227736   2.623   1.298   5.206
 9260TIP3    H127737   2.594   1.282   5.117
 9260TIP3    H227738   2.542   1.295   5.258
 9261TIP3   OH227739   5.517   4.582   6.165
 9261TIP3    H127740   5.468   4.516   6.214
 9261TIP3    H227741   5.539   4.538   6.082
 9262TIP3   OH227742   0.209   3.413   5.019
 9262TIP3    H127743   0.203   3.378   5.107
 9262TIP3    H227744   0.242   3.341   4.966
 9263TIP3   OH227745   7.869   5.856   5.574
 9263TIP3    H127746   7.959   5.860   5.542
 9263TIP3    H227747   7.865   5.921   5.644
 9264TIP3   OH227748   3.942   3.147   4.959
 9264TIP3    H127749   3.850   3.143   4.986
 9264TIP3    H227750   3.943   3.107   4.872
 9265TIP3   OH227751   7.893   1.529   3.243
 9265TIP3    H127752   7.833   1.539   3.317
 9265TIP3    H227753   7.917   1.436   3.244
 9266TIP3   OH227754   5.804   1.611   1.733
 9266TIP3    H127755   5.858   1.685   1.706
 9266TIP3    H227756   5.761   1.640   1.813
 9267TIP3   OH227757   6.111   5.003   3.073
 9267TIP3    H127758   6.031   5.049   3.096
 9267TIP3    H227759   6.084   4.913   3.055
 9268TIP3   OH227760   1.448   0.167   2.473
 9268TIP3    H127761   1.406   0.226   2.410
 9268TIP3    H227762   1.376   0.117   2.511
 9269TIP3   OH227763   4.728   0.852   5.586
 9269TIP3    H127764   4.649   0.797   5.593
 9269TIP3    H227765   4.703   0.921   5.524
 9270TIP3   OH227766   2.695   5.345   0.840
 9270TIP3    H127767   2.760   5.309   0.779
 9270TIP3    H227768   2.747   5.378   0.913
 9271TIP3   OH227769   7.215   4.064   2.422
 9271TIP3    H127770   7.293   4.016   2.452
 9271TIP3    H227771   7.158   4.066   2.499
 9272TIP3   OH227772   5.925   6.886   5.976
 9272TIP3    H127773   5.932   6.794   6.003
 9272TIP3    H227774   5.833   6.908   5.992
 9273TIP3   OH227775   7.431   6.129   4.068
 9273TIP3    H127776   7.356   6.152   4.123
 9273TIP3    H227777   7.480   6.066   4.120
 9274TIP3   OH227778   5.256   1.548   2.278
 9274TIP3    H127779   5.204   1.609   2.330
 9274TIP3    H227780   5.206   1.537   2.197
 9275TIP3   OH227781   8.164   2.126   3.435
 9275TIP3    H127782   8.089   2.175   3.469
 9275TIP3    H227783   8.235   2.146   3.495
 9276TIP3   OH227784   6.688   6.883   3.498
 9276TIP3    H127785   6.636   6.927   3.431
 9276TIP3    H227786   6.775   6.922   3.490
 9277TIP3   OH227787   1.234   0.561   4.621
 9277TIP3    H127788   1.212   0.479   4.665
 9277TIP3    H227789   1.305   0.538   4.562
 9278TIP3   OH227790   4.185   2.498   6.741
 9278TIP3    H127791   4.117   2.433   6.757
 9278TIP3    H227792   4.140   2.582   6.749
 9279TIP3   OH227793   8.169   7.002   4.665
 9279TIP3    H127794   8.128   7.086   4.684
 9279TIP3    H227795   8.253   7.005   4.710
 9280TIP3   OH227796   1.587   2.687   1.387
 9280TIP3    H127797   1.591   2.653   1.477
 9280TIP3    H227798   1.666   2.741   1.378
 9281TIP3   OH227799   4.278   2.046   2.403
 9281TIP3    H127800   4.216   1.975   2.385
 9281TIP3    H227801   4.287   2.092   2.320
 9282TIP3   OH227802   2.000   5.671   0.864
 9282TIP3    H127803   1.990   5.724   0.943
 9282TIP3    H227804   1.920   5.686   0.814
 9283TIP3   OH227805   4.285   5.894   6.234
 9283TIP3    H127806   4.209   5.951   6.250
 9283TIP3    H227807   4.254   5.806   6.258
 9284TIP3   OH227808   5.983   4.660   4.796
 9284TIP3    H127809   5.930   4.586   4.826
 9284TIP3    H227810   5.936   4.694   4.719
 9285TIP3   OH227811   3.814   7.224   2.022
 9285TIP3    H127812   3.876   7.273   2.077
 9285TIP3    H227813   3.759   7.290   1.982
 9286TIP3   OH227814   2.230   7.102   5.309
 9286TIP3    H127815   2.159   7.061   5.260
 9286TIP3    H227816   2.310   7.077   5.262
 9287TIP3   OH227817   3.651   1.628   2.822
 9287TIP3    H127818   3.680   1.539   2.839
 9287TIP3    H227819   3.556   1.626   2.836
 9288TIP3   OH227820   6.083   2.126   1.050
 9288TIP3    H127821   6.065   2.217   1.071
 9288TIP3    H227822   6.071   2.119   0.955
 9289TIP3   OH227823   6.199   6.253   0.423
 9289TIP3    H127824   6.264   6.289   0.363
 9289TIP3    H227825   6.218   6.160   0.427
 9290TIP3   OH227826   3.032   2.672   4.708
 9290TIP3    H127827   2.950   2.721   4.713
 9290TIP3    H227828   3.055   2.673   4.615
 9291TIP3   OH227829   5.108   4.919   1.735
 9291TIP3    H127830   5.114   4.983   1.664
 9291TIP3    H227831   5.152   4.841   1.701
 9292TIP3   OH227832   7.433   1.322   4.825
 9292TIP3    H127833   7.341   1.300   4.810
 9292TIP3    H227834   7.468   1.342   4.739
 9293TIP3   OH227835   2.212   6.104   2.421
 9293TIP3    H127836   2.271   6.104   2.496
 9293TIP3    H227837   2.271   6.101   2.345
 9294TIP3   OH227838   2.477   3.174   0.404
 9294TIP3    H127839   2.434   3.109   0.348
 9294TIP3    H227840   2.521   3.233   0.342
 9295TIP3   OH227841   5.797   7.562   1.466
 9295TIP3    H127842   5.890   7.539   1.457
 9295TIP3    H227843   5.779   7.553   1.559
 9296TIP3   OH227844   3.410   4.379   0.967
 9296TIP3    H127845   3.330   4.396   0.917
 9296TIP3    H227846   3.472   4.443   0.935
 9297TIP3   OH227847   3.248   4.763   4.519
 9297TIP3    H127848   3.208   4.812   4.447
 9297TIP3    H227849   3.234   4.818   4.597
 9298TIP3   OH227850   0.927   7.090   5.134
 9298TIP3    H127851   0.893   7.180   5.139
 9298TIP3    H227852   0.856   7.040   5.095
 9299TIP3   OH227853   1.859   2.068   2.334
 9299TIP3    H127854   1.940   2.048   2.286
 9299TIP3    H227855   1.823   1.982   2.356
 9300TIP3   OH227856   2.774   5.372   6.598
 9300TIP3    H127857   2.867   5.359   6.620
 9300TIP3    H227858   2.729   5.370   6.682
 9301TIP3   OH227859   4.101   2.666   2.989
 9301TIP3    H127860   4.101   2.570   2.981
 9301TIP3    H227861   4.178   2.686   3.042
 9302TIP3   OH227862   3.620   1.301   6.120
 9302TIP3    H127863   3.539   1.254   6.142
 9302TIP3    H227864   3.669   1.304   6.203
 9303TIP3   OH227865   3.859   1.080   2.035
 9303TIP3    H127866   3.831   1.115   1.950
 9303TIP3    H227867   3.799   1.007   2.052
 9304TIP3   OH227868   2.164   1.787   5.611
 9304TIP3    H127869   2.257   1.766   5.621
 9304TIP3    H227870   2.144   1.840   5.688
 9305TIP3   OH227871   8.060   2.646   2.076
 9305TIP3    H127872   7.993   2.641   2.144
 9305TIP3    H227873   8.061   2.558   2.037
 9306TIP3   OH227874   0.144   4.753   1.226
 9306TIP3    H127875   0.193   4.815   1.172
 9306TIP3    H227876   0.056   4.751   1.187
 9307TIP3   OH227877   7.429   0.081   6.551
 9307TIP3    H127878   7.438   0.144   6.623
 9307TIP3    H227879   7.438   0.135   6.472
 9308TIP3   OH227880   6.364   4.637   0.375
 9308TIP3    H127881   6.305   4.675   0.309
 9308TIP3    H227882   6.370   4.704   0.443
 9309TIP3   OH227883   2.530   5.640   1.652
 9309TIP3    H127884   2.485   5.674   1.574
 9309TIP3    H227885   2.462   5.637   1.719
 9310TIP3   OH227886   4.417   6.493   1.699
 9310TIP3    H127887   4.429   6.405   1.736
 9310TIP3    H227888   4.483   6.499   1.631
 9311TIP3   OH227889   2.691   3.651   3.488
 9311TIP3    H127890   2.705   3.558   3.508
 9311TIP3    H227891   2.632   3.650   3.413
 9312TIP3   OH227892   7.470   0.272   3.920
 9312TIP3    H127893   7.516   0.251   4.002
 9312TIP3    H227894   7.537   0.262   3.852
 9313TIP3   OH227895   1.806   6.426   2.473
 9313TIP3    H127896   1.856   6.386   2.401
 9313TIP3    H227897   1.863   6.495   2.506
 9314TIP3   OH227898   7.640   5.939   5.431
 9314TIP3    H127899   7.717   5.928   5.487
 9314TIP3    H227900   7.599   6.020   5.463
 9315TIP3   OH227901   6.769   5.781   0.473
 9315TIP3    H127902   6.851   5.787   0.424
 9315TIP3    H227903   6.757   5.688   0.490
 9316TIP3   OH227904   5.402   7.363   1.912
 9316TIP3    H127905   5.466   7.342   1.844
 9316TIP3    H227906   5.367   7.449   1.886
 9317TIP3   OH227907   1.708   1.443   1.193
 9317TIP3    H127908   1.769   1.372   1.215
 9317TIP3    H227909   1.759   1.503   1.138
 9318TIP3   OH227910   7.807   3.670   6.438
 9318TIP3    H127911   7.762   3.746   6.402
 9318TIP3    H227912   7.791   3.600   6.375
 9319TIP3   OH227913   2.166   5.070   5.368
 9319TIP3    H127914   2.153   5.043   5.278
 9319TIP3    H227915   2.086   5.042   5.414
 9320TIP3   OH227916   0.987   2.240   6.564
 9320TIP3    H127917   1.034   2.320   6.539
 9320TIP3    H227918   1.034   2.209   6.642
 9321TIP3   OH227919   5.455   4.832   6.001
 9321TIP3    H127920   5.470   4.746   6.042
 9321TIP3    H227921   5.435   4.890   6.075
 9322TIP3   OH227922   0.607   3.071   0.712
 9322TIP3    H127923   0.652   3.153   0.692
 9322TIP3    H227924   0.549   3.057   0.637
 9323TIP3   OH227925   3.294   5.462   5.748
 9323TIP3    H127926   3.333   5.529   5.692
 9323TIP3    H227927   3.210   5.443   5.706
 9324TIP3   OH227928   2.486   3.088   3.530
 9324TIP3    H127929   2.538   3.161   3.564
 9324TIP3    H227930   2.550   3.025   3.499
 9325TIP3   OH227931   4.344   7.268   0.440
 9325TIP3    H127932   4.402   7.304   0.507
 9325TIP3    H227933   4.265   7.243   0.487
 9326TIP3   OH227934   1.291   2.270   6.514
 9326TIP3    H127935   1.256   2.351   6.477
 9326TIP3    H227936   1.277   2.204   6.445
 9327TIP3   OH227937   7.083   0.160   5.018
 9327TIP3    H127938   7.160   0.110   4.991
 9327TIP3    H227939   7.077   0.147   5.112
 9328TIP3   OH227940   3.387   2.618   6.391
 9328TIP3    H127941   3.447   2.668   6.334
 9328TIP3    H227942   3.434   2.610   6.474
 9329TIP3   OH227943   6.814   4.328   1.451
 9329TIP3    H127944   6.842   4.366   1.368
 9329TIP3    H227945   6.724   4.357   1.462
 9330TIP3   OH227946   2.038   6.388   0.744
 9330TIP3    H127947   2.023   6.444   0.668
 9330TIP3    H227948   1.961   6.331   0.747
 9331TIP3   OH227949   6.482   3.832   5.530
 9331TIP3    H127950   6.411   3.777   5.561
 9331TIP3    H227951   6.507   3.884   5.607
 9332TIP3   OH227952   2.909   4.602   0.256
 9332TIP3    H127953   2.888   4.674   0.315
 9332TIP3    H227954   2.828   4.585   0.208
 9333TIP3   OH227955   0.773   2.388   3.846
 9333TIP3    H127956   0.691   2.436   3.853
 9333TIP3    H227957   0.840   2.456   3.840
 9334TIP3   OH227958   7.878   4.015   4.522
 9334TIP3    H127959   7.844   4.057   4.444
 9334TIP3    H227960   7.809   4.025   4.587
 9335TIP3   OH227961   3.083   2.199   3.664
 9335TIP3    H127962   3.152   2.264   3.653
 9335TIP3    H227963   3.003   2.244   3.638
 9336TIP3   OH227964   1.542   7.224   5.102
 9336TIP3    H127965   1.488   7.147   5.088
 9336TIP3    H227966   1.511   7.260   5.185
 9337TIP3   OH227967   0.813   3.289   6.705
 9337TIP3    H127968   0.859   3.229   6.764
 9337TIP3    H227969   0.882   3.343   6.667
 9338TIP3   OH227970   8.192   2.112   0.858
 9338TIP3    H127971   8.249   2.037   0.844
 9338TIP3    H227972   8.115   2.094   0.804
 9339TIP3   OH227973   4.995   2.849   6.770
 9339TIP3    H127974   4.969   2.860   6.679
 9339TIP3    H227975   4.980   2.935   6.810
 9340TIP3   OH227976   2.789   5.318   6.257
 9340TIP3    H127977   2.872   5.333   6.213
 9340TIP3    H227978   2.729   5.383   6.220
 9341TIP3   OH227979   5.988   2.619   4.556
 9341TIP3    H127980   5.912   2.634   4.500
 9341TIP3    H227981   6.062   2.612   4.495
 9342TIP3   OH227982   2.003   1.416   1.911
 9342TIP3    H127983   2.003   1.508   1.884
 9342TIP3    H227984   1.978   1.368   1.832
 9343TIP3   OH227985   4.611   6.194   4.208
 9343TIP3    H127986   4.687   6.210   4.264
 9343TIP3    H227987   4.592   6.101   4.219
 9344TIP3   OH227988   1.240   7.663   5.022
 9344TIP3    H127989   1.261   7.619   4.940
 9344TIP3    H227990   1.255   7.598   5.089
 9345TIP3   OH227991   2.803   4.727   4.469
 9345TIP3    H127992   2.821   4.633   4.466
 9345TIP3    H227993   2.855   4.759   4.543
 9346TIP3   OH227994   8.206   3.888   1.273
 9346TIP3    H127995   8.261   3.962   1.296
 9346TIP3    H227996   8.158   3.868   1.353
 9347TIP3   OH227997   3.666   2.870   0.453
 9347TIP3    H127998   3.726   2.927   0.501
 9347TIP3    H227999   3.638   2.921   0.377
 9348TIP3   OH228000   6.999   2.101   2.311
 9348TIP3    H128001   7.014   2.095   2.216
 9348TIP3    H228002   7.050   2.176   2.339
 9349TIP3   OH228003   3.839   0.829   4.144
 9349TIP3    H128004   3.888   0.766   4.091
 9349TIP3    H228005   3.859   0.914   4.104
 9350TIP3   OH228006   2.424   1.104   5.444
 9350TIP3    H128007   2.477   1.039   5.398
 9350TIP3    H228008   2.378   1.151   5.374
 9351TIP3   OH228009   5.781   5.984   3.733
 9351TIP3    H128010   5.711   5.926   3.762
 9351TIP3    H228011   5.848   5.974   3.801
 9352TIP3   OH228012   7.958   6.455   1.309
 9352TIP3    H128013   7.933   6.363   1.318
 9352TIP3    H228014   8.047   6.459   1.344
 9353TIP3   OH228015   0.596   1.229   4.023
 9353TIP3    H128016   0.591   1.259   4.114
 9353TIP3    H228017   0.684   1.192   4.015
 9354TIP3   OH228018   0.606   2.556   4.207
 9354TIP3    H128019   0.555   2.530   4.131
 9354TIP3    H228020   0.541   2.568   4.277
 9355TIP3   OH228021   2.345   1.307   4.673
 9355TIP3    H128022   2.340   1.384   4.617
 9355TIP3    H228023   2.256   1.296   4.706
 9356TIP3   OH228024   4.771   3.178   2.906
 9356TIP3    H128025   4.814   3.208   2.986
 9356TIP3    H228026   4.843   3.163   2.845
 9357TIP3   OH228027   1.133   1.465   0.557
 9357TIP3    H128028   1.067   1.531   0.537
 9357TIP3    H228029   1.172   1.494   0.640
 9358TIP3   OH228030   2.940   5.473   4.499
 9358TIP3    H128031   2.932   5.568   4.511
 9358TIP3    H228032   2.981   5.442   4.580
 9359TIP3   OH228033   7.121   7.790   4.682
 9359TIP3    H128034   7.204   7.751   4.710
 9359TIP3    H228035   7.086   7.728   4.618
 9360TIP3   OH228036   2.370   5.181   6.144
 9360TIP3    H128037   2.459   5.159   6.172
 9360TIP3    H228038   2.382   5.255   6.084
 9361TIP3   OH228039   2.886   4.982   3.786
 9361TIP3    H128040   2.953   4.915   3.787
 9361TIP3    H228041   2.805   4.935   3.763
 9362TIP3   OH228042   4.513   3.503   1.212
 9362TIP3    H128043   4.519   3.598   1.203
 9362TIP3    H228044   4.547   3.485   1.300
 9363TIP3   OH228045   0.545   1.086   3.256
 9363TIP3    H128046   0.621   1.141   3.275
 9363TIP3    H228047   0.530   1.099   3.162
 9364TIP3   OH228048   7.861   6.983   0.430
 9364TIP3    H128049   7.844   7.061   0.483
 9364TIP3    H228050   7.897   6.920   0.491
 9365TIP3   OH228051   7.339   5.464   6.186
 9365TIP3    H128052   7.318   5.406   6.259
 9365TIP3    H228053   7.379   5.541   6.227
 9366TIP3   OH228054   4.022   0.191   2.776
 9366TIP3    H128055   3.986   0.268   2.731
 9366TIP3    H228056   4.083   0.228   2.840
 9367TIP3   OH228057   4.005   4.467   4.214
 9367TIP3    H128058   4.027   4.560   4.218
 9367TIP3    H228059   4.033   4.433   4.299
 9368TIP3   OH228060   6.064   4.099   3.761
 9368TIP3    H128061   6.132   4.166   3.755
 9368TIP3    H228062   5.996   4.139   3.816
 9369TIP3   OH228063   4.409   6.264   0.486
 9369TIP3    H128064   4.355   6.249   0.564
 9369TIP3    H228065   4.376   6.346   0.449
 9370TIP3   OH228066   4.919   1.236   5.364
 9370TIP3    H128067   4.886   1.255   5.276
 9370TIP3    H228068   4.846   1.258   5.422
 9371TIP3   OH228069   4.252   0.156   2.538
 9371TIP3    H128070   4.167   0.125   2.568
 9371TIP3    H228071   4.232   0.231   2.481
 9372TIP3   OH228072   6.006   1.486   2.300
 9372TIP3    H128073   6.029   1.557   2.360
 9372TIP3    H228074   5.923   1.452   2.333
 9373TIP3   OH228075   1.866   6.503   6.253
 9373TIP3    H128076   1.824   6.475   6.334
 9373TIP3    H228077   1.957   6.521   6.278
 9374TIP3   OH228078   4.341   3.278   0.191
 9374TIP3    H128079   4.385   3.213   0.137
 9374TIP3    H228080   4.313   3.346   0.129
 9375TIP3   OH228081   6.888   2.672   0.892
 9375TIP3    H128082   6.893   2.752   0.840
 9375TIP3    H228083   6.910   2.700   0.981
 9376TIP3   OH228084   1.475   7.410   3.267
 9376TIP3    H128085   1.505   7.496   3.236
 9376TIP3    H228086   1.432   7.371   3.191
 9377TIP3   OH228087   5.153   3.875   5.727
 9377TIP3    H128088   5.201   3.891   5.809
 9377TIP3    H228089   5.124   3.962   5.699
 9378TIP3   OH228090   1.566   1.254   3.829
 9378TIP3    H128091   1.632   1.282   3.892
 9378TIP3    H228092   1.533   1.335   3.791
 9379TIP3   OH228093   4.836   0.379   6.778
 9379TIP3    H128094   4.901   0.310   6.789
 9379TIP3    H228095   4.790   0.355   6.697
 9380TIP3   OH228096   3.303   1.434   6.076
 9380TIP3    H128097   3.287   1.527   6.091
 9380TIP3    H228098   3.325   1.399   6.162
 9381TIP3   OH228099   6.895   4.177   4.206
 9381TIP3    H128100   6.900   4.082   4.220
 9381TIP3    H228101   6.841   4.187   4.128
 9382TIP3   OH228102   1.424   1.781   5.133
 9382TIP3    H128103   1.481   1.819   5.200
 9382TIP3    H228104   1.362   1.728   5.182
 9383TIP3   OH228105   4.850   4.885   0.957
 9383TIP3    H128106   4.787   4.926   1.017
 9383TIP3    H228107   4.811   4.800   0.937
 9384TIP3   OH228108   6.424   2.470   0.948
 9384TIP3    H128109   6.475   2.390   0.941
 9384TIP3    H228110   6.335   2.441   0.968
 9385TIP3   OH228111   4.655   7.394   4.459
 9385TIP3    H128112   4.701   7.365   4.380
 9385TIP3    H228113   4.587   7.453   4.427
 9386TIP3   OH228114   6.478   2.841   2.318
 9386TIP3    H128115   6.551   2.892   2.355
 9386TIP3    H228116   6.466   2.878   2.230
 9387TIP3   OH228117   7.382   0.967   2.756
 9387TIP3    H128118   7.303   0.997   2.710
 9387TIP3    H228119   7.360   0.974   2.849
 9388TIP3   OH228120   6.341   0.075   2.899
 9388TIP3    H128121   6.426   0.062   2.856
 9388TIP3    H228122   6.280   0.024   2.845
 9389TIP3   OH228123   4.758   3.449   5.987
 9389TIP3    H128124   4.832   3.458   6.047
 9389TIP3    H228125   4.794   3.403   5.911
 9390TIP3   OH228126   7.292   1.306   5.093
 9390TIP3    H128127   7.333   1.269   5.015
 9390TIP3    H228128   7.308   1.241   5.161
 9391TIP3   OH228129   2.687   1.489  -0.001
 9391TIP3    H128130   2.600   1.506   0.034
 9391TIP3    H228131   2.746   1.528   0.064
 9392TIP3   OH228132   1.421   7.550   3.505
 9392TIP3    H128133   1.512   7.574   3.489
 9392TIP3    H228134   1.404   7.478   3.444
 9393TIP3   OH228135   5.748   4.444   3.254
 9393TIP3    H128136   5.832   4.488   3.267
 9393TIP3    H228137   5.722   4.466   3.165
 9394TIP3   OH228138   4.690   2.559   0.404
 9394TIP3    H128139   4.694   2.472   0.443
 9394TIP3    H228140   4.601   2.566   0.369
 9395TIP3   OH228141   5.638   0.270   2.107
 9395TIP3    H128142   5.675   0.267   2.019
 9395TIP3    H228143   5.713   0.283   2.164
 9396TIP3   OH228144   0.761   4.820   3.146
 9396TIP3    H128145   0.748   4.737   3.099
 9396TIP3    H228146   0.826   4.867   3.094
 9397TIP3   OH228147   8.259   3.864   3.255
 9397TIP3    H128148   8.262   3.903   3.168
 9397TIP3    H228149   8.293   3.932   3.313
 9398TIP3   OH228150   2.263   5.776   0.448
 9398TIP3    H128151   2.275   5.846   0.512
 9398TIP3    H228152   2.285   5.816   0.364
 9399TIP3   OH228153   7.577   4.399   5.426
 9399TIP3    H128154   7.505   4.437   5.477
 9399TIP3    H228155   7.656   4.420   5.477
 9400TIP3   OH228156   5.308   3.475   4.243
 9400TIP3    H128157   5.279   3.519   4.323
 9400TIP3    H228158   5.244   3.502   4.177
 9401TIP3   OH228159   5.611   5.717   1.513
 9401TIP3    H128160   5.616   5.696   1.420
 9401TIP3    H228161   5.701   5.708   1.544
 9402TIP3   OH228162   0.380   7.644   4.649
 9402TIP3    H128163   0.412   7.566   4.603
 9402TIP3    H228164   0.344   7.699   4.580
 9403TIP3   OH228165   5.544   5.869   3.554
 9403TIP3    H128166   5.545   5.807   3.481
 9403TIP3    H228167   5.452   5.879   3.576
 9404TIP3   OH228168   6.939   7.785   5.381
 9404TIP3    H128169   6.974   7.723   5.317
 9404TIP3    H228170   6.956   7.744   5.466
 9405TIP3   OH228171   3.261   6.214   6.704
 9405TIP3    H128172   3.262   6.278   6.776
 9405TIP3    H228173   3.354   6.203   6.681
 9406TIP3   OH228174   4.782   4.393   2.152
 9406TIP3    H128175   4.699   4.434   2.128
 9406TIP3    H228176   4.815   4.356   2.070
 9407TIP3   OH228177   7.108   0.917   5.042
 9407TIP3    H128178   7.109   0.854   5.114
 9407TIP3    H228179   7.158   0.874   4.973
 9408TIP3   OH228180   7.321   0.504   3.567
 9408TIP3    H128181   7.247   0.553   3.530
 9408TIP3    H228182   7.319   0.526   3.660
 9409TIP3   OH228183   7.455   3.311   4.217
 9409TIP3    H128184   7.509   3.300   4.139
 9409TIP3    H228185   7.507   3.366   4.275
 9410TIP3   OH228186   4.309   4.223   0.836
 9410TIP3    H128187   4.396   4.200   0.870
 9410TIP3    H228188   4.320   4.310   0.799
 9411TIP3   OH228189   4.721   2.271   1.732
 9411TIP3    H128190   4.772   2.334   1.782
 9411TIP3    H228191   4.677   2.323   1.665
 9412TIP3   OH228192   1.875   3.422   1.913
 9412TIP3    H128193   1.800   3.470   1.949
 9412TIP3    H228194   1.860   3.331   1.938
 9413TIP3   OH228195   5.856   6.536   0.156
 9413TIP3    H128196   5.895   6.616   0.192
 9413TIP3    H228197   5.777   6.522   0.208
 9414TIP3   OH228198   1.392   3.313   5.283
 9414TIP3    H128199   1.405   3.354   5.198
 9414TIP3    H228200   1.429   3.375   5.346
 9415TIP3   OH228201   0.689   0.285   5.668
 9415TIP3    H128202   0.598   0.265   5.692
 9415TIP3    H228203   0.740   0.211   5.702
 9416TIP3   OH228204   6.762   1.590   5.180
 9416TIP3    H128205   6.776   1.645   5.103
 9416TIP3    H228206   6.683   1.626   5.220
 9417TIP3   OH228207   0.541   0.395   3.563
 9417TIP3    H128208   0.573   0.455   3.630
 9417TIP3    H228209   0.450   0.422   3.548
 9418TIP3   OH228210   2.880   5.688   5.681
 9418TIP3    H128211   2.792   5.713   5.708
 9418TIP3    H228212   2.937   5.755   5.720
 9419TIP3   OH228213   2.355   5.807   4.750
 9419TIP3    H128214   2.346   5.773   4.840
 9419TIP3    H228215   2.357   5.902   4.761
 9420TIP3   OH228216   6.469   2.719   6.041
 9420TIP3    H128217   6.431   2.805   6.055
 9420TIP3    H228218   6.539   2.713   6.106
 9421TIP3   OH228219   7.760   5.628   0.799
 9421TIP3    H128220   7.740   5.715   0.834
 9421TIP3    H228221   7.696   5.570   0.840
 9422TIP3   OH228222   2.484   4.987   1.048
 9422TIP3    H128223   2.533   5.058   1.089
 9422TIP3    H228224   2.446   4.938   1.121
 9423TIP3   OH228225   4.244   4.148   3.555
 9423TIP3    H128226   4.214   4.235   3.529
 9423TIP3    H228227   4.167   4.092   3.546
 9424TIP3   OH228228   7.308   6.715   3.433
 9424TIP3    H128229   7.386   6.702   3.486
 9424TIP3    H228230   7.247   6.648   3.462
 9425TIP3   OH228231   6.980   4.823   4.357
 9425TIP3    H128232   7.045   4.842   4.289
 9425TIP3    H228233   6.907   4.881   4.338
 9426TIP3   OH228234   0.303   0.937   2.757
 9426TIP3    H128235   0.301   1.014   2.814
 9426TIP3    H228236   0.274   0.969   2.672
 9427TIP3   OH228237   7.423   4.164   4.992
 9427TIP3    H128238   7.436   4.114   4.911
 9427TIP3    H228239   7.351   4.224   4.972
 9428TIP3   OH228240   4.142   3.494   2.195
 9428TIP3    H128241   4.092   3.502   2.277
 9428TIP3    H228242   4.126   3.404   2.166
 9429TIP3   OH228243   5.749   4.896   0.072
 9429TIP3    H128244   5.720   4.834   0.139
 9429TIP3    H228245   5.674   4.954   0.058
 9430TIP3   OH228246   5.488   1.162   4.298
 9430TIP3    H128247   5.570   1.176   4.345
 9430TIP3    H228248   5.472   1.244   4.253
 9431TIP3   OH228249   0.178   3.937   6.103
 9431TIP3    H128250   0.200   3.889   6.183
 9431TIP3    H228251   0.243   4.006   6.097
 9432TIP3   OH228252   8.088   1.112   3.866
 9432TIP3    H128253   8.028   1.169   3.818
 9432TIP3    H228254   8.057   1.115   3.957
 9433TIP3   OH228255   6.134   1.997   3.363
 9433TIP3    H128256   6.140   2.046   3.280
 9433TIP3    H228257   6.109   1.908   3.336
 9434TIP3   OH228258   1.961   4.876   5.340
 9434TIP3    H128259   1.999   4.788   5.343
 9434TIP3    H228260   1.935   4.895   5.430
 9435TIP3   OH228261   4.767   3.506   3.430
 9435TIP3    H128262   4.759   3.447   3.504
 9435TIP3    H228263   4.677   3.523   3.403
 9436TIP3   OH228264   6.473   2.779   0.093
 9436TIP3    H128265   6.559   2.738   0.097
 9436TIP3    H228266   6.463   2.823   0.177
 9437TIP3   OH228267   4.190   0.884   5.872
 9437TIP3    H128268   4.198   0.790   5.854
 9437TIP3    H228269   4.173   0.923   5.786
 9438TIP3   OH228270   3.783   5.944   0.010
 9438TIP3    H128271   3.827   5.869   0.052
 9438TIP3    H228272   3.720   5.975   0.076
 9439TIP3   OH228273   2.550   6.037   2.405
 9439TIP3    H128274   2.632   6.043   2.357
 9439TIP3    H228275   2.482   6.042   2.338
 9440TIP3   OH228276   7.605   1.018   5.702
 9440TIP3    H128277   7.548   1.053   5.770
 9440TIP3    H228278   7.550   1.013   5.624
 9441TIP3   OH228279   2.092   2.891   2.771
 9441TIP3    H128280   2.005   2.885   2.732
 9441TIP3    H228281   2.078   2.875   2.865
 9442TIP3   OH228282   3.467   5.209   3.478
 9442TIP3    H128283   3.485   5.265   3.403
 9442TIP3    H228284   3.432   5.128   3.440
 9443TIP3   OH228285   1.051   5.642   6.637
 9443TIP3    H128286   1.049   5.601   6.724
 9443TIP3    H228287   0.976   5.701   6.637
 9444TIP3   OH228288   2.860   3.778   0.993
 9444TIP3    H128289   2.887   3.835   0.921
 9444TIP3    H228290   2.771   3.750   0.969
 9445TIP3   OH228291   5.921   2.714   2.218
 9445TIP3    H128292   5.934   2.809   2.221
 9445TIP3    H228293   5.826   2.704   2.210
 9446TIP3   OH228294   3.602   2.252   2.766
 9446TIP3    H128295   3.559   2.250   2.681
 9446TIP3    H228296   3.577   2.170   2.808
 9447TIP3   OH228297   6.258   4.826   0.711
 9447TIP3    H128298   6.206   4.901   0.681
 9447TIP3    H228299   6.274   4.844   0.804
 9448TIP3   OH228300   5.277   2.387   5.540
 9448TIP3    H128301   5.339   2.316   5.527
 9448TIP3    H228302   5.288   2.412   5.632
 9449TIP3   OH228303   6.362   7.362   6.417
 9449TIP3    H128304   6.429   7.408   6.367
 9449TIP3    H228305   6.402   7.278   6.439
 9450TIP3   OH228306   5.818   4.806   5.434
 9450TIP3    H128307   5.819   4.875   5.368
 9450TIP3    H228308   5.901   4.760   5.423
 9451TIP3   OH228309   7.172   6.004   2.184
 9451TIP3    H128310   7.154   5.910   2.172
 9451TIP3    H228311   7.092   6.047   2.156
 9452TIP3   OH228312   0.855   5.797   4.414
 9452TIP3    H128313   0.891   5.724   4.365
 9452TIP3    H228314   0.823   5.858   4.347
 9453TIP3   OH228315   7.310   7.328   2.113
 9453TIP3    H128316   7.228   7.305   2.157
 9453TIP3    H228317   7.282   7.366   2.029
 9454TIP3   OH228318   4.010   1.485   4.931
 9454TIP3    H128319   3.980   1.534   4.854
 9454TIP3    H228320   4.073   1.422   4.897
 9455TIP3   OH228321   4.879   7.741   2.798
 9455TIP3    H128322   4.907   7.676   2.863
 9455TIP3    H228323   4.895   7.698   2.714
 9456TIP3   OH228324   4.409   1.012   1.857
 9456TIP3    H128325   4.383   1.102   1.872
 9456TIP3    H228326   4.328   0.961   1.866
 9457TIP3   OH228327   5.445   3.956   4.819
 9457TIP3    H128328   5.446   4.030   4.759
 9457TIP3    H228329   5.503   3.892   4.780
 9458TIP3   OH228330   4.213   0.390   0.623
 9458TIP3    H128331   4.241   0.337   0.548
 9458TIP3    H228332   4.155   0.331   0.672
 9459TIP3   OH228333   0.686   0.703   2.915
 9459TIP3    H128334   0.760   0.722   2.857
 9459TIP3    H228335   0.687   0.774   2.979
 9460TIP3   OH228336   4.740   2.853   1.603
 9460TIP3    H128337   4.822   2.854   1.653
 9460TIP3    H228338   4.765   2.884   1.516
 9461TIP3   OH228339   2.094   4.844   3.374
 9461TIP3    H128340   2.092   4.776   3.442
 9461TIP3    H228341   2.183   4.842   3.340
 9462TIP3   OH228342   0.176   4.960   1.956
 9462TIP3    H128343   0.258   4.970   1.907
 9462TIP3    H228344   0.160   4.866   1.957
 9463TIP3   OH228345   6.834   3.168   4.826
 9463TIP3    H128346   6.922   3.199   4.847
 9463TIP3    H228347   6.814   3.208   4.742
 9464TIP3   OH228348   8.135   4.670   6.517
 9464TIP3    H128349   8.132   4.590   6.571
 9464TIP3    H228350   8.181   4.643   6.437
 9465TIP3   OH228351   4.306   2.377   3.985
 9465TIP3    H128352   4.392   2.364   3.945
 9465TIP3    H228353   4.250   2.403   3.912
 9466TIP3   OH228354   4.785   7.214   1.121
 9466TIP3    H128355   4.769   7.156   1.047
 9466TIP3    H228356   4.813   7.296   1.082
 9467TIP3   OH228357   6.651   6.026   5.047
 9467TIP3    H128358   6.645   5.944   4.998
 9467TIP3    H228359   6.744   6.035   5.067
 9468TIP3   OH228360   7.053   0.253   6.115
 9468TIP3    H128361   6.987   0.298   6.063
 9468TIP3    H228362   7.066   0.169   6.071
 9469TIP3   OH228363   1.326   3.628   4.334
 9469TIP3    H128364   1.293   3.713   4.304
 9469TIP3    H228365   1.264   3.565   4.298
 9470TIP3   OH228366   5.931   0.571   0.234
 9470TIP3    H128367   5.861   0.625   0.196
 9470TIP3    H228368   5.993   0.635   0.271
 9471TIP3   OH228369   2.525   0.961   4.766
 9471TIP3    H128370   2.533   0.964   4.671
 9471TIP3    H228371   2.466   0.887   4.784
 9472TIP3   OH228372   1.206   5.135   1.269
 9472TIP3    H128373   1.177   5.223   1.248
 9472TIP3    H228374   1.152   5.078   1.214
 9473TIP3   OH228375   8.009   4.121   3.836
 9473TIP3    H128376   7.977   4.169   3.759
 9473TIP3    H228377   8.032   4.034   3.802
 9474TIP3   OH228378   0.320   4.640   1.569
 9474TIP3    H128379   0.296   4.625   1.661
 9474TIP3    H228380   0.416   4.636   1.569
 9475TIP3   OH228381   3.232   5.846   4.092
 9475TIP3    H128382   3.212   5.810   4.179
 9475TIP3    H228383   3.302   5.789   4.059
 9476TIP3   OH228384   4.639   3.064   4.978
 9476TIP3    H128385   4.698   3.101   5.044
 9476TIP3    H228386   4.649   2.970   4.987
 9477TIP3   OH228387   5.209   7.298   2.560
 9477TIP3    H128388   5.168   7.212   2.551
 9477TIP3    H228389   5.254   7.295   2.644
 9478TIP3   OH228390   7.414   1.511   4.464
 9478TIP3    H128391   7.382   1.522   4.375
 9478TIP3    H228392   7.482   1.443   4.457
 9479TIP3   OH228393   7.281   3.346   5.280
 9479TIP3    H128394   7.301   3.252   5.282
 9479TIP3    H228395   7.189   3.351   5.305
 9480TIP3   OH228396   5.590   3.293   1.877
 9480TIP3    H128397   5.651   3.318   1.809
 9480TIP3    H228398   5.509   3.339   1.855
 9481TIP3   OH228399   6.674   0.662   0.160
 9481TIP3    H128400   6.592   0.689   0.202
 9481TIP3    H228401   6.678   0.567   0.172
 9482TIP3   OH228402  -0.009   6.320   5.870
 9482TIP3    H128403   0.073   6.278   5.847
 9482TIP3    H228404  -0.009   6.403   5.823
 9483TIP3   OH228405   4.188   7.709   2.178
 9483TIP3    H128406   4.154   7.723   2.090
 9483TIP3    H228407   4.153   7.624   2.204
 9484TIP3   OH228408   2.627   7.573   2.938
 9484TIP3    H128409   2.597   7.521   3.013
 9484TIP3    H228410   2.697   7.628   2.974
 9485TIP3   OH228411   2.825   2.645   0.314
 9485TIP3    H128412   2.917   2.618   0.324
 9485TIP3    H228413   2.811   2.706   0.386
 9486TIP3   OH228414   8.306   6.251   3.900
 9486TIP3    H128415   8.301   6.199   3.981
 9486TIP3    H228416   8.248   6.325   3.915
 9487TIP3   OH228417   4.876   4.948   6.483
 9487TIP3    H128418   4.802   4.906   6.528
 9487TIP3    H228419   4.862   4.928   6.390
 9488TIP3   OH228420   5.778   1.042   3.654
 9488TIP3    H128421   5.707   1.092   3.614
 9488TIP3    H228422   5.769   0.954   3.617
 9489TIP3   OH228423   0.827   0.053   5.789
 9489TIP3    H128424   0.897   0.042   5.853
 9489TIP3    H228425   0.748   0.021   5.834
 9490TIP3   OH228426   4.940   6.461   4.373
 9490TIP3    H128427   4.962   6.467   4.466
 9490TIP3    H228428   4.895   6.377   4.364
 9491TIP3   OH228429   7.786   6.268   5.586
 9491TIP3    H128430   7.870   6.231   5.614
 9491TIP3    H228431   7.797   6.362   5.596
 9492TIP3   OH228432   7.688   6.406   0.737
 9492TIP3    H128433   7.731   6.321   0.724
 9492TIP3    H228434   7.595   6.384   0.744
 9493TIP3   OH228435   4.109   0.018   1.427
 9493TIP3    H128436   4.029  -0.026   1.454
 9493TIP3    H228437   4.085   0.065   1.347
 9494TIP3   OH228438   3.450   4.005   5.376
 9494TIP3    H128439   3.501   3.993   5.296
 9494TIP3    H228440   3.516   4.010   5.445
 9495TIP3   OH228441   1.582   2.591   2.347
 9495TIP3    H128442   1.649   2.525   2.361
 9495TIP3    H228443   1.521   2.579   2.420
 9496TIP3   OH228444   4.405   3.086   1.814
 9496TIP3    H128445   4.428   3.045   1.730
 9496TIP3    H228446   4.318   3.123   1.799
 9497TIP3   OH228447   7.370   6.362   5.026
 9497TIP3    H128448   7.388   6.456   5.035
 9497TIP3    H228449   7.326   6.339   5.108
 9498TIP3   OH228450   3.730   5.555   0.155
 9498TIP3    H128451   3.782   5.635   0.147
 9498TIP3    H228452   3.707   5.549   0.248
 9499TIP3   OH228453   4.428   1.438   5.744
 9499TIP3    H128454   4.479   1.482   5.812
 9499TIP3    H228455   4.362   1.503   5.719
 9500TIP3   OH228456   6.567   4.540   6.620
 9500TIP3    H128457   6.603   4.621   6.656
 9500TIP3    H228458   6.643   4.488   6.595
 9501TIP3   OH228459   0.864   4.553   1.177
 9501TIP3    H128460   0.864   4.589   1.088
 9501TIP3    H228461   0.956   4.539   1.198
 9502TIP3   OH228462   5.237   4.742   5.443
 9502TIP3    H128463   5.257   4.781   5.528
 9502TIP3    H228464   5.147   4.711   5.451
 9503TIP3   OH228465   6.586   4.763   1.466
 9503TIP3    H128466   6.520   4.816   1.421
 9503TIP3    H228467   6.626   4.710   1.396
 9504TIP3   OH228468   5.764   1.710   3.101
 9504TIP3    H128469   5.747   1.775   3.170
 9504TIP3    H228470   5.768   1.626   3.147
 9505TIP3   OH228471   1.739   2.810   1.938
 9505TIP3    H128472   1.668   2.872   1.923
 9505TIP3    H228473   1.701   2.725   1.917
 9506TIP3   OH228474   3.649   6.705   0.071
 9506TIP3    H128475   3.651   6.685   0.165
 9506TIP3    H228476   3.592   6.638   0.034
 9507TIP3   OH228477   7.273   4.324   5.387
 9507TIP3    H128478   7.313   4.242   5.357
 9507TIP3    H228479   7.269   4.314   5.482
 9508TIP3   OH228480   6.614   3.413   5.768
 9508TIP3    H128481   6.631   3.505   5.785
 9508TIP3    H228482   6.584   3.410   5.677
 9509TIP3   OH228483   4.301   4.497   0.790
 9509TIP3    H128484   4.328   4.523   0.702
 9509TIP3    H228485   4.382   4.498   0.841
 9510TIP3   OH228486   4.024   3.441   0.245
 9510TIP3    H128487   4.075   3.444   0.164
 9510TIP3    H228488   4.084   3.473   0.312
 9511TIP3   OH228489   4.331   5.208   0.642
 9511TIP3    H128490   4.416   5.249   0.627
 9511TIP3    H228491   4.334   5.179   0.733
 9512TIP3   OH228492   3.773   7.699   4.690
 9512TIP3    H128493   3.848   7.707   4.631
 9512TIP3    H228494   3.794   7.757   4.763
 9513TIP3   OH228495   0.482   1.052   5.384
 9513TIP3    H128496   0.488   1.115   5.456
 9513TIP3    H228497   0.395   1.066   5.347
 9514TIP3   OH228498   7.726   1.402   6.662
 9514TIP3    H128499   7.769   1.349   6.595
 9514TIP3    H228500   7.703   1.483   6.617
 9515TIP3   OH228501   4.815   7.377   5.559
 9515TIP3    H128502   4.903   7.414   5.550
 9515TIP3    H228503   4.767   7.409   5.483
 9516TIP3   OH228504   2.324   7.615   4.193
 9516TIP3    H128505   2.379   7.685   4.157
 9516TIP3    H228506   2.382   7.566   4.251
 9517TIP3   OH228507   1.564   3.340   5.771
 9517TIP3    H128508   1.619   3.306   5.702
 9517TIP3    H228509   1.491   3.278   5.777
 9518TIP3   OH228510   7.669   1.906   4.141
 9518TIP3    H128511   7.725   1.893   4.217
 9518TIP3    H228512   7.715   1.972   4.089
 9519TIP3   OH228513   1.848   3.593   0.256
 9519TIP3    H128514   1.757   3.562   0.251
 9519TIP3    H228515   1.851   3.644   0.337
 9520TIP3   OH228516   7.051   7.233   2.207
 9520TIP3    H128517   7.064   7.271   2.293
 9520TIP3    H228518   6.956   7.231   2.196
 9521TIP3   OH228519   2.044   4.110   2.271
 9521TIP3    H128520   2.012   4.024   2.245
 9521TIP3    H228521   2.096   4.140   2.196
 9522TIP3   OH228522   3.081   7.179   0.004
 9522TIP3    H128523   3.029   7.260   0.008
 9522TIP3    H228524   3.016   7.109  -0.003
 9523TIP3   OH228525   3.125   5.135   3.216
 9523TIP3    H128526   3.112   5.049   3.174
 9523TIP3    H228527   3.207   5.167   3.178
 9524TIP3   OH228528   8.230   3.834   2.080
 9524TIP3    H128529   8.265   3.753   2.043
 9524TIP3    H228530   8.307   3.878   2.117
 9525TIP3   OH228531   3.860   4.022   0.528
 9525TIP3    H128532   3.831   3.933   0.545
 9525TIP3    H228533   3.950   4.013   0.496
 9526TIP3   OH228534   5.853   5.577   5.680
 9526TIP3    H128535   5.782   5.635   5.653
 9526TIP3    H228536   5.825   5.544   5.765
 9527TIP3   OH228537   3.037   5.614   0.951
 9527TIP3    H128538   3.070   5.704   0.954
 9527TIP3    H228539   3.108   5.560   0.985
 9528TIP3   OH228540   6.429   3.476   5.550
 9528TIP3    H128541   6.350   3.434   5.582
 9528TIP3    H228542   6.437   3.446   5.459
 9529TIP3   OH228543   5.280   3.392   6.223
 9529TIP3    H128544   5.365   3.362   6.191
 9529TIP3    H228545   5.253   3.325   6.285
 9530TIP3   OH228546   1.649   7.020   5.402
 9530TIP3    H128547   1.672   7.086   5.467
 9530TIP3    H228548   1.729   7.009   5.350
 9531TIP3   OH228549   0.429   2.984   5.377
 9531TIP3    H128550   0.359   3.013   5.320
 9531TIP3    H228551   0.483   2.928   5.321
 9532TIP3   OH228552   5.414   0.293   2.259
 9532TIP3    H128553   5.382   0.380   2.283
 9532TIP3    H228554   5.489   0.311   2.201
 9533TIP3   OH228555   4.948   4.435   2.370
 9533TIP3    H128556   5.028   4.425   2.318
 9533TIP3    H228557   4.878   4.445   2.305
 9534TIP3   OH228558   5.853   4.237   5.359
 9534TIP3    H128559   5.845   4.169   5.292
 9534TIP3    H228560   5.763   4.267   5.374
 9535TIP3   OH228561   7.468   3.702   5.099
 9535TIP3    H128562   7.483   3.755   5.177
 9535TIP3    H228563   7.457   3.613   5.132
 9536TIP3   OH228564   0.661   0.669   5.535
 9536TIP3    H128565   0.620   0.583   5.524
 9536TIP3    H228566   0.739   0.666   5.480
 9537TIP3   OH228567   6.519   3.103   5.333
 9537TIP3    H128568   6.531   3.040   5.404
 9537TIP3    H228569   6.437   3.147   5.353
 9538TIP3   OH228570   2.481   3.861   6.761
 9538TIP3    H128571   2.488   3.897   6.672
 9538TIP3    H228572   2.519   3.928   6.817
 9539TIP3   OH228573   7.743   5.003   3.753
 9539TIP3    H128574   7.668   5.008   3.813
 9539TIP3    H228575   7.811   4.959   3.804
 9540TIP3   OH228576   6.863   0.384   5.984
 9540TIP3    H128577   6.769   0.395   5.998
 9540TIP3    H228578   6.885   0.448   5.917
 9541TIP3   OH228579   6.945   3.251   0.371
 9541TIP3    H128580   6.869   3.224   0.321
 9541TIP3    H228581   6.918   3.333   0.413
 9542TIP3   OH228582   6.274   7.647   5.603
 9542TIP3    H128583   6.314   7.711   5.661
 9542TIP3    H228584   6.302   7.562   5.637
 9543TIP3   OH228585   3.691   0.668   4.746
 9543TIP3    H128586   3.781   0.643   4.723
 9543TIP3    H228587   3.659   0.595   4.798
 9544TIP3   OH228588   3.861   7.640   1.602
 9544TIP3    H128589   3.830   7.556   1.569
 9544TIP3    H228590   3.794   7.703   1.576
 9545TIP3   OH228591   6.860   4.097   5.547
 9545TIP3    H128592   6.946   4.059   5.528
 9545TIP3    H228593   6.858   4.106   5.642
 9546TIP3   OH228594   0.002   7.741   6.200
 9546TIP3    H128595  -0.007   7.659   6.151
 9546TIP3    H228596   0.092   7.769   6.183
 9547TIP3   OH228597   0.392   2.478   6.113
 9547TIP3    H128598   0.428   2.393   6.087
 9547TIP3    H228599   0.452   2.542   6.075
 9548TIP3   OH228600   4.164   1.405   4.150
 9548TIP3    H128601   4.116   1.386   4.231
 9548TIP3    H228602   4.129   1.342   4.087
 9549TIP3   OH228603   6.770   5.027   4.353
 9549TIP3    H128604   6.710   4.953   4.360
 9549TIP3    H228605   6.758   5.059   4.264
 9550TIP3   OH228606   7.052   3.376   4.521
 9550TIP3    H128607   7.019   3.317   4.589
 9550TIP3    H228608   7.064   3.460   4.566
 9551TIP3   OH228609   4.344   5.133   1.160
 9551TIP3    H128610   4.258   5.113   1.124
 9551TIP3    H228611   4.326   5.187   1.236
 9552TIP3   OH228612   7.519   0.812   5.332
 9552TIP3    H128613   7.604   0.854   5.320
 9552TIP3    H228614   7.483   0.806   5.244
 9553TIP3   OH228615   4.190   2.226   0.806
 9553TIP3    H128616   4.099   2.197   0.797
 9553TIP3    H228617   4.184   2.312   0.847
 9554TIP3   OH228618   2.511   1.953   3.273
 9554TIP3    H128619   2.488   2.023   3.212
 9554TIP3    H228620   2.607   1.958   3.278
 9555TIP3   OH228621   4.909   3.817   2.220
 9555TIP3    H128622   5.000   3.824   2.189
 9555TIP3    H228623   4.880   3.908   2.229
 9556TIP3   OH228624   7.259   1.352   6.439
 9556TIP3    H128625   7.193   1.308   6.385
 9556TIP3    H228626   7.281   1.287   6.506
 9557TIP3   OH228627   7.715   5.854   3.415
 9557TIP3    H128628   7.726   5.807   3.498
 9557TIP3    H228629   7.722   5.947   3.439
 9558TIP3   OH228630   0.329   5.018   2.709
 9558TIP3    H128631   0.287   4.963   2.643
 9558TIP3    H228632   0.334   4.961   2.786
 9559TIP3   OH228633   6.096   4.358   1.877
 9559TIP3    H128634   6.146   4.318   1.805
 9559TIP3    H228635   6.070   4.443   1.843
 9560TIP3   OH228636   1.268   6.229   2.121
 9560TIP3    H128637   1.326   6.171   2.172
 9560TIP3    H228638   1.260   6.185   2.036
 9561TIP3   OH228639   7.565   3.031   0.205
 9561TIP3    H128640   7.492   3.093   0.204
 9561TIP3    H228641   7.543   2.968   0.136
 9562TIP3   OH228642   5.819   6.716   3.133
 9562TIP3    H128643   5.774   6.687   3.213
 9562TIP3    H228644   5.881   6.782   3.163
 9563TIP3   OH228645   5.616   6.468   1.650
 9563TIP3    H128646   5.536   6.421   1.673
 9563TIP3    H228647   5.592   6.560   1.653
 9564TIP3   OH228648   3.003   7.367   1.726
 9564TIP3    H128649   3.008   7.460   1.745
 9564TIP3    H228650   2.956   7.330   1.800
 9565TIP3   OH228651   4.787   5.023   2.255
 9565TIP3    H128652   4.872   5.059   2.280
 9565TIP3    H228653   4.787   4.934   2.290
 9566TIP3   OH228654   3.757   5.646   2.195
 9566TIP3    H128655   3.827   5.678   2.252
 9566TIP3    H228656   3.718   5.725   2.158
 9567TIP3   OH228657   6.713   2.830   1.722
 9567TIP3    H128658   6.766   2.795   1.650
 9567TIP3    H228659   6.769   2.820   1.799
 9568TIP3   OH228660   1.178   0.988   4.170
 9568TIP3    H128661   1.205   0.929   4.240
 9568TIP3    H228662   1.232   0.962   4.095
 9569TIP3   OH228663   7.449   0.541   4.013
 9569TIP3    H128664   7.425   0.528   4.104
 9569TIP3    H228665   7.451   0.453   3.975
 9570TIP3   OH228666   1.460   0.411   3.829
 9570TIP3    H128667   1.489   0.416   3.738
 9570TIP3    H228668   1.480   0.321   3.856
 9571TIP3   OH228669   1.868   7.599   0.481
 9571TIP3    H128670   1.918   7.663   0.531
 9571TIP3    H228671   1.786   7.643   0.461
 9572TIP3   OH228672   4.343   5.980   3.113
 9572TIP3    H128673   4.389   5.898   3.096
 9572TIP3    H228674   4.372   6.006   3.201
 9573TIP3   OH228675   5.015   7.396   5.830
 9573TIP3    H128676   5.043   7.458   5.762
 9573TIP3    H228677   5.021   7.446   5.911
 9574TIP3   OH228678   7.873   2.025   3.207
 9574TIP3    H128679   7.835   2.082   3.273
 9574TIP3    H228680   7.941   1.976   3.254
 9575TIP3   OH228681   5.874   0.121   0.144
 9575TIP3    H128682   5.937   0.192   0.133
 9575TIP3    H228683   5.847   0.128   0.236
 9576TIP3   OH228684   2.678   0.399   5.386
 9576TIP3    H128685   2.747   0.379   5.449
 9576TIP3    H228686   2.724   0.415   5.304
 9577TIP3   OH228687   5.509   2.734   0.651
 9577TIP3    H128688   5.602   2.749   0.668
 9577TIP3    H228689   5.503   2.641   0.630
 9578TIP3   OH228690   1.866   5.297   6.406
 9578TIP3    H128691   1.824   5.376   6.440
 9578TIP3    H228692   1.959   5.320   6.402
 9579TIP3   OH228693   6.204   2.646   1.144
 9579TIP3    H128694   6.227   2.657   1.052
 9579TIP3    H228695   6.288   2.643   1.190
 9580TIP3   OH228696   7.048   1.251   0.353
 9580TIP3    H128697   7.010   1.190   0.417
 9580TIP3    H228698   7.103   1.309   0.405
 9581TIP3   OH228699   4.587   0.125   4.112
 9581TIP3    H128700   4.589   0.150   4.204
 9581TIP3    H228701   4.607   0.206   4.065
 9582TIP3   OH228702   4.129   6.167   2.779
 9582TIP3    H128703   4.214   6.155   2.735
 9582TIP3    H228704   4.151   6.201   2.865
 9583TIP3   OH228705   4.705   3.315   3.628
 9583TIP3    H128706   4.612   3.310   3.605
 9583TIP3    H228707   4.706   3.323   3.723
 9584TIP3   OH228708   5.074   5.712   0.176
 9584TIP3    H128709   5.099   5.788   0.123
 9584TIP3    H228710   5.121   5.723   0.258
 9585TIP3   OH228711   0.623   1.021   2.269
 9585TIP3    H128712   0.688   1.025   2.199
 9585TIP3    H228713   0.590   0.932   2.266
 9586TIP3   OH228714   4.799   4.969   5.372
 9586TIP3    H128715   4.780   4.900   5.308
 9586TIP3    H228716   4.856   5.030   5.325
 9587TIP3   OH228717   1.394   6.076   4.046
 9587TIP3    H128718   1.331   6.146   4.063
 9587TIP3    H228719   1.414   6.039   4.132
 9588TIP3   OH228720   8.077   4.982   3.462
 9588TIP3    H128721   8.000   4.927   3.452
 9588TIP3    H228722   8.043   5.070   3.476
 9589TIP3   OH228723   8.210   1.720   1.881
 9589TIP3    H128724   8.154   1.689   1.952
 9589TIP3    H228725   8.197   1.656   1.810
 9590TIP3   OH228726   4.843   2.727   6.092
 9590TIP3    H128727   4.804   2.809   6.123
 9590TIP3    H228728   4.914   2.709   6.154
 9591TIP3   OH228729   2.087   7.348   2.862
 9591TIP3    H128730   2.070   7.438   2.892
 9591TIP3    H228731   2.173   7.327   2.898
 9592TIP3   OH228732   5.346   6.188   5.950
 9592TIP3    H128733   5.380   6.178   6.039
 9592TIP3    H228734   5.423   6.177   5.894
 9593TIP3   OH228735   5.742   5.632   5.362
 9593TIP3    H128736   5.755   5.596   5.274
 9593TIP3    H228737   5.823   5.612   5.408
 9594TIP3   OH228738   0.126   0.467   4.472
 9594TIP3    H128739   0.068   0.503   4.406
 9594TIP3    H228740   0.084   0.488   4.556
 9595TIP3   OH228741   2.443   3.826   5.940
 9595TIP3    H128742   2.425   3.874   5.860
 9595TIP3    H228743   2.517   3.770   5.918
 9596TIP3   OH228744   1.776   1.391   5.782
 9596TIP3    H128745   1.690   1.430   5.794
 9596TIP3    H228746   1.818   1.445   5.715
 9597TIP3   OH228747   8.068   0.366   4.101
 9597TIP3    H128748   8.085   0.364   4.195
 9597TIP3    H228749   8.155   0.374   4.061
 9598TIP3   OH228750   1.146   6.574   5.657
 9598TIP3    H128751   1.109   6.634   5.592
 9598TIP3    H228752   1.139   6.488   5.617
 9599TIP3   OH228753   3.154   4.774   4.023
 9599TIP3    H128754   3.099   4.846   4.054
 9599TIP3    H228755   3.227   4.771   4.085
 9600TIP3   OH228756   1.136   3.758   5.434
 9600TIP3    H128757   1.090   3.700   5.495
 9600TIP3    H228758   1.097   3.738   5.349
 9601TIP3   OH228759   1.123   2.729   4.266
 9601TIP3    H128760   1.109   2.699   4.177
 9601TIP3    H228761   1.034   2.740   4.302
 9602TIP3   OH228762   4.410   5.932   2.395
 9602TIP3    H128763   4.452   5.851   2.423
 9602TIP3    H228764   4.475   5.975   2.339
 9603TIP3   OH228765   6.262   5.636   1.142
 9603TIP3    H128766   6.343   5.592   1.119
 9603TIP3    H228767   6.277   5.728   1.118
 9604TIP3   OH228768   4.931   4.625   1.104
 9604TIP3    H128769   4.926   4.572   1.025
 9604TIP3    H228770   4.859   4.595   1.159
 9605TIP3   OH228771   5.033   7.419   2.388
 9605TIP3    H128772   5.079   7.503   2.398
 9605TIP3    H228773   5.099   7.353   2.406
 9606TIP3   OH228774   6.506   7.034   6.022
 9606TIP3    H128775   6.474   7.123   6.005
 9606TIP3    H228776   6.495   7.023   6.117
 9607TIP3   OH228777   6.022   0.839   4.728
 9607TIP3    H128778   6.021   0.887   4.646
 9607TIP3    H228779   6.015   0.907   4.796
 9608TIP3   OH228780   0.434   1.447   6.652
 9608TIP3    H128781   0.525   1.467   6.632
 9608TIP3    H228782   0.407   1.515   6.713
 9609TIP3   OH228783   6.798   6.807   5.434
 9609TIP3    H128784   6.758   6.851   5.510
 9609TIP3    H228785   6.743   6.730   5.420
 9610TIP3   OH228786   2.036   1.812   0.333
 9610TIP3    H128787   2.071   1.898   0.355
 9610TIP3    H228788   2.000   1.779   0.415
 9611TIP3   OH228789   7.927   3.144   2.211
 9611TIP3    H128790   7.996   3.176   2.153
 9611TIP3    H228791   7.885   3.073   2.161
 9612TIP3   OH228792   1.865   2.218   6.004
 9612TIP3    H128793   1.796   2.155   5.982
 9612TIP3    H228794   1.852   2.235   6.097
 9613TIP3   OH228795   6.996   0.425   3.602
 9613TIP3    H128796   6.996   0.507   3.551
 9613TIP3    H228797   6.927   0.372   3.562
 9614TIP3   OH228798   0.734   0.156   5.387
 9614TIP3    H128799   0.733   0.202   5.303
 9614TIP3    H228800   0.746   0.225   5.452
 9615TIP3   OH228801   8.108   7.507   0.576
 9615TIP3    H128802   8.040   7.547   0.521
 9615TIP3    H228803   8.070   7.504   0.663
 9616TIP3   OH228804   0.775   1.613   0.708
 9616TIP3    H128805   0.821   1.543   0.754
 9616TIP3    H228806   0.843   1.659   0.659
 9617TIP3   OH228807   4.950   7.335   3.911
 9617TIP3    H128808   5.016   7.267   3.926
 9617TIP3    H228809   4.871   7.302   3.954
 9618TIP3   OH228810   0.284   5.157   4.113
 9618TIP3    H128811   0.323   5.170   4.027
 9618TIP3    H228812   0.245   5.241   4.135
 9619TIP3   OH228813   5.705   7.550   5.938
 9619TIP3    H128814   5.674   7.606   5.867
 9619TIP3    H228815   5.650   7.575   6.013
 9620TIP3   OH228816   1.929   5.144   5.574
 9620TIP3    H128817   1.965   5.174   5.657
 9620TIP3    H228818   1.884   5.062   5.595
 9621TIP3   OH228819   7.375   3.234   0.193
 9621TIP3    H128820   7.286   3.228   0.158
 9621TIP3    H228821   7.383   3.326   0.221
 9622TIP3   OH228822   6.297   5.597   3.653
 9622TIP3    H128823   6.339   5.572   3.735
 9622TIP3    H228824   6.352   5.667   3.618
 9623TIP3   OH228825   3.416   1.470   3.506
 9623TIP3    H128826   3.481   1.413   3.465
 9623TIP3    H228827   3.405   1.542   3.443
 9624TIP3   OH228828   4.890   0.054   0.303
 9624TIP3    H128829   4.923  -0.006   0.236
 9624TIP3    H228830   4.946   0.037   0.379
 9625TIP3   OH228831   7.511   4.970   2.332
 9625TIP3    H128832   7.599   4.998   2.309
 9625TIP3    H228833   7.521   4.925   2.416
 9626TIP3   OH228834   4.784   3.002   6.091
 9626TIP3    H128835   4.770   2.989   5.997
 9626TIP3    H228836   4.845   3.076   6.096
 9627TIP3   OH228837   6.358   2.037   1.815
 9627TIP3    H128838   6.363   2.039   1.911
 9627TIP3    H228839   6.400   2.118   1.788
 9628TIP3   OH228840   0.325   6.854   5.676
 9628TIP3    H128841   0.264   6.927   5.665
 9628TIP3    H228842   0.393   6.870   5.610
 9629TIP3   OH228843   6.421   1.352   2.517
 9629TIP3    H128844   6.426   1.258   2.497
 9629TIP3    H228845   6.327   1.370   2.522
 9630TIP3   OH228846   5.215   4.652   3.616
 9630TIP3    H128847   5.287   4.597   3.647
 9630TIP3    H228848   5.159   4.664   3.693
 9631TIP3   OH228849   3.122   0.162   0.348
 9631TIP3    H128850   3.172   0.090   0.388
 9631TIP3    H228851   3.149   0.240   0.397
 9632TIP3   OH228852   2.315   5.321   4.161
 9632TIP3    H128853   2.238   5.265   4.154
 9632TIP3    H228854   2.351   5.323   4.072
 9633TIP3   OH228855   3.626   5.850   5.460
 9633TIP3    H128856   3.656   5.933   5.499
 9633TIP3    H228857   3.599   5.874   5.371
 9634TIP3   OH228858   2.903   1.321   2.234
 9634TIP3    H128859   2.818   1.362   2.253
 9634TIP3    H228860   2.914   1.256   2.304
 9635TIP3   OH228861   1.232   1.796   0.417
 9635TIP3    H128862   1.308   1.750   0.382
 9635TIP3    H228863   1.252   1.889   0.406
 9636TIP3   OH228864   4.756   4.904   4.275
 9636TIP3    H128865   4.677   4.958   4.278
 9636TIP3    H228866   4.788   4.914   4.185
 9637TIP3   OH228867   0.012   0.068   0.288
 9637TIP3    H128868  -0.043   0.125   0.234
 9637TIP3    H228869   0.043   0.001   0.227
 9638TIP3   OH228870   1.503   6.600   2.955
 9638TIP3    H128871   1.562   6.668   2.921
 9638TIP3    H228872   1.471   6.555   2.876
 9639TIP3   OH228873   6.708   4.076   0.071
 9639TIP3    H128874   6.732   4.146   0.131
 9639TIP3    H228875   6.693   4.120  -0.013
 9640TIP3   OH228876   7.780   7.081   2.840
 9640TIP3    H128877   7.802   7.119   2.756
 9640TIP3    H228878   7.686   7.065   2.836
 9641TIP3   OH228879   0.588   3.638   0.393
 9641TIP3    H128880   0.540   3.626   0.475
 9641TIP3    H228881   0.531   3.603   0.326
 9642TIP3   OH228882   5.743   5.095   2.212
 9642TIP3    H128883   5.817   5.043   2.244
 9642TIP3    H228884   5.704   5.040   2.144
 9643TIP3   OH228885   2.211   1.220   4.084
 9643TIP3    H128886   2.180   1.131   4.100
 9643TIP3    H228887   2.244   1.218   3.994
 9644TIP3   OH228888   3.142   7.002   2.353
 9644TIP3    H128889   3.157   7.029   2.443
 9644TIP3    H228890   3.230   6.991   2.316
 9645TIP3   OH228891   4.510   3.050   2.715
 9645TIP3    H128892   4.566   3.007   2.780
 9645TIP3    H228893   4.568   3.110   2.669
 9646TIP3   OH228894   4.592   1.615   1.976
 9646TIP3    H128895   4.616   1.526   2.000
 9646TIP3    H228896   4.496   1.613   1.969
 9647TIP3   OH228897   2.968   6.679   5.580
 9647TIP3    H128898   2.923   6.749   5.627
 9647TIP3    H228899   2.904   6.650   5.515
 9648TIP3   OH228900   7.174   4.999   0.655
 9648TIP3    H128901   7.096   5.050   0.673
 9648TIP3    H228902   7.247   5.056   0.681
 9649TIP3   OH228903   0.285   0.819   5.488
 9649TIP3    H128904   0.298   0.897   5.543
 9649TIP3    H228905   0.321   0.747   5.541
 9650TIP3   OH228906   5.836   2.097   3.302
 9650TIP3    H128907   5.793   2.182   3.293
 9650TIP3    H228908   5.921   2.108   3.260
 9651TIP3   OH228909   5.282   0.795   0.969
 9651TIP3    H128910   5.357   0.843   1.003
 9651TIP3    H228911   5.238   0.858   0.911
 9652TIP3   OH228912   1.149   0.487   2.884
 9652TIP3    H128913   1.238   0.461   2.906
 9652TIP3    H228914   1.097   0.456   2.958
 9653TIP3   OH228915   4.714   7.669   4.718
 9653TIP3    H128916   4.732   7.741   4.779
 9653TIP3    H228917   4.778   7.681   4.648
 9654TIP3   OH228918   4.304   4.130   1.864
 9654TIP3    H128919   4.358   4.052   1.854
 9654TIP3    H228920   4.333   4.189   1.795
 9655TIP3   OH228921   0.037   0.310   3.327
 9655TIP3    H128922  -0.040   0.270   3.368
 9655TIP3    H228923   0.099   0.237   3.316
 9656TIP3   OH228924   5.062   7.398   0.758
 9656TIP3    H128925   5.100   7.347   0.685
 9656TIP3    H228926   5.127   7.465   0.776
 9657TIP3   OH228927   2.723   4.480   4.916
 9657TIP3    H128928   2.813   4.501   4.891
 9657TIP3    H228929   2.669   4.541   4.866
 9658TIP3   OH228930   1.996   5.110   6.696
 9658TIP3    H128931   2.041   5.186   6.657
 9658TIP3    H228932   2.009   5.120   6.790
 9659TIP3   OH228933   4.946   6.676   0.831
 9659TIP3    H128934   4.939   6.582   0.814
 9659TIP3    H228935   5.036   6.688   0.861
 9660TIP3   OH228936   5.702   1.913   4.930
 9660TIP3    H128937   5.737   1.828   4.955
 9660TIP3    H228938   5.775   1.959   4.889
 9661TIP3   OH228939   3.632   1.462   5.391
 9661TIP3    H128940   3.601   1.381   5.431
 9661TIP3    H228941   3.687   1.433   5.318
 9662TIP3   OH228942   1.409   6.770   1.504
 9662TIP3    H128943   1.488   6.810   1.467
 9662TIP3    H228944   1.362   6.843   1.544
 9663TIP3   OH228945   7.398   6.008   4.335
 9663TIP3    H128946   7.425   6.015   4.426
 9663TIP3    H228947   7.319   5.955   4.337
 9664TIP3   OH228948   4.435   3.293   3.623
 9664TIP3    H128949   4.443   3.207   3.664
 9664TIP3    H228950   4.358   3.285   3.566
 9665TIP3   OH228951   2.478   2.268  -0.004
 9665TIP3    H128952   2.571   2.274   0.016
 9665TIP3    H228953   2.456   2.176   0.011
 9666TIP3   OH228954   4.121   1.572   0.189
 9666TIP3    H128955   4.069   1.611   0.260
 9666TIP3    H228956   4.211   1.572   0.222
 9667TIP3   OH228957   2.240   4.947   4.359
 9667TIP3    H128958   2.258   5.026   4.409
 9667TIP3    H228959   2.248   4.974   4.267
 9668TIP3   OH228960   2.050   4.830   1.134
 9668TIP3    H128961   2.065   4.736   1.125
 9668TIP3    H228962   2.026   4.860   1.046
 9669TIP3   OH228963   5.089   4.978   3.037
 9669TIP3    H128964   5.097   4.883   3.026
 9669TIP3    H228965   5.044   4.989   3.120
 9670TIP3   OH228966   4.705   4.316   6.274
 9670TIP3    H128967   4.630   4.285   6.325
 9670TIP3    H228968   4.749   4.236   6.244
 9671TIP3   OH228969   3.577   0.194   5.847
 9671TIP3    H128970   3.593   0.161   5.935
 9671TIP3    H228971   3.603   0.286   5.850
 9672TIP3   OH228972   6.810   3.755   2.542
 9672TIP3    H128973   6.873   3.692   2.506
 9672TIP3    H228974   6.853   3.840   2.534
 9673TIP3   OH228975   4.644   2.107   6.594
 9673TIP3    H128976   4.657   2.182   6.652
 9673TIP3    H228977   4.704   2.122   6.521
 9674TIP3   OH228978   6.219   6.926   6.126
 9674TIP3    H128979   6.196   6.975   6.047
 9674TIP3    H228980   6.201   6.834   6.104
 9675TIP3   OH228981   2.547   6.572   3.388
 9675TIP3    H128982   2.533   6.486   3.349
 9675TIP3    H228983   2.637   6.570   3.421
 9676TIP3   OH228984   5.508   5.831   5.273
 9676TIP3    H128985   5.581   5.770   5.287
 9676TIP3    H228986   5.549   5.917   5.272
 9677TIP3   OH228987   8.145   0.672   1.059
 9677TIP3    H128988   8.109   0.604   1.117
 9677TIP3    H228989   8.079   0.683   0.991
 9678TIP3   OH228990   8.171   3.612   3.722
 9678TIP3    H128991   8.180   3.591   3.815
 9678TIP3    H228992   8.246   3.571   3.680
 9679TIP3   OH228993   7.720   2.627   5.254
 9679TIP3    H128994   7.661   2.703   5.260
 9679TIP3    H228995   7.677   2.569   5.191
 9680TIP3   OH228996   1.445   7.202   5.854
 9680TIP3    H128997   1.435   7.233   5.944
 9680TIP3    H228998   1.439   7.107   5.861
 9681TIP3   OH228999   6.654   6.552   3.235
 9681TIP3    H129000   6.601   6.529   3.158
 9681TIP3    H229001   6.734   6.502   3.224
 9682TIP3   OH229002   2.882   7.296   0.605
 9682TIP3    H129003   2.901   7.366   0.542
 9682TIP3    H229004   2.940   7.224   0.579
 9683TIP3   OH229005   3.919   1.814   1.139
 9683TIP3    H129006   3.901   1.783   1.228
 9683TIP3    H229007   3.947   1.904   1.150
 9684TIP3   OH229008   6.453   0.970   3.813
 9684TIP3    H129009   6.529   1.021   3.840
 9684TIP3    H229010   6.457   0.890   3.865
 9685TIP3   OH229011   0.270   2.887   5.994
 9685TIP3    H129012   0.287   2.815   6.055
 9685TIP3    H229013   0.282   2.849   5.907
 9686TIP3   OH229014   4.989   6.099   1.192
 9686TIP3    H129015   5.078   6.065   1.206
 9686TIP3    H229016   4.949   6.035   1.133
 9687TIP3   OH229017   6.224   2.719   3.009
 9687TIP3    H129018   6.256   2.802   3.043
 9687TIP3    H229019   6.248   2.654   3.076
 9688TIP3   OH229020   2.421   1.485   6.551
 9688TIP3    H129021   2.353   1.419   6.562
 9688TIP3    H229022   2.386   1.564   6.593
 9689TIP3   OH229023   7.513   7.589   4.299
 9689TIP3    H129024   7.605   7.592   4.272
 9689TIP3    H229025   7.511   7.634   4.383
 9690TIP3   OH229026   2.788   3.440   0.320
 9690TIP3    H129027   2.714   3.490   0.353
 9690TIP3    H229028   2.771   3.350   0.350
 9691TIP3   OH229029   0.849   4.663   0.931
 9691TIP3    H129030   0.832   4.643   0.839
 9691TIP3    H229031   0.826   4.755   0.941
 9692TIP3   OH229032   4.544   0.416   5.590
 9692TIP3    H129033   4.540   0.493   5.533
 9692TIP3    H229034   4.504   0.346   5.538
 9693TIP3   OH229035   4.609   4.673   1.271
 9693TIP3    H129036   4.525   4.699   1.234
 9693TIP3    H229037   4.649   4.755   1.299
 9694TIP3   OH229038   4.124   4.947   1.086
 9694TIP3    H129039   4.106   4.890   1.160
 9694TIP3    H229040   4.039   4.959   1.043
 9695TIP3   OH229041   2.917   2.102   4.645
 9695TIP3    H129042   2.965   2.094   4.563
 9695TIP3    H229043   2.879   2.190   4.643
 9696TIP3   OH229044   1.508   4.525   5.153
 9696TIP3    H129045   1.547   4.461   5.213
 9696TIP3    H229046   1.503   4.480   5.069
 9697TIP3   OH229047   5.194   4.059   4.171
 9697TIP3    H129048   5.210   4.065   4.076
 9697TIP3    H229049   5.226   4.142   4.206
 9698TIP3   OH229050   1.505   7.053   2.824
 9698TIP3    H129051   1.523   7.067   2.917
 9698TIP3    H229052   1.535   7.133   2.781
 9699TIP3   OH229053   5.093   5.685   5.586
 9699TIP3    H129054   5.061   5.713   5.501
 9699TIP3    H229055   5.187   5.702   5.584
 9700TIP3   OH229056   6.824   2.021   0.182
 9700TIP3    H129057   6.751   2.003   0.241
 9700TIP3    H229058   6.900   1.985   0.227
 9701TIP3   OH229059   0.376   7.037   2.870
 9701TIP3    H129060   0.395   6.944   2.888
 9701TIP3    H229061   0.353   7.073   2.956
 9702TIP3   OH229062   0.388   4.801   2.906
 9702TIP3    H129063   0.331   4.726   2.922
 9702TIP3    H229064   0.461   4.788   2.967
 9703TIP3   OH229065   4.306   4.069   4.782
 9703TIP3    H129066   4.353   4.133   4.837
 9703TIP3    H229067   4.340   4.084   4.694
 9704TIP3   OH229068   7.381   2.802   0.339
 9704TIP3    H129069   7.441   2.868   0.303
 9704TIP3    H229070   7.382   2.818   0.434
 9705TIP3   OH229071   1.356   1.412   4.682
 9705TIP3    H129072   1.354   1.495   4.633
 9705TIP3    H229073   1.420   1.358   4.636
 9706TIP3   OH229074   3.625   7.086   1.790
 9706TIP3    H129075   3.665   7.120   1.870
 9706TIP3    H229076   3.553   7.031   1.821
 9707TIP3   OH229077   5.927   5.094   0.788
 9707TIP3    H129078   5.857   5.090   0.853
 9707TIP3    H229079   5.905   5.025   0.725
 9708TIP3   OH229080   0.176   5.194   0.464
 9708TIP3    H129081   0.235   5.155   0.400
 9708TIP3    H229082   0.122   5.255   0.413
 9709TIP3   OH229083   5.659   6.503   2.582
 9709TIP3    H129084   5.613   6.531   2.661
 9709TIP3    H229085   5.699   6.583   2.548
 9710TIP3   OH229086   5.037   0.236   5.422
 9710TIP3    H129087   4.951   0.200   5.445
 9710TIP3    H229088   5.099   0.177   5.466
 9711TIP3   OH229089   4.064   0.211   6.145
 9711TIP3    H129090   4.105   0.296   6.130
 9711TIP3    H229091   4.135   0.148   6.137
 9712TIP3   OH229092   7.517   3.415   3.759
 9712TIP3    H129093   7.527   3.510   3.753
 9712TIP3    H229094   7.591   3.386   3.812
 9713TIP3   OH229095   1.903   5.989   5.722
 9713TIP3    H129096   1.841   5.966   5.652
 9713TIP3    H229097   1.886   6.082   5.739
 9714TIP3   OH229098   1.029   5.036   6.579
 9714TIP3    H129099   1.024   4.955   6.527
 9714TIP3    H229100   1.018   5.106   6.515
 9715TIP3   OH229101   5.842   3.413   1.573
 9715TIP3    H129102   5.892   3.333   1.557
 9715TIP3    H229103   5.907   3.478   1.599
 9716TIP3   OH229104   7.920   1.148   0.006
 9716TIP3    H129105   7.884   1.166   0.093
 9716TIP3    H229106   7.925   1.052   0.002
 9717TIP3   OH229107   4.043   7.598   0.645
 9717TIP3    H129108   4.059   7.534   0.576
 9717TIP3    H229109   4.122   7.653   0.645
 9718TIP3   OH229110   0.726   6.039   5.788
 9718TIP3    H129111   0.794   6.008   5.848
 9718TIP3    H229112   0.759   6.124   5.758
 9719TIP3   OH229113   6.335   5.020   6.616
 9719TIP3    H129114   6.412   5.032   6.671
 9719TIP3    H229115   6.367   5.035   6.527
 9720TIP3   OH229116   7.479   0.409   1.508
 9720TIP3    H129117   7.535   0.408   1.430
 9720TIP3    H229118   7.449   0.499   1.515
 9721TIP3   OH229119   7.891   6.214   1.401
 9721TIP3    H129120   7.845   6.244   1.479
 9721TIP3    H229121   7.978   6.189   1.432
 9722TIP3   OH229122   5.954   7.058   6.267
 9722TIP3    H129123   5.915   6.972   6.251
 9722TIP3    H229124   6.040   7.053   6.225
 9723TIP3   OH229125   2.441   0.251   5.770
 9723TIP3    H129126   2.535   0.262   5.785
 9723TIP3    H229127   2.417   0.178   5.826
 9724TIP3   OH229128   1.619   5.103   4.906
 9724TIP3    H129129   1.681   5.035   4.934
 9724TIP3    H229130   1.557   5.110   4.979
 9725TIP3   OH229131   2.896   5.013   3.069
 9725TIP3    H129132   2.868   5.025   3.159
 9725TIP3    H229133   2.880   5.097   3.026
 9726TIP3   OH229134   6.451   6.974   2.156
 9726TIP3    H129135   6.532   6.924   2.151
 9726TIP3    H229136   6.454   7.033   2.081
 9727TIP3   OH229137   0.571   3.549   5.503
 9727TIP3    H129138   0.530   3.609   5.566
 9727TIP3    H229139   0.536   3.463   5.527
 9728TIP3   OH229140   4.118   6.615   2.728
 9728TIP3    H129141   4.150   6.551   2.791
 9728TIP3    H229142   4.164   6.594   2.647
 9729TIP3   OH229143   1.009   4.371   1.572
 9729TIP3    H129144   0.972   4.304   1.629
 9729TIP3    H229145   1.002   4.335   1.484
 9730TIP3   OH229146   0.801   0.088   4.965
 9730TIP3    H129147   0.817   0.136   4.884
 9730TIP3    H229148   0.740   0.018   4.939
 9731TIP3   OH229149   4.029   7.195   3.322
 9731TIP3    H129150   3.950   7.141   3.320
 9731TIP3    H229151   4.003   7.276   3.367
 9732TIP3   OH229152   1.981   3.033   3.448
 9732TIP3    H129153   2.066   3.028   3.492
 9732TIP3    H229154   1.926   3.085   3.506
 9733TIP3   OH229155   7.126   2.812   2.974
 9733TIP3    H129156   7.094   2.859   2.897
 9733TIP3    H229157   7.209   2.855   2.995
 9734TIP3   OH229158   4.948   1.224   3.956
 9734TIP3    H129159   5.033   1.200   3.994
 9734TIP3    H229160   4.895   1.145   3.966
 9735TIP3   OH229161   1.738   2.544   5.357
 9735TIP3    H129162   1.741   2.621   5.413
 9735TIP3    H229163   1.685   2.481   5.405
 9736TIP3   OH229164   2.310   3.679   5.263
 9736TIP3    H129165   2.300   3.766   5.301
 9736TIP3    H229166   2.221   3.644   5.260
 9737TIP3   OH229167   7.336   7.438   5.862
 9737TIP3    H129168   7.270   7.507   5.862
 9737TIP3    H229169   7.411   7.475   5.908
 9738TIP3   OH229170   6.533   1.121   6.360
 9738TIP3    H129171   6.572   1.091   6.442
 9738TIP3    H229172   6.591   1.190   6.330
 9739TIP3   OH229173   5.218   0.347   5.860
 9739TIP3    H129174   5.123   0.360   5.861
 9739TIP3    H229175   5.254   0.429   5.894
 9740TIP3   OH229176   6.882   7.086   5.430
 9740TIP3    H129177   6.889   7.118   5.340
 9740TIP3    H229178   6.893   6.991   5.422
 9741TIP3   OH229179   3.988   4.875   2.352
 9741TIP3    H129180   4.080   4.886   2.378
 9741TIP3    H229181   3.945   4.844   2.431
 9742TIP3   OH229182   4.478   2.770   3.357
 9742TIP3    H129183   4.478   2.808   3.445
 9742TIP3    H229184   4.561   2.798   3.319
 9743TIP3   OH229185   0.662   7.689   4.005
 9743TIP3    H129186   0.575   7.652   4.020
 9743TIP3    H229187   0.679   7.675   3.912
 9744TIP3   OH229188   0.750   7.530   0.170
 9744TIP3    H129189   0.687   7.478   0.220
 9744TIP3    H229190   0.704   7.551   0.088
 9745TIP3   OH229191   7.354   5.265   1.036
 9745TIP3    H129192   7.379   5.318   0.961
 9745TIP3    H229193   7.259   5.259   1.030
 9746TIP3   OH229194   1.705   0.212   1.654
 9746TIP3    H129195   1.755   0.211   1.736
 9746TIP3    H229196   1.744   0.142   1.602
 9747TIP3   OH229197   0.944   6.917   1.902
 9747TIP3    H129198   0.904   6.879   1.980
 9747TIP3    H229199   1.018   6.859   1.882
 9748TIP3   OH229200   6.387   1.006   3.077
 9748TIP3    H129201   6.452   1.069   3.108
 9748TIP3    H229202   6.415   0.983   2.989
 9749TIP3   OH229203   1.306   6.610   5.901
 9749TIP3    H129204   1.252   6.603   5.822
 9749TIP3    H229205   1.296   6.526   5.945
 9750TIP3   OH229206   7.911   2.385   1.686
 9750TIP3    H129207   7.964   2.309   1.707
 9750TIP3    H229208   7.958   2.429   1.615
 9751TIP3   OH229209   7.472   7.314   4.605
 9751TIP3    H129210   7.530   7.263   4.662
 9751TIP3    H229211   7.519   7.319   4.522
 9752TIP3   OH229212   3.188   3.308   1.967
 9752TIP3    H129213   3.106   3.261   1.954
 9752TIP3    H229214   3.174   3.392   1.923
 9753TIP3   OH229215   2.511   0.029   6.608
 9753TIP3    H129216   2.439   0.070   6.561
 9753TIP3    H229217   2.473  -0.050   6.646
 9754TIP3   OH229218   6.063   6.996   2.076
 9754TIP3    H129219   6.122   7.030   2.143
 9754TIP3    H229220   5.977   7.029   2.100
 9755TIP3   OH229221   5.979   5.563   2.325
 9755TIP3    H129222   6.059   5.511   2.337
 9755TIP3    H229223   6.010   5.647   2.291
 9756TIP3   OH229224   3.262   6.797   5.576
 9756TIP3    H129225   3.186   6.740   5.575
 9756TIP3    H229226   3.236   6.872   5.522
 9757TIP3   OH229227   0.942   4.395   0.830
 9757TIP3    H129228   1.000   4.468   0.848
 9757TIP3    H229229   0.924   4.357   0.916
 9758TIP3   OH229230   7.564   3.378   5.955
 9758TIP3    H129231   7.604   3.463   5.971
 9758TIP3    H229232   7.630   3.314   5.982
 9759TIP3   OH229233   0.691   7.380   4.174
 9759TIP3    H129234   0.694   7.472   4.201
 9759TIP3    H229235   0.763   7.339   4.221
 9760TIP3   OH229236   4.843   5.626   1.508
 9760TIP3    H129237   4.790   5.691   1.554
 9760TIP3    H229238   4.812   5.541   1.539
 9761TIP3   OH229239   0.183   1.255   4.044
 9761TIP3    H129240   0.266   1.210   4.055
 9761TIP3    H229241   0.183   1.284   3.953
 9762TIP3   OH229242   0.839   7.322   5.216
 9762TIP3    H129243   0.875   7.400   5.259
 9762TIP3    H229244   0.744   7.334   5.220
 9763TIP3   OH229245   0.189   3.621   3.125
 9763TIP3    H129246   0.163   3.706   3.161
 9763TIP3    H229247   0.106   3.577   3.106
 9764TIP3   OH229248   7.131   4.055   0.820
 9764TIP3    H129249   7.078   3.979   0.845
 9764TIP3    H229250   7.077   4.131   0.842
 9765TIP3   OH229251   4.592   3.707   1.976
 9765TIP3    H129252   4.557   3.768   2.042
 9765TIP3    H229253   4.636   3.639   2.027
 9766TIP3   OH229254   0.694   6.455   3.068
 9766TIP3    H129255   0.612   6.422   3.031
 9766TIP3    H229256   0.752   6.466   2.992
 9767TIP3   OH229257   3.894   5.195   1.597
 9767TIP3    H129258   3.962   5.139   1.560
 9767TIP3    H229259   3.815   5.142   1.593
 9768TIP3   OH229260   4.097   2.204   5.398
 9768TIP3    H129261   4.032   2.247   5.454
 9768TIP3    H229262   4.174   2.260   5.403
 9769TIP3   OH229263   5.864   6.887   0.670
 9769TIP3    H129264   5.791   6.946   0.688
 9769TIP3    H229265   5.837   6.804   0.709
 9770TIP3   OH229266   6.667   1.647   2.104
 9770TIP3    H129267   6.641   1.727   2.060
 9770TIP3    H229268   6.668   1.670   2.197
 9771TIP3   OH229269   4.006   0.578   5.048
 9771TIP3    H129270   3.982   0.642   4.982
 9771TIP3    H229271   4.080   0.618   5.094
 9772TIP3   OH229272   0.916   6.276   3.713
 9772TIP3    H129273   0.990   6.236   3.667
 9772TIP3    H229274   0.880   6.204   3.765
 9773TIP3   OH229275   4.072   5.516   2.835
 9773TIP3    H129276   4.072   5.425   2.804
 9773TIP3    H229277   4.158   5.549   2.809
 9774TIP3   OH229278   0.016   3.244   3.577
 9774TIP3    H129279   0.061   3.195   3.508
 9774TIP3    H229280  -0.030   3.314   3.530
 9775TIP3   OH229281   2.387   2.759   1.863
 9775TIP3    H129282   2.292   2.758   1.850
 9775TIP3    H229283   2.399   2.804   1.946
 9776TIP3   OH229284   1.872   6.523   5.336
 9776TIP3    H129285   1.910   6.437   5.319
 9776TIP3    H229286   1.947   6.577   5.362
 9777TIP3   OH229287   2.465   6.139   5.096
 9777TIP3    H129288   2.534   6.137   5.030
 9777TIP3    H229289   2.477   6.222   5.141
 9778TIP3   OH229290   3.111   4.962   2.855
 9778TIP3    H129291   3.145   4.890   2.908
 9778TIP3    H229292   3.039   4.998   2.907
 9779TIP3   OH229293   7.616   4.073   2.249
 9779TIP3    H129294   7.612   4.140   2.317
 9779TIP3    H229295   7.571   4.111   2.174
 9780TIP3   OH229296  -0.033   3.354   5.794
 9780TIP3    H129297   0.007   3.402   5.721
 9780TIP3    H229298   0.037   3.299   5.828
 9781TIP3   OH229299   2.428   1.129   0.786
 9781TIP3    H129300   2.341   1.168   0.802
 9781TIP3    H229301   2.426   1.046   0.832
 9782TIP3   OH229302   7.248   7.756   2.564
 9782TIP3    H129303   7.301   7.805   2.502
 9782TIP3    H229304   7.200   7.823   2.613
 9783TIP3   OH229305   4.952   2.878   5.419
 9783TIP3    H129306   4.987   2.890   5.508
 9783TIP3    H229307   4.946   2.783   5.409
 9784TIP3   OH229308   2.277   1.689   1.220
 9784TIP3    H129309   2.189   1.675   1.183
 9784TIP3    H229310   2.267   1.765   1.277
 9785TIP3   OH229311   6.664   1.592   0.610
 9785TIP3    H129312   6.703   1.593   0.698
 9785TIP3    H229313   6.646   1.500   0.593
 9786TIP3   OH229314   0.060   5.414   2.278
 9786TIP3    H129315   0.038   5.499   2.240
 9786TIP3    H229316   0.142   5.429   2.324
 9787TIP3   OH229317   4.351   0.544   6.764
 9787TIP3    H129318   4.349   0.451   6.784
 9787TIP3    H229319   4.348   0.548   6.668
 9788TIP3   OH229320   1.460   1.721   0.135
 9788TIP3    H129321   1.500   1.787   0.077
 9788TIP3    H229322   1.531   1.694   0.192
 9789TIP3   OH229323   2.837   1.539   1.465
 9789TIP3    H129324   2.925   1.576   1.470
 9789TIP3    H229325   2.791   1.594   1.401
 9790TIP3   OH229326   6.977   3.839   1.906
 9790TIP3    H129327   6.924   3.762   1.885
 9790TIP3    H229328   7.060   3.803   1.938
 9791TIP3   OH229329   8.136   3.685   1.512
 9791TIP3    H129330   8.142   3.626   1.588
 9791TIP3    H229331   8.110   3.628   1.440
 9792TIP3   OH229332   0.990   5.664   3.445
 9792TIP3    H129333   0.972   5.658   3.539
 9792TIP3    H229334   0.954   5.749   3.419
 9793TIP3   OH229335   1.011   3.200   1.177
 9793TIP3    H129336   1.084   3.138   1.180
 9793TIP3    H229337   0.932   3.144   1.179
 9794TIP3   OH229338   0.745   5.098   4.280
 9794TIP3    H129339   0.769   5.184   4.245
 9794TIP3    H229340   0.726   5.045   4.202
 9795TIP3   OH229341   2.163   2.025   3.442
 9795TIP3    H129342   2.183   1.963   3.513
 9795TIP3    H229343   2.220   2.100   3.460
 9796TIP3   OH229344   0.191   6.329   5.415
 9796TIP3    H129345   0.101   6.296   5.413
 9796TIP3    H229346   0.192   6.400   5.350
 9797TIP3   OH229347   2.642   2.521   5.352
 9797TIP3    H129348   2.708   2.536   5.420
 9797TIP3    H229349   2.641   2.603   5.302
 9798TIP3   OH229350   0.981   3.774   1.625
 9798TIP3    H129351   0.898   3.818   1.646
 9798TIP3    H229352   1.048   3.829   1.664
 9799TIP3   OH229353   3.881   2.666   5.601
 9799TIP3    H129354   3.807   2.690   5.546
 9799TIP3    H229355   3.958   2.703   5.557
 9800TIP3   OH229356   6.339   0.811   6.255
 9800TIP3    H129357   6.370   0.896   6.223
 9800TIP3    H229358   6.322   0.824   6.348
 9801TIP3   OH229359   0.535   7.214   0.910
 9801TIP3    H129360   0.527   7.216   1.005
 9801TIP3    H229361   0.472   7.279   0.879
 9802TIP3   OH229362   8.146   5.126   5.195
 9802TIP3    H129363   8.197   5.053   5.231
 9802TIP3    H229364   8.194   5.204   5.220
 9803TIP3   OH229365   0.347   1.172   2.893
 9803TIP3    H129366   0.436   1.155   2.924
 9803TIP3    H229367   0.335   1.266   2.908
 9804TIP3   OH229368   5.049   1.632   0.833
 9804TIP3    H129369   5.084   1.555   0.877
 9804TIP3    H229370   4.958   1.638   0.863
 9805TIP3   OH229371   5.936   3.466   1.188
 9805TIP3    H129372   5.934   3.371   1.188
 9805TIP3    H229373   5.873   3.491   1.120
 9806TIP3   OH229374   4.495   2.249   5.337
 9806TIP3    H129375   4.501   2.229   5.244
 9806TIP3    H229376   4.424   2.313   5.343
 9807TIP3   OH229377   0.681   6.467   3.783
 9807TIP3    H129378   0.662   6.375   3.800
 9807TIP3    H229379   0.769   6.480   3.818
 9808TIP3   OH229380   2.598   1.068   5.662
 9808TIP3    H129381   2.655   0.994   5.641
 9808TIP3    H229382   2.529   1.065   5.596
 9809TIP3   OH229383   4.989   0.564   0.716
 9809TIP3    H129384   5.063   0.554   0.776
 9809TIP3    H229385   4.994   0.655   0.686
 9810TIP3   OH229386   4.610   2.530   5.252
 9810TIP3    H129387   4.534   2.584   5.228
 9810TIP3    H229388   4.574   2.463   5.310
 9811TIP3   OH229389   1.068   4.138   0.079
 9811TIP3    H129390   1.053   4.162   0.170
 9811TIP3    H229391   0.994   4.176   0.032
 9812TIP3   OH229392   7.477   2.311   6.166
 9812TIP3    H129393   7.456   2.314   6.072
 9812TIP3    H229394   7.425   2.238   6.200
 9813TIP3   OH229395   0.769   2.407   6.545
 9813TIP3    H129396   0.833   2.336   6.555
 9813TIP3    H229397   0.787   2.444   6.458
 9814TIP3   OH229398   2.540   3.055   0.958
 9814TIP3    H129399   2.499   3.091   1.037
 9814TIP3    H229400   2.487   2.979   0.935
 9815TIP3   OH229401   0.930   6.648   3.247
 9815TIP3    H129402   1.025   6.656   3.251
 9815TIP3    H229403   0.899   6.733   3.216
 9816TIP3   OH229404   6.002   1.725   6.515
 9816TIP3    H129405   5.913   1.752   6.492
 9816TIP3    H229406   6.058   1.772   6.453
 9817TIP3   OH229407   4.311   7.356   2.525
 9817TIP3    H129408   4.403   7.382   2.521
 9817TIP3    H229409   4.267   7.431   2.566
 9818TIP3   OH229410   3.416   7.510   5.754
 9818TIP3    H129411   3.330   7.549   5.768
 9818TIP3    H229412   3.402   7.416   5.767
 9819TIP3   OH229413   5.407   3.587   4.755
 9819TIP3    H129414   5.319   3.594   4.718
 9819TIP3    H229415   5.394   3.584   4.850
 9820TIP3   OH229416   2.521   0.265   0.632
 9820TIP3    H129417   2.501   0.180   0.592
 9820TIP3    H229418   2.519   0.327   0.559
 9821TIP3   OH229419   7.524   6.940   6.436
 9821TIP3    H129420   7.545   6.949   6.529
 9821TIP3    H229421   7.583   7.001   6.392
 9822TIP3   OH229422   0.351   4.494   4.031
 9822TIP3    H129423   0.413   4.453   4.091
 9822TIP3    H229424   0.354   4.440   3.952
 9823TIP3   OH229425   2.784   6.698   2.102
 9823TIP3    H129426   2.846   6.632   2.133
 9823TIP3    H229427   2.814   6.720   2.014
 9824TIP3   OH229428   3.665   5.153   5.025
 9824TIP3    H129429   3.594   5.191   4.974
 9824TIP3    H229430   3.693   5.223   5.084
 9825TIP3   OH229431   5.516   0.775   3.563
 9825TIP3    H129432   5.452   0.704   3.560
 9825TIP3    H229433   5.540   0.782   3.655
 9826TIP3   OH229434   0.113   3.293   3.169
 9826TIP3    H129435   0.109   3.216   3.112
 9826TIP3    H229436   0.206   3.302   3.191
 9827TIP3   OH229437   1.834   2.697   6.615
 9827TIP3    H129438   1.784   2.714   6.695
 9827TIP3    H229439   1.840   2.602   6.610
 9828TIP3   OH229440   1.221   5.023   5.346
 9828TIP3    H129441   1.216   4.935   5.383
 9828TIP3    H229442   1.154   5.024   5.277
 9829TIP3   OH229443   0.001   2.903   2.318
 9829TIP3    H129444  -0.033   2.982   2.359
 9829TIP3    H229445   0.092   2.924   2.297
 9830TIP3   OH229446   0.804  -0.016   0.914
 9830TIP3    H129447   0.855   0.064   0.910
 9830TIP3    H229448   0.794  -0.034   1.008
 9831TIP3   OH229449   1.375   0.569   0.660
 9831TIP3    H129450   1.468   0.552   0.647
 9831TIP3    H229451   1.359   0.651   0.612
 9832TIP3   OH229452   4.325   0.199   3.832
 9832TIP3    H129453   4.298   0.200   3.923
 9832TIP3    H229454   4.246   0.176   3.783
 9833TIP3   OH229455   4.677   2.017   3.559
 9833TIP3    H129456   4.635   1.969   3.488
 9833TIP3    H229457   4.725   1.950   3.608
 9834TIP3   OH229458   7.355   4.080   3.842
 9834TIP3    H129459   7.292   4.103   3.910
 9834TIP3    H229460   7.439   4.079   3.886
 9835TIP3   OH229461   5.736   3.622   1.894
 9835TIP3    H129462   5.691   3.612   1.978
 9835TIP3    H229463   5.665   3.632   1.830
 9836TIP3   OH229464   4.353   3.650   2.894
 9836TIP3    H129465   4.403   3.587   2.945
 9836TIP3    H229466   4.281   3.599   2.856
 9837TIP3   OH229467   5.243   3.371   5.169
 9837TIP3    H129468   5.207   3.459   5.152
 9837TIP3    H229469   5.191   3.313   5.113
 9838TIP3   OH229470   6.311   1.267   3.536
 9838TIP3    H129471   6.259   1.306   3.465
 9838TIP3    H229472   6.354   1.342   3.578
 9839TIP3   OH229473   0.566   5.893   6.283
 9839TIP3    H129474   0.507   5.818   6.279
 9839TIP3    H229475   0.652   5.856   6.304
 9840TIP3   OH229476   7.596   3.187   4.032
 9840TIP3    H129477   7.649   3.110   4.055
 9840TIP3    H229478   7.657   3.243   3.984
 9841TIP3   OH229479   3.040   5.982   4.485
 9841TIP3    H129480   3.027   5.941   4.399
 9841TIP3    H229481   3.135   5.988   4.495
 9842TIP3   OH229482   5.690   7.341   0.789
 9842TIP3    H129483   5.643   7.298   0.717
 9842TIP3    H229484   5.624   7.395   0.832
 9843TIP3   OH229485   6.008   5.384   0.979
 9843TIP3    H129486   6.038   5.474   0.966
 9843TIP3    H229487   6.066   5.331   0.925
 9844TIP3   OH229488   1.790   7.168   6.415
 9844TIP3    H129489   1.814   7.093   6.361
 9844TIP3    H229490   1.725   7.133   6.476
 9845TIP3   OH229491   1.791   1.510   2.863
 9845TIP3    H129492   1.700   1.482   2.865
 9845TIP3    H229493   1.838   1.443   2.913
 9846TIP3   OH229494   0.823   4.288   6.589
 9846TIP3    H129495   0.796   4.373   6.553
 9846TIP3    H229496   0.853   4.238   6.513
 9847TIP3   OH229497   6.384   5.608   5.475
 9847TIP3    H129498   6.342   5.630   5.559
 9847TIP3    H229499   6.436   5.530   5.494
 9848TIP3   OH229500   2.561   5.822   6.055
 9848TIP3    H129501   2.586   5.896   6.000
 9848TIP3    H229502   2.494   5.776   6.005
 9849TIP3   OH229503   1.835   0.778   3.347
 9849TIP3    H129504   1.848   0.768   3.253
 9849TIP3    H229505   1.745   0.809   3.356
 9850TIP3   OH229506   6.495   2.726   5.228
 9850TIP3    H129507   6.402   2.707   5.237
 9850TIP3    H229508   6.539   2.656   5.277
 9851TIP3   OH229509   1.180   0.970   3.441
 9851TIP3    H129510   1.231   1.050   3.459
 9851TIP3    H229511   1.208   0.942   3.354
 9852TIP3   OH229512   4.887   4.175   0.392
 9852TIP3    H129513   4.914   4.231   0.320
 9852TIP3    H229514   4.792   4.171   0.386
 9853TIP3   OH229515   3.942   6.480   0.514
 9853TIP3    H129516   3.961   6.453   0.424
 9853TIP3    H229517   3.877   6.417   0.545
 9854TIP3   OH229518   3.791   5.963   4.218
 9854TIP3    H129519   3.807   5.878   4.259
 9854TIP3    H229520   3.770   5.943   4.127
 9855TIP3   OH229521   1.159   2.498   4.840
 9855TIP3    H129522   1.108   2.477   4.918
 9855TIP3    H229523   1.140   2.426   4.779
 9856TIP3   OH229524   2.683   2.242   0.934
 9856TIP3    H129525   2.635   2.256   0.853
 9856TIP3    H229526   2.739   2.319   0.942
 9857TIP3   OH229527   5.057   1.854   2.043
 9857TIP3    H129528   4.988   1.894   2.096
 9857TIP3    H229529   5.025   1.765   2.026
 9858TIP3   OH229530   3.515   6.149   3.184
 9858TIP3    H129531   3.473   6.086   3.242
 9858TIP3    H229532   3.464   6.230   3.196
 9859TIP3   OH229533   3.026   1.276   2.793
 9859TIP3    H129534   3.044   1.346   2.731
 9859TIP3    H229535   3.076   1.201   2.760
 9860TIP3   OH229536   1.392   4.746   6.768
 9860TIP3    H129537   1.479   4.767   6.732
 9860TIP3    H229538   1.334   4.812   6.731
 9861TIP3   OH229539   6.911   7.591   0.393
 9861TIP3    H129540   6.986   7.650   0.401
 9861TIP3    H229541   6.893   7.588   0.299
 9862TIP3   OH229542   6.289   7.445   0.606
 9862TIP3    H129543   6.194   7.434   0.599
 9862TIP3    H229544   6.316   7.381   0.671
 9863TIP3   OH229545   1.616   6.887   2.168
 9863TIP3    H129546   1.696   6.916   2.212
 9863TIP3    H229547   1.588   6.810   2.218
 9864TIP3   OH229548   3.616   6.371   4.897
 9864TIP3    H129549   3.527   6.406   4.895
 9864TIP3    H229550   3.657   6.415   4.971
 9865TIP3   OH229551   7.784   5.349   0.002
 9865TIP3    H129552   7.734   5.376   0.079
 9865TIP3    H229553   7.767   5.256  -0.007
 9866TIP3   OH229554   3.544   0.775   1.746
 9866TIP3    H129555   3.451   0.753   1.734
 9866TIP3    H229556   3.591   0.697   1.718
 9867TIP3   OH229557   1.687   1.376   6.679
 9867TIP3    H129558   1.611   1.431   6.698
 9867TIP3    H229559   1.684   1.362   6.584
 9868TIP3   OH229560   5.371   6.217   0.971
 9868TIP3    H129561   5.451   6.269   0.969
 9868TIP3    H229562   5.400   6.130   0.998
 9869TIP3   OH229563   2.018   7.170   4.057
 9869TIP3    H129564   2.043   7.224   4.132
 9869TIP3    H229565   2.012   7.231   3.984
 9870TIP3   OH229566   1.403   2.763   0.906
 9870TIP3    H129567   1.395   2.794   0.996
 9870TIP3    H229568   1.391   2.668   0.912
 9871TIP3   OH229569   2.033   3.310   2.230
 9871TIP3    H129570   2.028   3.381   2.294
 9871TIP3    H229571   2.104   3.335   2.171
 9872TIP3   OH229572   5.969   5.953   3.915
 9872TIP3    H129573   6.009   5.971   4.001
 9872TIP3    H229574   6.040   5.914   3.864
 9873TIP3   OH229575   4.020   2.628   1.186
 9873TIP3    H129576   4.000   2.536   1.172
 9873TIP3    H229577   4.070   2.630   1.268
 9874TIP3   OH229578   0.922   0.564   0.166
 9874TIP3    H129579   0.850   0.501   0.164
 9874TIP3    H229580   0.909   0.619   0.089
 9875TIP3   OH229581   3.483   4.402   2.270
 9875TIP3    H129582   3.508   4.359   2.189
 9875TIP3    H229583   3.488   4.334   2.336
 9876TIP3   OH229584   7.065   2.971   3.478
 9876TIP3    H129585   7.107   2.931   3.554
 9876TIP3    H229586   7.029   2.897   3.430
 9877TIP3   OH229587   1.836   7.568   4.858
 9877TIP3    H129588   1.831   7.482   4.899
 9877TIP3    H229589   1.749   7.606   4.870
 9878TIP3   OH229590   8.157   7.653   5.906
 9878TIP3    H129591   8.212   7.662   5.828
 9878TIP3    H229592   8.215   7.616   5.973
 9879TIP3   OH229593   3.580   5.210   6.404
 9879TIP3    H129594   3.673   5.210   6.382
 9879TIP3    H229595   3.538   5.161   6.332
 9880TIP3   OH229596   2.232   1.325   1.194
 9880TIP3    H129597   2.282   1.372   1.260
 9880TIP3    H229598   2.144   1.317   1.231
 9881TIP3   OH229599   1.539   4.762   2.594
 9881TIP3    H129600   1.501   4.827   2.536
 9881TIP3    H229601   1.564   4.690   2.536
 9882TIP3   OH229602   1.018   6.196   6.031
 9882TIP3    H129603   0.942   6.148   6.065
 9882TIP3    H229604   0.991   6.224   5.944
 9883TIP3   OH229605   7.151   2.303   2.410
 9883TIP3    H129606   7.083   2.359   2.372
 9883TIP3    H229607   7.143   2.317   2.504
 9884TIP3   OH229608   7.290   6.339   5.771
 9884TIP3    H129609   7.278   6.434   5.765
 9884TIP3    H229610   7.315   6.324   5.862
 9885TIP3   OH229611   1.520   0.218   5.196
 9885TIP3    H129612   1.576   0.158   5.148
 9885TIP3    H229613   1.579   0.285   5.231
 9886TIP3   OH229614   1.916   4.577   4.646
 9886TIP3    H129615   1.982   4.509   4.630
 9886TIP3    H229616   1.952   4.656   4.606
 9887TIP3   OH229617   2.955   1.125   2.441
 9887TIP3    H129618   3.032   1.103   2.493
 9887TIP3    H229619   2.883   1.080   2.485
 9888TIP3   OH229620   5.149   7.661   2.429
 9888TIP3    H129621   5.235   7.630   2.402
 9888TIP3    H229622   5.117   7.712   2.355
 9889TIP3   OH229623   6.889   6.610   5.862
 9889TIP3    H129624   6.845   6.673   5.919
 9889TIP3    H229625   6.971   6.590   5.908
 9890TIP3   OH229626   3.638   1.868   4.591
 9890TIP3    H129627   3.706   1.933   4.570
 9890TIP3    H229628   3.610   1.834   4.506
 9891TIP3   OH229629   5.478   4.457   1.527
 9891TIP3    H129630   5.507   4.367   1.518
 9891TIP3    H229631   5.498   4.480   1.617
 9892TIP3   OH229632   7.417   2.078   5.161
 9892TIP3    H129633   7.492   2.131   5.136
 9892TIP3    H229634   7.438   2.045   5.248
 9893TIP3   OH229635   8.205   0.782   5.855
 9893TIP3    H129636   8.119   0.775   5.896
 9893TIP3    H229637   8.235   0.870   5.878
 9894TIP3   OH229638   7.515   4.952   3.910
 9894TIP3    H129639   7.424   4.974   3.928
 9894TIP3    H229640   7.513   4.860   3.883
 9895TIP3   OH229641   6.594   3.095   6.365
 9895TIP3    H129642   6.586   3.001   6.352
 9895TIP3    H229643   6.621   3.105   6.457
 9896TIP3   OH229644   7.364   4.207   5.860
 9896TIP3    H129645   7.439   4.265   5.872
 9896TIP3    H229646   7.288   4.262   5.875
 9897TIP3   OH229647   5.570   6.015   1.981
 9897TIP3    H129648   5.574   6.000   2.075
 9897TIP3    H229649   5.603   5.934   1.942
 9898TIP3   OH229650   7.063   5.147   5.797
 9898TIP3    H129651   7.126   5.111   5.859
 9898TIP3    H229652   6.998   5.077   5.784
 9899TIP3   OH229653   3.873   4.483   6.197
 9899TIP3    H129654   3.851   4.418   6.130
 9899TIP3    H229655   3.936   4.541   6.154
 9900TIP3   OH229656   0.927   7.304   3.019
 9900TIP3    H129657   0.964   7.363   3.086
 9900TIP3    H229658   0.833   7.322   3.021
 9901TIP3   OH229659   2.858   5.217   2.894
 9901TIP3    H129660   2.883   5.301   2.856
 9901TIP3    H229661   2.826   5.166   2.820
 9902TIP3   OH229662   5.366   6.790   6.034
 9902TIP3    H129663   5.341   6.793   6.127
 9902TIP3    H229664   5.455   6.756   6.035
 9903TIP3   OH229665   0.844   1.544   5.017
 9903TIP3    H129666   0.798   1.504   4.943
 9903TIP3    H229667   0.810   1.499   5.094
 9904TIP3   OH229668   1.486   3.408   4.114
 9904TIP3    H129669   1.528   3.489   4.086
 9904TIP3    H229670   1.393   3.430   4.119
 9905TIP3   OH229671   6.719   5.757   5.948
 9905TIP3    H129672   6.741   5.691   6.014
 9905TIP3    H229673   6.757   5.838   5.982
 9906TIP3   OH229674   6.786   4.447   0.079
 9906TIP3    H129675   6.880   4.460   0.082
 9906TIP3    H229676   6.753   4.493   0.156
 9907TIP3   OH229677   2.782   2.888   2.525
 9907TIP3    H129678   2.756   2.873   2.434
 9907TIP3    H229679   2.711   2.940   2.562
 9908TIP3   OH229680   1.421   0.426   2.013
 9908TIP3    H129681   1.424   0.380   1.929
 9908TIP3    H229682   1.362   0.500   1.998
 9909TIP3   OH229683   4.848   0.284   0.812
 9909TIP3    H129684   4.930   0.248   0.848
 9909TIP3    H229685   4.861   0.283   0.717
 9910TIP3   OH229686   7.193   1.959   2.090
 9910TIP3    H129687   7.233   1.918   2.014
 9910TIP3    H229688   7.194   1.891   2.157
 9911TIP3   OH229689   2.109   1.038   0.655
 9911TIP3    H129690   2.036   0.980   0.672
 9911TIP3    H229691   2.075   1.105   0.596
 9912TIP3   OH229692   7.706   6.067   0.978
 9912TIP3    H129693   7.773   6.065   1.046
 9912TIP3    H229694   7.746   6.118   0.907
 9913TIP3   OH229695   4.739   2.471   6.411
 9913TIP3    H129696   4.807   2.424   6.461
 9913TIP3    H229697   4.657   2.429   6.437
 9914TIP3   OH229698   2.037   3.536   4.411
 9914TIP3    H129699   1.969   3.538   4.343
 9914TIP3    H229700   1.994   3.574   4.488
 9915TIP3   OH229701   6.466   1.202   5.214
 9915TIP3    H129702   6.537   1.206   5.149
 9915TIP3    H229703   6.466   1.112   5.245
 9916TIP3   OH229704   3.474   0.153   0.569
 9916TIP3    H129705   3.463   0.202   0.488
 9916TIP3    H229706   3.397   0.097   0.574
 9917TIP3   OH229707   0.165   5.942   2.116
 9917TIP3    H129708   0.180   5.860   2.163
 9917TIP3    H229709   0.249   5.988   2.121
 9918TIP3   OH229710   8.077   2.358   1.176
 9918TIP3    H129711   8.096   2.280   1.229
 9918TIP3    H229712   7.991   2.341   1.139
 9919TIP3   OH229713   5.821   2.387   6.589
 9919TIP3    H129714   5.810   2.335   6.668
 9919TIP3    H229715   5.863   2.328   6.527
 9920TIP3   OH229716   3.156   5.921   1.341
 9920TIP3    H129717   3.245   5.893   1.366
 9920TIP3    H229718   3.108   5.840   1.327
 9921TIP3   OH229719   1.672   1.566   2.611
 9921TIP3    H129720   1.679   1.475   2.640
 9921TIP3    H229721   1.625   1.611   2.681
 9922TIP3   OH229722   0.921   0.226   0.631
 9922TIP3    H129723   0.910   0.132   0.616
 9922TIP3    H229724   0.870   0.268   0.562
 9923TIP3   OH229725   2.367   6.058   2.210
 9923TIP3    H129726   2.346   6.127   2.147
 9923TIP3    H229727   2.325   5.980   2.176
 9924TIP3   OH229728   1.418   2.463   4.881
 9924TIP3    H129729   1.326   2.485   4.872
 9924TIP3    H229730   1.445   2.502   4.965
 9925TIP3   OH229731   4.308   3.933   1.572
 9925TIP3    H129732   4.370   3.974   1.632
 9925TIP3    H229733   4.349   3.940   1.486
 9926TIP3   OH229734   1.633   4.278   4.733
 9926TIP3    H129735   1.551   4.307   4.771
 9926TIP3    H229736   1.609   4.242   4.647
 9927TIP3   OH229737   1.929   4.821   6.636
 9927TIP3    H129738   1.865   4.762   6.675
 9927TIP3    H229739   1.976   4.857   6.710
 9928TIP3   OH229740   2.110   1.525   6.322
 9928TIP3    H129741   2.195   1.551   6.286
 9928TIP3    H229742   2.102   1.432   6.300
 9929TIP3   OH229743   1.375   5.648   2.863
 9929TIP3    H129744   1.328   5.641   2.780
 9929TIP3    H229745   1.451   5.591   2.852
 9930TIP3   OH229746   1.921   1.187   6.240
 9930TIP3    H129747   1.858   1.225   6.178
 9930TIP3    H229748   1.940   1.100   6.205
 9931TIP3   OH229749   3.955   4.495   2.406
 9931TIP3    H129750   3.899   4.527   2.335
 9931TIP3    H229751   3.915   4.530   2.486
 9932TIP3   OH229752   3.800   1.404   2.900
 9932TIP3    H129753   3.894   1.391   2.888
 9932TIP3    H229754   3.760   1.332   2.851
 9933TIP3   OH229755   5.261   6.475   4.022
 9933TIP3    H129756   5.336   6.502   4.076
 9933TIP3    H229757   5.201   6.549   4.026
 9934TIP3   OH229758   3.100   2.214   2.704
 9934TIP3    H129759   3.019   2.203   2.753
 9934TIP3    H229760   3.097   2.304   2.672
 9935TIP3   OH229761   1.887   4.639   1.795
 9935TIP3    H129762   1.816   4.702   1.812
 9935TIP3    H229763   1.945   4.647   1.871
 9936TIP3   OH229764   6.235   1.850   0.252
 9936TIP3    H129765   6.321   1.888   0.234
 9936TIP3    H229766   6.174   1.922   0.237
 9937TIP3   OH229767   0.199   4.765   4.485
 9937TIP3    H129768   0.264   4.773   4.414
 9937TIP3    H229769   0.250   4.740   4.562
 9938TIP3   OH229770   0.380   2.883   4.606
 9938TIP3    H129771   0.299   2.835   4.588
 9938TIP3    H229772   0.376   2.903   4.699
 9939TIP3   OH229773   6.312   1.551   4.650
 9939TIP3    H129774   6.333   1.474   4.597
 9939TIP3    H229775   6.298   1.516   4.738
 9940TIP3   OH229776   2.996   3.906   1.972
 9940TIP3    H129777   3.088   3.932   1.978
 9940TIP3    H229778   2.955   3.976   1.921
 9941TIP3   OH229779   3.328   1.662   1.367
 9941TIP3    H129780   3.283   1.637   1.287
 9941TIP3    H229781   3.373   1.582   1.396
 9942TIP3   OH229782   4.123   0.762   5.493
 9942TIP3    H129783   4.033   0.731   5.497
 9942TIP3    H229784   4.116   0.857   5.503
 9943TIP3   OH229785   4.142   2.170   5.699
 9943TIP3    H129786   4.232   2.149   5.725
 9943TIP3    H229787   4.146   2.176   5.603
 9944TIP3   OH229788   2.281   1.234   6.449
 9944TIP3    H129789   2.255   1.240   6.357
 9944TIP3    H229790   2.204   1.263   6.497
 9945TIP3   OH229791   2.328   2.689   3.944
 9945TIP3    H129792   2.414   2.651   3.925
 9945TIP3    H229793   2.328   2.700   4.039
 9946TIP3   OH229794   4.247   0.975   3.884
 9946TIP3    H129795   4.309   1.029   3.934
 9946TIP3    H229796   4.295   0.951   3.805
 9947TIP3   OH229797   1.421   7.505   0.282
 9947TIP3    H129798   1.422   7.472   0.192
 9947TIP3    H229799   1.475   7.443   0.331
 9948TIP3   OH229800   3.122   0.917   0.965
 9948TIP3    H129801   3.054   0.965   0.918
 9948TIP3    H229802   3.144   0.844   0.907
 9949TIP3   OH229803   1.618   0.845   2.631
 9949TIP3    H129804   1.589   0.774   2.688
 9949TIP3    H229805   1.707   0.820   2.605
 9950TIP3   OH229806   0.663   1.126   5.860
 9950TIP3    H129807   0.708   1.184   5.800
 9950TIP3    H229808   0.686   1.038   5.830
 9951TIP3   OH229809   0.774   6.683   1.801
 9951TIP3    H129810   0.789   6.645   1.715
 9951TIP3    H229811   0.750   6.774   1.783
 9952TIP3   OH229812   0.882   1.865   3.882
 9952TIP3    H129813   0.918   1.804   3.946
 9952TIP3    H229814   0.921   1.950   3.906
 9953TIP3   OH229815   2.546   3.666   1.403
 9953TIP3    H129816   2.604   3.617   1.461
 9953TIP3    H229817   2.604   3.715   1.345
 9954TIP3   OH229818   6.379   5.191   6.401
 9954TIP3    H129819   6.393   5.175   6.308
 9954TIP3    H229820   6.287   5.215   6.407
 9955TIP3   OH229821   6.260   2.032   2.847
 9955TIP3    H129822   6.286   2.111   2.800
 9955TIP3    H229823   6.303   2.040   2.932
 9956TIP3   OH229824   1.827   4.548   5.612
 9956TIP3    H129825   1.864   4.540   5.700
 9956TIP3    H229826   1.740   4.585   5.626
 9957TIP3   OH229827   7.021   3.256   2.230
 9957TIP3    H129828   6.931   3.269   2.199
 9957TIP3    H229829   7.075   3.275   2.153
 9958TIP3   OH229830   3.870   6.309   3.609
 9958TIP3    H129831   3.833   6.363   3.678
 9958TIP3    H229832   3.964   6.309   3.627
 9959TIP3   OH229833   0.204   7.774   4.897
 9959TIP3    H129834   0.207   7.791   4.991
 9959TIP3    H229835   0.296   7.777   4.869
 9960TIP3   OH229836   7.904   2.067   6.045
 9960TIP3    H129837   7.976   2.011   6.015
 9960TIP3    H229838   7.939   2.156   6.039
 9961TIP3   OH229839   8.189   7.412   4.462
 9961TIP3    H129840   8.230   7.330   4.491
 9961TIP3    H229841   8.238   7.435   4.383
 9962TIP3   OH229842   4.307   7.352   1.315
 9962TIP3    H129843   4.212   7.349   1.326
 9962TIP3    H229844   4.321   7.408   1.238
 9963TIP3   OH229845   5.176   6.823   3.089
 9963TIP3    H129846   5.136   6.781   3.165
 9963TIP3    H229847   5.205   6.908   3.121
 9964TIP3   OH229848   7.529   6.656   5.275
 9964TIP3    H129849   7.618   6.655   5.239
 9964TIP3    H229850   7.516   6.567   5.309
 9965TIP3   OH229851   8.219   1.372   0.322
 9965TIP3    H129852   8.126   1.355   0.337
 9965TIP3    H229853   8.262   1.287   0.335
 9966TIP3   OH229854   5.309   6.736   1.364
 9966TIP3    H129855   5.353   6.730   1.279
 9966TIP3    H229856   5.248   6.662   1.364
 9967TIP3   OH229857   5.104   6.549   5.621
 9967TIP3    H129858   5.088   6.526   5.529
 9967TIP3    H229859   5.030   6.604   5.645
 9968TIP3   OH229860   2.205   1.768   2.962
 9968TIP3    H129861   2.153   1.842   2.929
 9968TIP3    H229862   2.276   1.760   2.898
 9969TIP3   OH229863   3.143   2.922   1.106
 9969TIP3    H129864   3.184   2.948   1.024
 9969TIP3    H229865   3.200   2.854   1.141
 9970TIP3   OH229866   3.009   4.215   6.759
 9970TIP3    H129867   3.004   4.134   6.707
 9970TIP3    H229868   2.929   4.262   6.738
 9971TIP3   OH229869   5.369   6.021   4.516
 9971TIP3    H129870   5.401   6.085   4.580
 9971TIP3    H229871   5.428   6.029   4.441
 9972TIP3   OH229872   0.682   5.273   6.595
 9972TIP3    H129873   0.664   5.367   6.589
 9972TIP3    H229874   0.647   5.248   6.681
 9973TIP3   OH229875   2.772   3.545   0.680
 9973TIP3    H129876   2.742   3.588   0.760
 9973TIP3    H229877   2.742   3.602   0.609
 9974TIP3   OH229878   6.658   2.877   5.427
 9974TIP3    H129879   6.605   2.806   5.392
 9974TIP3    H229880   6.639   2.878   5.521
 9975TIP3   OH229881   3.216   3.403   1.034
 9975TIP3    H129882   3.257   3.461   1.098
 9975TIP3    H229883   3.140   3.453   1.002
 9976TIP3   OH229884   2.280   6.410   1.392
 9976TIP3    H129885   2.300   6.437   1.482
 9976TIP3    H229886   2.207   6.466   1.366
 9977TIP3   OH229887   5.209   5.466   5.221
 9977TIP3    H129888   5.249   5.505   5.299
 9977TIP3    H229889   5.228   5.527   5.151
 9978TIP3   OH229890   0.500   5.259   4.266
 9978TIP3    H129891   0.445   5.198   4.217
 9978TIP3    H229892   0.543   5.312   4.199
 9979TIP3   OH229893   1.937   2.712   3.966
 9979TIP3    H129894   1.930   2.649   4.038
 9979TIP3    H229895   1.986   2.785   4.002
 9980TIP3   OH229896   0.158   1.515   1.084
 9980TIP3    H129897   0.188   1.605   1.072
 9980TIP3    H229898   0.191   1.468   1.007
 9981TIP3   OH229899   4.048   2.012   6.454
 9981TIP3    H129900   4.087   1.950   6.392
 9981TIP3    H229901   4.101   2.091   6.445
 9982TIP3   OH229902   6.719   7.426   3.828
 9982TIP3    H129903   6.810   7.423   3.799
 9982TIP3    H229904   6.724   7.445   3.921
 9983TIP3   OH229905   3.113   1.111   3.960
 9983TIP3    H129906   3.205   1.135   3.951
 9983TIP3    H229907   3.101   1.096   4.054
 9984TIP3   OH229908   6.113   4.867   3.849
 9984TIP3    H129909   6.186   4.815   3.816
 9984TIP3    H229910   6.154   4.942   3.892
 9985TIP3   OH229911   0.540   7.770   3.462
 9985TIP3    H129912   0.602   7.841   3.446
 9985TIP3    H229913   0.504   7.749   3.376
 9986TIP3   OH229914   2.918   0.241   3.057
 9986TIP3    H129915   2.926   0.234   3.152
 9986TIP3    H229916   2.829   0.275   3.043
 9987TIP3   OH229917   7.884   6.044   5.799
 9987TIP3    H129918   7.827   6.030   5.874
 9987TIP3    H229919   7.968   6.006   5.825
 9988TIP3   OH229920   7.659   1.740   3.101
 9988TIP3    H129921   7.677   1.698   3.017
 9988TIP3    H229922   7.659   1.668   3.164
 9989TIP3   OH229923   8.014   6.013   5.247
 9989TIP3    H129924   8.011   5.955   5.323
 9989TIP3    H229925   8.105   6.009   5.218
 9990TIP3   OH229926   2.664   5.024   1.325
 9990TIP3    H129927   2.652   5.104   1.274
 9990TIP3    H229928   2.648   5.051   1.415
 9991TIP3   OH229929   1.293   6.386   4.662
 9991TIP3    H129930   1.348   6.317   4.699
 9991TIP3    H229931   1.222   6.339   4.618
 9992TIP3   OH229932   4.063   4.200   1.208
 9992TIP3    H129933   3.976   4.165   1.226
 9992TIP3    H229934   4.093   4.150   1.132
 9993TIP3   OH229935   0.030   5.489   5.720
 9993TIP3    H129936  -0.052   5.471   5.766
 9993TIP3    H229937   0.098   5.472   5.785
 9994TIP3   OH229938   0.964   1.315   0.393
 9994TIP3    H129939   1.020   1.330   0.469
 9994TIP3    H229940   0.941   1.402   0.363
 9995TIP3   OH229941   7.182   3.035   1.857
 9995TIP3    H129942   7.167   3.115   1.908
 9995TIP3    H229943   7.274   3.015   1.871
 9996TIP3   OH229944   8.024   3.134   4.006
 9996TIP3    H129945   8.000   3.175   4.090
 9996TIP3    H229946   7.942   3.099   3.973
 9997TIP3   OH229947   0.003   0.538   2.894
 9997TIP3    H129948   0.054   0.491   2.829
 9997TIP3    H229949  -0.011   0.475   2.964
 9998TIP3   OH229950   1.814   6.588   3.491
 9998TIP3    H129951   1.784   6.658   3.550
 9998TIP3    H229952   1.831   6.514   3.548
 9999TIP3   OH229953   7.404   3.835   4.644
 9999TIP3    H129954   7.389   3.763   4.704
 9999TIP3    H229955   7.377   3.913   4.692
10000TIP3   OH229956   2.448   4.412   1.690
10000TIP3    H129957   2.436   4.432   1.597
10000TIP3    H229958   2.391   4.473   1.736
10001TIP3   OH229959   1.257   6.571   3.290
10001TIP3    H129960   1.207   6.505   3.337
10001TIP3    H229961   1.342   6.530   3.273
10002TIP3   OH229962   2.158   3.802   4.463
10002TIP3    H129963   2.235   3.765   4.420
10002TIP3    H229964   2.127   3.870   4.404
10003TIP3   OH229965   1.237   5.622   1.908
10003TIP3    H129966   1.233   5.626   2.003
10003TIP3    H229967   1.155   5.661   1.879
10004TIP3   OH229968   4.650   6.243   3.879
10004TIP3    H129969   4.592   6.317   3.856
10004TIP3    H229970   4.641   6.236   3.974
10005TIP3   OH229971   5.212   4.430   4.355
10005TIP3    H129972   5.307   4.420   4.342
10005TIP3    H229973   5.201   4.523   4.374
10006TIP3   OH229974   6.103   0.114   0.685
10006TIP3    H129975   6.179   0.058   0.697
10006TIP3    H229976   6.028   0.055   0.699
10007TIP3   OH229977   3.330   0.209   6.410
10007TIP3    H129978   3.415   0.217   6.455
10007TIP3    H229979   3.266   0.225   6.479
10008TIP3   OH229980   1.146   7.106   1.157
10008TIP3    H129981   1.138   7.151   1.073
10008TIP3    H229982   1.236   7.075   1.160
10009TIP3   OH229983   4.782   2.957   0.681
10009TIP3    H129984   4.818   3.013   0.750
10009TIP3    H229985   4.825   2.987   0.601
10010TIP3   OH229986   7.085   6.741   4.093
10010TIP3    H129987   7.102   6.697   4.177
10010TIP3    H229988   7.018   6.806   4.114
10011TIP3   OH229989   6.500   1.756   0.890
10011TIP3    H129990   6.425   1.715   0.845
10011TIP3    H229991   6.565   1.686   0.895
10012TIP3   OH229992   5.456   2.897   5.211
10012TIP3    H129993   5.505   2.894   5.129
10012TIP3    H229994   5.473   2.812   5.252
10013TIP3   OH229995   4.276   1.037   0.400
10013TIP3    H129996   4.186   1.053   0.427
10013TIP3    H229997   4.272   0.959   0.345
10014TIP3   OH229998   5.525   3.685   5.994
10014TIP3    H129999   5.547   3.778   6.005
10014TIP3    H230000   5.448   3.672   6.049
10015TIP3   OH230001   0.042   5.691   2.056
10015TIP3    H130002   0.041   5.783   2.082
10015TIP3    H230003  -0.043   5.678   2.014
10016TIP3   OH230004   4.919   0.109   5.855
10016TIP3    H130005   4.878   0.136   5.773
10016TIP3    H230006   4.913   0.013   5.854
10017TIP3   OH230007   2.228   5.947   3.420
10017TIP3    H130008   2.171   5.893   3.475
10017TIP3    H230009   2.314   5.907   3.427
10018TIP3   OH230010   3.606   4.231   1.268
10018TIP3    H130011   3.687   4.196   1.304
10018TIP3    H230012   3.574   4.291   1.335
10019TIP3   OH230013   2.565   2.443   5.771
10019TIP3    H130014   2.549   2.526   5.725
10019TIP3    H230015   2.541   2.461   5.862
10020TIP3   OH230016   3.617   3.401   6.134
10020TIP3    H130017   3.535   3.434   6.099
10020TIP3    H230018   3.630   3.316   6.092
10021TIP3   OH230019   0.298   5.811   4.449
10021TIP3    H130020   0.338   5.898   4.441
10021TIP3    H230021   0.223   5.824   4.507
10022TIP3   OH230022   5.830   2.187   5.066
10022TIP3    H130023   5.924   2.189   5.047
10022TIP3    H230024   5.798   2.272   5.033
10023TIP3   OH230025   2.462   1.441   2.273
10023TIP3    H130026   2.405   1.365   2.280
10023TIP3    H230027   2.404   1.516   2.285
10024TIP3   OH230028   5.632   5.888   0.444
10024TIP3    H130029   5.579   5.946   0.499
10024TIP3    H230030   5.647   5.811   0.497
10025TIP3   OH230031   0.958   0.682   2.790
10025TIP3    H130032   1.014   0.605   2.804
10025TIP3    H230033   0.893   0.652   2.726
10026TIP3   OH230034   0.987   3.020   6.753
10026TIP3    H130035   0.937   3.022   6.672
10026TIP3    H230036   0.954   2.942   6.799
10027TIP3   OH230037   6.556   2.031   3.527
10027TIP3    H130038   6.527   1.956   3.476
10027TIP3    H230039   6.488   2.097   3.513
10028TIP3   OH230040   6.959   0.972   2.317
10028TIP3    H130041   6.970   0.887   2.360
10028TIP3    H230042   6.915   1.027   2.381
10029TIP3   OH230043   1.141   0.231   1.924
10029TIP3    H130044   1.126   0.216   2.017
10029TIP3    H230045   1.083   0.305   1.902
10030TIP3   OH230046   2.515   7.722   1.539
10030TIP3    H130047   2.557   7.735   1.623
10030TIP3    H230048   2.427   7.690   1.560
10031TIP3   OH230049   3.712   1.828   1.758
10031TIP3    H130050   3.710   1.792   1.669
10031TIP3    H230051   3.631   1.878   1.765
10032TIP3   OH230052   5.982   1.926   6.156
10032TIP3    H130053   5.914   1.952   6.094
10032TIP3    H230054   5.943   1.855   6.207
10033TIP3   OH230055   1.209   0.894   5.041
10033TIP3    H130056   1.295   0.935   5.037
10033TIP3    H230057   1.214   0.822   4.979
10034TIP3   OH230058   2.062   5.572   5.199
10034TIP3    H130059   2.019   5.489   5.177
10034TIP3    H230060   2.007   5.612   5.265
10035TIP3   OH230061   0.772   6.734   3.777
10035TIP3    H130062   0.816   6.714   3.695
10035TIP3    H230063   0.709   6.662   3.788
10036TIP3   OH230064   2.995   7.759   5.506
10036TIP3    H130065   2.957   7.696   5.567
10036TIP3    H230066   2.974   7.845   5.543
10037TIP3   OH230067   0.475   0.101   3.674
10037TIP3    H130068   0.521   0.108   3.591
10037TIP3    H230069   0.415   0.175   3.674
10038TIP3   OH230070   5.175   2.863   5.848
10038TIP3    H130071   5.198   2.817   5.928
10038TIP3    H230072   5.225   2.945   5.852
10039TIP3   OH230073   5.059   1.268   3.393
10039TIP3    H130074   5.020   1.197   3.341
10039TIP3    H230075   5.031   1.250   3.483
10040TIP3   OH230076   4.971   2.937   1.725
10040TIP3    H130077   5.055   2.950   1.681
10040TIP3    H230078   4.994   2.915   1.815
10041TIP3   OH230079   5.606   1.741   6.051
10041TIP3    H130080   5.666   1.726   5.977
10041TIP3    H230081   5.547   1.666   6.050
10042TIP3   OH230082   5.248   2.516   4.546
10042TIP3    H130083   5.244   2.584   4.478
10042TIP3    H230084   5.235   2.434   4.499
10043TIP3   OH230085   0.222   2.846   0.584
10043TIP3    H130086   0.225   2.814   0.674
10043TIP3    H230087   0.129   2.848   0.562
10044TIP3   OH230088   6.202   1.944   5.753
10044TIP3    H130089   6.294   1.956   5.778
10044TIP3    H230090   6.152   1.977   5.827
10045TIP3   OH230091   4.730   6.155   4.955
10045TIP3    H130092   4.804   6.214   4.939
10045TIP3    H230093   4.756   6.105   5.033
10046TIP3   OH230094   7.722   0.327   1.727
10046TIP3    H130095   7.739   0.372   1.644
10046TIP3    H230096   7.791   0.358   1.786
10047TIP3   OH230097   6.981   3.002   6.438
10047TIP3    H130098   6.950   2.979   6.351
10047TIP3    H230099   7.062   3.050   6.424
10048TIP3   OH230100   4.162   2.188   3.710
10048TIP3    H130101   4.081   2.186   3.658
10048TIP3    H230102   4.133   2.169   3.799
10049TIP3   OH230103   7.789   6.719   5.231
10049TIP3    H130104   7.859   6.683   5.286
10049TIP3    H230105   7.790   6.813   5.251
10050TIP3   OH230106   5.453   6.045   2.666
10050TIP3    H130107   5.472   6.105   2.595
10050TIP3    H230108   5.402   6.096   2.728
10051TIP3   OH230109   5.911   5.475   6.186
10051TIP3    H130110   5.946   5.551   6.232
10051TIP3    H230111   5.816   5.487   6.187
10052TIP3   OH230112   3.722   1.408   2.007
10052TIP3    H130113   3.676   1.476   1.959
10052TIP3    H230114   3.807   1.447   2.028
10053TIP3   OH230115   5.842   5.796   6.524
10053TIP3    H130116   5.895   5.717   6.515
10053TIP3    H230117   5.850   5.840   6.439
10054TIP3   OH230118   6.392   4.943   4.149
10054TIP3    H130119   6.417   4.945   4.242
10054TIP3    H230120   6.346   4.860   4.139
10055TIP3   OH230121   1.439   1.778   2.453
10055TIP3    H130122   1.425   1.821   2.537
10055TIP3    H230123   1.449   1.849   2.391
10056TIP3   OH230124   6.738   6.927   2.407
10056TIP3    H130125   6.746   6.971   2.491
10056TIP3    H230126   6.707   6.839   2.429
10057TIP3   OH230127   7.847   7.277   3.619
10057TIP3    H130128   7.843   7.207   3.554
10057TIP3    H230129   7.792   7.347   3.583
10058TIP3   OH230130   2.026   5.966   0.305
10058TIP3    H130131   2.112   5.934   0.277
10058TIP3    H230132   2.018   5.938   0.396
10059TIP3   OH230133   4.209   7.742   2.649
10059TIP3    H130134   4.295   7.707   2.673
10059TIP3    H230135   4.178   7.786   2.728
10060TIP3   OH230136   7.291   7.034   5.340
10060TIP3    H130137   7.256   7.099   5.279
10060TIP3    H230138   7.265   6.949   5.303
10061TIP3   OH230139   7.030   3.716   6.346
10061TIP3    H130140   6.999   3.638   6.299
10061TIP3    H230141   7.040   3.783   6.278
10062TIP3   OH230142   8.290   4.760   1.833
10062TIP3    H130143   8.295   4.830   1.768
10062TIP3    H230144   8.218   4.705   1.804
10063TIP3   OH230145   5.488   5.310   4.844
10063TIP3    H130146   5.563   5.301   4.903
10063TIP3    H230147   5.488   5.402   4.819
10064TIP3   OH230148   2.427   2.200   0.696
10064TIP3    H130149   2.404   2.197   0.789
10064TIP3    H230150   2.391   2.119   0.660
10065TIP3   OH230151   0.302   5.124   3.121
10065TIP3    H130152   0.330   5.042   3.161
10065TIP3    H230153   0.219   5.102   3.079
10066TIP3   OH230154   5.848   4.964   2.818
10066TIP3    H130155   5.914   4.980   2.751
10066TIP3    H230156   5.854   4.870   2.836
10067TIP3   OH230157   4.160   6.044   0.428
10067TIP3    H130158   4.187   6.126   0.469
10067TIP3    H230159   4.194   6.049   0.338
10068TIP3   OH230160   2.597   0.877   6.079
10068TIP3    H130161   2.623   0.909   6.165
10068TIP3    H230162   2.608   0.952   6.021
10069TIP3   OH230163   0.985   0.164   5.535
10069TIP3    H130164   0.925   0.133   5.466
10069TIP3    H230165   1.021   0.083   5.572
10070TIP3   OH230166   6.770   1.530   1.683
10070TIP3    H130167   6.695   1.531   1.623
10070TIP3    H230168   6.777   1.620   1.714
10071TIP3   OH230169   2.135   5.372   1.987
10071TIP3    H130170   2.117   5.315   2.061
10071TIP3    H230171   2.050   5.382   1.943
10072TIP3   OH230172   1.724   7.128   0.697
10072TIP3    H130173   1.792   7.144   0.632
10072TIP3    H230174   1.741   7.038   0.727
10073TIP3   OH230175   7.740   4.836   0.021
10073TIP3    H130176   7.830   4.810   0.004
10073TIP3    H230177   7.701   4.760   0.064
10074TIP3   OH230178   3.705   2.343   2.128
10074TIP3    H130179   3.673   2.253   2.120
10074TIP3    H230180   3.651   2.393   2.067
10075TIP3   OH230181   1.056   4.741   1.453
10075TIP3    H130182   0.999   4.803   1.407
10075TIP3    H230183   1.037   4.657   1.412
10076TIP3   OH230184   8.149   3.539   0.313
10076TIP3    H130185   8.067   3.578   0.345
10076TIP3    H230186   8.156   3.569   0.223
10077TIP3   OH230187   4.127   6.526   4.640
10077TIP3    H130188   4.167   6.518   4.553
10077TIP3    H230189   4.175   6.463   4.694
10078TIP3   OH230190   0.441   5.084   2.376
10078TIP3    H130191   0.354   5.051   2.398
10078TIP3    H230192   0.426   5.148   2.307
10079TIP3   OH230193   1.498   3.647   2.349
10079TIP3    H130194   1.438   3.575   2.331
10079TIP3    H230195   1.473   3.677   2.437
10080TIP3   OH230196   2.648   4.904   4.981
10080TIP3    H130197   2.623   4.995   4.965
10080TIP3    H230198   2.635   4.891   5.075
10081TIP3   OH230199   0.621   7.183   3.987
10081TIP3    H130200   0.619   7.267   4.033
10081TIP3    H230201   0.563   7.126   4.038
10082TIP3   OH230202   5.247   5.290   0.081
10082TIP3    H130203   5.240   5.341   0.161
10082TIP3    H230204   5.171   5.315   0.029
10083TIP3   OH230205   6.903   1.384   4.456
10083TIP3    H130206   6.911   1.428   4.371
10083TIP3    H230207   6.989   1.395   4.497
10084TIP3   OH230208   7.741   2.637   5.755
10084TIP3    H130209   7.718   2.698   5.685
10084TIP3    H230210   7.660   2.624   5.804
10085TIP3   OH230211   1.119   4.790   0.141
10085TIP3    H130212   1.182   4.750   0.201
10085TIP3    H230213   1.050   4.723   0.131
10086TIP3   OH230214   7.946   3.220   0.400
10086TIP3    H130215   8.031   3.179   0.414
10086TIP3    H230216   7.887   3.147   0.380
10087TIP3   OH230217   0.429   0.626   3.798
10087TIP3    H130218   0.420   0.612   3.892
10087TIP3    H230219   0.522   0.614   3.780
10088TIP3   OH230220   0.717   0.198   4.480
10088TIP3    H130221   0.801   0.222   4.442
10088TIP3    H230222   0.725   0.105   4.502
10089TIP3   OH230223   0.987   6.678   2.931
10089TIP3    H130224   1.036   6.759   2.941
10089TIP3    H230225   0.895   6.705   2.933
10090TIP3   OH230226   5.605   2.352   3.983
10090TIP3    H130227   5.574   2.368   3.894
10090TIP3    H230228   5.603   2.256   3.992
10091TIP3   OH230229   4.189   3.902   2.480
10091TIP3    H130230   4.101   3.933   2.459
10091TIP3    H230231   4.210   3.943   2.564
10092TIP3   OH230232   8.251   5.787   3.433
10092TIP3    H130233   8.161   5.795   3.401
10092TIP3    H230234   8.257   5.852   3.503
10093TIP3   OH230235   2.544   2.438   4.635
10093TIP3    H130236   2.480   2.420   4.567
10093TIP3    H230237   2.554   2.533   4.635
10094TIP3   OH230238   7.681   1.261   1.811
10094TIP3    H130239   7.677   1.211   1.892
10094TIP3    H230240   7.590   1.286   1.794
10095TIP3   OH230241   3.399   1.273   1.656
10095TIP3    H130242   3.445   1.230   1.728
10095TIP3    H230243   3.315   1.300   1.693
10096TIP3   OH230244   2.258   6.680   0.179
10096TIP3    H130245   2.287   6.589   0.178
10096TIP3    H230246   2.166   6.676   0.153
10097TIP3   OH230247   4.891   0.720   2.649
10097TIP3    H130248   4.856   0.632   2.640
10097TIP3    H230249   4.966   0.722   2.589
10098TIP3   OH230250   3.796   1.871   2.261
10098TIP3    H130251   3.807   1.907   2.173
10098TIP3    H230252   3.737   1.797   2.249
10099TIP3   OH230253   3.273   1.317   3.031
10099TIP3    H130254   3.218   1.371   2.974
10099TIP3    H230255   3.226   1.314   3.114
10100TIP3   OH230256   0.864   4.886   2.307
10100TIP3    H130257   0.783   4.877   2.358
10100TIP3    H230258   0.934   4.873   2.370
10101TIP3   OH230259   2.289   0.115   2.848
10101TIP3    H130260   2.334   0.106   2.931
10101TIP3    H230261   2.340   0.062   2.786
10102TIP3   OH230262   1.721   3.042   0.167
10102TIP3    H130263   1.809   3.018   0.198
10102TIP3    H230264   1.669   2.962   0.179
10103TIP3   OH230265   4.133   4.514   3.731
10103TIP3    H130266   4.198   4.564   3.682
10103TIP3    H230267   4.182   4.478   3.805
10104TIP3   OH230268   0.661   5.659   3.376
10104TIP3    H130269   0.611   5.652   3.295
10104TIP3    H230270   0.656   5.751   3.400
10105TIP3   OH230271   3.105   5.211   6.392
10105TIP3    H130272   3.134   5.162   6.315
10105TIP3    H230273   3.014   5.183   6.406
10106TIP3   OH230274   8.052   2.134   6.720
10106TIP3    H130275   7.990   2.191   6.674
10106TIP3    H230276   8.126   2.191   6.741
10107TIP3   OH230277   6.806   4.424   6.539
10107TIP3    H130278   6.847   4.509   6.521
10107TIP3    H230279   6.868   4.379   6.597
10108TIP3   OH230280   4.841   3.999   4.523
10108TIP3    H130281   4.853   3.915   4.479
10108TIP3    H230282   4.770   4.042   4.474
10109TIP3   OH230283   0.932   0.450   3.749
10109TIP3    H130284   1.011   0.500   3.769
10109TIP3    H230285   0.925   0.386   3.820
10110TIP3   OH230286   3.597   0.891   2.848
10110TIP3    H130287   3.543   0.845   2.784
10110TIP3    H230288   3.680   0.842   2.849
10111TIP3   OH230289   4.131   5.920   2.879
10111TIP3    H130290   4.104   6.007   2.846
10111TIP3    H230291   4.145   5.869   2.800
10112TIP3   OH230292   5.826   5.772   1.950
10112TIP3    H130293   5.843   5.847   2.007
10112TIP3    H230294   5.773   5.808   1.878
10113TIP3   OH230295   7.593   0.023   4.397
10113TIP3    H130296   7.643  -0.020   4.328
10113TIP3    H230297   7.506   0.035   4.360
10114TIP3   OH230298   0.177   0.065   6.745
10114TIP3    H130299   0.204   0.147   6.702
10114TIP3    H230300   0.248   0.046   6.806
10115TIP3   OH230301   6.184   5.723   4.106
10115TIP3    H130302   6.259   5.763   4.151
10115TIP3    H230303   6.120   5.793   4.099
10116TIP3   OH230304   7.780   6.242   6.178
10116TIP3    H130305   7.817   6.244   6.266
10116TIP3    H230306   7.842   6.292   6.125
10117TIP3   OH230307   3.300   2.655   5.363
10117TIP3    H130308   3.341   2.690   5.442
10117TIP3    H230309   3.301   2.560   5.375
10118TIP3   OH230310   0.978   4.258   5.487
10118TIP3    H130311   1.072   4.273   5.492
10118TIP3    H230312   0.941   4.341   5.459
10119TIP3   OH230313   4.159   5.952   2.311
10119TIP3    H130314   4.157   6.048   2.311
10119TIP3    H230315   4.228   5.929   2.373
10120TIP3   OH230316   8.058   3.081   2.860
10120TIP3    H130317   8.092   3.021   2.793
10120TIP3    H230318   8.027   3.024   2.930
10121TIP3   OH230319   7.750   2.329   5.413
10121TIP3    H130320   7.706   2.403   5.455
10121TIP3    H230321   7.780   2.363   5.329
10122TIP3   OH230322   0.354   0.557   2.029
10122TIP3    H130323   0.379   0.560   2.121
10122TIP3    H230324   0.323   0.646   2.010
10123TIP3   OH230325   3.652   7.205   3.248
10123TIP3    H130326   3.706   7.176   3.175
10123TIP3    H230327   3.674   7.146   3.320
10124TIP3   OH230328   1.878   7.121   1.959
10124TIP3    H130329   1.835   7.134   2.043
10124TIP3    H230330   1.887   7.026   1.951
10125TIP3   OH230331   6.457   4.726   2.196
10125TIP3    H130332   6.387   4.696   2.254
10125TIP3    H230333   6.470   4.818   2.220
10126TIP3   OH230334   5.894   0.390   3.708
10126TIP3    H130335   5.987   0.384   3.686
10126TIP3    H230336   5.879   0.315   3.765
10127TIP3   OH230337   4.197   4.732   4.372
10127TIP3    H130338   4.204   4.703   4.464
10127TIP3    H230339   4.103   4.738   4.356
10128TIP3   OH230340   0.309   4.126   3.665
10128TIP3    H130341   0.326   4.081   3.582
10128TIP3    H230342   0.357   4.075   3.730
10129TIP3   OH230343   1.453   3.870   6.560
10129TIP3    H130344   1.403   3.803   6.605
10129TIP3    H230345   1.499   3.823   6.490
10130TIP3   OH230346   3.621   4.605   3.173
10130TIP3    H130347   3.686   4.668   3.201
10130TIP3    H230348   3.633   4.530   3.231
10131TIP3   OH230349   7.277   4.761   6.026
10131TIP3    H130350   7.229   4.725   6.101
10131TIP3    H230351   7.253   4.853   6.024
10132TIP3   OH230352   4.293   0.630   3.453
10132TIP3    H130353   4.204   0.660   3.435
10132TIP3    H230354   4.318   0.583   3.374
10133TIP3   OH230355   2.057   5.688   6.600
10133TIP3    H130356   2.148   5.714   6.588
10133TIP3    H230357   2.007   5.770   6.595
10134TIP3   OH230358   3.405   6.445   6.269
10134TIP3    H130359   3.496   6.449   6.298
10134TIP3    H230360   3.354   6.457   6.350
10135TIP3   OH230361   6.473   0.915   5.199
10135TIP3    H130362   6.422   0.892   5.277
10135TIP3    H230363   6.555   0.867   5.210
10136TIP3   OH230364   5.832   0.812   1.093
10136TIP3    H130365   5.778   0.856   1.158
10136TIP3    H230366   5.922   0.832   1.118
10137TIP3   OH230367   6.259   3.710   5.627
10137TIP3    H130368   6.165   3.697   5.636
10137TIP3    H230369   6.295   3.621   5.619
10138TIP3   OH230370   5.877   1.394   3.498
10138TIP3    H130371   5.798   1.447   3.504
10138TIP3    H230372   5.902   1.376   3.589
10139TIP3   OH230373   3.061   4.197   1.873
10139TIP3    H130374   3.145   4.152   1.869
10139TIP3    H230375   3.044   4.225   1.783
10140TIP3   OH230376   0.980   2.076   6.308
10140TIP3    H130377   0.934   2.090   6.391
10140TIP3    H230378   0.925   2.014   6.261
10141TIP3   OH230379   3.791   1.206   1.812
10141TIP3    H130380   3.780   1.284   1.866
10141TIP3    H230381   3.702   1.171   1.804
10142TIP3   OH230382   6.227   6.500   3.535
10142TIP3    H130383   6.296   6.540   3.483
10142TIP3    H230384   6.254   6.513   3.626
10143TIP3   OH230385   1.404   4.608   6.226
10143TIP3    H130386   1.347   4.664   6.279
10143TIP3    H230387   1.485   4.602   6.276
10144TIP3   OH230388   3.314   7.266   5.759
10144TIP3    H130389   3.232   7.280   5.712
10144TIP3    H230390   3.288   7.229   5.843
10145TIP3   OH230391   3.316   0.245   6.125
10145TIP3    H130392   3.341   0.251   6.218
10145TIP3    H230393   3.235   0.193   6.126
10146TIP3   OH230394   8.098   7.189   0.728
10146TIP3    H130395   8.175   7.224   0.773
10146TIP3    H230396   8.129   7.168   0.640
10147TIP3   OH230397   1.514   5.132   2.956
10147TIP3    H130398   1.447   5.079   3.000
10147TIP3    H230399   1.562   5.173   3.028
10148TIP3   OH230400   4.625   5.055   1.073
10148TIP3    H130401   4.657   5.145   1.083
10148TIP3    H230402   4.545   5.052   1.125
10149TIP3   OH230403   7.818   7.099   3.111
10149TIP3    H130404   7.818   7.003   3.104
10149TIP3    H230405   7.808   7.130   3.021
10150TIP3   OH230406   7.986   3.103   5.102
10150TIP3    H130407   7.910   3.085   5.045
10150TIP3    H230408   8.014   3.016   5.131
10151TIP3   OH230409   2.054   2.310   3.739
10151TIP3    H130410   1.981   2.308   3.801
10151TIP3    H230411   2.031   2.379   3.677
10152TIP3   OH230412   6.937   1.709   5.360
10152TIP3    H130413   7.007   1.691   5.297
10152TIP3    H230414   6.858   1.679   5.316
10153TIP3   OH230415   7.433   5.718   5.370
10153TIP3    H130416   7.506   5.777   5.353
10153TIP3    H230417   7.393   5.704   5.284
10154TIP3   OH230418   5.910   6.832   1.766
10154TIP3    H130419   5.900   6.825   1.671
10154TIP3    H230420   5.965   6.908   1.779
10155TIP3   OH230421   2.382   1.313   1.424
10155TIP3    H130422   2.390   1.247   1.492
10155TIP3    H230423   2.354   1.392   1.470
10156TIP3   OH230424   7.554   0.159   3.200
10156TIP3    H130425   7.524   0.084   3.250
10156TIP3    H230426   7.478   0.186   3.148
10157TIP3   OH230427   7.744   2.101   1.164
10157TIP3    H130428   7.759   2.170   1.228
10157TIP3    H230429   7.824   2.096   1.113
10158TIP3   OH230430   7.524   3.676   6.215
10158TIP3    H130431   7.572   3.630   6.146
10158TIP3    H230432   7.588   3.735   6.254
10159TIP3   OH230433   7.639   1.582   5.122
10159TIP3    H130434   7.636   1.488   5.108
10159TIP3    H230435   7.555   1.614   5.089
10160TIP3   OH230436   4.617   5.113   3.835
10160TIP3    H130437   4.700   5.149   3.865
10160TIP3    H230438   4.634   5.019   3.824
10161TIP3   OH230439   4.535   5.714   6.034
10161TIP3    H130440   4.518   5.692   6.125
10161TIP3    H230441   4.623   5.750   6.035
10162TIP3   OH230442   7.341   1.473   3.933
10162TIP3    H130443   7.417   1.427   3.899
10162TIP3    H230444   7.271   1.453   3.871
10163TIP3   OH230445   2.220   3.727   1.689
10163TIP3    H130446   2.181   3.748   1.774
10163TIP3    H230447   2.145   3.714   1.631
10164TIP3   OH230448   2.481   1.681   0.660
10164TIP3    H130449   2.559   1.702   0.610
10164TIP3    H230450   2.504   1.701   0.751
10165TIP3   OH230451   4.087   4.719   2.098
10165TIP3    H130452   4.040   4.729   2.181
10165TIP3    H230453   4.019   4.710   2.032
10166TIP3   OH230454   6.731   1.682   2.836
10166TIP3    H130455   6.762   1.604   2.881
10166TIP3    H230456   6.746   1.664   2.743
10167TIP3   OH230457   3.649   1.539   5.996
10167TIP3    H130458   3.635   1.450   6.027
10167TIP3    H230459   3.650   1.593   6.075
10168TIP3   OH230460   5.200   1.410   4.980
10168TIP3    H130461   5.168   1.480   5.037
10168TIP3    H230462   5.141   1.336   4.997
10169TIP3   OH230463   5.206   4.380   2.252
10169TIP3    H130464   5.283   4.431   2.226
10169TIP3    H230465   5.208   4.381   2.348
10170TIP3   OH230466   1.220   6.025   0.038
10170TIP3    H130467   1.286   5.964   0.007
10170TIP3    H230468   1.144   5.971   0.058
10171TIP3   OH230469   3.003   3.344   2.540
10171TIP3    H130470   2.975   3.358   2.449
10171TIP3    H230471   2.927   3.305   2.583
10172TIP3   OH230472   6.855   2.949   2.759
10172TIP3    H130473   6.787   2.906   2.708
10172TIP3    H230474   6.933   2.946   2.704
10173TIP3   OH230475   1.916   3.791   1.182
10173TIP3    H130476   1.985   3.726   1.175
10173TIP3    H230477   1.879   3.777   1.269
10174TIP3   OH230478   5.843   4.710   1.584
10174TIP3    H130479   5.759   4.707   1.538
10174TIP3    H230480   5.886   4.788   1.549
10175TIP3   OH230481   3.221   7.070   0.225
10175TIP3    H130482   3.161   7.125   0.176
10175TIP3    H230483   3.296   7.126   0.244
10176TIP3   OH230484   1.405   0.768   6.063
10176TIP3    H130485   1.472   0.718   6.110
10176TIP3    H230486   1.345   0.702   6.029
10177TIP3   OH230487   6.554   7.386   1.218
10177TIP3    H130488   6.543   7.404   1.311
10177TIP3    H230489   6.475   7.337   1.193
10178TIP3   OH230490   1.515   0.039   2.035
10178TIP3    H130491   1.493   0.036   1.942
10178TIP3    H230492   1.531  -0.052   2.059
10179TIP3   OH230493   7.481   7.818   1.172
10179TIP3    H130494   7.546   7.787   1.109
10179TIP3    H230495   7.497   7.766   1.251
10180TIP3   OH230496   7.281   4.410   0.856
10180TIP3    H130497   7.274   4.471   0.782
10180TIP3    H230498   7.368   4.370   0.845
10181TIP3   OH230499   2.386   6.235   3.460
10181TIP3    H130500   2.428   6.200   3.539
10181TIP3    H230501   2.331   6.164   3.429
10182TIP3   OH230502   2.018   5.294   5.058
10182TIP3    H130503   2.056   5.349   4.990
10182TIP3    H230504   2.004   5.209   5.016
10183TIP3   OH230505   3.259   2.846   6.214
10183TIP3    H130506   3.351   2.832   6.194
10183TIP3    H230507   3.258   2.877   6.304
10184TIP3   OH230508   3.093   6.759   6.732
10184TIP3    H130509   3.110   6.852   6.741
10184TIP3    H230510   3.001   6.754   6.705
10185TIP3   OH230511   4.623   2.889   2.235
10185TIP3    H130512   4.591   2.805   2.268
10185TIP3    H230513   4.583   2.897   2.148
10186TIP3   OH230514   0.845   4.469   5.336
10186TIP3    H130515   0.781   4.514   5.281
10186TIP3    H230516   0.921   4.526   5.337
10187TIP3   OH230517   1.857   6.619   0.828
10187TIP3    H130518   1.948   6.590   0.822
10187TIP3    H230519   1.819   6.594   0.744
10188TIP3   OH230520   0.843   0.304   1.024
10188TIP3    H130521   0.747   0.300   1.020
10188TIP3    H230522   0.866   0.238   1.090
10189TIP3   OH230523   6.589   2.405   6.198
10189TIP3    H130524   6.680   2.411   6.225
10189TIP3    H230525   6.574   2.311   6.185
10190TIP3   OH230526   1.236   2.965   3.143
10190TIP3    H130527   1.309   2.925   3.095
10190TIP3    H230528   1.236   2.919   3.227
10191TIP3   OH230529   2.051   1.312   6.551
10191TIP3    H130530   2.000   1.327   6.631
10191TIP3    H230531   2.049   1.396   6.505
10192TIP3   OH230532   7.160   3.404   3.715
10192TIP3    H130533   7.111   3.343   3.769
10192TIP3    H230534   7.242   3.358   3.695
10193TIP3   OH230535   5.550   6.366   4.658
10193TIP3    H130536   5.478   6.359   4.595
10193TIP3    H230537   5.581   6.456   4.648
10194TIP3   OH230538   7.831   5.766   5.187
10194TIP3    H130539   7.827   5.857   5.217
10194TIP3    H230540   7.925   5.749   5.178
10195TIP3   OH230541   1.242   6.553   5.162
10195TIP3    H130542   1.246   6.597   5.247
10195TIP3    H230543   1.185   6.610   5.110
10196TIP3   OH230544   5.501   3.173   3.083
10196TIP3    H130545   5.432   3.235   3.059
10196TIP3    H230546   5.479   3.094   3.035
10197TIP3   OH230547   1.597   3.625   3.977
10197TIP3    H130548   1.570   3.636   3.886
10197TIP3    H230549   1.691   3.607   3.973
10198TIP3   OH230550   7.471   6.071   0.747
10198TIP3    H130551   7.446   5.983   0.718
10198TIP3    H230552   7.448   6.073   0.840
10199TIP3   OH230553   7.635   3.808   2.300
10199TIP3    H130554   7.715   3.764   2.270
10199TIP3    H230555   7.652   3.901   2.287
10200TIP3   OH230556   3.007   4.839   6.002
10200TIP3    H130557   3.000   4.758   5.951
10200TIP3    H230558   2.917   4.858   6.029
10201TIP3   OH230559   5.195   6.114   2.431
10201TIP3    H130560   5.201   6.122   2.336
10201TIP3    H230561   5.259   6.048   2.454
10202TIP3   OH230562   2.040   0.664   6.102
10202TIP3    H130563   2.018   0.746   6.146
10202TIP3    H230564   2.108   0.688   6.039
10203TIP3   OH230565   1.023   0.405   5.316
10203TIP3    H130566   1.018   0.413   5.221
10203TIP3    H230567   1.063   0.320   5.331
10204TIP3   OH230568   5.572   1.466   5.355
10204TIP3    H130569   5.537   1.554   5.369
10204TIP3    H230570   5.615   1.471   5.269
10205TIP3   OH230571   3.360   2.183   2.266
10205TIP3    H130572   3.315   2.117   2.318
10205TIP3    H230573   3.452   2.158   2.269
10206TIP3   OH230574   3.056   7.635   2.421
10206TIP3    H130575   2.992   7.604   2.485
10206TIP3    H230576   3.102   7.707   2.464
10207TIP3   OH230577   4.903   2.904   4.300
10207TIP3    H130578   4.930   2.988   4.263
10207TIP3    H230579   4.984   2.867   4.336
10208TIP3   OH230580   3.242   2.703   0.813
10208TIP3    H130581   3.216   2.785   0.853
10208TIP3    H230582   3.336   2.710   0.801
10209TIP3   OH230583   3.573   3.081   2.669
10209TIP3    H130584   3.479   3.061   2.663
10209TIP3    H230585   3.577   3.172   2.698
10210TIP3   OH230586   0.246   1.575   5.199
10210TIP3    H130587   0.319   1.605   5.144
10210TIP3    H230588   0.174   1.564   5.137
10211TIP3   OH230589   7.179   5.345   3.567
10211TIP3    H130590   7.159   5.399   3.490
10211TIP3    H230591   7.095   5.333   3.610
10212TIP3   OH230592   2.324   3.342   5.164
10212TIP3    H130593   2.237   3.305   5.175
10212TIP3    H230594   2.381   3.266   5.153
10213TIP3   OH230595   2.612   7.539   1.382
10213TIP3    H130596   2.562   7.604   1.430
10213TIP3    H230597   2.701   7.545   1.417
10214TIP3   OH230598   2.716   4.940   5.957
10214TIP3    H130599   2.677   5.004   6.016
10214TIP3    H230600   2.667   4.859   5.973
10215TIP3   OH230601   7.343   7.159   1.615
10215TIP3    H130602   7.365   7.122   1.701
10215TIP3    H230603   7.258   7.119   1.593
10216TIP3   OH230604   1.889   7.708   1.720
10216TIP3    H130605   1.947   7.656   1.665
10216TIP3    H230606   1.930   7.794   1.724
10217TIP3   OH230607   3.965   3.956   6.063
10217TIP3    H130608   4.012   3.914   5.991
10217TIP3    H230609   4.012   4.038   6.079
10218TIP3   OH230610   1.492   7.244   0.188
10218TIP3    H130611   1.423   7.292   0.142
10218TIP3    H230612   1.477   7.152   0.166
10219TIP3   OH230613   0.797   3.252   6.236
10219TIP3    H130614   0.853   3.298   6.299
10219TIP3    H230615   0.712   3.247   6.278
10220TIP3   OH230616   6.287   1.533   6.709
10220TIP3    H130617   6.358   1.569   6.657
10220TIP3    H230618   6.238   1.610   6.740
10221TIP3   OH230619   6.848   5.647   2.803
10221TIP3    H130620   6.898   5.729   2.812
10221TIP3    H230621   6.782   5.651   2.872
10222TIP3   OH230622   0.118   0.717   3.702
10222TIP3    H130623   0.151   0.677   3.782
10222TIP3    H230624   0.025   0.693   3.700
10223TIP3   OH230625   0.604   1.964   1.941
10223TIP3    H130626   0.653   1.894   1.897
10223TIP3    H230627   0.672   2.018   1.982
10224TIP3   OH230628   6.252   5.243   0.414
10224TIP3    H130629   6.260   5.199   0.329
10224TIP3    H230630   6.222   5.331   0.393
10225TIP3   OH230631   0.291   5.987   6.523
10225TIP3    H130632   0.366   6.036   6.557
10225TIP3    H230633   0.251   5.946   6.600
10226TIP3   OH230634   3.188   2.962   5.020
10226TIP3    H130635   3.108   2.955   4.968
10226TIP3    H230636   3.162   2.930   5.107
10227TIP3   OH230637   1.387   5.979   4.323
10227TIP3    H130638   1.461   5.918   4.334
10227TIP3    H230639   1.418   6.061   4.360
10228TIP3   OH230640   3.586   1.749   6.508
10228TIP3    H130641   3.515   1.812   6.520
10228TIP3    H230642   3.600   1.712   6.595
10229TIP3   OH230643   7.460   0.409   4.528
10229TIP3    H130644   7.542   0.362   4.519
10229TIP3    H230645   7.484   0.502   4.522
10230TIP3   OH230646   2.643   4.866   5.262
10230TIP3    H130647   2.554   4.832   5.273
10230TIP3    H230648   2.700   4.795   5.289
10231TIP3   OH230649   7.522   6.311   1.101
10231TIP3    H130650   7.556   6.223   1.084
10231TIP3    H230651   7.549   6.331   1.190
10232TIP3   OH230652   5.866   6.892   5.309
10232TIP3    H130653   5.796   6.940   5.264
10232TIP3    H230654   5.893   6.950   5.380
10233TIP3   OH230655   0.083   7.002   4.439
10233TIP3    H130656   0.018   7.005   4.510
10233TIP3    H230657   0.056   7.072   4.379
10234TIP3   OH230658   1.047   3.572   3.509
10234TIP3    H130659   1.067   3.628   3.434
10234TIP3    H230660   1.108   3.499   3.502
10235TIP3   OH230661   5.076   2.847   5.084
10235TIP3    H130662   5.116   2.891   5.159
10235TIP3    H230663   4.982   2.862   5.095
10236TIP3   OH230664   0.292   7.503   1.466
10236TIP3    H130665   0.369   7.457   1.432
10236TIP3    H230666   0.229   7.433   1.484
10237TIP3   OH230667   1.726   5.170   1.128
10237TIP3    H130668   1.791   5.239   1.117
10237TIP3    H230669   1.655   5.212   1.177
10238TIP3   OH230670   2.092   2.885   6.362
10238TIP3    H130671   2.183   2.909   6.347
10238TIP3    H230672   2.086   2.873   6.457
10239TIP3   OH230673   1.129   5.103   6.323
10239TIP3    H130674   1.094   5.191   6.342
10239TIP3    H230675   1.219   5.118   6.295
10240TIP3   OH230676   5.905   5.878   6.771
10240TIP3    H130677   5.893   5.829   6.689
10240TIP3    H230678   5.942   5.814   6.832
10241TIP3   OH230679   7.986   3.257   6.756
10241TIP3    H130680   7.989   3.251   6.661
10241TIP3    H230681   7.989   3.167   6.786
10242TIP3   OH230682   6.068   4.903   1.616
10242TIP3    H130683   6.031   4.980   1.574
10242TIP3    H230684   6.080   4.930   1.708
10243TIP3   OH230685   8.190   0.696   0.625
10243TIP3    H130686   8.167   0.603   0.622
10243TIP3    H230687   8.264   0.705   0.565
10244TIP3   OH230688   1.400   3.483   5.565
10244TIP3    H130689   1.322   3.427   5.569
10244TIP3    H230690   1.467   3.434   5.612
10245TIP3   OH230691   2.111   7.111   1.216
10245TIP3    H130692   2.102   7.192   1.165
10245TIP3    H230693   2.039   7.114   1.279
10246TIP3   OH230694   2.710   5.413   1.937
10246TIP3    H130695   2.702   5.494   1.987
10246TIP3    H230696   2.772   5.360   1.987
10247TIP3   OH230697   6.868   1.352   0.581
10247TIP3    H130698   6.804   1.350   0.510
10247TIP3    H230699   6.853   1.270   0.628
10248TIP3   OH230700   6.749   6.846   3.168
10248TIP3    H130701   6.784   6.762   3.197
10248TIP3    H230702   6.663   6.825   3.133
10249TIP3   OH230703   6.638   1.334   0.438
10249TIP3    H130704   6.590   1.377   0.367
10249TIP3    H230705   6.631   1.241   0.420
10250TIP3   OH230706   6.014   0.987   2.243
10250TIP3    H130707   6.016   0.965   2.336
10250TIP3    H230708   6.061   1.070   2.237
10251TIP3   OH230709   8.053   5.839   1.446
10251TIP3    H130710   8.097   5.805   1.368
10251TIP3    H230711   8.123   5.847   1.511
10252TIP3   OH230712   4.085   7.434   0.411
10252TIP3    H130713   4.180   7.444   0.405
10252TIP3    H230714   4.072   7.357   0.467
10253TIP3   OH230715   7.723   2.841   0.738
10253TIP3    H130716   7.736   2.846   0.643
10253TIP3    H230717   7.668   2.764   0.751
10254TIP3   OH230718   1.951   3.258   6.303
10254TIP3    H130719   1.875   3.316   6.297
10254TIP3    H230720   1.913   3.170   6.310
10255TIP3   OH230721   3.561   6.256   4.081
10255TIP3    H130722   3.544   6.192   4.150
10255TIP3    H230723   3.622   6.318   4.121
10256TIP3   OH230724   1.752   7.049   5.728
10256TIP3    H130725   1.845   7.043   5.751
10256TIP3    H230726   1.728   6.961   5.700
10257TIP3   OH230727   8.054   3.735   3.392
10257TIP3    H130728   8.098   3.650   3.402
10257TIP3    H230729   8.122   3.794   3.360
10258TIP3   OH230730   7.153   3.699   4.368
10258TIP3    H130731   7.193   3.613   4.358
10258TIP3    H230732   7.118   3.698   4.458
10259TIP3   OH230733   6.464   6.121   2.178
10259TIP3    H130734   6.549   6.091   2.147
10259TIP3    H230735   6.433   6.051   2.235
10260TIP3   OH230736   5.590   3.916   0.244
10260TIP3    H130737   5.660   3.969   0.283
10260TIP3    H230738   5.606   3.827   0.277
10261TIP3   OH230739   7.115   1.000   1.993
10261TIP3    H130740   7.026   1.012   1.961
10261TIP3    H230741   7.106   0.938   2.066
10262TIP3   OH230742   4.537   0.182   1.611
10262TIP3    H130743   4.611   0.144   1.658
10262TIP3    H230744   4.503   0.249   1.671
10263TIP3   OH230745   0.460   4.052   5.166
10263TIP3    H130746   0.395   4.033   5.099
10263TIP3    H230747   0.440   4.141   5.195
10264TIP3   OH230748   1.620   1.979   3.255
10264TIP3    H130749   1.644   1.912   3.191
10264TIP3    H230750   1.534   1.952   3.288
10265TIP3   OH230751   4.982   1.530   3.937
10265TIP3    H130752   4.938   1.446   3.923
10265TIP3    H230753   5.049   1.511   4.003
10266TIP3   OH230754   4.429   5.573   4.018
10266TIP3    H130755   4.417   5.480   3.997
10266TIP3    H230756   4.343   5.612   4.000
10267TIP3   OH230757   1.106   2.501   3.313
10267TIP3    H130758   1.041   2.564   3.344
10267TIP3    H230759   1.166   2.491   3.387
10268TIP3   OH230760   4.314   0.729   0.966
10268TIP3    H130761   4.273   0.647   0.994
10268TIP3    H230762   4.337   0.775   1.047
10269TIP3   OH230763   6.097   6.252   1.286
10269TIP3    H130764   6.078   6.344   1.304
10269TIP3    H230765   6.145   6.253   1.203
10270TIP3   OH230766   5.618   6.718   3.582
10270TIP3    H130767   5.529   6.745   3.603
10270TIP3    H230768   5.671   6.754   3.654
10271TIP3   OH230769   5.114   2.216   5.361
10271TIP3    H130770   5.153   2.277   5.423
10271TIP3    H230771   5.176   2.212   5.289
10272TIP3   OH230772   6.338   4.263   0.627
10272TIP3    H130773   6.418   4.224   0.594
10272TIP3    H230774   6.365   4.317   0.701
10273TIP3   OH230775   7.138   6.644   2.056
10273TIP3    H130776   7.067   6.579   2.053
10273TIP3    H230777   7.162   6.648   2.148
10274TIP3   OH230778   7.537   3.043   5.497
10274TIP3    H130779   7.503   3.055   5.585
10274TIP3    H230780   7.582   3.125   5.477
10275TIP3   OH230781   3.646   0.959   3.139
10275TIP3    H130782   3.737   0.985   3.130
10275TIP3    H230783   3.610   0.965   3.050
10276TIP3   OH230784   8.010   2.689   6.172
10276TIP3    H130785   8.008   2.774   6.215
10276TIP3    H230786   7.972   2.705   6.085
10277TIP3   OH230787   0.679   1.398   0.554
10277TIP3    H130788   0.691   1.384   0.460
10277TIP3    H230789   0.703   1.490   0.568
10278TIP3   OH230790   4.001   2.747   2.209
10278TIP3    H130791   4.064   2.675   2.206
10278TIP3    H230792   3.979   2.756   2.302
10279TIP3   OH230793   4.440   6.552   6.377
10279TIP3    H130794   4.524   6.579   6.340
10279TIP3    H230795   4.375   6.607   6.334
10280TIP3   OH230796   0.279   7.365   5.681
10280TIP3    H130797   0.263   7.448   5.637
10280TIP3    H230798   0.192   7.326   5.692
10281TIP3   OH230799   7.870   3.416   1.036
10281TIP3    H130800   7.943   3.364   1.069
10281TIP3    H230801   7.822   3.356   0.978
10282TIP3   OH230802   0.444   2.542   4.443
10282TIP3    H130803   0.353   2.565   4.421
10282TIP3    H230804   0.439   2.503   4.530
10283TIP3   OH230805   5.619   6.415   1.381
10283TIP3    H130806   5.623   6.395   1.474
10283TIP3    H230807   5.525   6.414   1.360
10284TIP3   OH230808   0.182   2.166   5.766
10284TIP3    H130809   0.132   2.091   5.734
10284TIP3    H230810   0.115   2.227   5.798
10285TIP3   OH230811   0.724   5.116   2.119
10285TIP3    H130812   0.786   5.164   2.065
10285TIP3    H230813   0.770   5.100   2.201
10286TIP3   OH230814   5.046   4.453   5.542
10286TIP3    H130815   5.012   4.532   5.499
10286TIP3    H230816   5.019   4.462   5.633
10287TIP3   OH230817   6.232   5.191   3.382
10287TIP3    H130818   6.244   5.128   3.453
10287TIP3    H230819   6.153   5.161   3.337
10288TIP3   OH230820   7.012   4.629   3.206
10288TIP3    H130821   6.971   4.705   3.248
10288TIP3    H230822   7.010   4.648   3.113
10289TIP3   OH230823   3.080   0.221   0.743
10289TIP3    H130824   3.088   0.272   0.663
10289TIP3    H230825   3.107   0.280   0.812
10290TIP3   OH230826   5.739   5.356   4.388
10290TIP3    H130827   5.827   5.317   4.383
10290TIP3    H230828   5.751   5.437   4.437
10291TIP3   OH230829   4.383   4.139   4.530
10291TIP3    H130830   4.448   4.139   4.460
10291TIP3    H230831   4.317   4.203   4.503
10292TIP3   OH230832   0.560   3.524   5.027
10292TIP3    H130833   0.486   3.575   4.995
10292TIP3    H230834   0.637   3.570   4.993
10293TIP3   OH230835   1.382   4.671   1.871
10293TIP3    H130836   1.434   4.591   1.867
10293TIP3    H230837   1.297   4.647   1.833
10294TIP3   OH230838   7.665   7.394   6.215
10294TIP3    H130839   7.637   7.440   6.136
10294TIP3    H230840   7.659   7.460   6.284
10295TIP3   OH230841   0.424   1.362   4.465
10295TIP3    H130842   0.484   1.432   4.440
10295TIP3    H230843   0.351   1.406   4.507
10296TIP3   OH230844   5.981   0.471   6.590
10296TIP3    H130845   5.934   0.424   6.658
10296TIP3    H230846   6.014   0.402   6.531
10297TIP3   OH230847   5.628   0.104   1.741
10297TIP3    H130848   5.619   0.141   1.653
10297TIP3    H230849   5.546   0.056   1.755
10298TIP3   OH230850   8.125   2.877   2.706
10298TIP3    H130851   8.134   2.833   2.622
10298TIP3    H230852   8.117   2.806   2.770
10299TIP3   OH230853   3.901   3.870   1.160
10299TIP3    H130854   3.993   3.855   1.182
10299TIP3    H230855   3.858   3.787   1.179
10300TIP3   OH230856   0.719   1.496   4.713
10300TIP3    H130857   0.721   1.412   4.666
10300TIP3    H230858   0.806   1.534   4.698
10301TIP3   OH230859   0.439   2.449   5.063
10301TIP3    H130860   0.461   2.529   5.016
10301TIP3    H230861   0.343   2.448   5.064
10302TIP3   OH230862   4.622   6.368   4.513
10302TIP3    H130863   4.657   6.282   4.535
10302TIP3    H230864   4.531   6.352   4.487
10303TIP3   OH230865   5.732   0.594   0.960
10303TIP3    H130866   5.802   0.657   0.976
10303TIP3    H230867   5.690   0.626   0.880
10304TIP3   OH230868   2.047   6.657   3.359
10304TIP3    H130869   2.117   6.595   3.377
10304TIP3    H230870   1.967   6.614   3.390
10305TIP3   OH230871   3.383   3.000   5.340
10305TIP3    H130872   3.361   3.088   5.307
10305TIP3    H230873   3.320   2.985   5.411
10306TIP3   OH230874   1.551   5.613   2.454
10306TIP3    H130875   1.484   5.570   2.508
10306TIP3    H230876   1.551   5.703   2.485
10307TIP3   OH230877   2.784   2.819   2.244
10307TIP3    H130878   2.797   2.725   2.235
10307TIP3    H230879   2.866   2.858   2.214
10308TIP3   OH230880   5.556   2.989   4.290
10308TIP3    H130881   5.649   2.990   4.268
10308TIP3    H230882   5.530   3.082   4.287
10309TIP3   OH230883   3.561   7.746   5.820
10309TIP3    H130884   3.525   7.735   5.908
10309TIP3    H230885   3.518   7.679   5.768
10310TIP3   OH230886   2.075   3.954   6.490
10310TIP3    H130887   2.046   3.908   6.412
10310TIP3    H230888   2.170   3.942   6.492
10311TIP3   OH230889   1.764   7.260   4.727
10311TIP3    H130890   1.807   7.182   4.693
10311TIP3    H230891   1.789   7.263   4.819
10312TIP3   OH230892   7.618   2.168   0.339
10312TIP3    H130893   7.685   2.139   0.277
10312TIP3    H230894   7.589   2.088   0.382
10313TIP3   OH230895   1.241   6.029   5.936
10313TIP3    H130896   1.179   5.983   5.879
10313TIP3    H230897   1.193   6.106   5.968
10314TIP3   OH230898   4.138   0.246   1.000
10314TIP3    H130899   4.214   0.296   1.031
10314TIP3    H230900   4.169   0.200   0.923
10315TIP3   OH230901   5.554   1.164   5.100
10315TIP3    H130902   5.550   1.230   5.169
10315TIP3    H230903   5.545   1.214   5.019
10316TIP3   OH230904   4.452   5.351   6.357
10316TIP3    H130905   4.375   5.398   6.388
10316TIP3    H230906   4.422   5.261   6.344
10317TIP3   OH230907   7.423   4.824   0.175
10317TIP3    H130908   7.506   4.797   0.214
10317TIP3    H230909   7.374   4.742   0.166
10318TIP3   OH230910   4.821   5.362   1.298
10318TIP3    H130911   4.784   5.303   1.233
10318TIP3    H230912   4.799   5.450   1.266
10319TIP3   OH230913   1.975   6.073   6.191
10319TIP3    H130914   2.038   6.022   6.241
10319TIP3    H230915   1.897   6.019   6.189
10320TIP3   OH230916   5.018   5.551   2.967
10320TIP3    H130917   5.016   5.456   2.965
10320TIP3    H230918   5.108   5.574   2.946
10321TIP3   OH230919   7.384   5.621   1.656
10321TIP3    H130920   7.299   5.646   1.692
10321TIP3    H230921   7.420   5.702   1.620
10322TIP3   OH230922   0.995   1.602   4.686
10322TIP3    H130923   1.030   1.606   4.597
10322TIP3    H230924   1.071   1.612   4.743
10323TIP3   OH230925   4.542   3.800   3.420
10323TIP3    H130926   4.547   3.789   3.515
10323TIP3    H230927   4.448   3.794   3.400
10324TIP3   OH230928   6.648   2.472   3.157
10324TIP3    H130929   6.612   2.561   3.162
10324TIP3    H230930   6.711   2.467   3.228
10325TIP3   OH230931   2.605   7.464   5.100
10325TIP3    H130932   2.514   7.486   5.120
10325TIP3    H230933   2.653   7.545   5.115
10326TIP3   OH230934   3.400   5.486   5.163
10326TIP3    H130935   3.474   5.538   5.133
10326TIP3    H230936   3.330   5.505   5.101
10327TIP3   OH230937   5.887   0.037   1.428
10327TIP3    H130938   5.967   0.089   1.419
10327TIP3    H230939   5.818   0.092   1.393
10328TIP3   OH230940   5.609   0.185   4.370
10328TIP3    H130941   5.675   0.217   4.432
10328TIP3    H230942   5.626   0.236   4.290
10329TIP3   OH230943   5.474   1.368   0.211
10329TIP3    H130944   5.440   1.377   0.122
10329TIP3    H230945   5.455   1.453   0.252
10330TIP3   OH230946   0.786   6.838   5.658
10330TIP3    H130947   0.747   6.812   5.742
10330TIP3    H230948   0.712   6.872   5.607
10331TIP3   OH230949   6.129   5.117   6.769
10331TIP3    H130950   6.182   5.190   6.800
10331TIP3    H230951   6.190   5.061   6.722
10332TIP3   OH230952   4.108   1.025   4.594
10332TIP3    H130953   4.059   1.107   4.594
10332TIP3    H230954   4.059   0.967   4.535
10333TIP3   OH230955   2.737   6.286   1.889
10333TIP3    H130956   2.695   6.271   1.804
10333TIP3    H230957   2.767   6.200   1.916
10334TIP3   OH230958   6.073   4.772   3.399
10334TIP3    H130959   6.138   4.818   3.453
10334TIP3    H230960   5.992   4.821   3.412
10335TIP3   OH230961   1.303   4.480   4.238
10335TIP3    H130962   1.328   4.459   4.328
10335TIP3    H230963   1.329   4.403   4.187
10336TIP3   OH230964   3.085   1.674   3.666
10336TIP3    H130965   3.095   1.644   3.575
10336TIP3    H230966   3.035   1.755   3.659
10337TIP3   OH230967   3.216   5.619   6.241
10337TIP3    H130968   3.163   5.616   6.161
10337TIP3    H230969   3.264   5.536   6.241
10338TIP3   OH230970   5.582   7.757   5.787
10338TIP3    H130971   5.489   7.742   5.802
10338TIP3    H230972   5.604   7.831   5.844
10339TIP3   OH230973   0.670   3.257   3.595
10339TIP3    H130974   0.612   3.333   3.593
10339TIP3    H230975   0.644   3.209   3.674
10340TIP3   OH230976   5.800   7.251   3.217
10340TIP3    H130977   5.871   7.307   3.249
10340TIP3    H230978   5.779   7.287   3.131
10341TIP3   OH230979   0.443   1.813   1.301
10341TIP3    H130980   0.432   1.901   1.338
10341TIP3    H230981   0.535   1.809   1.277
10342TIP3   OH230982   7.156   2.800   5.096
10342TIP3    H130983   7.215   2.746   5.149
10342TIP3    H230984   7.107   2.851   5.160
10343TIP3   OH230985   3.469   4.742   3.581
10343TIP3    H130986   3.466   4.817   3.522
10343TIP3    H230987   3.439   4.668   3.528
10344TIP3   OH230988   5.414   2.985   6.308
10344TIP3    H130989   5.351   3.052   6.336
10344TIP3    H230990   5.490   2.999   6.364
10345TIP3   OH230991   5.225   2.760   4.868
10345TIP3    H130992   5.258   2.671   4.877
10345TIP3    H230993   5.180   2.777   4.951
10346TIP3   OH230994   0.881   3.920   0.578
10346TIP3    H130995   0.952   3.981   0.556
10346TIP3    H230996   0.899   3.842   0.525
10347TIP3   OH230997   6.364   4.470   2.209
10347TIP3    H130998   6.384   4.467   2.115
10347TIP3    H230999   6.449   4.480   2.251
10348TIP3   OH231000   3.242   5.838   6.617
10348TIP3    H131001   3.167   5.888   6.647
10348TIP3    H231002   3.245   5.853   6.522
10349TIP3   OH231003   2.967   4.176   5.268
10349TIP3    H131004   3.019   4.255   5.250
10349TIP3    H231005   3.031   4.113   5.302
10350TIP3   OH231006   5.387   5.004   0.700
10350TIP3    H131007   5.458   5.055   0.660
10350TIP3    H231008   5.365   4.938   0.634
10351TIP3   OH231009   4.655   1.389   1.795
10351TIP3    H131010   4.698   1.314   1.756
10351TIP3    H231011   4.627   1.442   1.720
10352TIP3   OH231012   5.722   5.570   1.208
10352TIP3    H131013   5.698   5.549   1.118
10352TIP3    H231014   5.808   5.610   1.201
10353TIP3   OH231015   6.513   3.013   5.631
10353TIP3    H131016   6.489   3.044   5.718
10353TIP3    H231017   6.596   3.058   5.612
10354TIP3   OH231018   3.991   2.532   0.889
10354TIP3    H131019   3.968   2.479   0.965
10354TIP3    H231020   4.081   2.505   0.867
10355TIP3   OH231021   3.209   7.063   2.620
10355TIP3    H131022   3.180   7.151   2.645
10355TIP3    H231023   3.303   7.073   2.603
10356TIP3   OH231024   0.268   1.716   3.142
10356TIP3    H131025   0.178   1.683   3.139
10356TIP3    H231026   0.294   1.720   3.050
10357TIP3   OH231027   7.489   2.128   4.238
10357TIP3    H131028   7.439   2.070   4.296
10357TIP3    H231029   7.560   2.073   4.205
10358TIP3   OH231030   2.557   1.493   3.384
10358TIP3    H131031   2.500   1.516   3.457
10358TIP3    H231032   2.509   1.518   3.306
10359TIP3   OH231033   6.680   3.547   5.299
10359TIP3    H131034   6.691   3.508   5.213
10359TIP3    H231035   6.587   3.572   5.303
10360TIP3   OH231036   0.572   0.328   0.950
10360TIP3    H131037   0.533   0.242   0.933
10360TIP3    H231038   0.523   0.387   0.892
10361TIP3   OH231039   6.288   5.817   0.188
10361TIP3    H131040   6.349   5.743   0.190
10361TIP3    H231041   6.241   5.811   0.271
10362TIP3   OH231042   1.024   5.854   2.069
10362TIP3    H131043   0.996   5.945   2.079
10362TIP3    H231044   1.075   5.835   2.147
10363TIP3   OH231045   3.533   4.950   0.280
10363TIP3    H131046   3.572   4.988   0.358
10363TIP3    H231047   3.577   4.994   0.207
10364TIP3   OH231048   5.207   2.639   2.568
10364TIP3    H131049   5.259   2.581   2.512
10364TIP3    H231050   5.223   2.607   2.657
10365TIP3   OH231051   2.060   6.414   3.571
10365TIP3    H131052   2.052   6.321   3.591
10365TIP3    H231053   2.103   6.417   3.486
10366TIP3   OH231054   3.184   6.554   2.690
10366TIP3    H131055   3.205   6.594   2.774
10366TIP3    H231056   3.226   6.468   2.693
10367TIP3   OH231057   4.138   5.825   4.727
10367TIP3    H131058   4.217   5.818   4.673
10367TIP3    H231059   4.136   5.917   4.753
10368TIP3   OH231060   3.812   3.210   5.244
10368TIP3    H131061   3.905   3.232   5.247
10368TIP3    H231062   3.803   3.136   5.304
10369TIP3   OH231063   4.675   0.400   3.475
10369TIP3    H131064   4.651   0.357   3.557
10369TIP3    H231065   4.743   0.344   3.437
10370TIP3   OH231066   1.264   6.800   2.714
10370TIP3    H131067   1.262   6.860   2.790
10370TIP3    H231068   1.191   6.828   2.660
10371TIP3   OH231069   6.587   5.560   6.696
10371TIP3    H131070   6.604   5.468   6.715
10371TIP3    H231071   6.662   5.588   6.644
10372TIP3   OH231072   7.124   6.231   4.973
10372TIP3    H131073   7.041   6.272   4.994
10372TIP3    H231074   7.188   6.302   4.976
10373TIP3   OH231075   2.403   1.766   3.458
10373TIP3    H131076   2.392   1.797   3.369
10373TIP3    H231077   2.353   1.827   3.512
10374TIP3   OH231078   3.443   0.271   0.338
10374TIP3    H131079   3.372   0.312   0.288
10374TIP3    H231080   3.485   0.211   0.276
10375TIP3   OH231081   4.239   2.622   4.698
10375TIP3    H131082   4.217   2.529   4.703
10375TIP3    H231083   4.224   2.656   4.786
10376TIP3   OH231084   4.676   1.035   5.126
10376TIP3    H131085   4.612   1.105   5.140
10376TIP3    H231086   4.715   1.055   5.041
10377TIP3   OH231087   5.618   1.968   6.224
10377TIP3    H131088   5.529   2.001   6.239
10377TIP3    H231089   5.606   1.891   6.168
10378TIP3   OH231090   1.767   1.274   2.605
10378TIP3    H131091   1.756   1.198   2.662
10378TIP3    H231092   1.721   1.251   2.524
10379TIP3   OH231093   5.948   2.148   2.694
10379TIP3    H131094   5.870   2.187   2.653
10379TIP3    H231095   5.921   2.060   2.718
10380TIP3   OH231096   0.840   1.119   3.166
10380TIP3    H131097   0.922   1.137   3.121
10380TIP3    H231098   0.852   1.154   3.254
10381TIP3   OH231099   1.627   4.199   4.472
10381TIP3    H131100   1.708   4.221   4.426
10381TIP3    H231101   1.641   4.110   4.504
10382TIP3   OH231102   0.591   6.119   4.423
10382TIP3    H131103   0.685   6.126   4.405
10382TIP3    H231104   0.586   6.092   4.515
10383TIP3   OH231105   0.850   6.150   4.430
10383TIP3    H131106   0.908   6.130   4.356
10383TIP3    H231107   0.905   6.139   4.508
10384TIP3   OH231108   0.720   4.523   6.479
10384TIP3    H131109   0.757   4.611   6.465
10384TIP3    H231110   0.634   4.540   6.517
10385TIP3   OH231111   6.734   6.301   0.251
10385TIP3    H131112   6.767   6.231   0.195
10385TIP3    H231113   6.701   6.367   0.191
10386TIP3   OH231114   6.715   6.620   0.462
10386TIP3    H131115   6.797   6.619   0.511
10386TIP3    H231116   6.702   6.528   0.436
10387TIP3   OH231117   4.759   6.989   1.950
10387TIP3    H131118   4.722   7.017   2.033
10387TIP3    H231119   4.850   6.967   1.970
10388TIP3   OH231120   4.714   6.045   5.262
10388TIP3    H131121   4.717   5.960   5.218
10388TIP3    H231122   4.639   6.038   5.321
10389TIP3   OH231123   0.223   2.728   3.869
10389TIP3    H131124   0.134   2.742   3.837
10389TIP3    H231125   0.244   2.807   3.918
10390TIP3   OH231126   2.386   2.084   1.206
10390TIP3    H131127   2.432   2.125   1.279
10390TIP3    H231128   2.431   2.001   1.192
10391TIP3   OH231129   5.321   2.464   2.799
10391TIP3    H131130   5.266   2.409   2.742
10391TIP3    H231131   5.314   2.424   2.885
10392TIP3   OH231132   7.419   7.488   1.280
10392TIP3    H131133   7.406   7.450   1.367
10392TIP3    H231134   7.512   7.479   1.263
10393TIP3   OH231135   5.274   0.870   6.026
10393TIP3    H131136   5.263   0.894   6.118
10393TIP3    H231137   5.220   0.933   5.978
10394TIP3   OH231138   0.083   2.981   2.758
10394TIP3    H131139   0.144   2.917   2.722
10394TIP3    H231140  -0.003   2.953   2.727
10395TIP3   OH231141   7.584   5.021   1.796
10395TIP3    H131142   7.635   5.092   1.836
10395TIP3    H231143   7.561   5.054   1.709
10396TIP3   OH231144   5.874   6.382   5.755
10396TIP3    H131145   5.961   6.348   5.778
10396TIP3    H231146   5.823   6.375   5.835
10397TIP3   OH231147   0.805   5.105   5.194
10397TIP3    H131148   0.821   5.160   5.117
10397TIP3    H231149   0.838   5.157   5.268
10398TIP3   OH231150   1.517   3.743   2.624
10398TIP3    H131151   1.527   3.674   2.690
10398TIP3    H231152   1.606   3.777   2.613
10399TIP3   OH231153   1.025   3.286   5.871
10399TIP3    H131154   1.033   3.379   5.891
10399TIP3    H231155   0.940   3.277   5.828
10400TIP3   OH231156   5.760   6.136   2.329
10400TIP3    H131157   5.815   6.212   2.308
10400TIP3    H231158   5.688   6.172   2.381
10401TIP3   OH231159   6.066   6.307   6.417
10401TIP3    H131160   6.075   6.338   6.508
10401TIP3    H231161   6.147   6.259   6.400
10402TIP3   OH231162   5.719   3.562   0.635
10402TIP3    H131163   5.753   3.597   0.717
10402TIP3    H231164   5.755   3.474   0.629
10403TIP3   OH231165   2.561   0.068   3.490
10403TIP3    H131166   2.623   0.059   3.418
10403TIP3    H231167   2.490   0.008   3.467
10404TIP3   OH231168   6.132   4.215   6.160
10404TIP3    H131169   6.200   4.223   6.092
10404TIP3    H231170   6.128   4.302   6.200
10405TIP3   OH231171   5.583   6.296   1.913
10405TIP3    H131172   5.544   6.328   1.831
10405TIP3    H231173   5.569   6.201   1.910
10406TIP3   OH231174  -0.024   4.550   1.334
10406TIP3    H131175  -0.016   4.584   1.423
10406TIP3    H231176   0.057   4.578   1.291
10407TIP3   OH231177   1.277   0.103   6.528
10407TIP3    H131178   1.353   0.048   6.546
10407TIP3    H231179   1.206   0.062   6.576
10408TIP3   OH231180   0.454   4.200   4.742
10408TIP3    H131181   0.507   4.149   4.802
10408TIP3    H231182   0.463   4.291   4.773
10409TIP3   OH231183   7.166   2.109   5.992
10409TIP3    H131184   7.209   2.193   5.974
10409TIP3    H231185   7.231   2.043   5.968
10410TIP3   OH231186   2.456   0.045   0.450
10410TIP3    H131187   2.520  -0.012   0.408
10410TIP3    H231188   2.423   0.100   0.379
10411TIP3   OH231189   4.493   4.817   5.572
10411TIP3    H131190   4.454   4.814   5.659
10411TIP3    H231191   4.457   4.897   5.533
10412TIP3   OH231192   4.242   7.267   4.873
10412TIP3    H131193   4.184   7.328   4.827
10412TIP3    H231194   4.318   7.260   4.816
10413TIP3   OH231195   3.106   1.144   4.728
10413TIP3    H131196   3.147   1.065   4.692
10413TIP3    H231197   3.063   1.185   4.652
10414TIP3   OH231198   4.310   3.117   6.530
10414TIP3    H131199   4.238   3.136   6.590
10414TIP3    H231200   4.297   3.026   6.505
10415TIP3   OH231201   2.342   2.772   4.212
10415TIP3    H131202   2.327   2.755   4.305
10415TIP3    H231203   2.324   2.865   4.201
10416TIP3   OH231204   7.163   5.846   6.614
10416TIP3    H131205   7.207   5.834   6.529
10416TIP3    H231206   7.120   5.763   6.631
10417TIP3   OH231207   0.266   6.074   1.088
10417TIP3    H131208   0.300   5.984   1.089
10417TIP3    H231209   0.171   6.064   1.089
10418TIP3   OH231210   2.129   5.463   4.853
10418TIP3    H131211   2.216   5.454   4.813
10418TIP3    H231212   2.117   5.557   4.863
10419TIP3   OH231213   3.115   3.835   0.197
10419TIP3    H131214   3.208   3.824   0.176
10419TIP3    H231215   3.085   3.748   0.223
10420TIP3   OH231216   7.340   3.978   6.037
10420TIP3    H131217   7.415   3.993   6.094
10420TIP3    H231218   7.345   4.048   5.971
10421TIP3   OH231219   5.576   2.913   1.397
10421TIP3    H131220   5.600   3.004   1.412
10421TIP3    H231221   5.502   2.917   1.337
10422TIP3   OH231222   7.909   4.746   4.396
10422TIP3    H131223   8.004   4.755   4.398
10422TIP3    H231224   7.884   4.772   4.308
10423TIP3   OH231225   6.308   3.591   0.399
10423TIP3    H131226   6.239   3.633   0.347
10423TIP3    H231227   6.261   3.522   0.448
10424TIP3   OH231228   3.846   1.049   0.703
10424TIP3    H131229   3.865   0.974   0.759
10424TIP3    H231230   3.815   1.117   0.763
10425TIP3   OH231231   1.014   5.153   4.399
10425TIP3    H131232   1.019   5.071   4.349
10425TIP3    H231233   1.040   5.221   4.337
10426TIP3   OH231234   3.743   0.145   2.825
10426TIP3    H131235   3.834   0.166   2.848
10426TIP3    H231236   3.691   0.206   2.878
10427TIP3   OH231237   0.740   5.100   1.727
10427TIP3    H131238   0.727   5.194   1.737
10427TIP3    H231239   0.652   5.063   1.723
10428TIP3   OH231240   7.273   5.473   1.380
10428TIP3    H131241   7.239   5.447   1.465
10428TIP3    H231242   7.327   5.549   1.398
10429TIP3   OH231243   5.707   2.590   3.464
10429TIP3    H131244   5.772   2.657   3.446
10429TIP3    H231245   5.737   2.547   3.544
10430TIP3   OH231246   0.550   1.599   4.422
10430TIP3    H131247   0.495   1.652   4.363
10430TIP3    H231248   0.624   1.572   4.368
10431TIP3   OH231249   0.785   0.793   0.623
10431TIP3    H131250   0.789   0.744   0.541
10431TIP3    H231251   0.784   0.885   0.596
10432TIP3   OH231252   3.829   4.141   1.390
10432TIP3    H131253   3.816   4.046   1.392
10432TIP3    H231254   3.864   4.163   1.477
10433TIP3   OH231255   6.189   1.122   4.261
10433TIP3    H131256   6.251   1.059   4.225
10433TIP3    H231257   6.110   1.071   4.276
10434TIP3   OH231258   2.546   3.492   5.259
10434TIP3    H131259   2.518   3.575   5.221
10434TIP3    H231260   2.478   3.430   5.232
10435TIP3   OH231261   5.565   1.959   2.438
10435TIP3    H131262   5.651   1.998   2.423
10435TIP3    H231263   5.583   1.866   2.455
10436TIP3   OH231264   4.406   1.911   6.051
10436TIP3    H131265   4.438   1.923   6.140
10436TIP3    H231266   4.478   1.939   5.995
10437TIP3   OH231267   2.362   0.962   0.466
10437TIP3    H131268   2.281   0.916   0.487
10437TIP3    H231269   2.336   1.052   0.449
10438TIP3   OH231270   6.003   5.960   0.907
10438TIP3    H131271   5.988   6.046   0.948
10438TIP3    H231272   5.915   5.924   0.896
10439TIP3   OH231273   7.224   3.051   4.754
10439TIP3    H131274   7.245   2.960   4.777
10439TIP3    H231275   7.141   3.045   4.707
10440TIP3   OH231276   8.100   3.778   2.929
10440TIP3    H131277   8.077   3.717   2.859
10440TIP3    H231278   8.068   3.737   3.009
10441TIP3   OH231279   2.433   4.466   0.726
10441TIP3    H131280   2.362   4.425   0.676
10441TIP3    H231281   2.393   4.486   0.811
10442TIP3   OH231282   3.660   0.756   1.383
10442TIP3    H131283   3.636   0.838   1.425
10442TIP3    H231284   3.578   0.706   1.379
10443TIP3   OH231285   7.846   1.233   6.480
10443TIP3    H131286   7.752   1.225   6.461
10443TIP3    H231287   7.887   1.246   6.394
10444TIP3   OH231288   3.008   3.191   5.249
10444TIP3    H131289   3.035   3.177   5.339
10444TIP3    H231290   2.947   3.265   5.253
10445TIP3   OH231291   2.404   2.533   5.971
10445TIP3    H131292   2.433   2.598   6.034
10445TIP3    H231293   2.314   2.514   5.995
10446TIP3   OH231294   5.918   1.879   2.888
10446TIP3    H131295   5.929   1.823   2.965
10446TIP3    H231296   6.008   1.897   2.859
10447TIP3   OH231297   1.394   1.714   3.093
10447TIP3    H131298   1.381   1.805   3.116
10447TIP3    H231299   1.344   1.701   3.013
10448TIP3   OH231300   6.769   3.007   2.328
10448TIP3    H131301   6.733   3.070   2.267
10448TIP3    H231302   6.843   2.968   2.282
10449TIP3   OH231303   7.252   2.524   4.124
10449TIP3    H131304   7.341   2.556   4.110
10449TIP3    H231305   7.212   2.589   4.183
10450TIP3   OH231306   4.226   1.532   3.807
10450TIP3    H131307   4.214   1.581   3.888
10450TIP3    H231308   4.225   1.599   3.738
10451TIP3   OH231309   4.537   6.553   3.622
10451TIP3    H131310   4.480   6.557   3.699
10451TIP3    H231311   4.585   6.636   3.623
10452TIP3   OH231312   3.840   3.367   1.760
10452TIP3    H131313   3.864   3.459   1.769
10452TIP3    H231314   3.855   3.329   1.847
10453TIP3   OH231315   6.399   7.655   1.363
10453TIP3    H131316   6.433   7.579   1.410
10453TIP3    H231317   6.361   7.711   1.431
10454TIP3   OH231318   2.408   3.327   5.581
10454TIP3    H131319   2.468   3.307   5.652
10454TIP3    H231320   2.344   3.256   5.583
10455TIP3   OH231321   0.806   2.558   6.319
10455TIP3    H131322   0.749   2.622   6.276
10455TIP3    H231323   0.834   2.500   6.249
10456TIP3   OH231324   0.006   5.015   5.578
10456TIP3    H131325   0.026   4.988   5.488
10456TIP3    H231326   0.074   4.974   5.631
10457TIP3   OH231327   3.720   3.587   5.588
10457TIP3    H131328   3.748   3.654   5.526
10457TIP3    H231329   3.719   3.631   5.673
10458TIP3   OH231330   3.460   2.735   5.094
10458TIP3    H131331   3.378   2.731   5.145
10458TIP3    H231332   3.524   2.773   5.154
10459TIP3   OH231333   3.161   3.049   5.500
10459TIP3    H131334   3.125   3.136   5.517
10459TIP3    H231335   3.159   3.005   5.585
10460TIP3   OH231336   0.639   2.168   4.827
10460TIP3    H131337   0.663   2.251   4.868
10460TIP3    H231338   0.707   2.107   4.854
10461TIP3   OH231339   8.232   4.006   4.998
10461TIP3    H131340   8.201   4.017   5.088
10461TIP3    H231341   8.325   4.026   5.001
10462TIP3   OH231342   1.888   6.654   1.824
10462TIP3    H131343   1.927   6.578   1.866
10462TIP3    H231344   1.953   6.724   1.836
10463TIP3   OH231345   8.038   0.620   5.476
10463TIP3    H131346   8.111   0.625   5.538
10463TIP3    H231347   8.066   0.676   5.403
10464TIP3   OH231348   6.089   7.341   6.015
10464TIP3    H131349   6.153   7.296   6.070
10464TIP3    H231350   6.004   7.311   6.049
10465TIP3   OH231351   4.299   1.601   1.920
10465TIP3    H131352   4.288   1.639   1.833
10465TIP3    H231353   4.223   1.544   1.931
10466TIP3   OH231354   5.260   1.958   3.915
10466TIP3    H131355   5.252   1.868   3.882
10466TIP3    H231356   5.268   1.949   4.010
10467TIP3   OH231357   5.210   5.165   1.624
10467TIP3    H131358   5.192   5.159   1.530
10467TIP3    H231359   5.229   5.258   1.638
10468TIP3   OH231360   4.515   1.254   5.179
10468TIP3    H131361   4.445   1.246   5.243
10468TIP3    H231362   4.470   1.281   5.098
10469TIP3   OH231363   0.859   2.246   5.554
10469TIP3    H131364   0.844   2.217   5.464
10469TIP3    H231365   0.775   2.283   5.581
10470TIP3   OH231366   0.464   4.895   3.211
10470TIP3    H131367   0.551   4.862   3.189
10470TIP3    H231368   0.466   4.904   3.307
10471TIP3   OH231369   0.159   3.672   2.823
10471TIP3    H131370   0.069   3.656   2.796
10471TIP3    H231371   0.206   3.593   2.799
10472TIP3   OH231372   4.520   1.997   3.333
10472TIP3    H131373   4.495   2.062   3.398
10472TIP3    H231374   4.511   2.042   3.249
10473TIP3   OH231375   1.993   3.483   0.875
10473TIP3    H131376   2.057   3.550   0.899
10473TIP3    H231377   2.045   3.410   0.841
10474TIP3   OH231378   7.237   6.828   0.173
10474TIP3    H131379   7.200   6.746   0.141
10474TIP3    H231380   7.303   6.801   0.237
10475TIP3   OH231381   3.384   5.952   5.793
10475TIP3    H131382   3.383   6.019   5.724
10475TIP3    H231383   3.383   6.002   5.875
10476TIP3   OH231384   2.272   6.316   3.801
10476TIP3    H131385   2.219   6.366   3.739
10476TIP3    H231386   2.362   6.331   3.772
10477TIP3   OH231387   1.706   6.800   3.980
10477TIP3    H131388   1.647   6.865   4.019
10477TIP3    H231389   1.789   6.812   4.025
10478TIP3   OH231390   7.689   2.803   3.553
10478TIP3    H131391   7.748   2.849   3.613
10478TIP3    H231392   7.747   2.753   3.495
10479TIP3   OH231393   5.006   7.727   4.218
10479TIP3    H131394   5.094   7.765   4.221
10479TIP3    H231395   5.007   7.670   4.141
10480TIP3   OH231396   2.800   2.821   0.070
10480TIP3    H131397   2.816   2.790   0.160
10480TIP3    H231398   2.706   2.836   0.067
10481TIP3   OH231399   4.814   1.370   0.344
10481TIP3    H131400   4.906   1.372   0.318
10481TIP3    H231401   4.797   1.458   0.378
10482TIP3   OH231402   3.379   5.595   6.500
10482TIP3    H131403   3.391   5.521   6.440
10482TIP3    H231404   3.404   5.672   6.449
10483TIP3   OH231405   6.063   4.479   6.256
10483TIP3    H131406   6.001   4.449   6.323
10483TIP3    H231407   6.084   4.569   6.281
10484TIP3   OH231408   6.065   6.891   1.334
10484TIP3    H131409   6.024   6.914   1.251
10484TIP3    H231410   5.991   6.872   1.392
10485TIP3   OH231411   7.043   1.260   4.046
10485TIP3    H131412   7.100   1.241   3.972
10485TIP3    H231413   7.073   1.201   4.116
10486TIP3   OH231414  -0.010   4.632   5.190
10486TIP3    H131415   0.028   4.714   5.222
10486TIP3    H231416   0.001   4.635   5.095
10487TIP3   OH231417   2.533   1.237   0.533
10487TIP3    H131418   2.477   1.189   0.594
10487TIP3    H231419   2.488   1.231   0.449
10488TIP3   OH231420   0.465   5.558   5.484
10488TIP3    H131421   0.554   5.534   5.460
10488TIP3    H231422   0.411   5.519   5.415
10489TIP3   OH231423   1.795   6.876   0.768
10489TIP3    H131424   1.748   6.839   0.843
10489TIP3    H231425   1.854   6.806   0.739
10490TIP3   OH231426   5.419   0.980   4.099
10490TIP3    H131427   5.482   1.015   4.163
10490TIP3    H231428   5.446   1.019   4.016
10491TIP3   OH231429   7.705   7.277   2.187
10491TIP3    H131430   7.656   7.334   2.246
10491TIP3    H231431   7.738   7.335   2.118
10492TIP3   OH231432   2.243   2.607   3.555
10492TIP3    H131433   2.314   2.571   3.610
10492TIP3    H231434   2.194   2.663   3.614
10493TIP3   OH231435   3.379   7.566   4.197
10493TIP3    H131436   3.453   7.547   4.255
10493TIP3    H231437   3.316   7.496   4.216
10494TIP3   OH231438   3.162   3.009   4.691
10494TIP3    H131439   3.220   2.970   4.756
10494TIP3    H231440   3.213   3.008   4.610
10495TIP3   OH231441   3.098   2.571   6.381
10495TIP3    H131442   3.154   2.587   6.457
10495TIP3    H231443   3.155   2.583   6.305
10496TIP3   OH231444   1.465   0.692   0.930
10496TIP3    H131445   1.559   0.673   0.928
10496TIP3    H231446   1.429   0.640   0.858
10497TIP3   OH231447   8.167   5.583   4.747
10497TIP3    H131448   8.117   5.583   4.665
10497TIP3    H231449   8.108   5.545   4.811
10498TIP3   OH231450   7.524   6.992   2.208
10498TIP3    H131451   7.605   6.977   2.256
10498TIP3    H231452   7.519   6.920   2.146
10499TIP3   OH231453   6.612   5.319   1.550
10499TIP3    H131454   6.707   5.327   1.536
10499TIP3    H231455   6.602   5.316   1.645
10500TIP3   OH231456   5.159   0.568   5.007
10500TIP3    H131457   5.250   0.595   5.012
10500TIP3    H231458   5.114   0.626   5.069
10501TIP3   OH231459   3.776   1.172   0.017
10501TIP3    H131460   3.713   1.158   0.087
10501TIP3    H231461   3.861   1.154   0.058
10502TIP3   OH231462   8.067   0.705   2.759
10502TIP3    H131463   8.157   0.697   2.792
10502TIP3    H231464   8.027   0.773   2.813
10503TIP3   OH231465   6.141   3.505   5.864
10503TIP3    H131466   6.167   3.440   5.799
10503TIP3    H231467   6.224   3.541   5.897
10504TIP3   OH231468   5.194   5.220   0.734
10504TIP3    H131469   5.118   5.250   0.784
10504TIP3    H231470   5.222   5.140   0.778
10505TIP3   OH231471   0.600   2.711   6.235
10505TIP3    H131472   0.639   2.786   6.192
10505TIP3    H231473   0.549   2.748   6.307
10506TIP3   OH231474   6.510   0.369   3.205
10506TIP3    H131475   6.591   0.325   3.180
10506TIP3    H231476   6.522   0.460   3.178
10507TIP3   OH231477   1.291   1.265   3.505
10507TIP3    H131478   1.242   1.274   3.587
10507TIP3    H231479   1.382   1.284   3.530
10508TIP3   OH231480   0.802   4.786   6.504
10508TIP3    H131481   0.737   4.780   6.574
10508TIP3    H231482   0.785   4.871   6.463
10509TIP3   OH231483   2.238   4.327   5.122
10509TIP3    H131484   2.312   4.365   5.075
10509TIP3    H231485   2.161   4.360   5.076
10510TIP3   OH231486   4.432   3.045   3.745
10510TIP3    H131487   4.390   2.973   3.698
10510TIP3    H231488   4.415   3.026   3.837
10511TIP3   OH231489   6.088   2.771   3.972
10511TIP3    H131490   6.047   2.685   3.961
10511TIP3    H231491   6.021   2.834   3.948
10512TIP3   OH231492   5.763   1.415   1.531
10512TIP3    H131493   5.783   1.475   1.603
10512TIP3    H231494   5.670   1.427   1.514
10513TIP3   OH231495   3.693   1.160   2.767
10513TIP3    H131496   3.688   1.076   2.813
10513TIP3    H231497   3.606   1.173   2.731
10514TIP3   OH231498   0.195   3.846   4.593
10514TIP3    H131499   0.247   3.837   4.673
10514TIP3    H231500   0.181   3.757   4.563
10515TIP3   OH231501   8.264   6.350   4.973
10515TIP3    H131502   8.297   6.439   4.966
10515TIP3    H231503   8.211   6.350   5.052
10516TIP3   OH231504   3.573   2.581   5.772
10516TIP3    H131505   3.550   2.494   5.804
10516TIP3    H231506   3.633   2.616   5.838
10517TIP3   OH231507   3.060   4.125   0.915
10517TIP3    H131508   3.018   4.062   0.858
10517TIP3    H231509   3.005   4.129   0.993
10518TIP3   OH231510   7.174   7.666   5.953
10518TIP3    H131511   7.193   7.711   6.035
10518TIP3    H231512   7.104   7.718   5.913
10519TIP3   OH231513   4.234   3.840   4.298
10519TIP3    H131514   4.258   3.800   4.382
10519TIP3    H231515   4.155   3.793   4.271
10520TIP3   OH231516   0.711   0.644   0.840
10520TIP3    H131517   0.762   0.566   0.815
10520TIP3    H231518   0.719   0.703   0.765
10521TIP3   OH231519   3.163   5.712   2.578
10521TIP3    H131520   3.089   5.719   2.638
10521TIP3    H231521   3.216   5.789   2.596
10522TIP3   OH231522   1.732   7.262   5.918
10522TIP3    H131523   1.720   7.296   5.829
10522TIP3    H231524   1.728   7.167   5.908
10523TIP3   OH231525   6.459   3.907   6.076
10523TIP3    H131526   6.366   3.901   6.099
10523TIP3    H231527   6.504   3.863   6.148
10524TIP3   OH231528   6.902   2.445   4.932
10524TIP3    H131529   6.876   2.357   4.906
10524TIP3    H231530   6.824   2.482   4.973
10525TIP3   OH231531   5.811   0.212   5.194
10525TIP3    H131532   5.750   0.148   5.158
10525TIP3    H231533   5.772   0.239   5.276
10526TIP3   OH231534   3.772   3.563   2.916
10526TIP3    H131535   3.820   3.571   2.833
10526TIP3    H231536   3.783   3.648   2.958
10527TIP3   OH231537   6.951   7.165   4.879
10527TIP3    H131538   6.937   7.071   4.867
10527TIP3    H231539   6.977   7.196   4.793
10528TIP3   OH231540   1.580   1.411   2.026
10528TIP3    H131541   1.620   1.326   2.008
10528TIP3    H231542   1.486   1.395   2.024
10529TIP3   OH231543   6.966   3.630   5.294
10529TIP3    H131544   7.009   3.583   5.366
10529TIP3    H231545   6.876   3.641   5.324
10530TIP3   OH231546   3.246   7.009   2.976
10530TIP3    H131547   3.171   7.001   2.917
10530TIP3    H231548   3.284   6.921   2.978
10531TIP3   OH231549   6.700   6.070   4.304
10531TIP3    H131550   6.676   6.036   4.217
10531TIP3    H231551   6.772   6.014   4.332
10532TIP3   OH231552   1.208   1.974   2.636
10532TIP3    H131553   1.163   1.890   2.642
10532TIP3    H231554   1.300   1.954   2.652
10533TIP3   OH231555   7.626   7.178   4.832
10533TIP3    H131556   7.649   7.271   4.830
10533TIP3    H231557   7.686   7.140   4.896
10534TIP3   OH231558   3.035   1.495   6.233
10534TIP3    H131559   3.083   1.577   6.237
10534TIP3    H231560   3.089   1.433   6.282
10535TIP3   OH231561   8.222   3.413   6.678
10535TIP3    H131562   8.153   3.380   6.735
10535TIP3    H231563   8.192   3.499   6.651
10536TIP3   OH231564   5.147   7.246   1.107
10536TIP3    H131565   5.136   7.336   1.076
10536TIP3    H231566   5.169   7.197   1.028
10537TIP3   OH231567   4.070   6.340   1.047
10537TIP3    H131568   4.128   6.268   1.071
10537TIP3    H231569   4.000   6.337   1.114
10538TIP3   OH231570   4.659   0.102   1.257
10538TIP3    H131571   4.624   0.181   1.297
10538TIP3    H231572   4.744   0.128   1.222
10539TIP3   OH231573   1.142   4.630   5.691
10539TIP3    H131574   1.141   4.697   5.760
10539TIP3    H231575   1.112   4.551   5.735
10540TIP3   OH231576   4.699   4.585   0.540
10540TIP3    H131577   4.634   4.653   0.558
10540TIP3    H231578   4.756   4.624   0.473
10541TIP3   OH231579   2.874   4.533   1.545
10541TIP3    H131580   2.878   4.545   1.450
10541TIP3    H231581   2.865   4.438   1.557
10542TIP3   OH231582   2.828   1.451   5.301
10542TIP3    H131583   2.887   1.443   5.376
10542TIP3    H231584   2.784   1.366   5.295
10543TIP3   OH231585   7.279   7.076   6.346
10543TIP3    H131586   7.360   7.044   6.387
10543TIP3    H231587   7.242   7.136   6.410
10544TIP3   OH231588   6.620   7.012   1.569
10544TIP3    H131589   6.564   6.939   1.542
10544TIP3    H231590   6.622   7.071   1.494
10545TIP3   OH231591   0.187   5.175   5.188
10545TIP3    H131592   0.175   5.224   5.269
10545TIP3    H231593   0.121   5.106   5.191
10546TIP3   OH231594   4.273   2.767   1.470
10546TIP3    H131595   4.348   2.736   1.520
10546TIP3    H231596   4.295   2.748   1.379
10547TIP3   OH231597   5.791   6.615   3.388
10547TIP3    H131598   5.799   6.521   3.403
10547TIP3    H231599   5.723   6.644   3.449
10548TIP3   OH231600   2.233   7.815   2.864
10548TIP3    H131601   2.285   7.743   2.827
10548TIP3    H231602   2.249   7.810   2.958
10549TIP3   OH231603   4.102   6.267   3.730
10549TIP3    H131604   4.074   6.238   3.817
10549TIP3    H231605   4.190   6.231   3.720
10550TIP3   OH231606   1.621   1.091   5.621
10550TIP3    H131607   1.567   1.135   5.686
10550TIP3    H231608   1.682   1.158   5.590
10551TIP3   OH231609   3.491   5.139   6.156
10551TIP3    H131610   3.465   5.187   6.077
10551TIP3    H231611   3.515   5.052   6.124
10552TIP3   OH231612   3.648   3.799   4.484
10552TIP3    H131613   3.576   3.803   4.420
10552TIP3    H231614   3.606   3.810   4.569
10553TIP3   OH231615   6.632   6.692   6.209
10553TIP3    H131616   6.702   6.726   6.154
10553TIP3    H231617   6.666   6.608   6.242
10554TIP3   OH231618   0.552   4.414   0.848
10554TIP3    H131619   0.563   4.418   0.753
10554TIP3    H231620   0.563   4.321   0.869
10555TIP3   OH231621   6.697   0.616   3.370
10555TIP3    H131622   6.722   0.708   3.378
10555TIP3    H231623   6.759   0.579   3.307
10556TIP3   OH231624   1.864   0.813   4.630
10556TIP3    H131625   1.803   0.792   4.560
10556TIP3    H231626   1.865   0.735   4.685
10557TIP3   OH231627   1.919   2.557   1.767
10557TIP3    H131628   1.906   2.638   1.718
10557TIP3    H231629   1.878   2.489   1.713
10558TIP3   OH231630   6.019   3.216   1.466
10558TIP3    H131631   6.096   3.185   1.419
10558TIP3    H231632   5.948   3.159   1.436
10559TIP3   OH231633   5.000   5.394   1.811
10559TIP3    H131634   5.062   5.403   1.739
10559TIP3    H231635   5.027   5.460   1.875
10560TIP3   OH231636   2.775   3.042   5.173
10560TIP3    H131637   2.808   3.116   5.223
10560TIP3    H231638   2.851   2.987   5.157
10561TIP3   OH231639   5.162   6.311   4.764
10561TIP3    H131640   5.143   6.395   4.806
10561TIP3    H231641   5.247   6.285   4.800
10562TIP3   OH231642   1.626   1.721   4.798
10562TIP3    H131643   1.639   1.722   4.893
10562TIP3    H231644   1.539   1.682   4.787
10563TIP3   OH231645   5.223   1.908   5.205
10563TIP3    H131646   5.284   1.957   5.261
10563TIP3    H231647   5.140   1.910   5.253
10564TIP3   OH231648   7.844   2.106   2.876
10564TIP3    H131649   7.783   2.142   2.941
10564TIP3    H231650   7.926   2.094   2.924
10565TIP3   OH231651   2.525   6.347   4.135
10565TIP3    H131652   2.473   6.398   4.074
10565TIP3    H231653   2.616   6.367   4.112
10566TIP3   OH231654   2.694   4.066   0.071
10566TIP3    H131655   2.787   4.042   0.075
10566TIP3    H231656   2.649   3.986   0.045
10567TIP3   OH231657   1.464   4.427   4.470
10567TIP3    H131658   1.497   4.337   4.470
10567TIP3    H231659   1.543   4.481   4.462
10568TIP3   OH231660   4.260   0.997   4.324
10568TIP3    H131661   4.319   0.923   4.336
10568TIP3    H231662   4.210   1.002   4.406
10569TIP3   OH231663   2.132   2.421   1.326
10569TIP3    H131664   2.145   2.333   1.363
10569TIP3    H231665   2.156   2.413   1.234
10570TIP3   OH231666   3.666   4.832   1.748
10570TIP3    H131667   3.643   4.751   1.701
10570TIP3    H231668   3.612   4.829   1.828
10571TIP3   OH231669   2.607   6.137   0.522
10571TIP3    H131670   2.581   6.223   0.488
10571TIP3    H231671   2.577   6.075   0.455
10572TIP3   OH231672   0.781   0.132   2.940
10572TIP3    H131673   0.843   0.195   2.903
10572TIP3    H231674   0.716   0.186   2.985
10573TIP3   OH231675   7.107   3.650   4.644
10573TIP3    H131676   7.147   3.719   4.697
10573TIP3    H231677   7.018   3.641   4.678
10574TIP3   OH231678   5.037   2.366   1.208
10574TIP3    H131679   5.045   2.461   1.197
10574TIP3    H231680   4.957   2.344   1.160
10575TIP3   OH231681   3.241   7.768   2.897
10575TIP3    H131682   3.248   7.683   2.855
10575TIP3    H231683   3.254   7.831   2.826
10576TIP3   OH231684   1.780   2.395   1.213
10576TIP3    H131685   1.837   2.336   1.262
10576TIP3    H231686   1.817   2.396   1.124
10577TIP3   OH231687   3.802   0.068   1.065
10577TIP3    H131688   3.723   0.122   1.065
10577TIP3    H231689   3.770  -0.022   1.055
10578TIP3   OH231690   0.849   6.442   4.906
10578TIP3    H131691   0.828   6.350   4.895
10578TIP3    H231692   0.915   6.444   4.976
10579TIP3   OH231693   7.034   5.778   2.433
10579TIP3    H131694   6.950   5.795   2.391
10579TIP3    H231695   7.093   5.755   2.361
10580TIP3   OH231696   5.972   5.239   6.090
10580TIP3    H131697   5.932   5.320   6.121
10580TIP3    H231698   5.947   5.234   5.997
10581TIP3   OH231699   4.516   3.298   6.673
10581TIP3    H131700   4.558   3.312   6.588
10581TIP3    H231701   4.441   3.241   6.654
10582TIP3   OH231702   4.888   0.996   0.901
10582TIP3    H131703   4.936   1.076   0.878
10582TIP3    H231704   4.826   0.984   0.830
10583TIP3   OH231705   4.927   6.769   2.422
10583TIP3    H131706   5.001   6.813   2.379
10583TIP3    H231707   4.888   6.715   2.353
10584TIP3   OH231708   0.913   3.179   2.728
10584TIP3    H131709   1.008   3.179   2.716
10584TIP3    H231710   0.892   3.090   2.755
10585TIP3   OH231711   5.853   5.495   0.043
10585TIP3    H131712   5.757   5.500   0.043
10585TIP3    H231713   5.877   5.503  -0.049
10586TIP3   OH231714   3.502   2.519   3.271
10586TIP3    H131715   3.531   2.513   3.180
10586TIP3    H231716   3.550   2.449   3.316
10587TIP3   OH231717   6.792   3.320   1.159
10587TIP3    H131718   6.731   3.337   1.087
10587TIP3    H231719   6.737   3.285   1.229
10588TIP3   OH231720   0.690   1.139   6.584
10588TIP3    H131721   0.618   1.150   6.523
10588TIP3    H231722   0.704   1.044   6.588
10589TIP3   OH231723   2.074   3.350   3.586
10589TIP3    H131724   2.034   3.426   3.544
10589TIP3    H231725   2.146   3.326   3.528
10590TIP3   OH231726   0.294   6.482   0.088
10590TIP3    H131727   0.331   6.516   0.006
10590TIP3    H231728   0.357   6.416   0.116
10591TIP3   OH231729   8.054   0.988   4.321
10591TIP3    H131730   8.096   0.902   4.313
10591TIP3    H231731   8.024   0.992   4.412
10592TIP3   OH231732   3.629   7.512   4.314
10592TIP3    H131733   3.706   7.567   4.330
10592TIP3    H231734   3.665   7.426   4.293
10593TIP3   OH231735   7.738   4.785   4.618
10593TIP3    H131736   7.808   4.770   4.555
10593TIP3    H231737   7.762   4.866   4.662
10594TIP3   OH231738   7.675   2.554   3.258
10594TIP3    H131739   7.770   2.551   3.266
10594TIP3    H231740   7.656   2.638   3.216
10595TIP3   OH231741   1.367   5.849   3.589
10595TIP3    H131742   1.449   5.854   3.638
10595TIP3    H231743   1.325   5.934   3.605
10596TIP3   OH231744   0.344   2.896   4.878
10596TIP3    H131745   0.263   2.844   4.875
10596TIP3    H231746   0.405   2.843   4.928
10597TIP3   OH231747   7.064   7.146   2.550
10597TIP3    H131748   7.159   7.146   2.556
10597TIP3    H231749   7.037   7.063   2.590
10598TIP3   OH231750   1.830   0.502   1.490
10598TIP3    H131751   1.797   0.571   1.548
10598TIP3    H231752   1.773   0.505   1.414
10599TIP3   OH231753   7.829   3.049   3.654
10599TIP3    H131754   7.917   3.042   3.692
10599TIP3    H231755   7.838   3.113   3.584
10600TIP3   OH231756   0.903   4.182   2.481
10600TIP3    H131757   0.954   4.222   2.552
10600TIP3    H231758   0.914   4.241   2.407
10601TIP3   OH231759   3.003   1.721   3.330
10601TIP3    H131760   3.012   1.627   3.345
10601TIP3    H231761   3.047   1.736   3.246
10602TIP3   OH231762   6.450   0.505   6.296
10602TIP3    H131763   6.365   0.464   6.308
10602TIP3    H231764   6.430   0.598   6.283
10603TIP3   OH231765   1.395   3.875   1.514
10603TIP3    H131766   1.399   3.816   1.439
10603TIP3    H231767   1.434   3.957   1.482
10604TIP3   OH231768   5.936   6.333   0.479
10604TIP3    H131769   6.031   6.348   0.480
10604TIP3    H231770   5.926   6.244   0.445
10605TIP3   OH231771   1.889   4.490   2.326
10605TIP3    H131772   1.832   4.413   2.323
10605TIP3    H231773   1.832   4.561   2.356
10606TIP3   OH231774   7.860   6.293   3.992
10606TIP3    H131775   7.845   6.255   4.079
10606TIP3    H231776   7.814   6.234   3.932
10607TIP3   OH231777   4.131   4.209   6.723
10607TIP3    H131778   4.049   4.183   6.764
10607TIP3    H231779   4.198   4.187   6.787
10608TIP3   OH231780   3.022   5.653   2.346
10608TIP3    H131781   3.075   5.679   2.421
10608TIP3    H231782   2.952   5.599   2.383
10609TIP3   OH231783   6.417   3.161   2.137
10609TIP3    H131784   6.494   3.155   2.195
10609TIP3    H231785   6.446   3.219   2.066
10610TIP3   OH231786   5.209   4.918   4.558
10610TIP3    H131787   5.177   4.850   4.618
10610TIP3    H231788   5.238   4.989   4.615
10611TIP3   OH231789   3.989   2.450   0.121
10611TIP3    H131790   4.006   2.544   0.119
10611TIP3    H231791   3.896   2.443   0.141
10612TIP3   OH231792   4.181   3.197   2.550
10612TIP3    H131793   4.261   3.164   2.509
10612TIP3    H231794   4.190   3.292   2.544
10613TIP3   OH231795   3.947   3.590   1.164
10613TIP3    H131796   4.020   3.585   1.103
10613TIP3    H231797   3.876   3.542   1.121
10614TIP3   OH231798   4.812   5.488   0.495
10614TIP3    H131799   4.841   5.497   0.586
10614TIP3    H231800   4.787   5.576   0.469
10615TIP3   OH231801   6.012   0.724   0.826
10615TIP3    H131802   5.977   0.765   0.747
10615TIP3    H231803   6.024   0.797   0.887
10616TIP3   OH231804   6.072   3.843   2.196
10616TIP3    H131805   6.090   3.920   2.250
10616TIP3    H231806   6.126   3.855   2.118
10617TIP3   OH231807   4.007   5.111   2.947
10617TIP3    H131808   4.000   5.068   3.032
10617TIP3    H231809   4.102   5.119   2.932
10618TIP3   OH231810   4.944   3.734   3.475
10618TIP3    H131811   4.902   3.818   3.491
10618TIP3    H231812   4.878   3.681   3.431
10619TIP3   OH231813   7.721   0.321   6.482
10619TIP3    H131814   7.642   0.338   6.533
10619TIP3    H231815   7.782   0.283   6.545
10620TIP3   OH231816   5.713   6.238   0.645
10620TIP3    H131817   5.742   6.198   0.727
10620TIP3    H231818   5.793   6.272   0.605
10621TIP3   OH231819   6.502   3.249   3.567
10621TIP3    H131820   6.575   3.211   3.518
10621TIP3    H231821   6.427   3.242   3.507
10622TIP3   OH231822   0.953   6.125   2.501
10622TIP3    H131823   0.988   6.115   2.589
10622TIP3    H231824   0.941   6.035   2.470
10623TIP3   OH231825   1.751   3.173   0.542
10623TIP3    H131826   1.758   3.226   0.463
10623TIP3    H231827   1.755   3.235   0.615
10624TIP3   OH231828   2.116   2.084   4.057
10624TIP3    H131829   2.183   2.057   4.120
10624TIP3    H231830   2.086   2.169   4.088
10625TIP3   OH231831   2.651   4.442   4.361
10625TIP3    H131832   2.740   4.462   4.331
10625TIP3    H231833   2.664   4.391   4.441
10626TIP3   OH231834   7.848   0.883   0.029
10626TIP3    H131835   7.757   0.912   0.014
10626TIP3    H231836   7.840   0.796   0.068
10627TIP3   OH231837   7.072   0.203   5.293
10627TIP3    H131838   7.091   0.114   5.321
10627TIP3    H231839   7.064   0.253   5.374
10628TIP3   OH231840   4.423   4.653   0.267
10628TIP3    H131841   4.458   4.735   0.303
10628TIP3    H231842   4.330   4.671   0.253
10629TIP3   OH231843   0.641   5.079   4.770
10629TIP3    H131844   0.632   5.043   4.682
10629TIP3    H231845   0.552   5.102   4.796
10630TIP3   OH231846   0.547   5.410   4.927
10630TIP3    H131847   0.499   5.327   4.921
10630TIP3    H231848   0.559   5.425   5.020
10631TIP3   OH231849   6.984   2.105   3.536
10631TIP3    H131850   7.072   2.067   3.542
10631TIP3    H231851   6.937   2.047   3.476
10632TIP3   OH231852   5.391   5.122   1.849
10632TIP3    H131853   5.348   5.103   1.766
10632TIP3    H231854   5.484   5.131   1.827
10633TIP3   OH231855   1.785   4.817   3.102
10633TIP3    H131856   1.808   4.734   3.060
10633TIP3    H231857   1.807   4.884   3.038
10634TIP3   OH231858   2.148   4.370   4.584
10634TIP3    H131859   2.116   4.281   4.594
10634TIP3    H231860   2.194   4.370   4.500
10635TIP3   OH231861   0.597   5.544   3.604
10635TIP3    H131862   0.631   5.602   3.535
10635TIP3    H231863   0.516   5.586   3.633
10636TIP3   OH231864   2.029   6.640   4.939
10636TIP3    H131865   1.975   6.671   5.012
10636TIP3    H231866   1.991   6.556   4.915
10637TIP3   OH231867   3.156   4.775   0.844
10637TIP3    H131868   3.147   4.740   0.755
10637TIP3    H231869   3.105   4.856   0.843
10638TIP3   OH231870   2.499   6.440   0.517
10638TIP3    H131871   2.552   6.453   0.438
10638TIP3    H231872   2.546   6.487   0.586
10639TIP3   OH231873   6.146   6.388   2.815
10639TIP3    H131874   6.062   6.368   2.773
10639TIP3    H231875   6.141   6.482   2.836
10640TIP3   OH231876   0.928   2.240   0.491
10640TIP3    H131877   0.870   2.258   0.417
10640TIP3    H231878   0.881   2.174   0.542
10641TIP3   OH231879   2.434   5.634   2.897
10641TIP3    H131880   2.389   5.694   2.957
10641TIP3    H231881   2.423   5.673   2.811
10642TIP3   OH231882   0.650   4.018   6.046
10642TIP3    H131883   0.607   3.932   6.047
10642TIP3    H231884   0.578   4.081   6.041
10643TIP3   OH231885   1.155   3.399   0.221
10643TIP3    H131886   1.155   3.372   0.129
10643TIP3    H231887   1.122   3.323   0.268
10644TIP3   OH231888   1.976   0.868   5.475
10644TIP3    H131889   2.036   0.892   5.404
10644TIP3    H231890   1.953   0.777   5.457
10645TIP3   OH231891   7.030   6.988   0.154
10645TIP3    H131892   7.116   6.947   0.161
10645TIP3    H231893   7.001   6.998   0.245
10646TIP3   OH231894   8.223   1.443   2.900
10646TIP3    H131895   8.128   1.444   2.910
10646TIP3    H231896   8.238   1.402   2.815
10647TIP3   OH231897   8.102   0.704   4.453
10647TIP3    H131898   8.099   0.708   4.357
10647TIP3    H231899   8.020   0.661   4.478
10648TIP3   OH231900   6.577   3.729   1.608
10648TIP3    H131901   6.539   3.718   1.521
10648TIP3    H231902   6.501   3.739   1.666
10649TIP3   OH231903   5.018   6.758   6.550
10649TIP3    H131904   4.988   6.837   6.594
10649TIP3    H231905   5.100   6.735   6.593
10650TIP3   OH231906   2.112   4.353   0.095
10650TIP3    H131907   2.112   4.439   0.053
10650TIP3    H231908   2.039   4.306   0.054
10651TIP3   OH231909   6.354   2.919   3.201
10651TIP3    H131910   6.386   2.907   3.290
10651TIP3    H231911   6.409   2.989   3.165
10652TIP3   OH231912   8.010   5.662   2.904
10652TIP3    H131913   7.934   5.680   2.849
10652TIP3    H231914   7.972   5.636   2.988
10653TIP3   OH231915   5.802   6.398   2.377
10653TIP3    H131916   5.735   6.410   2.444
10653TIP3    H231917   5.799   6.479   2.326
10654TIP3   OH231918   1.851   0.821   0.661
10654TIP3    H131919   1.876   0.798   0.572
10654TIP3    H231920   1.760   0.850   0.654
10655TIP3   OH231921   2.090   7.744   6.089
10655TIP3    H131922   2.108   7.834   6.063
10655TIP3    H231923   2.071   7.698   6.007
10656TIP3   OH231924   6.766   3.053   3.962
10656TIP3    H131925   6.834   3.007   3.912
10656TIP3    H231926   6.761   3.140   3.922
10657TIP3   OH231927   6.357   3.341   1.322
10657TIP3    H131928   6.399   3.357   1.406
10657TIP3    H231929   6.344   3.428   1.284
10658TIP3   OH231930   3.571   7.710   4.040
10658TIP3    H131931   3.653   7.661   4.033
10658TIP3    H231932   3.515   7.656   4.095
10659TIP3   OH231933   2.572   7.632   2.180
10659TIP3    H131934   2.501   7.569   2.191
10659TIP3    H231935   2.592   7.661   2.269
10660TIP3   OH231936   4.875   4.711   3.555
10660TIP3    H131937   4.842   4.621   3.555
10660TIP3    H231938   4.796   4.765   3.551
10661TIP3   OH231939   7.162   2.286   3.998
10661TIP3    H131940   7.155   2.351   4.068
10661TIP3    H231941   7.256   2.272   3.987
10662TIP3   OH231942   3.741   6.272   1.524
10662TIP3    H131943   3.703   6.192   1.561
10662TIP3    H231944   3.677   6.340   1.543
10663TIP3   OH231945   4.519   1.161   5.729
10663TIP3    H131946   4.548   1.243   5.768
10663TIP3    H231947   4.569   1.154   5.647
10664TIP3   OH231948   2.269   2.181   2.907
10664TIP3    H131949   2.195   2.120   2.902
10664TIP3    H231950   2.250   2.246   2.840
10665TIP3   OH231951   4.613   1.438   5.448
10665TIP3    H131952   4.542   1.375   5.438
10665TIP3    H231953   4.573   1.512   5.494
10666TIP3   OH231954   4.792   4.457   1.549
10666TIP3    H131955   4.753   4.490   1.630
10666TIP3    H231956   4.818   4.367   1.569
10667TIP3   OH231957   5.862   4.988   1.895
10667TIP3    H131958   5.956   5.002   1.893
10667TIP3    H231959   5.827   5.053   1.832
10668TIP3   OH231960   3.421   2.146   2.575
10668TIP3    H131961   3.399   2.065   2.528
10668TIP3    H231962   3.336   2.183   2.599
10669TIP3   OH231963   4.993   2.800   3.969
10669TIP3    H131964   4.954   2.801   3.882
10669TIP3    H231965   4.921   2.826   4.027
10670TIP3   OH231966   4.161   6.241   5.324
10670TIP3    H131967   4.171   6.185   5.247
10670TIP3    H231968   4.209   6.321   5.303
10671TIP3   OH231969   7.381   0.277   6.351
10671TIP3    H131970   7.337   0.203   6.310
10671TIP3    H231971   7.460   0.290   6.298
10672TIP3   OH231972   5.711   4.706   2.548
10672TIP3    H131973   5.673   4.786   2.512
10672TIP3    H231974   5.785   4.686   2.491
10673TIP3   OH231975   4.242   6.489   5.858
10673TIP3    H131976   4.262   6.424   5.925
10673TIP3    H231977   4.182   6.550   5.902
10674TIP3   OH231978   2.262   0.162   2.006
10674TIP3    H131979   2.223   0.210   2.080
10674TIP3    H231980   2.254   0.223   1.932
10675TIP3   OH231981   3.848   4.886   6.412
10675TIP3    H131982   3.768   4.834   6.402
10675TIP3    H231983   3.904   4.831   6.468
10676TIP3   OH231984   1.496   4.039   1.902
10676TIP3    H131985   1.506   3.946   1.886
10676TIP3    H231986   1.420   4.045   1.961
10677TIP3   OH231987   2.664   0.553   2.093
10677TIP3    H131988   2.628   0.523   2.177
10677TIP3    H231989   2.746   0.596   2.116
10678TIP3   OH231990   6.332   1.188   5.562
10678TIP3    H131991   6.254   1.214   5.512
10678TIP3    H231992   6.400   1.248   5.533
10679TIP3   OH231993   3.564   3.787   6.540
10679TIP3    H131994   3.550   3.743   6.456
10679TIP3    H231995   3.544   3.720   6.606
10680TIP3   OH231996   4.285   2.424   5.371
10680TIP3    H131997   4.281   2.472   5.453
10680TIP3    H231998   4.256   2.487   5.305
10681TIP3   OH231999   4.800   2.069   0.842
10681TIP3    H132000   4.752   2.151   0.855
10681TIP3    H232001   4.857   2.087   0.767
10682TIP3   OH232002   0.445   3.499   2.067
10682TIP3    H132003   0.448   3.497   1.971
10682TIP3    H232004   0.518   3.555   2.092
10683TIP3   OH232005   7.540   1.984   3.816
10683TIP3    H132006   7.478   1.914   3.841
10683TIP3    H232007   7.507   2.062   3.861
10684TIP3   OH232008   8.034   4.415   0.670
10684TIP3    H132009   8.114   4.425   0.620
10684TIP3    H232010   7.963   4.427   0.606
10685TIP3   OH232011   3.173   0.517   5.403
10685TIP3    H132012   3.135   0.548   5.321
10685TIP3    H232013   3.113   0.548   5.471
10686TIP3   OH232014   1.055   0.291   2.487
10686TIP3    H132015   1.140   0.326   2.460
10686TIP3    H232016   1.001   0.369   2.503
10687TIP3   OH232017   7.827   3.235   5.684
10687TIP3    H132018   7.842   3.246   5.590
10687TIP3    H232019   7.896   3.287   5.725
10688TIP3   OH232020   1.454   7.249   1.708
10688TIP3    H132021   1.411   7.294   1.781
10688TIP3    H232022   1.534   7.212   1.747
10689TIP3   OH232023   1.895   7.386   5.677
10689TIP3    H132024   1.904   7.401   5.771
10689TIP3    H232025   1.959   7.317   5.658
10690TIP3   OH232026   6.479   4.645   4.718
10690TIP3    H132027   6.390   4.669   4.692
10690TIP3    H232028   6.518   4.608   4.639
10691TIP3   OH232029   6.862   6.762   6.094
10691TIP3    H132030   6.837   6.839   6.043
10691TIP3    H232031   6.947   6.785   6.133
10692TIP3   OH232032   7.234   5.788   6.369
10692TIP3    H132033   7.210   5.729   6.298
10692TIP3    H232034   7.247   5.873   6.326
10693TIP3   OH232035   1.051   4.030   5.118
10693TIP3    H132036   1.125   3.999   5.169
10693TIP3    H232037   0.982   4.046   5.182
10694TIP3   OH232038   0.914   5.748   5.349
10694TIP3    H132039   0.886   5.750   5.258
10694TIP3    H232040   0.992   5.803   5.352
10695TIP3   OH232041   3.329   6.847   3.371
10695TIP3    H132042   3.263   6.791   3.331
10695TIP3    H232043   3.329   6.822   3.463
10696TIP3   OH232044   0.161   6.552   5.259
10696TIP3    H132045   0.202   6.511   5.182
10696TIP3    H232046   0.232   6.604   5.298
10697TIP3   OH232047   6.427   6.728   5.827
10697TIP3    H132048   6.392   6.816   5.832
10697TIP3    H232049   6.395   6.684   5.906
10698TIP3   OH232050   0.810   3.829   6.672
10698TIP3    H132051   0.777   3.763   6.732
10698TIP3    H232052   0.877   3.784   6.621
10699TIP3   OH232053   7.873   4.493   4.625
10699TIP3    H132054   7.859   4.588   4.625
10699TIP3    H232055   7.785   4.456   4.630
10700TIP3   OH232056   8.135   3.698   0.054
10700TIP3    H132057   8.058   3.721   0.002
10700TIP3    H232058   8.195   3.657  -0.008
10701TIP3   OH232059   4.758   4.866   2.897
10701TIP3    H132060   4.722   4.955   2.895
10701TIP3    H232061   4.693   4.815   2.946
10702TIP3   OH232062   1.026   1.563   6.644
10702TIP3    H132063   0.983   1.581   6.728
10702TIP3    H232064   1.027   1.648   6.599
10703TIP3   OH232065   7.716   1.021   2.401
10703TIP3    H132066   7.626   1.043   2.378
10703TIP3    H232067   7.769   1.072   2.340
10704TIP3   OH232068   1.749   2.001   2.014
10704TIP3    H132069   1.834   1.957   2.023
10704TIP3    H232070   1.771   2.093   2.000
10705TIP3   OH232071   6.569   2.585   1.854
10705TIP3    H132072   6.629   2.652   1.888
10705TIP3    H232073   6.494   2.587   1.914
10706TIP3   OH232074   1.411   2.050   0.411
10706TIP3    H132075   1.341   2.088   0.465
10706TIP3    H232076   1.407   2.099   0.329
10707TIP3   OH232077   1.419   3.188   5.573
10707TIP3    H132078   1.368   3.199   5.493
10707TIP3    H232079   1.357   3.207   5.644
10708TIP3   OH232080   5.068   4.009   2.697
10708TIP3    H132081   5.008   3.983   2.768
10708TIP3    H232082   5.015   4.068   2.642
10709TIP3   OH232083   3.809   3.269   0.313
10709TIP3    H132084   3.839   3.292   0.401
10709TIP3    H232085   3.867   3.318   0.254
10710TIP3   OH232086   0.915   5.972   5.004
10710TIP3    H132087   1.006   5.982   5.032
10710TIP3    H232088   0.902   5.877   5.002
10711TIP3   OH232089   5.128   4.002   4.533
10711TIP3    H132090   5.038   4.034   4.524
10711TIP3    H232091   5.169   4.063   4.594
10712TIP3   OH232092   7.984   0.760   0.803
10712TIP3    H132093   7.939   0.676   0.804
10712TIP3    H232094   8.041   0.757   0.727
10713TIP3   OH232095   7.285   1.842   5.340
10713TIP3    H132096   7.379   1.860   5.337
10713TIP3    H232097   7.262   1.825   5.248
10714TIP3   OH232098   0.737   7.168   5.718
10714TIP3    H132099   0.807   7.138   5.776
10714TIP3    H232100   0.782   7.197   5.639
10715TIP3   OH232101   6.863   3.262   3.675
10715TIP3    H132102   6.778   3.305   3.673
10715TIP3    H232103   6.923   3.326   3.637
10716TIP3   OH232104   5.270   1.219   1.069
10716TIP3    H132105   5.200   1.153   1.071
10716TIP3    H232106   5.285   1.240   1.161
10717TIP3   OH232107   4.152   2.455   5.753
10717TIP3    H132108   4.137   2.361   5.766
10717TIP3    H232109   4.107   2.496   5.827
10718TIP3   OH232110   0.501   5.387   2.758
10718TIP3    H132111   0.521   5.333   2.682
10718TIP3    H232112   0.450   5.460   2.723
10719TIP3   OH232113   1.448   2.401   4.220
10719TIP3    H132114   1.461   2.492   4.193
10719TIP3    H232115   1.388   2.407   4.294
10720TIP3   OH232116   8.150   5.599   1.691
10720TIP3    H132117   8.195   5.545   1.755
10720TIP3    H232118   8.142   5.543   1.614
10721TIP3   OH232119   4.036   4.989   4.561
10721TIP3    H132120   3.992   5.048   4.500
10721TIP3    H232121   3.987   4.907   4.555
10722TIP3   OH232122   5.416   1.925   0.185
10722TIP3    H132123   5.359   1.894   0.256
10722TIP3    H232124   5.500   1.940   0.227
10723TIP3   OH232125   7.926   3.988   3.128
10723TIP3    H132126   7.839   3.975   3.167
10723TIP3    H232127   7.987   3.950   3.191
10724TIP3   OH232128   3.052   0.725   4.440
10724TIP3    H132129   3.137   0.764   4.460
10724TIP3    H232130   3.005   0.793   4.391
10725TIP3   OH232131   3.211   7.137   6.016
10725TIP3    H132132   3.214   7.060   5.959
10725TIP3    H232133   3.181   7.103   6.100
10726TIP3   OH232134   7.470   5.037   4.438
10726TIP3    H132135   7.562   5.009   4.433
10726TIP3    H232136   7.421   4.955   4.429
10727TIP3   OH232137   0.351   1.266   5.549
10727TIP3    H132138   0.368   1.332   5.616
10727TIP3    H232139   0.368   1.311   5.467
10728TIP3   OH232140   5.412   7.362   6.704
10728TIP3    H132141   5.324   7.399   6.709
10728TIP3    H232142   5.433   7.363   6.611
10729TIP3   OH232143   1.182   2.783   0.434
10729TIP3    H132144   1.214   2.695   0.413
10729TIP3    H232145   1.182   2.829   0.350
10730TIP3   OH232146   1.003   1.430   1.019
10730TIP3    H132147   0.954   1.466   1.094
10730TIP3    H232148   0.970   1.341   1.010
10731TIP3   OH232149   7.250   6.030   6.017
10731TIP3    H132150   7.337   6.067   6.031
10731TIP3    H232151   7.190   6.096   6.054
10732TIP3   OH232152   1.573   1.185   3.073
10732TIP3    H132153   1.604   1.095   3.073
10732TIP3    H232154   1.613   1.224   3.151
10733TIP3   OH232155   3.423   1.101   2.990
10733TIP3    H132156   3.464   1.097   2.904
10733TIP3    H232157   3.384   1.188   2.994
10734TIP3   OH232158   4.250   1.425   2.873
10734TIP3    H132159   4.340   1.456   2.876
10734TIP3    H232160   4.216   1.454   2.788
10735TIP3   OH232161   5.786   6.895   6.619
10735TIP3    H132162   5.738   6.949   6.556
10735TIP3    H232163   5.792   6.809   6.578
10736TIP3   OH232164   4.174   0.761   4.177
10736TIP3    H132165   4.180   0.853   4.205
10736TIP3    H232166   4.238   0.715   4.230
10737TIP3   OH232167   4.506   6.283   4.889
10737TIP3    H132168   4.585   6.238   4.916
10737TIP3    H232169   4.537   6.363   4.847
10738TIP3   OH232170   3.873   0.806   0.886
10738TIP3    H132171   3.823   0.787   0.966
10738TIP3    H232172   3.848   0.737   0.825
10739TIP3   OH232173   6.390   0.734   0.039
10739TIP3    H132174   6.321   0.742  -0.026
10739TIP3    H232175   6.437   0.654   0.015
10740TIP3   OH232176   5.357   6.636   4.801
10740TIP3    H132177   5.377   6.688   4.879
10740TIP3    H232178   5.418   6.666   4.734
10741TIP3   OH232179   2.510   7.810   4.135
10741TIP3    H132180   2.596   7.801   4.177
10741TIP3    H232181   2.529   7.807   4.041
10742TIP3   OH232182   4.639   6.731   6.531
10742TIP3    H132183   4.572   6.680   6.485
10742TIP3    H232184   4.656   6.682   6.611
10743TIP3   OH232185   6.603   0.382   6.048
10743TIP3    H132186   6.538   0.369   6.117
10743TIP3    H232187   6.569   0.334   5.972
10744TIP3   OH232188   1.586   2.176   5.103
10744TIP3    H132189   1.526   2.229   5.156
10744TIP3    H232190   1.533   2.142   5.031
10745TIP3   OH232191   1.250   1.246   3.807
10745TIP3    H132192   1.332   1.198   3.799
10745TIP3    H232193   1.276   1.335   3.829
10746TIP3   OH232194   0.322   2.037   6.385
10746TIP3    H132195   0.415   2.031   6.366
10746TIP3    H232196   0.279   2.019   6.301
10747TIP3   OH232197   7.929   1.939   2.428
10747TIP3    H132198   7.857   1.985   2.384
10747TIP3    H232199   7.979   2.009   2.470
10748TIP3   OH232200   3.287   7.371   1.668
10748TIP3    H132201   3.309   7.441   1.730
10748TIP3    H232202   3.192   7.372   1.663
10749TIP3   OH232203   7.064   4.010   5.022
10749TIP3    H132204   7.111   3.935   5.057
10749TIP3    H232205   6.973   3.995   5.047
10750TIP3   OH232206   2.112   2.894   4.097
10750TIP3    H132207   2.059   2.937   4.030
10750TIP3    H232208   2.192   2.947   4.102
10751TIP3   OH232209   3.686   0.455   1.928
10751TIP3    H132210   3.740   0.449   1.849
10751TIP3    H232211   3.670   0.364   1.953
10752TIP3   OH232212   4.587   7.615   1.484
10752TIP3    H132213   4.502   7.572   1.472
10752TIP3    H232214   4.650   7.556   1.442
10753TIP3   OH232215   7.267   7.603   1.069
10753TIP3    H132216   7.342   7.619   1.012
10753TIP3    H232217   7.304   7.568   1.150
10754TIP3   OH232218   1.543   5.089   1.779
10754TIP3    H132219   1.564   5.143   1.703
10754TIP3    H232220   1.508   5.150   1.844
10755TIP3   OH232221   3.862   5.148   6.338
10755TIP3    H132222   3.955   5.173   6.333
10755TIP3    H232223   3.862   5.054   6.324
10756TIP3   OH232224   6.269   3.233   5.369
10756TIP3    H132225   6.240   3.248   5.459
10756TIP3    H232226   6.216   3.293   5.316
10757TIP3   OH232227   3.529   1.035   2.356
10757TIP3    H132228   3.540   1.079   2.271
10757TIP3    H232229   3.608   0.981   2.365
10758TIP3   OH232230   2.966   1.646   5.570
10758TIP3    H132231   2.911   1.682   5.500
10758TIP3    H232232   3.055   1.649   5.533
10759TIP3   OH232233   7.624   4.494   5.064
10759TIP3    H132234   7.645   4.404   5.041
10759TIP3    H232235   7.531   4.492   5.087
10760TIP3   OH232236   7.266   3.440   4.367
10760TIP3    H132237   7.190   3.387   4.393
10760TIP3    H232238   7.312   3.386   4.303
10761TIP3   OH232239   0.252   4.008   0.033
10761TIP3    H132240   0.178   3.956   0.064
10761TIP3    H232241   0.327   3.949   0.040
10762TIP3   OH232242   2.801   6.053   4.587
10762TIP3    H132243   2.885   6.042   4.541
10762TIP3    H232244   2.735   6.042   4.519
10763TIP3   OH232245   2.493   2.492   0.938
10763TIP3    H132246   2.519   2.520   1.025
10763TIP3    H232247   2.431   2.421   0.953
10764TIP3   OH232248   2.060   1.691   5.380
10764TIP3    H132249   2.099   1.702   5.466
10764TIP3    H232250   2.121   1.735   5.320
10765TIP3   OH232251   4.439   3.595   2.385
10765TIP3    H132252   4.396   3.596   2.299
10765TIP3    H232253   4.488   3.677   2.388
10766TIP3   OH232254   4.008   6.315   6.750
10766TIP3    H132255   3.924   6.270   6.764
10766TIP3    H232256   4.025   6.306   6.656
10767TIP3   OH232257   7.337   0.246   1.693
10767TIP3    H132258   7.262   0.305   1.698
10767TIP3    H232259   7.412   0.304   1.675
10768TIP3   OH232260   1.141   0.722   6.710
10768TIP3    H132261   1.118   0.680   6.627
10768TIP3    H232262   1.058   0.737   6.754
10769TIP3   OH232263   7.694   7.728   1.025
10769TIP3    H132264   7.772   7.774   1.058
10769TIP3    H232265   7.717   7.635   1.033
10770TIP3   OH232266   0.232   6.735   4.072
10770TIP3    H132267   0.213   6.725   3.979
10770TIP3    H232268   0.325   6.756   4.076
10771TIP3   OH232269   1.445   3.572   5.872
10771TIP3    H132270   1.523   3.576   5.928
10771TIP3    H232271   1.455   3.491   5.823
10772TIP3   OH232272   0.886   0.093   1.194
10772TIP3    H132273   0.972   0.109   1.231
10772TIP3    H232274   0.857   0.011   1.233
10773TIP3   OH232275   4.958   4.753   0.384
10773TIP3    H132276   4.969   4.848   0.385
10773TIP3    H232277   4.964   4.730   0.291
10774TIP3   OH232278   4.688   4.600   1.750
10774TIP3    H132279   4.662   4.667   1.813
10774TIP3    H232280   4.619   4.601   1.684
10775TIP3   OH232281   0.321   7.336   4.436
10775TIP3    H132282   0.396   7.346   4.494
10775TIP3    H232283   0.248   7.316   4.495
10776TIP3   OH232284   1.428   7.796   3.364
10776TIP3    H132285   1.432   7.877   3.414
10776TIP3    H232286   1.474   7.732   3.419
10777TIP3   OH232287   8.127   4.253   1.115
10777TIP3    H132288   8.147   4.160   1.103
10777TIP3    H232289   8.193   4.299   1.061
10778TIP3   OH232290   0.062   2.222   1.059
10778TIP3    H132291  -0.007   2.264   1.111
10778TIP3    H232292   0.016   2.185   0.984
10779TIP3   OH232293   6.872   3.004   1.152
10779TIP3    H132294   6.878   3.008   1.248
10779TIP3    H232295   6.935   3.069   1.122
10780TIP3   OH232296   3.051   5.286   5.016
10780TIP3    H132297   3.000   5.206   5.022
10780TIP3    H232298   3.025   5.325   4.932
10781TIP3   OH232299   3.776   0.118   2.133
10781TIP3    H132300   3.730   0.179   2.191
10781TIP3    H232301   3.763   0.032   2.174
10782TIP3   OH232302   6.807   5.201   4.701
10782TIP3    H132303   6.835   5.221   4.612
10782TIP3    H232304   6.883   5.160   4.741
10783TIP3   OH232305   6.302   7.592   3.524
10783TIP3    H132306   6.226   7.597   3.466
10783TIP3    H232307   6.270   7.620   3.610
10784TIP3   OH232308   3.919   2.839   0.900
10784TIP3    H132309   3.937   2.769   0.962
10784TIP3    H232310   3.982   2.825   0.829
10785TIP3   OH232311   2.451   4.457   6.109
10785TIP3    H132312   2.403   4.535   6.137
10785TIP3    H232313   2.527   4.491   6.062
10786TIP3   OH232314   4.711   7.699   0.707
10786TIP3    H132315   4.710   7.793   0.687
10786TIP3    H232316   4.618   7.676   0.719
10787TIP3   OH232317   0.149   7.416   4.063
10787TIP3    H132318   0.236   7.376   4.066
10787TIP3    H232319   0.130   7.424   3.969
10788TIP3   OH232320   4.973   5.419   5.398
10788TIP3    H132321   5.048   5.364   5.376
10788TIP3    H232322   4.994   5.505   5.361
10789TIP3   OH232323   2.726   0.255   5.875
10789TIP3    H132324   2.739   0.308   5.953
10789TIP3    H232325   2.783   0.179   5.888
10790TIP3   OH232326   4.168   4.344   2.460
10790TIP3    H132327   4.093   4.395   2.429
10790TIP3    H232328   4.146   4.322   2.551
10791TIP3   OH232329   1.122   2.398   2.899
10791TIP3    H132330   1.105   2.322   2.954
10791TIP3    H232331   1.034   2.428   2.873
10792TIP3   OH232332   7.798   5.498   4.089
10792TIP3    H132333   7.844   5.582   4.100
10792TIP3    H232334   7.717   5.521   4.044
10793TIP3   OH232335   1.084   1.221   4.729
10793TIP3    H132336   1.172   1.190   4.708
10793TIP3    H232337   1.085   1.314   4.705
10794TIP3   OH232338   6.392   1.496   3.694
10794TIP3    H132339   6.377   1.552   3.617
10794TIP3    H232340   6.464   1.538   3.740
10795TIP3   OH232341   2.439   7.655   2.457
10795TIP3    H132342   2.436   7.577   2.513
10795TIP3    H232343   2.360   7.704   2.479
10796TIP3   OH232344   6.312   4.418   4.866
10796TIP3    H132345   6.268   4.339   4.898
10796TIP3    H232346   6.265   4.490   4.906
10797TIP3   OH232347   3.632   1.646   2.215
10797TIP3    H132348   3.664   1.561   2.185
10797TIP3    H232349   3.574   1.676   2.146
10798TIP3   OH232350   1.296   4.307   6.687
10798TIP3    H132351   1.324   4.316   6.596
10798TIP3    H232352   1.275   4.214   6.697
10799TIP3   OH232353   5.187   3.887   6.246
10799TIP3    H132354   5.164   3.939   6.169
10799TIP3    H232355   5.203   3.951   6.315
10800TIP3   OH232356   5.152   5.968   5.943
10800TIP3    H132357   5.207   6.045   5.924
10800TIP3    H232358   5.101   5.993   6.019
10801TIP3   OH232359   2.865   7.630   5.805
10801TIP3    H132360   2.803   7.631   5.878
10801TIP3    H232361   2.820   7.678   5.735
10802TIP3   OH232362   0.586   7.402   5.308
10802TIP3    H132363   0.560   7.491   5.332
10802TIP3    H232364   0.552   7.347   5.378
10803TIP3   OH232365   4.509   3.325   2.353
10803TIP3    H132366   4.432   3.276   2.325
10803TIP3    H232367   4.474   3.409   2.383
10804TIP3   OH232368   2.848   1.699   2.317
10804TIP3    H132369   2.822   1.628   2.258
10804TIP3    H232370   2.781   1.698   2.385
10805TIP3   OH232371   3.720   1.962   4.047
10805TIP3    H132372   3.662   1.886   4.053
10805TIP3    H232373   3.786   1.936   3.982
10806TIP3   OH232374   8.280   0.199   0.969
10806TIP3    H132375   8.200   0.252   0.966
10806TIP3    H232376   8.344   0.250   0.921
10807TIP3   OH232377   4.524   2.672   1.577
10807TIP3    H132378   4.588   2.740   1.598
10807TIP3    H232379   4.556   2.634   1.496
10808TIP3   OH232380   5.386   5.723   5.604
10808TIP3    H132381   5.474   5.721   5.642
10808TIP3    H232382   5.359   5.815   5.612
10809TIP3   OH232383   0.976   3.087   5.012
10809TIP3    H132384   1.042   3.031   5.053
10809TIP3    H232385   0.966   3.052   4.923
10810TIP3   OH232386   7.963   7.609   1.284
10810TIP3    H132387   7.903   7.656   1.343
10810TIP3    H232388   8.032   7.576   1.341
10811TIP3   OH232389   6.905   0.303   4.258
10811TIP3    H132390   6.926   0.375   4.198
10811TIP3    H232391   6.810   0.307   4.267
10812TIP3   OH232392   0.302   7.592   4.300
10812TIP3    H132393   0.325   7.509   4.343
10812TIP3    H232394   0.263   7.645   4.370
10813TIP3   OH232395   8.053   2.451   0.805
10813TIP3    H132396   8.148   2.449   0.804
10813TIP3    H232397   8.029   2.493   0.722
10814TIP3   OH232398   0.747   4.217   0.052
10814TIP3    H132399   0.674   4.279   0.061
10814TIP3    H232400   0.765   4.188   0.141
10815TIP3   OH232401   5.574   0.555   4.473
10815TIP3    H132402   5.558   0.517   4.387
10815TIP3    H232403   5.661   0.523   4.497
10816TIP3   OH232404   5.706   2.308   0.719
10816TIP3    H132405   5.643   2.368   0.760
10816TIP3    H232406   5.674   2.299   0.629
10817TIP3   OH232407   2.636   4.176   1.863
10817TIP3    H132408   2.666   4.123   1.936
10817TIP3    H232409   2.681   4.260   1.874
10818TIP3   OH232410   0.711   4.326   6.246
10818TIP3    H132411   0.791   4.297   6.290
10818TIP3    H232412   0.706   4.420   6.264
10819TIP3   OH232413   5.635   0.645   5.400
10819TIP3    H132414   5.661   0.581   5.334
10819TIP3    H232415   5.539   0.637   5.404
10820TIP3   OH232416   1.135   2.078   4.915
10820TIP3    H132417   1.160   2.034   4.834
10820TIP3    H232418   1.207   2.138   4.933
10821TIP3   OH232419   4.578   1.464   4.540
10821TIP3    H132420   4.507   1.401   4.556
10821TIP3    H232421   4.658   1.412   4.546
10822TIP3   OH232422   5.014   7.014   6.674
10822TIP3    H132423   4.939   7.027   6.616
10822TIP3    H232424   4.995   7.067   6.751
10823TIP3   OH232425   1.764   0.690   1.679
10823TIP3    H132426   1.670   0.674   1.691
10823TIP3    H232427   1.785   0.759   1.742
10824TIP3   OH232428   3.858   7.330   2.663
10824TIP3    H132429   3.823   7.279   2.589
10824TIP3    H232430   3.944   7.291   2.681
10825TIP3   OH232431   0.627   6.571   4.760
10825TIP3    H132432   0.687   6.530   4.822
10825TIP3    H232433   0.576   6.499   4.724
10826TIP3   OH232434   0.912   7.086   4.398
10826TIP3    H132435   0.914   7.156   4.333
10826TIP3    H232436   0.838   7.031   4.371
10827TIP3   OH232437   5.148   2.728   4.361
10827TIP3    H132438   5.065   2.682   4.374
10827TIP3    H232439   5.162   2.776   4.443
10828TIP3   OH232440   7.358   5.762   1.053
10828TIP3    H132441   7.267   5.732   1.044
10828TIP3    H232442   7.359   5.846   1.008
10829TIP3   OH232443   0.194   1.396   0.828
10829TIP3    H132444   0.280   1.355   0.842
10829TIP3    H232445   0.136   1.324   0.807
10830TIP3   OH232446   3.350   1.507   4.648
10830TIP3    H132447   3.267   1.536   4.612
10830TIP3    H232448   3.406   1.491   4.571
10831TIP3   OH232449   2.657   6.222   1.027
10831TIP3    H132450   2.607   6.194   0.950
10831TIP3    H232451   2.674   6.142   1.076
10832TIP3   OH232452   5.529   0.556   1.641
10832TIP3    H132453   5.610   0.512   1.614
10832TIP3    H232454   5.488   0.583   1.559
10833TIP3   OH232455   4.440   0.668   3.179
10833TIP3    H132456   4.470   0.697   3.093
10833TIP3    H232457   4.371   0.729   3.203
10834TIP3   OH232458   1.016   0.932   1.896
10834TIP3    H132459   1.054   0.986   1.827
10834TIP3    H232460   1.012   0.844   1.859
10835TIP3   OH232461   5.173   4.942   6.406
10835TIP3    H132462   5.081   4.963   6.418
10835TIP3    H232463   5.190   4.872   6.469
10836TIP3   OH232464   3.635   4.612   1.180
10836TIP3    H132465   3.611   4.696   1.143
10836TIP3    H232466   3.634   4.551   1.106
10837TIP3   OH232467   3.893   2.693   4.648
10837TIP3    H132468   3.904   2.603   4.617
10837TIP3    H232469   3.973   2.738   4.622
10838TIP3   OH232470   0.848   0.829   2.316
10838TIP3    H132471   0.915   0.881   2.272
10838TIP3    H232472   0.812   0.773   2.247
10839TIP3   OH232473   0.646   1.394   0.273
10839TIP3    H132474   0.697   1.360   0.200
10839TIP3    H232475   0.641   1.488   0.257
10840TIP3   OH232476   7.004   5.776   0.301
10840TIP3    H132477   7.052   5.852   0.335
10840TIP3    H232478   7.002   5.789   0.207
10841TIP3   OH232479   7.154   7.550   0.141
10841TIP3    H132480   7.113   7.621   0.091
10841TIP3    H232481   7.245   7.577   0.151
10842TIP3   OH232482   4.807   4.579   5.925
10842TIP3    H132483   4.715   4.592   5.903
10842TIP3    H232484   4.847   4.665   5.914
10843TIP3   OH232485   7.892   2.669   3.415
10843TIP3    H132486   7.960   2.617   3.457
10843TIP3    H232487   7.940   2.738   3.369
10844TIP3   OH232488   3.611   6.112   4.332
10844TIP3    H132489   3.685   6.064   4.295
10844TIP3    H232490   3.626   6.111   4.426
10845TIP3   OH232491   6.319   2.599   1.984
10845TIP3    H132492   6.349   2.594   2.074
10845TIP3    H232493   6.258   2.673   1.983
10846TIP3   OH232494   5.971   3.885   1.899
10846TIP3    H132495   5.906   3.901   1.967
10846TIP3    H232496   5.920   3.869   1.820
10847TIP3   OH232497   7.433   5.860   1.545
10847TIP3    H132498   7.502   5.860   1.479
10847TIP3    H232499   7.352   5.845   1.496
10848TIP3   OH232500   7.488   5.777   2.039
10848TIP3    H132501   7.420   5.774   1.971
10848TIP3    H232502   7.441   5.757   2.120
10849TIP3   OH232503   8.078   6.299   5.621
10849TIP3    H132504   8.110   6.275   5.535
10849TIP3    H232505   8.131   6.248   5.683
10850TIP3   OH232506   2.433   6.598   3.975
10850TIP3    H132507   2.414   6.635   3.889
10850TIP3    H232508   2.522   6.627   3.995
10851TIP3   OH232509   0.731   3.853   3.255
10851TIP3    H132510   0.769   3.916   3.316
10851TIP3    H232511   0.680   3.905   3.193
10852TIP3   OH232512   0.608   7.303   1.815
10852TIP3    H132513   0.612   7.398   1.809
10852TIP3    H232514   0.591   7.273   1.726
10853TIP3   OH232515   7.694   7.517   5.726
10853TIP3    H132516   7.772   7.494   5.675
10853TIP3    H232517   7.624   7.462   5.689
10854TIP3   OH232518   5.750   7.036   4.463
10854TIP3    H132519   5.834   7.073   4.437
10854TIP3    H232520   5.755   7.029   4.559
10855TIP3   OH232521   5.865   7.270   0.206
10855TIP3    H132522   5.782   7.292   0.163
10855TIP3    H232523   5.855   7.178   0.230
10856TIP3   OH232524   6.757   3.604   4.298
10856TIP3    H132525   6.832   3.546   4.283
10856TIP3    H232526   6.696   3.584   4.227
10857TIP3   OH232527   7.727   7.380   3.859
10857TIP3    H132528   7.679   7.443   3.913
10857TIP3    H232529   7.711   7.410   3.769
10858TIP3   OH232530   7.869   1.097   2.744
10858TIP3    H132531   7.850   1.023   2.687
10858TIP3    H232532   7.803   1.091   2.813
10859TIP3   OH232533   2.714   3.961   3.939
10859TIP3    H132534   2.764   4.000   4.011
10859TIP3    H232535   2.779   3.942   3.872
10860TIP3   OH232536   1.194   2.463   6.176
10860TIP3    H132537   1.221   2.554   6.175
10860TIP3    H232538   1.270   2.415   6.142
10861TIP3   OH232539   1.458   4.611   1.410
10861TIP3    H132540   1.423   4.696   1.437
10861TIP3    H232541   1.529   4.632   1.350
10862TIP3   OH232542   3.821   5.435   6.568
10862TIP3    H132543   3.735   5.450   6.607
10862TIP3    H232544   3.863   5.521   6.568
10863TIP3   OH232545   4.535   3.188   4.572
10863TIP3    H132546   4.612   3.165   4.519
10863TIP3    H232547   4.492   3.105   4.589
10864TIP3   OH232548   5.291   0.649   4.544
10864TIP3    H132549   5.326   0.582   4.486
10864TIP3    H232550   5.369   0.694   4.578
10865TIP3   OH232551   1.509   5.627   4.619
10865TIP3    H132552   1.542   5.542   4.591
10865TIP3    H232553   1.416   5.626   4.597
10866TIP3   OH232554   6.057   7.744   5.743
10866TIP3    H132555   5.987   7.678   5.744
10866TIP3    H232556   6.115   7.716   5.672
10867TIP3   OH232557   6.501   6.183   0.969
10867TIP3    H132558   6.524   6.098   0.932
10867TIP3    H232559   6.509   6.244   0.895
10868TIP3   OH232560   3.563   4.028   1.531
10868TIP3    H132561   3.651   4.009   1.563
10868TIP3    H232562   3.536   3.948   1.486
10869TIP3   OH232563   1.255   1.637   4.556
10869TIP3    H132564   1.254   1.653   4.650
10869TIP3    H232565   1.210   1.712   4.518
10870TIP3   OH232566   0.496   1.861   3.175
10870TIP3    H132567   0.417   1.807   3.178
10870TIP3    H232568   0.495   1.909   3.258
10871TIP3   OH232569   3.550   3.729   4.759
10871TIP3    H132570   3.630   3.679   4.776
10871TIP3    H232571   3.481   3.663   4.756
10872TIP3   OH232572   5.452   7.290   2.444
10872TIP3    H132573   5.449   7.294   2.348
10872TIP3    H232574   5.361   7.301   2.471
10873TIP3   OH232575   5.000   5.127   1.921
10873TIP3    H132576   5.015   5.216   1.890
10873TIP3    H232577   5.034   5.071   1.851
10874TIP3   OH232578   2.489   3.347   2.538
10874TIP3    H132579   2.468   3.255   2.555
10874TIP3    H232580   2.491   3.355   2.443
10875TIP3   OH232581   1.970   2.406   5.839
10875TIP3    H132582   1.998   2.345   5.770
10875TIP3    H232583   1.932   2.350   5.906
10876TIP3   OH232584   4.382   4.203   2.970
10876TIP3    H132585   4.433   4.124   2.952
10876TIP3    H232586   4.444   4.275   2.955
10877TIP3   OH232587   2.720   5.352   4.725
10877TIP3    H132588   2.687   5.413   4.659
10877TIP3    H232589   2.814   5.368   4.726
10878TIP3   OH232590   5.153   3.570   4.050
10878TIP3    H132591   5.135   3.497   3.991
10878TIP3    H232592   5.112   3.646   4.008
10879TIP3   OH232593   7.316   2.180   2.718
10879TIP3    H132594   7.252   2.251   2.730
10879TIP3    H232595   7.349   2.193   2.629
10880TIP3   OH232596   0.725   6.368   2.264
10880TIP3    H132597   0.695   6.277   2.261
10880TIP3    H232598   0.820   6.362   2.259
10881TIP3   OH232599   0.450   3.946   1.053
10881TIP3    H132600   0.408   4.025   1.086
10881TIP3    H232601   0.505   3.916   1.125
10882TIP3   OH232602   0.418   5.279   1.404
10882TIP3    H132603   0.460   5.236   1.330
10882TIP3    H232604   0.359   5.343   1.365
10883TIP3   OH232605   5.324   2.379   2.408
10883TIP3    H132606   5.316   2.367   2.314
10883TIP3    H232607   5.328   2.290   2.444
10884TIP3   OH232608   4.625   0.752   1.084
10884TIP3    H132609   4.632   0.678   1.023
10884TIP3    H232610   4.601   0.712   1.168
10885TIP3   OH232611   1.644   4.676   1.217
10885TIP3    H132612   1.721   4.648   1.267
10885TIP3    H232613   1.670   4.759   1.178
10886TIP3   OH232614   7.299   4.303   2.542
10886TIP3    H132615   7.237   4.369   2.511
10886TIP3    H232616   7.274   4.223   2.496
10887TIP3   OH232617   0.201   3.119   1.295
10887TIP3    H132618   0.172   3.206   1.270
10887TIP3    H232619   0.152   3.059   1.239
10888TIP3   OH232620   0.183   6.171   0.080
10888TIP3    H132621   0.135   6.165   0.163
10888TIP3    H232622   0.145   6.102   0.026
10889TIP3   OH232623   0.983   3.533   5.534
10889TIP3    H132624   0.897   3.534   5.576
10889TIP3    H232625   0.965   3.548   5.441
10890TIP3   OH232626   5.366   1.124   0.313
10890TIP3    H132627   5.398   1.207   0.279
10890TIP3    H232628   5.441   1.086   0.359
10891TIP3   OH232629   4.484   0.532   2.280
10891TIP3    H132630   4.499   0.445   2.318
10891TIP3    H232631   4.564   0.581   2.301
10892TIP3   OH232632   2.404   1.177   2.900
10892TIP3    H132633   2.417   1.247   2.964
10892TIP3    H232634   2.396   1.223   2.816
10893TIP3   OH232635   0.386   1.199   3.495
10893TIP3    H132636   0.470   1.176   3.535
10893TIP3    H232637   0.396   1.177   3.402
10894TIP3   OH232638   0.694   6.653   1.529
10894TIP3    H132639   0.622   6.590   1.535
10894TIP3    H232640   0.754   6.616   1.464
10895TIP3   OH232641   6.417   2.447   0.127
10895TIP3    H132642   6.414   2.540   0.150
10895TIP3    H232643   6.423   2.445   0.032
10896TIP3   OH232644   7.025   3.797   1.442
10896TIP3    H132645   6.940   3.840   1.457
10896TIP3    H232646   7.017   3.759   1.355
10897TIP3   OH232647   6.725   5.101   2.763
10897TIP3    H132648   6.667   5.041   2.810
10897TIP3    H232649   6.740   5.059   2.679
10898TIP3   OH232650   6.586   0.063   4.885
10898TIP3    H132651   6.547  -0.004   4.942
10898TIP3    H232652   6.658   0.100   4.936
10899TIP3   OH232653   3.725   5.175   3.193
10899TIP3    H132654   3.737   5.257   3.146
10899TIP3    H232655   3.753   5.193   3.282
10900TIP3   OH232656   6.130   1.641   2.864
10900TIP3    H132657   6.049   1.589   2.865
10900TIP3    H232658   6.158   1.642   2.956
10901TIP3   OH232659   2.962   7.340   1.999
10901TIP3    H132660   2.875   7.338   2.040
10901TIP3    H232661   2.976   7.250   1.969
10902TIP3   OH232662   8.036   3.524   6.420
10902TIP3    H132663   8.106   3.494   6.478
10902TIP3    H232664   7.984   3.584   6.474
10903TIP3   OH232665   2.634   7.100   3.843
10903TIP3    H132666   2.578   7.166   3.803
10903TIP3    H232667   2.682   7.061   3.770
10904TIP3   OH232668   2.795   3.855   3.084
10904TIP3    H132669   2.868   3.798   3.108
10904TIP3    H232670   2.808   3.872   2.991
10905TIP3   OH232671   0.315   2.413   3.672
10905TIP3    H132672   0.293   2.320   3.659
10905TIP3    H232673   0.233   2.454   3.697
10906TIP3   OH232674   4.953   5.167   4.303
10906TIP3    H132675   4.883   5.104   4.285
10906TIP3    H232676   5.034   5.120   4.281
10907TIP3   OH232677   4.464   2.217   4.576
10907TIP3    H132678   4.518   2.289   4.609
10907TIP3    H232679   4.466   2.227   4.481
10908TIP3   OH232680   7.664   7.024   4.185
10908TIP3    H132681   7.673   6.962   4.112
10908TIP3    H232682   7.591   7.080   4.160
10909TIP3   OH232683   3.843   3.048   0.547
10909TIP3    H132684   3.876   3.136   0.564
10909TIP3    H232685   3.914   3.003   0.501
10910TIP3   OH232686   0.851   1.852   1.859
10910TIP3    H132687   0.928   1.820   1.811
10910TIP3    H232688   0.859   1.948   1.856
10911TIP3   OH232689   6.179   3.941   6.424
10911TIP3    H132690   6.110   4.006   6.432
10911TIP3    H232691   6.259   3.987   6.451
10912TIP3   OH232692   6.187   7.435   2.016
10912TIP3    H132693   6.182   7.370   1.946
10912TIP3    H232694   6.096   7.459   2.034
10913TIP3   OH232695   7.050   4.473   6.743
10913TIP3    H132696   7.143   4.449   6.735
10913TIP3    H232697   7.042   4.553   6.690
10914TIP3   OH232698   7.510   2.026   4.672
10914TIP3    H132699   7.574   2.013   4.742
10914TIP3    H232700   7.494   1.938   4.638
10915TIP3   OH232701   4.117   1.895   0.871
10915TIP3    H132702   4.030   1.870   0.900
10915TIP3    H232703   4.122   1.864   0.780
10916TIP3   OH232704   5.996   3.097   1.966
10916TIP3    H132705   6.067   3.155   1.941
10916TIP3    H232706   5.965   3.060   1.883
10917TIP3   OH232707   0.092   2.907   1.598
10917TIP3    H132708   0.132   2.982   1.641
10917TIP3    H232709   0.080   2.935   1.507
10918TIP3   OH232710   0.809   2.784   2.454
10918TIP3    H132711   0.734   2.824   2.498
10918TIP3    H232712   0.864   2.858   2.428
10919TIP3   OH232713   2.585   1.154   2.499
10919TIP3    H132714   2.629   1.070   2.486
10919TIP3    H232715   2.492   1.132   2.508
10920TIP3   OH232716   7.463   7.258   2.847
10920TIP3    H132717   7.451   7.214   2.763
10920TIP3    H232718   7.377   7.253   2.889
10921TIP3   OH232719   1.938   4.333   3.378
10921TIP3    H132720   1.906   4.305   3.464
10921TIP3    H232721   2.029   4.358   3.394
10922TIP3   OH232722   5.416   5.023   1.173
10922TIP3    H132723   5.453   4.935   1.174
10922TIP3    H232724   5.331   5.013   1.130
10923TIP3   OH232725   0.391   7.580   2.196
10923TIP3    H132726   0.365   7.503   2.246
10923TIP3    H232727   0.370   7.558   2.105
10924TIP3   OH232728   4.158   6.951   0.968
10924TIP3    H132729   4.218   6.879   0.988
10924TIP3    H232730   4.209   7.030   0.983
10925TIP3   OH232731   6.900   6.224   4.171
10925TIP3    H132732   6.816   6.193   4.206
10925TIP3    H232733   6.875   6.291   4.107
10926TIP3   OH232734   5.820   3.928   3.336
10926TIP3    H132735   5.753   3.997   3.328
10926TIP3    H232736   5.816   3.901   3.427
10927TIP3   OH232737   2.952   0.189   6.747
10927TIP3    H132738   2.994   0.164   6.665
10927TIP3    H232739   2.946   0.108   6.797
10928TIP3   OH232740   1.884   1.568   6.014
10928TIP3    H132741   1.806   1.513   6.012
10928TIP3    H232742   1.925   1.556   5.929
10929TIP3   OH232743   7.777   1.069   1.245
10929TIP3    H132744   7.837   1.019   1.189
10929TIP3    H232745   7.748   1.141   1.190
10930TIP3   OH232746   3.111   0.578   5.140
10930TIP3    H132747   3.196   0.623   5.141
10930TIP3    H232748   3.050   0.643   5.104
10931TIP3   OH232749   0.534   6.184   3.711
10931TIP3    H132750   0.439   6.179   3.718
10931TIP3    H232751   0.566   6.130   3.783
10932TIP3   OH232752   5.798   2.583   5.161
10932TIP3    H132753   5.714   2.602   5.201
10932TIP3    H232754   5.828   2.666   5.125
10933TIP3   OH232755   3.148   3.450   6.701
10933TIP3    H132756   3.073   3.441   6.760
10933TIP3    H232757   3.223   3.464   6.760
10934TIP3   OH232758   5.082   2.468   2.140
10934TIP3    H132759   5.088   2.401   2.072
10934TIP3    H232760   5.166   2.464   2.185
10935TIP3   OH232761   2.858   0.698   5.249
10935TIP3    H132762   2.872   0.700   5.344
10935TIP3    H232763   2.795   0.627   5.236
10936TIP3   OH232764   6.189   5.267   0.815
10936TIP3    H132765   6.277   5.289   0.784
10936TIP3    H232766   6.197   5.179   0.851
10937TIP3   OH232767   4.281   1.117   5.010
10937TIP3    H132768   4.218   1.155   4.949
10937TIP3    H232769   4.283   1.178   5.084
10938TIP3   OH232770   1.506   2.168   2.081
10938TIP3    H132771   1.464   2.213   2.007
10938TIP3    H232772   1.585   2.219   2.098
10939TIP3   OH232773   6.792   0.231   1.620
10939TIP3    H132774   6.704   0.218   1.586
10939TIP3    H232775   6.812   0.323   1.602
10940TIP3   OH232776   7.722   6.067   2.509
10940TIP3    H132777   7.693   6.028   2.427
10940TIP3    H232778   7.663   6.033   2.576
10941TIP3   OH232779   0.664   5.410   2.378
10941TIP3    H132780   0.612   5.357   2.439
10941TIP3    H232781   0.620   5.402   2.294
10942TIP3   OH232782   8.269   6.209   2.569
10942TIP3    H132783   8.231   6.265   2.637
10942TIP3    H232784   8.204   6.140   2.555
10943TIP3   OH232785   1.153   4.621   1.674
10943TIP3    H132786   1.100   4.544   1.653
10943TIP3    H232787   1.145   4.677   1.597
10944TIP3   OH232788   6.669   4.121   1.188
10944TIP3    H132789   6.742   4.089   1.241
10944TIP3    H232790   6.690   4.213   1.171
10945TIP3   OH232791   3.972   5.447   2.388
10945TIP3    H132792   4.022   5.405   2.318
10945TIP3    H232793   3.945   5.531   2.351
10946TIP3   OH232794   6.510   1.097   2.464
10946TIP3    H132795   6.541   1.014   2.427
10946TIP3    H232796   6.475   1.073   2.550
10947TIP3   OH232797   4.741   0.659   0.321
10947TIP3    H132798   4.730   0.683   0.229
10947TIP3    H232799   4.835   0.648   0.332
10948TIP3   OH232800   6.630   4.935   1.940
10948TIP3    H132801   6.587   4.976   1.865
10948TIP3    H232802   6.702   4.884   1.902
10949TIP3   OH232803   4.247   6.167   1.556
10949TIP3    H132804   4.342   6.178   1.562
10949TIP3    H232805   4.217   6.161   1.646
10950TIP3   OH232806   5.326   7.324   5.573
10950TIP3    H132807   5.404   7.356   5.618
10950TIP3    H232808   5.288   7.401   5.532
10951TIP3   OH232809   6.979   0.582   5.455
10951TIP3    H132810   6.998   0.496   5.492
10951TIP3    H232811   6.972   0.640   5.530
10952TIP3   OH232812   6.868   5.816   0.769
10952TIP3    H132813   6.814   5.841   0.694
10952TIP3    H232814   6.806   5.810   0.842
10953TIP3   OH232815   2.358   0.562   3.930
10953TIP3    H132816   2.349   0.469   3.947
10953TIP3    H232817   2.421   0.568   3.858
10954TIP3   OH232818   7.577   5.138   2.864
10954TIP3    H132819   7.525   5.178   2.934
10954TIP3    H232820   7.663   5.122   2.904
10955TIP3   OH232821   3.979   5.508   3.656
10955TIP3    H132822   4.064   5.546   3.679
10955TIP3    H232823   3.936   5.492   3.740
10956TIP3   OH232824   4.403   7.079   0.232
10956TIP3    H132825   4.378   7.139   0.302
10956TIP3    H232826   4.487   7.112   0.200
10957TIP3   OH232827   2.190   7.296   0.862
10957TIP3    H132828   2.223   7.385   0.854
10957TIP3    H232829   2.118   7.301   0.924
10958TIP3   OH232830   2.467   6.066   1.247
10958TIP3    H132831   2.442   6.098   1.161
10958TIP3    H232832   2.554   6.027   1.234
10959TIP3   OH232833   3.771   3.313   2.051
10959TIP3    H132834   3.750   3.348   2.137
10959TIP3    H232835   3.828   3.238   2.069
10960TIP3   OH232836   5.005   6.966   3.734
10960TIP3    H132837   4.948   7.009   3.671
10960TIP3    H232838   5.046   6.895   3.685
10961TIP3   OH232839   5.673   7.146   2.976
10961TIP3    H132840   5.638   7.056   2.983
10961TIP3    H232841   5.599   7.202   2.998
10962TIP3   OH232842   6.047   6.708   3.482
10962TIP3    H132843   5.962   6.687   3.443
10962TIP3    H232844   6.096   6.626   3.480
10963TIP3   OH232845   2.728   0.531   1.797
10963TIP3    H132846   2.784   0.606   1.777
10963TIP3    H232847   2.696   0.548   1.885
10964TIP3   OH232848   3.581   6.777   6.380
10964TIP3    H132849   3.567   6.847   6.444
10964TIP3    H232850   3.554   6.698   6.426
10965TIP3   OH232851   6.433   5.911   5.980
10965TIP3    H132852   6.489   5.930   6.055
10965TIP3    H232853   6.482   5.945   5.905
10966TIP3   OH232854   8.045   5.264   4.423
10966TIP3    H132855   8.030   5.248   4.329
10966TIP3    H232856   7.984   5.334   4.445
10967TIP3   OH232857   7.090   2.772   2.287
10967TIP3    H132858   7.094   2.714   2.363
10967TIP3    H232859   7.050   2.719   2.218
10968TIP3   OH232860   1.037   4.420   5.811
10968TIP3    H132861   0.970   4.407   5.877
10968TIP3    H232862   1.062   4.332   5.783
10969TIP3   OH232863   0.212   7.351   6.728
10969TIP3    H132864   0.163   7.368   6.647
10969TIP3    H232865   0.296   7.317   6.698
10970TIP3   OH232866   6.458   1.452   5.112
10970TIP3    H132867   6.473   1.539   5.149
10970TIP3    H232868   6.449   1.395   5.189
10971TIP3   OH232869   1.084   5.008   0.702
10971TIP3    H132870   1.049   4.997   0.791
10971TIP3    H232871   1.172   5.045   0.716
10972TIP3   OH232872   4.124   7.460   3.098
10972TIP3    H132873   4.079   7.376   3.088
10972TIP3    H232874   4.198   7.454   3.037
10973TIP3   OH232875   2.566   2.488   4.909
10973TIP3    H132876   2.491   2.548   4.909
10973TIP3    H232877   2.577   2.463   4.817
10974TIP3   OH232878   0.403   3.043   0.299
10974TIP3    H132879   0.321   3.005   0.268
10974TIP3    H232880   0.385   3.066   0.391
10975TIP3   OH232881   4.928   4.720   4.887
10975TIP3    H132882   5.007   4.764   4.918
10975TIP3    H232883   4.884   4.786   4.834
10976TIP3   OH232884   3.993   3.960   1.974
10976TIP3    H132885   4.068   3.999   2.019
10976TIP3    H232886   4.031   3.909   1.902
10977TIP3   OH232887   0.741   5.320   4.521
10977TIP3    H132888   0.722   5.355   4.434
10977TIP3    H232889   0.779   5.233   4.504
10978TIP3   OH232890   1.590   2.363   6.350
10978TIP3    H132891   1.501   2.400   6.350
10978TIP3    H232892   1.638   2.419   6.289
10979TIP3   OH232893   6.625   7.432   2.732
10979TIP3    H132894   6.608   7.525   2.749
10979TIP3    H232895   6.713   7.417   2.767
10980TIP3   OH232896   3.984   2.102   2.235
10980TIP3    H132897   3.915   2.105   2.302
10980TIP3    H232898   4.039   2.027   2.259
10981TIP3   OH232899   3.992   1.060   2.472
10981TIP3    H132900   4.015   1.017   2.390
10981TIP3    H232901   3.942   1.137   2.446
10982TIP3   OH232902   7.394   6.407   0.285
10982TIP3    H132903   7.317   6.458   0.310
10982TIP3    H232904   7.443   6.466   0.227
10983TIP3   OH232905   6.588   1.308   6.587
10983TIP3    H132906   6.541   1.377   6.633
10983TIP3    H232907   6.625   1.351   6.510
10984TIP3   OH232908   3.442   5.713   5.665
10984TIP3    H132909   3.509   5.746   5.605
10984TIP3    H232910   3.405   5.791   5.706
10985TIP3   OH232911   5.712   2.461   5.779
10985TIP3    H132912   5.776   2.493   5.843
10985TIP3    H232913   5.680   2.379   5.818
10986TIP3   OH232914   6.153   6.503   5.368
10986TIP3    H132915   6.109   6.503   5.453
10986TIP3    H232916   6.083   6.522   5.306
10987TIP3   OH232917   2.445   5.367   0.291
10987TIP3    H132918   2.385   5.400   0.357
10987TIP3    H232919   2.439   5.430   0.219
10988TIP3   OH232920   0.921   4.088   5.689
10988TIP3    H132921   0.959   4.154   5.632
10988TIP3    H232922   0.974   4.092   5.769
10989TIP3   OH232923   3.309   2.231   0.892
10989TIP3    H132924   3.261   2.256   0.971
10989TIP3    H232925   3.336   2.314   0.852
10990TIP3   OH232926   1.539   5.547   0.525
10990TIP3    H132927   1.541   5.621   0.586
10990TIP3    H232928   1.620   5.499   0.544
10991TIP3   OH232929   7.039   6.283   6.165
10991TIP3    H132930   6.969   6.220   6.150
10991TIP3    H232931   7.055   6.281   6.259
10992TIP3   OH232932   4.618   1.090   3.229
10992TIP3    H132933   4.581   1.164   3.276
10992TIP3    H232934   4.627   1.021   3.295
10993TIP3   OH232935   6.906   3.526   6.782
10993TIP3    H132936   6.832   3.484   6.738
10993TIP3    H232937   6.940   3.589   6.718
10994TIP3   OH232938   5.256   2.641   6.752
10994TIP3    H132939   5.351   2.625   6.759
10994TIP3    H232940   5.224   2.566   6.702
10995TIP3   OH232941   6.691   1.533   3.593
10995TIP3    H132942   6.664   1.447   3.626
10995TIP3    H232943   6.766   1.557   3.647
10996TIP3   OH232944  -0.015   0.910   2.816
10996TIP3    H132945  -0.045   1.001   2.816
10996TIP3    H232946   0.074   0.914   2.781
10997TIP3   OH232947   4.190   3.885   3.888
10997TIP3    H132948   4.176   3.972   3.925
10997TIP3    H232949   4.126   3.829   3.932
10998TIP3   OH232950   6.008   1.341   4.650
10998TIP3    H132951   5.956   1.310   4.724
10998TIP3    H232952   6.008   1.436   4.659
10999TIP3   OH232953   5.670   6.942   6.239
10999TIP3    H132954   5.619   6.864   6.261
10999TIP3    H232955   5.654   6.956   6.145
11000TIP3   OH232956   4.726   1.963   1.468
11000TIP3    H132957   4.817   1.993   1.464
11000TIP3    H232958   4.692   2.000   1.549
11001TIP3   OH232959   0.632   4.160   4.029
11001TIP3    H132960   0.576   4.202   4.095
11001TIP3    H232961   0.703   4.121   4.080
11002TIP3   OH232962   2.565   7.233   1.349
11002TIP3    H132963   2.649   7.187   1.357
11002TIP3    H232964   2.552   7.274   1.435
11003TIP3   OH232965   0.071   7.551   5.260
11003TIP3    H132966   0.109   7.491   5.195
11003TIP3    H232967  -0.021   7.527   5.264
11004TIP3   OH232968   6.726   5.702   2.013
11004TIP3    H132969   6.652   5.644   1.998
11004TIP3    H232970   6.764   5.673   2.096
11005TIP3   OH232971   0.724   6.013   5.329
11005TIP3    H132972   0.787   6.075   5.292
11005TIP3    H232973   0.766   5.982   5.410
11006TIP3   OH232974   0.687   0.556   3.739
11006TIP3    H132975   0.773   0.517   3.753
11006TIP3    H232976   0.706   0.641   3.698
11007TIP3   OH232977   7.226   6.263   5.247
11007TIP3    H132978   7.219   6.167   5.242
11007TIP3    H232979   7.188   6.285   5.332
11008TIP3   OH232980   3.027   0.082   6.488
11008TIP3    H132981   3.029  -0.013   6.486
11008TIP3    H232982   3.107   0.109   6.443
11009TIP3   OH232983   5.605   5.020   0.420
11009TIP3    H132984   5.584   5.068   0.500
11009TIP3    H232985   5.655   5.082   0.367
11010TIP3   OH232986   7.916   7.408   5.625
11010TIP3    H132987   7.966   7.425   5.545
11010TIP3    H232988   7.978   7.366   5.684
11011TIP3   OH232989   6.586   1.046   2.166
11011TIP3    H132990   6.583   1.051   2.070
11011TIP3    H232991   6.495   1.037   2.193
11012TIP3   OH232992   4.477   6.579   5.660
11012TIP3    H132993   4.558   6.528   5.661
11012TIP3    H232994   4.498   6.658   5.710
11013TIP3   OH232995   4.174   1.309   3.207
11013TIP3    H132996   4.185   1.361   3.287
11013TIP3    H232997   4.083   1.323   3.181
11014TIP3   OH232998   1.705   4.359   1.995
11014TIP3    H132999   1.655   4.436   2.022
11014TIP3    H233000   1.788   4.394   1.962
11015TIP3   OH233001   2.190   3.441   2.664
11015TIP3    H133002   2.155   3.359   2.628
11015TIP3    H233003   2.284   3.424   2.674
11016TIP3   OH233004   7.746   5.822   1.952
11016TIP3    H133005   7.659   5.786   1.968
11016TIP3    H233006   7.798   5.746   1.925
11017TIP3   OH233007   4.526   4.608   4.793
11017TIP3    H133008   4.432   4.591   4.800
11017TIP3    H233009   4.568   4.530   4.830
11018TIP3   OH233010   4.635   2.439   4.630
11018TIP3    H133011   4.704   2.373   4.623
11018TIP3    H233012   4.683   2.522   4.643
11019TIP3   OH233013   2.119   2.205   5.052
11019TIP3    H133014   2.196   2.206   5.109
11019TIP3    H233015   2.090   2.114   5.052
11020TIP3   OH233016   0.910   3.384   3.653
11020TIP3    H133017   0.933   3.450   3.588
11020TIP3    H233018   0.832   3.341   3.617
11021TIP3   OH233019   6.000   7.133   4.391
11021TIP3    H133020   6.074   7.082   4.357
11021TIP3    H233021   6.035   7.177   4.468
11022TIP3   OH233022   6.392  -0.015   1.584
11022TIP3    H133023   6.315   0.020   1.629
11022TIP3    H233024   6.373  -0.003   1.491
11023TIP3   OH233025   0.642   7.624   1.368
11023TIP3    H133026   0.580   7.565   1.326
11023TIP3    H233027   0.684   7.571   1.435
11024TIP3   OH233028   3.898   4.018   4.705
11024TIP3    H133029   3.983   3.975   4.706
11024TIP3    H233030   3.842   3.961   4.757
11025TIP3   OH233031   3.248   5.873   0.343
11025TIP3    H133032   3.183   5.855   0.275
11025TIP3    H233033   3.203   5.935   0.402
11026TIP3   OH233034   5.406   5.444   1.952
11026TIP3    H133035   5.423   5.406   1.866
11026TIP3    H233036   5.416   5.538   1.940
11027TIP3   OH233037   4.005   1.184   0.182
11027TIP3    H133038   4.065   1.111   0.164
11027TIP3    H233039   4.034   1.219   0.266
11028TIP3   OH233040   6.212   6.809   0.342
11028TIP3    H133041   6.294   6.847   0.311
11028TIP3    H233042   6.156   6.885   0.361
11029TIP3   OH233043   3.770   6.646   2.208
11029TIP3    H133044   3.805   6.724   2.164
11029TIP3    H233045   3.675   6.652   2.195
11030TIP3   OH233046   6.172   1.184   1.847
11030TIP3    H133047   6.227   1.259   1.870
11030TIP3    H233048   6.096   1.223   1.804
11031TIP3   OH233049   6.987   4.977   5.542
11031TIP3    H133050   6.945   5.034   5.478
11031TIP3    H233051   7.066   4.946   5.498
11032TIP3   OH233052   7.954   3.249   2.667
11032TIP3    H133053   7.991   3.216   2.749
11032TIP3    H233054   8.016   3.316   2.637
11033TIP3   OH233055   2.041   1.655   2.342
11033TIP3    H133056   2.051   1.576   2.396
11033TIP3    H233057   2.099   1.719   2.384
11034TIP3   OH233058   6.078   3.167   0.793
11034TIP3    H133059   6.153   3.226   0.791
11034TIP3    H233060   6.095   3.105   0.722
11035TIP3   OH233061   7.117   2.770   1.760
11035TIP3    H133062   7.205   2.739   1.740
11035TIP3    H233063   7.130   2.853   1.805
11036TIP3   OH233064   6.748   0.239   5.584
11036TIP3    H133065   6.766   0.222   5.676
11036TIP3    H233066   6.678   0.304   5.584
11037TIP3   OH233067   4.342   6.665   1.894
11037TIP3    H133068   4.382   6.619   1.820
11037TIP3    H233069   4.326   6.754   1.862
11038TIP3   OH233070   5.919   1.628   4.227
11038TIP3    H133071   5.973   1.645   4.304
11038TIP3    H233072   5.978   1.588   4.164
11039TIP3   OH233073   5.087   5.548   0.786
11039TIP3    H133074   5.041   5.623   0.749
11039TIP3    H233075   5.073   5.555   0.880
11040TIP3   OH233076   4.619   3.000   1.986
11040TIP3    H133077   4.530   3.009   1.952
11040TIP3    H233078   4.635   3.082   2.033
11041TIP3   OH233079   3.572   3.027   1.233
11041TIP3    H133080   3.566   3.121   1.250
11041TIP3    H233081   3.562   3.019   1.139
11042TIP3   OH233082   1.368   1.303   4.959
11042TIP3    H133083   1.276   1.306   4.986
11042TIP3    H233084   1.371   1.350   4.876
11043TIP3   OH233085   7.180   6.261   0.047
11043TIP3    H133086   7.140   6.319  -0.018
11043TIP3    H233087   7.131   6.278   0.127
11044TIP3   OH233088   2.773   2.778   0.571
11044TIP3    H133089   2.717   2.823   0.507
11044TIP3    H233090   2.712   2.735   0.631
11045TIP3   OH233091   6.830   1.412   3.930
11045TIP3    H133092   6.761   1.407   3.996
11045TIP3    H233093   6.905   1.368   3.969
11046TIP3   OH233094   5.911   2.187   3.995
11046TIP3    H133095   5.919   2.126   4.068
11046TIP3    H233096   5.891   2.271   4.035
11047TIP3   OH233097   5.038   5.298   6.395
11047TIP3    H133098   4.982   5.274   6.321
11047TIP3    H233099   5.126   5.276   6.367
11048TIP3   OH233100   3.109   0.571   5.766
11048TIP3    H133101   3.130   0.637   5.832
11048TIP3    H233102   3.049   0.511   5.810
11049TIP3   OH233103   4.368   6.058   5.760
11049TIP3    H133104   4.400   5.972   5.733
11049TIP3    H233105   4.287   6.040   5.808
11050TIP3   OH233106   6.961   4.842   3.417
11050TIP3    H133107   7.056   4.827   3.420
11050TIP3    H233108   6.944   4.900   3.490
11051TIP3   OH233109   5.855   3.615   2.897
11051TIP3    H133110   5.824   3.539   2.946
11051TIP3    H233111   5.781   3.676   2.897
11052TIP3   OH233112   4.266   5.349   2.488
11052TIP3    H133113   4.294   5.284   2.423
11052TIP3    H233114   4.186   5.312   2.526
11053TIP3   OH233115   4.684   2.274   5.541
11053TIP3    H133116   4.746   2.278   5.469
11053TIP3    H233117   4.598   2.285   5.501
11054TIP3   OH233118   6.931   7.078   3.599
11054TIP3    H133119   6.956   7.150   3.540
11054TIP3    H233120   7.008   7.021   3.601
11055TIP3   OH233121   3.529   4.446   1.810
11055TIP3    H133122   3.612   4.452   1.856
11055TIP3    H233123   3.508   4.353   1.808
11056TIP3   OH233124   2.568   0.859   1.543
11056TIP3    H133125   2.646   0.841   1.490
11056TIP3    H233126   2.504   0.794   1.515
11057TIP3   OH233127   6.512   3.030   6.049
11057TIP3    H133128   6.594   2.993   6.017
11057TIP3    H233129   6.530   3.052   6.141
11058TIP3   OH233130   3.718   4.847   3.686
11058TIP3    H133131   3.699   4.917   3.749
11058TIP3    H233132   3.632   4.813   3.662
11059TIP3   OH233133   6.940   2.675   6.121
11059TIP3    H133134   6.935   2.662   6.026
11059TIP3    H233135   6.921   2.768   6.133
11060TIP3   OH233136   4.646   0.465   0.064
11060TIP3    H133137   4.726   0.433   0.104
11060TIP3    H233138   4.658   0.560   0.059
11061TIP3   OH233139   2.850   1.609   1.057
11061TIP3    H133140   2.898   1.647   1.130
11061TIP3    H233141   2.887   1.652   0.980
11062TIP3   OH233142   2.936   2.002   0.843
11062TIP3    H133143   2.926   2.088   0.802
11062TIP3    H233144   2.876   2.003   0.917
11063TIP3   OH233145   6.874   3.944   6.661
11063TIP3    H133146   6.864   4.006   6.589
11063TIP3    H233147   6.869   3.858   6.620
11064TIP3   OH233148   3.969   4.313   3.636
11064TIP3    H133149   4.001   4.394   3.676
11064TIP3    H233150   3.951   4.336   3.545
11065TIP3   OH233151   6.744   3.927   1.481
11065TIP3    H133152   6.740   4.016   1.516
11065TIP3    H233153   6.668   3.882   1.520
11066TIP3   OH233154   5.599   7.702   6.176
11066TIP3    H133155   5.523   7.731   6.228
11066TIP3    H233156   5.673   7.711   6.235
11067TIP3   OH233157   3.883   3.544   5.236
11067TIP3    H133158   3.818   3.574   5.173
11067TIP3    H233159   3.934   3.478   5.188
11068TIP3   OH233160   1.015   7.779   2.584
11068TIP3    H133161   0.924   7.767   2.559
11068TIP3    H233162   1.012   7.842   2.656
11069TIP3   OH233163   5.928   7.285   0.904
11069TIP3    H133164   5.908   7.289   0.998
11069TIP3    H233165   5.845   7.308   0.862
11070TIP3   OH233166   1.509   6.442   5.170
11070TIP3    H133167   1.515   6.348   5.190
11070TIP3    H233168   1.417   6.464   5.185
11071TIP3   OH233169   5.660   3.785   5.024
11071TIP3    H133170   5.653   3.786   4.928
11071TIP3    H233171   5.684   3.875   5.047
11072TIP3   OH233172   6.246   0.731   5.144
11072TIP3    H133173   6.214   0.686   5.066
11072TIP3    H233174   6.340   0.711   5.146
11073TIP3   OH233175   1.690   1.520   3.744
11073TIP3    H133176   1.729   1.513   3.831
11073TIP3    H233177   1.705   1.611   3.719
11074TIP3   OH233178   6.191   1.839   6.349
11074TIP3    H133179   6.281   1.816   6.373
11074TIP3    H233180   6.200   1.915   6.292
11075TIP3   OH233181   3.938   0.665   2.378
11075TIP3    H133182   3.933   0.570   2.362
11075TIP3    H233183   4.032   0.684   2.374
11076TIP3   OH233184   1.643   5.253   5.823
11076TIP3    H133185   1.726   5.244   5.870
11076TIP3    H233186   1.583   5.290   5.888
11077TIP3   OH233187   5.873   6.812   0.292
11077TIP3    H133188   5.918   6.883   0.337
11077TIP3    H233189   5.780   6.830   0.305
11078TIP3   OH233190   0.203   6.861   6.226
11078TIP3    H133191   0.138   6.797   6.256
11078TIP3    H233192   0.232   6.828   6.141
11079TIP3   OH233193   6.440   6.608   3.404
11079TIP3    H133194   6.525   6.583   3.369
11079TIP3    H233195   6.387   6.628   3.327
11080TIP3   OH233196   8.318   3.649   4.213
11080TIP3    H133197   8.257   3.657   4.286
11080TIP3    H233198   8.264   3.616   4.141
11081TIP3   OH233199   2.320   4.954   1.483
11081TIP3    H133200   2.322   4.953   1.388
11081TIP3    H233201   2.230   4.934   1.506
11082TIP3   OH233202   5.638   2.350   2.134
11082TIP3    H133203   5.649   2.396   2.217
11082TIP3    H233204   5.722   2.309   2.117
11083TIP3   OH233205   3.286   7.479   4.577
11083TIP3    H133206   3.374   7.442   4.573
11083TIP3    H233207   3.245   7.452   4.494
11084TIP3   OH233208   1.866   3.081   2.325
11084TIP3    H133209   1.784   3.123   2.348
11084TIP3    H233210   1.926   3.153   2.306
11085TIP3   OH233211   6.206   5.054   3.613
11085TIP3    H133212   6.111   5.044   3.611
11085TIP3    H233213   6.221   5.141   3.650
11086TIP3   OH233214   4.863   2.990   1.370
11086TIP3    H133215   4.958   2.994   1.358
11086TIP3    H233216   4.831   3.074   1.337
11087TIP3   OH233217   1.520   2.384   0.648
11087TIP3    H133218   1.582   2.391   0.575
11087TIP3    H233219   1.439   2.423   0.615
11088TIP3   OH233220   1.627   5.861   4.416
11088TIP3    H133221   1.697   5.902   4.366
11088TIP3    H233222   1.669   5.790   4.464
11089TIP3   OH233223   5.245   2.986   4.428
11089TIP3    H133224   5.332   3.021   4.441
11089TIP3    H233225   5.232   2.927   4.503
11090TIP3   OH233226   2.824   0.830   0.431
11090TIP3    H133227   2.893   0.894   0.448
11090TIP3    H233228   2.787   0.856   0.347
11091TIP3   OH233229   7.277   3.970   2.137
11091TIP3    H133230   7.239   4.032   2.200
11091TIP3    H233231   7.310   4.025   2.066
11092TIP3   OH233232   2.714   2.923   5.513
11092TIP3    H133233   2.787   2.907   5.452
11092TIP3    H233234   2.671   3.001   5.478
11093TIP3   OH233235   3.231   7.548   0.101
11093TIP3    H133236   3.226   7.456   0.074
11093TIP3    H233237   3.322   7.560   0.128
11094TIP3   OH233238   4.068   5.618   4.530
11094TIP3    H133239   3.991   5.565   4.550
11094TIP3    H233240   4.069   5.686   4.597
11095TIP3   OH233241   3.385   2.484   4.514
11095TIP3    H133242   3.412   2.571   4.484
11095TIP3    H233243   3.319   2.456   4.451
11096TIP3   OH233244   5.849   4.946   3.458
11096TIP3    H133245   5.874   4.959   3.549
11096TIP3    H233246   5.762   4.907   3.462
11097TIP3   OH233247   2.046   1.401   0.723
11097TIP3    H133248   2.136   1.375   0.743
11097TIP3    H233249   2.023   1.350   0.645
11098TIP3   OH233250   6.815   4.858   4.661
11098TIP3    H133251   6.814   4.827   4.570
11098TIP3    H233252   6.849   4.947   4.656
11099TIP3   OH233253   5.537   1.033   2.006
11099TIP3    H133254   5.525   0.939   2.020
11099TIP3    H233255   5.631   1.047   2.019
11100TIP3   OH233256   5.497   1.458   1.091
11100TIP3    H133257   5.562   1.500   1.034
11100TIP3    H233258   5.513   1.364   1.081
11101TIP3   OH233259   8.023   5.818   3.303
11101TIP3    H133260   7.941   5.813   3.352
11101TIP3    H233261   8.011   5.757   3.231
11102TIP3   OH233262   8.059   0.577   3.225
11102TIP3    H133263   7.976   0.624   3.232
11102TIP3    H233264   8.122   0.645   3.198
11103TIP3   OH233265   4.803   7.411   0.893
11103TIP3    H133266   4.766   7.497   0.871
11103TIP3    H233267   4.887   7.409   0.846
11104TIP3   OH233268   2.927   4.036   6.025
11104TIP3    H133269   2.995   4.100   6.046
11104TIP3    H233270   2.867   4.083   5.968
11105TIP3   OH233271   0.554   1.626   1.954
11105TIP3    H133272   0.520   1.671   2.032
11105TIP3    H233273   0.645   1.605   1.976
11106TIP3   OH233274   6.426   3.258   5.103
11106TIP3    H133275   6.447   3.341   5.060
11106TIP3    H233276   6.340   3.273   5.142
11107TIP3   OH233277   5.234   3.291   5.455
11107TIP3    H133278   5.284   3.228   5.403
11107TIP3    H233279   5.216   3.363   5.394
11108TIP3   OH233280   6.249   0.492   5.369
11108TIP3    H133281   6.275   0.407   5.333
11108TIP3    H233282   6.310   0.554   5.329
11109TIP3   OH233283   0.956   0.896   2.603
11109TIP3    H133284   0.900   0.860   2.534
11109TIP3    H233285   0.979   0.820   2.657
11110TIP3   OH233286   5.192   1.383   0.498
11110TIP3    H133287   5.170   1.290   0.492
11110TIP3    H233288   5.158   1.421   0.416
11111TIP3   OH233289   4.323   1.457   4.766
11111TIP3    H133290   4.270   1.388   4.728
11111TIP3    H233291   4.325   1.526   4.699
11112TIP3   OH233292   0.834   3.334   3.337
11112TIP3    H133293   0.775   3.279   3.287
11112TIP3    H233294   0.796   3.422   3.331
11113TIP3   OH233295   5.007   1.953   6.122
11113TIP3    H133296   5.071   2.024   6.121
11113TIP3    H233297   4.925   1.994   6.149
11114TIP3   OH233298   5.254   3.002   0.212
11114TIP3    H133299   5.347   2.979   0.209
11114TIP3    H233300   5.231   2.998   0.304
11115TIP3   OH233301   0.040   0.259   1.687
11115TIP3    H133302  -0.006   0.224   1.610
11115TIP3    H233303   0.095   0.186   1.717
11116TIP3   OH233304   4.699   7.223   2.336
11116TIP3    H133305   4.733   7.157   2.275
11116TIP3    H233306   4.604   7.218   2.326
11117TIP3   OH233307   5.334   4.148   1.650
11117TIP3    H133308   5.327   4.052   1.648
11117TIP3    H233309   5.343   4.173   1.559
11118TIP3   OH233310   7.200   3.141   6.496
11118TIP3    H133311   7.286   3.143   6.538
11118TIP3    H233312   7.150   3.210   6.541
11119TIP3   OH233313   6.849   1.655   3.219
11119TIP3    H133314   6.758   1.658   3.191
11119TIP3    H233315   6.861   1.567   3.253
11120TIP3   OH233316   3.340   1.062   1.107
11120TIP3    H133317   3.290   1.001   1.054
11120TIP3    H233318   3.275   1.102   1.165
11121TIP3   OH233319   5.243   0.521   3.879
11121TIP3    H133320   5.236   0.439   3.927
11121TIP3    H233321   5.271   0.585   3.945
11122TIP3   OH233322   7.975   7.077   1.368
11122TIP3    H133323   7.950   7.000   1.419
11122TIP3    H233324   8.053   7.051   1.320
11123TIP3   OH233325   7.357   2.965   3.020
11123TIP3    H133326   7.300   3.036   2.991
11123TIP3    H233327   7.375   2.985   3.112
11124TIP3   OH233328   5.417   6.453   6.081
11124TIP3    H133329   5.323   6.445   6.097
11124TIP3    H233330   5.458   6.428   6.163
11125TIP3   OH233331   1.036   3.133   1.803
11125TIP3    H133332   0.955   3.142   1.853
11125TIP3    H233333   1.021   3.183   1.723
11126TIP3   OH233334   7.805   4.715   1.008
11126TIP3    H133335   7.881   4.659   0.992
11126TIP3    H233336   7.806   4.778   0.936
11127TIP3   OH233337   1.296   6.702   2.069
11127TIP3    H133338   1.276   6.741   1.984
11127TIP3    H233339   1.384   6.665   2.059
11128TIP3   OH233340   1.329   7.771   0.365
11128TIP3    H133341   1.301   7.697   0.312
11128TIP3    H233342   1.291   7.847   0.321
11129TIP3   OH233343   7.569   1.462   1.434
11129TIP3    H133344   7.632   1.409   1.482
11129TIP3    H233345   7.538   1.404   1.364
11130TIP3   OH233346   3.256   1.060   1.520
11130TIP3    H133347   3.244   1.070   1.426
11130TIP3    H233348   3.309   1.136   1.546
11131TIP3   OH233349   4.704   0.751   0.052
11131TIP3    H133350   4.683   0.732  -0.040
11131TIP3    H233351   4.665   0.837   0.068
11132TIP3   OH233352   6.739   3.299   1.842
11132TIP3    H133353   6.723   3.321   1.934
11132TIP3    H233354   6.654   3.312   1.799
11133TIP3   OH233355   1.316   3.993   0.044
11133TIP3    H133356   1.241   4.044   0.075
11133TIP3    H233357   1.352   4.046  -0.027
11134TIP3   OH233358   0.493   3.467   1.798
11134TIP3    H133359   0.585   3.441   1.800
11134TIP3    H233360   0.454   3.412   1.730
11135TIP3   OH233361   2.623   2.545   1.169
11135TIP3    H133362   2.659   2.625   1.132
11135TIP3    H233363   2.694   2.481   1.163
11136TIP3   OH233364   3.999   5.556   0.432
11136TIP3    H133365   4.026   5.639   0.472
11136TIP3    H233366   3.906   5.568   0.413
11137TIP3   OH233367   0.083   2.822   4.515
11137TIP3    H133368   0.032   2.762   4.570
11137TIP3    H233369   0.040   2.907   4.527
11138TIP3   OH233370   3.402   3.430   1.722
11138TIP3    H133371   3.425   3.498   1.659
11138TIP3    H233372   3.339   3.374   1.676
11139TIP3   OH233373   7.022   7.627   5.575
11139TIP3    H133374   7.107   7.583   5.574
11139TIP3    H233375   6.963   7.565   5.616
11140TIP3   OH233376   2.041   5.837   4.303
11140TIP3    H133377   2.131   5.841   4.335
11140TIP3    H233378   2.003   5.762   4.349
11141TIP3   OH233379   4.244   7.356   0.881
11141TIP3    H133380   4.270   7.289   0.944
11141TIP3    H233381   4.149   7.361   0.889
11142TIP3   OH233382   7.209   1.154   3.871
11142TIP3    H133383   7.261   1.145   3.792
11142TIP3    H233384   7.267   1.125   3.942
11143TIP3   OH233385   6.401   3.563   5.955
11143TIP3    H133386   6.476   3.608   5.917
11143TIP3    H233387   6.439   3.492   6.007
11144TIP3   OH233388   1.685   5.911   0.491
11144TIP3    H133389   1.641   5.868   0.417
11144TIP3    H233390   1.614   5.933   0.551
11145TIP3   OH233391   1.676   5.888   6.449
11145TIP3    H133392   1.619   5.835   6.504
11145TIP3    H233393   1.739   5.927   6.510
11146TIP3   OH233394   4.390   0.153   0.491
11146TIP3    H133395   4.463   0.174   0.433
11146TIP3    H233396   4.362   0.066   0.464
11147TIP3   OH233397   3.676   4.056   5.612
11147TIP3    H133398   3.646   4.144   5.591
11147TIP3    H233399   3.605   4.018   5.664
11148TIP3   OH233400   3.857   6.194   2.764
11148TIP3    H133401   3.854   6.279   2.808
11148TIP3    H233402   3.950   6.179   2.747
11149TIP3   OH233403   3.964   2.191   0.013
11149TIP3    H133404   3.978   2.285   0.021
11149TIP3    H233405   4.052   2.154   0.013
11150TIP3   OH233406   2.734   6.419   6.391
11150TIP3    H133407   2.703   6.340   6.348
11150TIP3    H233408   2.735   6.485   6.322
11151TIP3   OH233409   3.884   3.357   3.069
11151TIP3    H133410   3.839   3.431   3.029
11151TIP3    H233411   3.870   3.285   3.007
11152TIP3   OH233412   5.478   5.523   0.271
11152TIP3    H133413   5.532   5.602   0.275
11152TIP3    H233414   5.453   5.515   0.179
11153TIP3   OH233415   3.343   4.196   1.429
11153TIP3    H133416   3.432   4.174   1.458
11153TIP3    H233417   3.295   4.114   1.434
11154TIP3   OH233418   2.087   5.333   6.003
11154TIP3    H133419   2.160   5.279   5.972
11154TIP3    H233420   2.098   5.416   5.957
11155TIP3   OH233421   2.084   0.312   4.555
11155TIP3    H133422   2.049   0.274   4.636
11155TIP3    H233423   2.009   0.313   4.495
11156TIP3   OH233424   5.977   7.732   2.510
11156TIP3    H133425   5.893   7.755   2.471
11156TIP3    H233426   5.996   7.644   2.477
11157TIP3   OH233427   0.750   2.366   0.971
11157TIP3    H133428   0.678   2.423   0.944
11157TIP3    H233429   0.765   2.309   0.896
11158TIP3   OH233430   4.083   4.689   3.122
11158TIP3    H133431   4.097   4.728   3.036
11158TIP3    H233432   4.088   4.594   3.107
11159TIP3   OH233433   6.137   7.511   6.326
11159TIP3    H133434   6.198   7.442   6.353
11159TIP3    H233435   6.063   7.464   6.287
11160TIP3   OH233436   6.992   2.584   6.441
11160TIP3    H133437   6.934   2.562   6.514
11160TIP3    H233438   6.944   2.555   6.363
11161TIP3   OH233439   6.911   5.089   0.683
11161TIP3    H133440   6.895   5.058   0.594
11161TIP3    H233441   6.827   5.076   0.728
11162TIP3   OH233442   0.692   0.897   5.372
11162TIP3    H133443   0.649   0.822   5.413
11162TIP3    H233444   0.623   0.963   5.364
11163TIP3   OH233445   1.229   1.001   1.228
11163TIP3    H133446   1.289   0.927   1.229
11163TIP3    H233447   1.234   1.038   1.316
11164TIP3   OH233448   5.893   5.826   1.200
11164TIP3    H133449   5.855   5.867   1.277
11164TIP3    H233450   5.976   5.872   1.186
11165TIP3   OH233451   6.141   5.990   0.655
11165TIP3    H133452   6.113   5.987   0.746
11165TIP3    H233453   6.233   6.018   0.659
11166TIP3   OH233454   0.657   6.143   6.143
11166TIP3    H133455   0.584   6.084   6.161
11166TIP3    H233456   0.731   6.106   6.190
11167TIP3   OH233457   6.570   2.353   1.352
11167TIP3    H133458   6.516   2.320   1.281
11167TIP3    H233459   6.543   2.303   1.429
11168TIP3   OH233460   6.660   7.743   5.558
11168TIP3    H133461   6.744   7.761   5.515
11168TIP3    H233462   6.609   7.697   5.492
11169TIP3   OH233463   4.335   4.803   3.735
11169TIP3    H133464   4.359   4.738   3.668
11169TIP3    H233465   4.268   4.857   3.693
11170TIP3   OH233466   3.979   6.300   5.877
11170TIP3    H133467   3.967   6.359   5.802
11170TIP3    H233468   4.068   6.266   5.866
11171TIP3   OH233469   1.134   5.741   1.197
11171TIP3    H133470   1.146   5.646   1.202
11171TIP3    H233471   1.222   5.777   1.209
11172TIP3   OH233472   8.047   7.175   4.296
11172TIP3    H133473   8.046   7.110   4.225
11172TIP3    H233474   8.140   7.189   4.314
11173TIP3   OH233475   5.174   6.610   4.245
11173TIP3    H133476   5.110   6.557   4.293
11173TIP3    H233477   5.258   6.590   4.287
11174TIP3   OH233478   0.364   7.554   5.136
11174TIP3    H133479   0.441   7.498   5.126
11174TIP3    H233480   0.308   7.533   5.061
11175TIP3   OH233481   5.718   7.438   1.777
11175TIP3    H133482   5.695   7.530   1.791
11175TIP3    H233483   5.792   7.422   1.836
11176TIP3   OH233484   0.345   1.849   3.946
11176TIP3    H133485   0.274   1.909   3.924
11176TIP3    H233486   0.323   1.768   3.900
11177TIP3   OH233487   6.030   3.522   0.386
11177TIP3    H133488   6.018   3.487   0.474
11177TIP3    H233489   5.956   3.488   0.336
11178TIP3   OH233490   3.849   5.448   1.721
11178TIP3    H133491   3.837   5.356   1.695
11178TIP3    H233492   3.914   5.482   1.660
11179TIP3   OH233493   5.439   6.046   4.824
11179TIP3    H133494   5.523   6.012   4.793
11179TIP3    H233495   5.383   5.969   4.832
11180TIP3   OH233496   5.401   1.199   0.633
11180TIP3    H133497   5.397   1.286   0.594
11180TIP3    H233498   5.476   1.157   0.590
11181TIP3   OH233499   4.694   3.593   2.189
11181TIP3    H133500   4.750   3.670   2.199
11181TIP3    H233501   4.684   3.559   2.278
11182TIP3   OH233502   0.528   5.278   5.995
11182TIP3    H133503   0.490   5.363   5.975
11182TIP3    H233504   0.620   5.296   6.012
11183TIP3   OH233505   4.868   1.483   4.676
11183TIP3    H133506   4.824   1.521   4.600
11183TIP3    H233507   4.844   1.540   4.749
11184TIP3   OH233508   6.957   4.249   6.177
11184TIP3    H133509   6.954   4.154   6.165
11184TIP3    H233510   6.884   4.283   6.125
11185TIP3   OH233511   3.120   5.175   2.340
11185TIP3    H133512   3.063   5.099   2.331
11185TIP3    H233513   3.091   5.235   2.271
11186TIP3   OH233514   3.002   7.683   4.039
11186TIP3    H133515   2.951   7.706   3.961
11186TIP3    H233516   2.970   7.596   4.064
11187TIP3   OH233517   1.473   6.549   4.502
11187TIP3    H133518   1.524   6.468   4.509
11187TIP3    H233519   1.508   6.593   4.425
11188TIP3   OH233520   5.666   0.229   5.415
11188TIP3    H133521   5.705   0.225   5.502
11188TIP3    H233522   5.583   0.275   5.427
11189TIP3   OH233523   3.308   1.104   4.382
11189TIP3    H133524   3.368   1.175   4.408
11189TIP3    H233525   3.222   1.136   4.408
11190TIP3   OH233526   3.839   0.637   3.444
11190TIP3    H133527   3.875   0.690   3.372
11190TIP3    H233528   3.783   0.698   3.492
11191TIP3   OH233529   7.542   3.503   1.939
11191TIP3    H133530   7.535   3.591   1.976
11191TIP3    H233531   7.522   3.514   1.846
11192TIP3   OH233532   4.752   3.015   4.490
11192TIP3    H133533   4.775   2.956   4.418
11192TIP3    H233534   4.837   3.042   4.527
11193TIP3   OH233535   3.792   5.632   5.502
11193TIP3    H133536   3.733   5.557   5.506
11193TIP3    H233537   3.736   5.705   5.475
11194TIP3   OH233538   3.551   1.051   1.803
11194TIP3    H133539   3.588   0.963   1.800
11194TIP3    H233540   3.522   1.062   1.894
11195TIP3   OH233541   1.581   6.877   4.690
11195TIP3    H133542   1.640   6.809   4.723
11195TIP3    H233543   1.505   6.872   4.748
11196TIP3   OH233544   2.173   4.014   0.045
11196TIP3    H133545   2.186   3.926   0.079
11196TIP3    H233546   2.087   4.040   0.079
11197TIP3   OH233547   6.849   1.439   2.872
11197TIP3    H133548   6.858   1.411   2.781
11197TIP3    H233549   6.768   1.398   2.902
11198TIP3   OH233550   1.729   4.512   3.270
11198TIP3    H133551   1.779   4.538   3.193
11198TIP3    H233552   1.788   4.454   3.319
11199TIP3   OH233553   4.029   2.115   1.264
11199TIP3    H133554   4.104   2.056   1.270
11199TIP3    H233555   4.006   2.115   1.171
11200TIP3   OH233556   7.477   5.059   0.514
11200TIP3    H133557   7.540   5.046   0.443
11200TIP3    H233558   7.392   5.057   0.471
11201TIP3   OH233559   1.163   3.754   6.389
11201TIP3    H133560   1.090   3.774   6.330
11201TIP3    H233561   1.229   3.713   6.333
11202TIP3   OH233562   0.131   4.656   5.846
11202TIP3    H133563   0.037   4.639   5.837
11202TIP3    H233564   0.160   4.598   5.916
11203TIP3   OH233565   4.218   7.574   5.547
11203TIP3    H133566   4.186   7.492   5.584
11203TIP3    H233567   4.141   7.632   5.548
11204TIP3   OH233568   4.779   7.003   3.495
11204TIP3    H133569   4.804   6.984   3.404
11204TIP3    H233570   4.810   7.092   3.510
11205TIP3   OH233571   2.843   2.125   1.863
11205TIP3    H133572   2.919   2.133   1.921
11205TIP3    H233573   2.801   2.043   1.890
11206TIP3   OH233574   0.656   3.291   2.199
11206TIP3    H133575   0.590   3.356   2.172
11206TIP3    H233576   0.678   3.315   2.289
11207TIP3   OH233577   2.755   5.305   1.463
11207TIP3    H133578   2.775   5.342   1.549
11207TIP3    H233579   2.670   5.344   1.439
11208TIP3   OH233580   5.358   6.034   5.617
11208TIP3    H133581   5.320   6.122   5.621
11208TIP3    H233582   5.448   6.049   5.589
11209TIP3   OH233583   5.944   1.455   3.769
11209TIP3    H133584   5.955   1.550   3.776
11209TIP3    H233585   6.029   1.419   3.796
11210TIP3   OH233586   1.572   7.352   2.785
11210TIP3    H133587   1.607   7.433   2.746
11210TIP3    H233588   1.576   7.367   2.879
11211TIP3   OH233589   0.360   6.872   6.697
11211TIP3    H133590   0.433   6.932   6.713
11211TIP3    H233591   0.281   6.924   6.717
11212TIP3   OH233592   0.275   3.116   3.498
11212TIP3    H133593   0.356   3.125   3.449
11212TIP3    H233594   0.271   3.194   3.553
11213TIP3   OH233595   2.240   3.613   2.419
11213TIP3    H133596   2.272   3.611   2.509
11213TIP3    H233597   2.152   3.575   2.424
11214TIP3   OH233598   2.616   3.546   1.147
11214TIP3    H133599   2.530   3.560   1.186
11214TIP3    H233600   2.636   3.454   1.164
11215TIP3   OH233601   0.639   0.965   4.525
11215TIP3    H133602   0.721   0.988   4.568
11215TIP3    H233603   0.573   0.969   4.595
11216TIP3   OH233604   0.934   3.088   6.056
11216TIP3    H133605   0.977   3.139   5.987
11216TIP3    H233606   0.896   3.153   6.114
11217TIP3   OH233607   1.959   1.049   3.202
11217TIP3    H133608   1.864   1.041   3.199
11217TIP3    H233609   1.976   1.095   3.284
11218TIP3   OH233610   6.817   5.491   1.042
11218TIP3    H133611   6.785   5.577   1.014
11218TIP3    H233612   6.884   5.511   1.107
11219TIP3   OH233613   4.524   7.272   3.165
11219TIP3    H133614   4.532   7.352   3.114
11219TIP3    H233615   4.489   7.302   3.250
11220TIP3   OH233616   2.847   1.841   1.488
11220TIP3    H133617   2.833   1.766   1.546
11220TIP3    H233618   2.767   1.893   1.496
11221TIP3   OH233619   6.324   7.037   1.319
11221TIP3    H133620   6.357   7.014   1.232
11221TIP3    H233621   6.249   6.979   1.332
11222TIP3   OH233622   6.364   0.626   0.724
11222TIP3    H133623   6.330   0.547   0.765
11222TIP3    H233624   6.457   0.627   0.746
11223TIP3   OH233625   6.619   4.346   2.568
11223TIP3    H133626   6.537   4.395   2.574
11223TIP3    H233627   6.626   4.323   2.475
11224TIP3   OH233628   2.003   1.263   2.127
11224TIP3    H133629   2.007   1.318   2.048
11224TIP3    H233630   2.055   1.186   2.104
11225TIP3   OH233631   0.851   7.547   1.539
11225TIP3    H133632   0.933   7.508   1.507
11225TIP3    H233633   0.869   7.567   1.631
11226TIP3   OH233634   0.099   4.041   3.443
11226TIP3    H133635   0.091   4.115   3.382
11226TIP3    H233636   0.085   4.080   3.529
11227TIP3   OH233637   2.098   3.014   0.301
11227TIP3    H133638   2.074   2.928   0.265
11227TIP3    H233639   2.162   3.049   0.238
11228TIP3   OH233640   6.801   2.490   1.590
11228TIP3    H133641   6.794   2.415   1.649
11228TIP3    H233642   6.742   2.467   1.517
11229TIP3   OH233643   0.136   2.333   4.145
11229TIP3    H133644   0.100   2.347   4.232
11229TIP3    H233645   0.066   2.288   4.097
11230TIP3   OH233646   1.975   4.470   2.068
11230TIP3    H133647   1.958   4.494   2.159
11230TIP3    H233648   2.008   4.551   2.028
11231TIP3   OH233649   2.157   6.902   5.516
11231TIP3    H133650   2.114   6.952   5.585
11231TIP3    H233651   2.143   6.953   5.437
11232TIP3   OH233652   0.636   6.894   6.465
11232TIP3    H133653   0.626   6.801   6.488
11232TIP3    H233654   0.548   6.920   6.436
11233TIP3   OH233655   3.987   7.000   0.736
11233TIP3    H133656   3.960   6.909   0.722
11233TIP3    H233657   4.044   6.997   0.813
11234TIP3   OH233658   6.255   5.623   2.066
11234TIP3    H133659   6.182   5.615   2.006
11234TIP3    H233660   6.227   5.689   2.129
11235TIP3   OH233661   1.023   2.913   1.287
11235TIP3    H133662   1.073   2.867   1.354
11235TIP3    H233663   1.048   2.871   1.205
11236TIP3   OH233664   5.818   7.180   5.179
11236TIP3    H133665   5.741   7.139   5.219
11236TIP3    H233666   5.805   7.274   5.193
11237TIP3   OH233667   4.462   0.399   4.484
11237TIP3    H133668   4.490   0.470   4.542
11237TIP3    H233669   4.400   0.349   4.537
11238TIP3   OH233670   2.110   6.562   2.160
11238TIP3    H133671   2.161   6.507   2.220
11238TIP3    H233672   2.144   6.539   2.074
11239TIP3   OH233673   6.700   2.585   0.193
11239TIP3    H133674   6.704   2.615   0.283
11239TIP3    H233675   6.714   2.490   0.199
11240TIP3   OH233676   1.900   1.946   3.370
11240TIP3    H133677   1.815   1.976   3.339
11240TIP3    H233678   1.909   1.985   3.457
11241TIP3   OH233679   0.269   5.476   2.454
11241TIP3    H133680   0.240   5.394   2.494
11241TIP3    H233681   0.282   5.536   2.528
11242TIP3   OH233682   3.946   7.746   5.634
11242TIP3    H133683   3.904   7.734   5.719
11242TIP3    H233684   3.989   7.831   5.640
11243TIP3   OH233685   2.023   2.777   1.976
11243TIP3    H133686   2.020   2.694   1.929
11243TIP3    H233687   1.934   2.812   1.969
11244TIP3   OH233688   2.215   4.327   0.589
11244TIP3    H133689   2.270   4.381   0.532
11244TIP3    H233690   2.268   4.249   0.606
11245TIP3   OH233691   4.649   2.304   2.894
11245TIP3    H133692   4.742   2.286   2.880
11245TIP3    H233693   4.626   2.366   2.825
11246TIP3   OH233694   4.561   1.272   6.264
11246TIP3    H133695   4.557   1.366   6.276
11246TIP3    H233696   4.503   1.254   6.190
11247TIP3   OH233697   2.753   7.154   1.560
11247TIP3    H133698   2.797   7.165   1.643
11247TIP3    H233699   2.816   7.108   1.505
11248TIP3   OH233700   7.882   7.622   6.647
11248TIP3    H133701   7.890   7.536   6.605
11248TIP3    H233702   7.792   7.649   6.630
11249TIP3   OH233703   5.220   3.414   3.627
11249TIP3    H133704   5.289   3.359   3.592
11249TIP3    H233705   5.183   3.458   3.550
11250TIP3   OH233706   5.806   6.125   6.257
11250TIP3    H133707   5.896   6.102   6.235
11250TIP3    H233708   5.754   6.052   6.224
11251TIP3   OH233709   1.580   7.717   3.924
11251TIP3    H133710   1.511   7.709   3.858
11251TIP3    H233711   1.643   7.779   3.887
11252TIP3   OH233712   5.367   5.613   5.064
11252TIP3    H133713   5.406   5.558   4.996
11252TIP3    H233714   5.441   5.645   5.115
11253TIP3   OH233715   4.393   4.557   1.831
11253TIP3    H133716   4.306   4.522   1.853
11253TIP3    H233717   4.397   4.552   1.735
11254TIP3   OH233718   4.581   1.880   0.862
11254TIP3    H133719   4.520   1.909   0.929
11254TIP3    H233720   4.556   1.929   0.784
11255TIP3   OH233721   1.172   4.526   0.880
11255TIP3    H133722   1.176   4.573   0.963
11255TIP3    H233723   1.238   4.569   0.825
11256TIP3   OH233724   4.359   3.546   5.987
11256TIP3    H133725   4.285   3.510   5.939
11256TIP3    H233726   4.323   3.575   6.071
11257TIP3   OH233727   2.941   4.029   4.560
11257TIP3    H133728   2.979   4.072   4.484
11257TIP3    H233729   3.016   3.994   4.608
11258TIP3   OH233730   2.876   3.808   4.222
11258TIP3    H133731   2.881   3.745   4.150
11258TIP3    H233732   2.966   3.834   4.238
11259TIP3   OH233733   6.563   1.430   2.953
11259TIP3    H133734   6.481   1.386   2.931
11259TIP3    H233735   6.619   1.361   2.988
11260TIP3   OH233736   1.101   4.171   3.572
11260TIP3    H133737   1.109   4.266   3.582
11260TIP3    H233738   1.145   4.135   3.650
11261TIP3   OH233739   7.945   2.325   6.195
11261TIP3    H133740   7.984   2.405   6.159
11261TIP3    H233741   7.858   2.322   6.156
11262TIP3   OH233742   8.011   3.137   0.742
11262TIP3    H133743   7.942   3.139   0.808
11262TIP3    H233744   7.966   3.121   0.659
11263TIP3   OH233745   0.180   3.046   5.271
11263TIP3    H133746   0.149   3.038   5.181
11263TIP3    H233747   0.162   3.137   5.295
11264TIP3   OH233748   8.221   7.811   1.206
11264TIP3    H133749   8.315   7.823   1.193
11264TIP3    H233750   8.214   7.739   1.269
11265TIP3   OH233751   3.567   6.988   0.311
11265TIP3    H133752   3.615   7.023   0.236
11265TIP3    H233753   3.511   7.061   0.339
11266TIP3   OH233754   5.298   0.961   0.100
11266TIP3    H133755   5.329   1.006   0.178
11266TIP3    H233756   5.234   0.897   0.133
11267TIP3   OH233757   1.381   2.571   6.409
11267TIP3    H133758   1.320   2.644   6.413
11267TIP3    H233759   1.459   2.607   6.367
11268TIP3   OH233760   2.412   1.920   6.015
11268TIP3    H133761   2.427   1.935   6.108
11268TIP3    H233762   2.481   1.971   5.971
11269TIP3   OH233763   6.943   2.981   0.421
11269TIP3    H133764   6.997   2.936   0.355
11269TIP3    H233765   6.963   3.074   0.408
11270TIP3   OH233766   3.331   5.383   3.686
11270TIP3    H133767   3.355   5.337   3.605
11270TIP3    H233768   3.249   5.427   3.665
11271TIP3   OH233769   4.229   1.056   3.408
11271TIP3    H133770   4.238   0.994   3.336
11271TIP3    H233771   4.145   1.098   3.393
11272TIP3   OH233772   6.789   2.362   4.323
11272TIP3    H133773   6.715   2.402   4.278
11272TIP3    H233774   6.805   2.419   4.399
11273TIP3   OH233775   5.319   2.218   5.175
11273TIP3    H133776   5.375   2.283   5.133
11273TIP3    H233777   5.344   2.135   5.135
11274TIP3   OH233778   6.219   5.082   3.966
11274TIP3    H133779   6.285   5.124   3.910
11274TIP3    H233780   6.269   5.048   4.040
11275TIP3   OH233781   7.387   4.947   1.975
11275TIP3    H133782   7.407   5.015   2.039
11275TIP3    H233783   7.458   4.952   1.911
11276TIP3   OH233784   3.087   3.491   2.201
11276TIP3    H133785   3.131   3.541   2.270
11276TIP3    H233786   3.080   3.552   2.128
11277TIP3   OH233787   2.917  -0.004   1.869
11277TIP3    H133788   2.857   0.068   1.888
11277TIP3    H233789   2.945   0.011   1.779
11278TIP3   OH233790   0.941   2.119   1.871
11278TIP3    H133791   1.020   2.074   1.899
11278TIP3    H233792   0.957   2.142   1.780
11279TIP3   OH233793   4.229   0.110   4.074
11279TIP3    H133794   4.237   0.134   4.167
11279TIP3    H233795   4.268   0.022   4.069
11280TIP3   OH233796   7.693   5.122   5.148
11280TIP3    H133797   7.645   5.187   5.096
11280TIP3    H233798   7.743   5.072   5.084
11281TIP3   OH233799   7.290   4.543   0.605
11281TIP3    H133800   7.372   4.584   0.577
11281TIP3    H233801   7.246   4.518   0.523
11282TIP3   OH233802   2.264   4.668   4.301
11282TIP3    H133803   2.343   4.659   4.247
11282TIP3    H233804   2.283   4.743   4.358
11283TIP3   OH233805   5.381   4.385   4.020
11283TIP3    H133806   5.340   4.299   4.009
11283TIP3    H233807   5.475   4.367   4.015
11284TIP3   OH233808   3.935   3.249   2.445
11284TIP3    H133809   4.017   3.240   2.492
11284TIP3    H233810   3.901   3.160   2.436
11285TIP3   OH233811   5.780   2.787   0.126
11285TIP3    H133812   5.820   2.859   0.077
11285TIP3    H233813   5.845   2.765   0.193
11286TIP3   OH233814   1.285   7.198   3.184
11286TIP3    H133815   1.194   7.169   3.177
11286TIP3    H233816   1.288   7.248   3.265
11287TIP3   OH233817   5.287   1.319   5.970
11287TIP3    H133818   5.228   1.380   6.014
11287TIP3    H233819   5.282   1.239   6.021
11288TIP3   OH233820   6.472   6.956   5.003
11288TIP3    H133821   6.528   7.032   4.992
11288TIP3    H233822   6.399   6.987   5.057
11289TIP3   OH233823   1.310   4.420   3.040
11289TIP3    H133824   1.345   4.479   2.974
11289TIP3    H233825   1.366   4.433   3.117
11290TIP3   OH233826   0.440   0.073   2.768
11290TIP3    H133827   0.360   0.025   2.746
11290TIP3    H233828   0.480   0.093   2.683
11291TIP3   OH233829   3.785   4.316   2.889
11291TIP3    H133830   3.844   4.386   2.861
11291TIP3    H233831   3.703   4.334   2.844
11292TIP3   OH233832   3.904   2.079   3.317
11292TIP3    H133833   3.990   2.051   3.349
11292TIP3    H233834   3.912   2.075   3.221
11293TIP3   OH233835   8.001   0.039   4.859
11293TIP3    H133836   8.090   0.073   4.870
11293TIP3    H233837   8.012  -0.056   4.851
11294TIP3   OH233838   5.074   1.763   4.813
11294TIP3    H133839   4.998   1.797   4.860
11294TIP3    H233840   5.144   1.759   4.879
11295TIP3   OH233841   4.657   3.647   6.433
11295TIP3    H133842   4.695   3.713   6.376
11295TIP3    H233843   4.707   3.654   6.514
11296TIP3   OH233844   1.168   6.426   6.094
11296TIP3    H133845   1.179   6.408   6.188
11296TIP3    H233846   1.124   6.348   6.060
11297TIP3   OH233847   7.835   1.420   5.483
11297TIP3    H133848   7.762   1.480   5.468
11297TIP3    H233849   7.834   1.404   5.577
11298TIP3   OH233850   2.993   2.160   0.155
11298TIP3    H133851   3.037   2.102   0.092
11298TIP3    H233852   3.003   2.114   0.239
11299TIP3   OH233853   4.175   5.762   2.648
11299TIP3    H133854   4.254   5.711   2.668
11299TIP3    H233855   4.114   5.698   2.613
11300TIP3   OH233856   8.129   7.674   0.294
11300TIP3    H133857   8.172   7.702   0.213
11300TIP3    H233858   8.040   7.654   0.268
11301TIP3   OH233859   4.881   7.735   5.669
11301TIP3    H133860   4.904   7.677   5.741
11301TIP3    H233861   4.909   7.822   5.698
11302TIP3   OH233862   5.826   5.753   3.364
11302TIP3    H133863   5.762   5.797   3.308
11302TIP3    H233864   5.822   5.661   3.338
11303TIP3   OH233865   4.445   2.241   1.045
11303TIP3    H133866   4.365   2.207   1.006
11303TIP3    H233867   4.469   2.176   1.111
11304TIP3   OH233868   1.958   5.584   0.602
11304TIP3    H133869   2.016   5.615   0.671
11304TIP3    H233870   1.940   5.661   0.549
11305TIP3   OH233871   7.969   5.409   1.260
11305TIP3    H133872   8.004   5.450   1.180
11305TIP3    H233873   7.884   5.450   1.272
11306TIP3   OH233874   4.546   7.260   6.225
11306TIP3    H133875   4.583   7.272   6.312
11306TIP3    H233876   4.622   7.259   6.166
11307TIP3   OH233877   3.152   1.801   5.235
11307TIP3    H133878   3.168   1.775   5.326
11307TIP3    H233879   3.106   1.727   5.197
11308TIP3   OH233880   3.672   7.356   5.385
11308TIP3    H133881   3.622   7.341   5.305
11308TIP3    H233882   3.615   7.412   5.439
11309TIP3   OH233883   1.577   2.587   1.880
11309TIP3    H133884   1.515   2.635   1.935
11309TIP3    H233885   1.607   2.515   1.935
11310TIP3   OH233886   3.009   5.709   5.346
11310TIP3    H133887   3.072   5.770   5.383
11310TIP3    H233888   2.924   5.740   5.376
11311TIP3   OH233889   4.567   2.281   0.804
11311TIP3    H133890   4.525   2.282   0.890
11311TIP3    H233891   4.496   2.294   0.742
11312TIP3   OH233892   4.480   3.227   4.842
11312TIP3    H133893   4.526   3.149   4.873
11312TIP3    H233894   4.487   3.222   4.747
11313TIP3   OH233895   2.206   2.192   5.359
11313TIP3    H133896   2.131   2.252   5.366
11313TIP3    H233897   2.170   2.107   5.386
11314TIP3   OH233898   1.435   6.762   5.645
11314TIP3    H133899   1.420   6.691   5.707
11314TIP3    H233900   1.528   6.758   5.626
11315TIP3   OH233901   7.980   1.618   5.027
11315TIP3    H133902   7.943   1.704   5.045
11315TIP3    H233903   7.949   1.562   5.098
11316TIP3   OH233904   1.662   0.057   2.317
11316TIP3    H133905   1.604   0.107   2.374
11316TIP3    H233906   1.616   0.054   2.233
11317TIP3   OH233907   6.842   2.272   5.337
11317TIP3    H133908   6.883   2.241   5.256
11317TIP3    H233909   6.751   2.288   5.313
11318TIP3   OH233910   7.077   0.931   6.347
11318TIP3    H133911   6.994   0.897   6.314
11318TIP3    H233912   7.140   0.861   6.329
11319TIP3   OH233913   6.809   4.058   5.040
11319TIP3    H133914   6.767   3.973   5.028
11319TIP3    H233915   6.785   4.108   4.962
11320TIP3   OH233916   3.568   5.723   0.713
11320TIP3    H133917   3.505   5.664   0.673
11320TIP3    H233918   3.645   5.718   0.656
11321TIP3   OH233919   7.183   6.962   6.780
11321TIP3    H133920   7.187   6.967   6.684
11321TIP3    H233921   7.266   6.922   6.806
11322TIP3   OH233922   7.429   3.467   0.306
11322TIP3    H133923   7.408   3.559   0.289
11322TIP3    H233924   7.500   3.470   0.369
11323TIP3   OH233925   0.644   1.072   2.971
11323TIP3    H133926   0.695   1.062   3.051
11323TIP3    H233927   0.707   1.106   2.907
11324TIP3   OH233928   4.554   1.749   4.133
11324TIP3    H133929   4.604   1.756   4.052
11324TIP3    H233930   4.602   1.804   4.195
11325TIP3   OH233931   8.224   2.233   2.765
11325TIP3    H133932   8.295   2.187   2.721
11325TIP3    H233933   8.214   2.315   2.717
11326TIP3   OH233934   1.742   2.355   2.360
11326TIP3    H133935   1.776   2.270   2.334
11326TIP3    H233936   1.663   2.335   2.409
11327TIP3   OH233937   3.002   1.717   1.278
11327TIP3    H133938   3.063   1.779   1.237
11327TIP3    H233939   2.966   1.765   1.352
11328TIP3   OH233940   5.817   3.351   0.304
11328TIP3    H133941   5.795   3.282   0.367
11328TIP3    H233942   5.899   3.322   0.265
11329TIP3   OH233943   5.286   6.936   2.004
11329TIP3    H133944   5.329   6.966   1.924
11329TIP3    H233945   5.223   7.005   2.024
11330TIP3   OH233946   7.957   4.177   0.824
11330TIP3    H133947   8.008   4.241   0.775
11330TIP3    H233948   8.003   4.094   0.809
11331TIP3   OH233949   3.878   2.470   1.886
11331TIP3    H133950   3.942   2.536   1.862
11331TIP3    H233951   3.819   2.515   1.947
11332TIP3   OH233952   6.049   0.076   0.412
11332TIP3    H133953   6.061   0.087   0.507
11332TIP3    H233954   6.038   0.166   0.379
11333TIP3   OH233955   1.729   1.173   1.608
11333TIP3    H133956   1.824   1.164   1.615
11333TIP3    H233957   1.713   1.268   1.609
11334TIP3   OH233958   3.097   1.424   3.815
11334TIP3    H133959   3.191   1.416   3.833
11334TIP3    H233960   3.091   1.500   3.757
11335TIP3   OH233961   6.421   7.702   0.547
11335TIP3    H133962   6.343   7.736   0.502
11335TIP3    H233963   6.386   7.641   0.612
11336TIP3   OH233964   1.787   3.588   2.277
11336TIP3    H133965   1.779   3.598   2.182
11336TIP3    H233966   1.696   3.585   2.309
11337TIP3   OH233967   3.104   1.840   5.862
11337TIP3    H133968   3.171   1.821   5.797
11337TIP3    H233969   3.062   1.756   5.880
11338TIP3   OH233970   3.910   6.457   5.672
11338TIP3    H133971   3.883   6.548   5.665
11338TIP3    H233972   3.849   6.410   5.615
11339TIP3   OH233973   0.364   5.921   3.740
11339TIP3    H133974   0.323   5.907   3.655
11339TIP3    H233975   0.291   5.941   3.799
11340TIP3   OH233976   7.428   2.385   1.927
11340TIP3    H133977   7.441   2.434   2.008
11340TIP3    H233978   7.511   2.393   1.880
11341TIP3   OH233979   4.243   3.108   4.311
11341TIP3    H133980   4.287   3.151   4.238
11341TIP3    H233981   4.213   3.024   4.275
11342TIP3   OH233982   0.271   6.556   3.650
11342TIP3    H133983   0.189   6.597   3.680
11342TIP3    H233984   0.243   6.472   3.613
11343TIP3   OH233985   2.921   0.365   1.254
11343TIP3    H133986   2.951   0.406   1.335
11343TIP3    H233987   2.896   0.438   1.198
11344TIP3   OH233988   3.590   3.499   3.765
11344TIP3    H133989   3.624   3.418   3.728
11344TIP3    H233990   3.510   3.517   3.716
11345TIP3   OH233991   7.952   2.074   4.092
11345TIP3    H133992   7.924   2.156   4.051
11345TIP3    H233993   7.970   2.016   4.019
11346TIP3   OH233994   7.687   4.613   5.306
11346TIP3    H133995   7.659   4.574   5.223
11346TIP3    H233996   7.656   4.704   5.302
11347TIP3   OH233997   4.598   5.276   0.610
11347TIP3    H133998   4.614   5.197   0.661
11347TIP3    H233999   4.685   5.311   0.592
11348TIP3   OH234000   2.340   2.154   5.754
11348TIP3    H134001   2.333   2.240   5.712
11348TIP3    H234002   2.302   2.167   5.841
11349TIP3   OH234003   5.162   2.553   5.062
11349TIP3    H134004   5.068   2.545   5.047
11349TIP3    H234005   5.168   2.586   5.152
11350TIP3   OH234006   6.667   4.769   2.399
11350TIP3    H134007   6.725   4.779   2.324
11350TIP3    H234008   6.719   4.720   2.463
11351TIP3   OH234009   3.099   6.657   3.803
11351TIP3    H134010   3.061   6.675   3.889
11351TIP3    H234011   3.080   6.736   3.752
11352TIP3   OH234012   8.023   0.308   3.225
11352TIP3    H134013   7.948   0.305   3.166
11352TIP3    H234014   8.063   0.393   3.208
11353TIP3   OH234015   6.879   2.745   3.609
11353TIP3    H134016   6.892   2.783   3.696
11353TIP3    H234017   6.933   2.666   3.609
11354TIP3   OH234018   0.409   7.543   4.018
11354TIP3    H134019   0.326   7.577   3.987
11354TIP3    H234020   0.401   7.541   4.113
11355TIP3   OH234021   3.306   6.700   2.489
11355TIP3    H134022   3.366   6.736   2.554
11355TIP3    H234023   3.243   6.649   2.540
11356TIP3   OH234024   8.138   3.209   2.028
11356TIP3    H134025   8.214   3.233   2.081
11356TIP3    H234026   8.165   3.230   1.938
11357TIP3   OH234027   6.509   5.544   1.988
11357TIP3    H134028   6.495   5.479   1.920
11357TIP3    H234029   6.422   5.581   2.004
11358TIP3   OH234030   0.431   5.252   4.532
11358TIP3    H134031   0.462   5.261   4.442
11358TIP3    H234032   0.472   5.324   4.579
11359TIP3   OH234033   4.473   6.287   0.201
11359TIP3    H134034   4.529   6.255   0.271
11359TIP3    H234035   4.397   6.228   0.202
11360TIP3   OH234036   7.570   5.865   1.301
11360TIP3    H134037   7.546   5.808   1.228
11360TIP3    H234038   7.494   5.921   1.314
11361TIP3   OH234039   3.992   0.483   1.084
11361TIP3    H134040   4.017   0.391   1.078
11361TIP3    H234041   3.919   0.492   1.023
11362TIP3   OH234042   1.331   2.377   4.484
11362TIP3    H134043   1.357   2.437   4.554
11362TIP3    H234044   1.252   2.335   4.518
11363TIP3   OH234045   3.058   4.486   6.392
11363TIP3    H134046   3.054   4.504   6.486
11363TIP3    H234047   3.063   4.572   6.351
11364TIP3   OH234048   0.386   4.122   6.003
11364TIP3    H134049   0.412   4.215   6.002
11364TIP3    H234050   0.389   4.096   5.911
11365TIP3   OH234051   0.911   0.268   4.770
11365TIP3    H134052   0.892   0.361   4.776
11365TIP3    H234053   1.002   0.260   4.799
11366TIP3   OH234054   7.029   2.965   5.257
11366TIP3    H134055   7.039   3.027   5.184
11366TIP3    H234056   7.109   2.976   5.308
11367TIP3   OH234057   8.254   6.734   3.500
11367TIP3    H134058   8.217   6.770   3.419
11367TIP3    H234059   8.328   6.792   3.520
11368TIP3   OH234060   5.325   1.531   4.278
11368TIP3    H134061   5.383   1.602   4.249
11368TIP3    H234062   5.318   1.543   4.373
11369TIP3   OH234063   4.252   4.525   1.125
11369TIP3    H134064   4.274   4.618   1.136
11369TIP3    H234065   4.189   4.507   1.195
11370TIP3   OH234066   1.291   3.217   5.810
11370TIP3    H134067   1.213   3.244   5.763
11370TIP3    H234068   1.262   3.208   5.901
11371TIP3   OH234069   3.969   5.718   3.975
11371TIP3    H134070   3.997   5.694   4.064
11371TIP3    H234071   3.914   5.644   3.947
11372TIP3   OH234072   6.162   4.910   5.229
11372TIP3    H134073   6.105   4.915   5.152
11372TIP3    H234074   6.248   4.889   5.193
11373TIP3   OH234075   4.656   7.455   5.356
11373TIP3    H134076   4.657   7.414   5.270
11373TIP3    H234077   4.564   7.476   5.372
11374TIP3   OH234078   1.609   0.543   2.481
11374TIP3    H134079   1.602   0.590   2.564
11374TIP3    H234080   1.684   0.583   2.437
11375TIP3   OH234081   3.754   1.233   5.912
11375TIP3    H134082   3.831   1.186   5.945
11375TIP3    H234083   3.703   1.253   5.991
11376TIP3   OH234084   4.126   4.922   0.128
11376TIP3    H134085   4.189   4.993   0.140
11376TIP3    H234086   4.169   4.846   0.167
11377TIP3   OH234087   3.964   3.978   2.342
11377TIP3    H134088   4.023   4.011   2.274
11377TIP3    H234089   3.880   3.967   2.298
11378TIP3   OH234090   8.207   6.822   1.521
11378TIP3    H134091   8.182   6.872   1.443
11378TIP3    H234092   8.292   6.784   1.499
11379TIP3   OH234093   4.708   6.804   0.902
11379TIP3    H134094   4.767   6.770   0.834
11379TIP3    H234095   4.705   6.735   0.968
11380TIP3   OH234096   6.997   6.690   1.116
11380TIP3    H134097   6.957   6.743   1.185
11380TIP3    H234098   7.089   6.717   1.116
11381TIP3   OH234099   4.412   7.031   6.665
11381TIP3    H134100   4.330   6.988   6.641
11381TIP3    H234101   4.433   6.997   6.752
11382TIP3   OH234102   2.049   3.492   4.757
11382TIP3    H134103   2.101   3.430   4.707
11382TIP3    H234104   2.089   3.492   4.844
11383TIP3   OH234105   2.498   5.151   4.816
11383TIP3    H134106   2.450   5.090   4.873
11383TIP3    H234107   2.430   5.191   4.762
11384TIP3   OH234108   1.965   6.279   5.235
11384TIP3    H134109   2.031   6.241   5.293
11384TIP3    H234110   1.908   6.206   5.211
11385TIP3   OH234111   4.877   0.216   2.450
11385TIP3    H134112   4.952   0.158   2.437
11385TIP3    H234113   4.807   0.159   2.481
11386TIP3   OH234114   5.455   7.230   2.171
11386TIP3    H134115   5.476   7.140   2.197
11386TIP3    H234116   5.439   7.224   2.077
11387TIP3   OH234117   1.788   2.228   3.543
11387TIP3    H134118   1.815   2.319   3.540
11387TIP3    H234119   1.714   2.226   3.604
11388TIP3   OH234120   4.588   2.842   6.361
11388TIP3    H134121   4.495   2.827   6.373
11388TIP3    H234122   4.594   2.928   6.318
11389TIP3   OH234123   5.436   1.053   3.108
11389TIP3    H134124   5.349   1.090   3.092
11389TIP3    H234125   5.485   1.125   3.147
11390TIP3   OH234126   1.802   0.388   0.310
11390TIP3    H134127   1.891   0.356   0.299
11390TIP3    H234128   1.811   0.480   0.332
11391TIP3   OH234129   1.300   0.923   3.945
11391TIP3    H134130   1.370   0.867   3.911
11391TIP3    H234131   1.235   0.924   3.874
11392TIP3   OH234132   7.690   0.019   1.188
11392TIP3    H134133   7.702   0.094   1.245
11392TIP3    H234134   7.610  -0.023   1.219
11393TIP3   OH234135   1.699   3.574   5.733
11393TIP3    H134136   1.722   3.598   5.643
11393TIP3    H234137   1.652   3.491   5.724
11394TIP3   OH234138   0.898   2.838   3.695
11394TIP3    H134139   0.930   2.873   3.778
11394TIP3    H234140   0.871   2.915   3.645
11395TIP3   OH234141   0.640   3.093   5.888
11395TIP3    H134142   0.585   3.081   5.811
11395TIP3    H234143   0.716   3.141   5.856
11396TIP3   OH234144   3.398   0.447   5.268
11396TIP3    H134145   3.392   0.496   5.186
11396TIP3    H234146   3.331   0.486   5.324
11397TIP3   OH234147   1.940   2.428   0.181
11397TIP3    H134148   1.908   2.422   0.091
11397TIP3    H234149   1.940   2.337   0.213
11398TIP3   OH234150   2.472   5.944   1.606
11398TIP3    H134151   2.449   5.996   1.529
11398TIP3    H234152   2.551   5.896   1.580
11399TIP3   OH234153   4.154   6.587   6.478
11399TIP3    H134154   4.096   6.517   6.447
11399TIP3    H234155   4.167   6.643   6.402
11400TIP3   OH234156   4.442   0.383   3.312
11400TIP3    H134157   4.433   0.434   3.232
11400TIP3    H234158   4.524   0.414   3.352
11401TIP3   OH234159   0.235   0.424   3.803
11401TIP3    H134160   0.187   0.423   3.720
11401TIP3    H234161   0.306   0.486   3.789
11402TIP3   OH234162   7.605   7.728   0.476
11402TIP3    H134163   7.613   7.715   0.570
11402TIP3    H234164   7.682   7.779   0.452
11403TIP3   OH234165   5.538   6.925   1.123
11403TIP3    H134166   5.453   6.966   1.141
11403TIP3    H234167   5.516   6.835   1.102
11404TIP3   OH234168   7.000   1.314   6.603
11404TIP3    H134169   7.003   1.291   6.510
11404TIP3    H234170   7.076   1.371   6.616
11405TIP3   OH234171   1.255   0.608   0.054
11405TIP3    H134172   1.216   0.545   0.114
11405TIP3    H234173   1.344   0.575   0.038
11406TIP3   OH234174   0.262   0.883   1.484
11406TIP3    H134175   0.315   0.943   1.536
11406TIP3    H234176   0.321   0.852   1.415
11407TIP3   OH234177   4.366   0.458   1.408
11407TIP3    H134178   4.361   0.466   1.503
11407TIP3    H234179   4.373   0.364   1.392
11408TIP3   OH234180   5.952   3.556   0.815
11408TIP3    H134181   5.989   3.643   0.831
11408TIP3    H234182   5.896   3.539   0.890
11409TIP3   OH234183   4.976   4.378   5.892
11409TIP3    H134184   4.920   4.454   5.876
11409TIP3    H234185   5.060   4.415   5.920
11410TIP3   OH234186   3.889   1.157   4.300
11410TIP3    H134187   3.865   1.139   4.209
11410TIP3    H234188   3.900   1.070   4.339
11411TIP3   OH234189   4.372   7.136   0.975
11411TIP3    H134190   4.443   7.090   1.021
11411TIP3    H234191   4.393   7.126   0.882
11412TIP3   OH234192   3.900   2.693   0.487
11412TIP3    H134193   3.819   2.739   0.465
11412TIP3    H234194   3.945   2.752   0.548
11413TIP3   OH234195   4.503   1.024   0.585
11413TIP3    H134196   4.431   1.031   0.522
11413TIP3    H234197   4.472   0.965   0.653
11414TIP3   OH234198   5.143   2.221   0.105
11414TIP3    H134199   5.206   2.167   0.153
11414TIP3    H234200   5.067   2.227   0.162
11415TIP3   OH234201   6.306   3.307   0.747
11415TIP3    H134202   6.366   3.380   0.731
11415TIP3    H234203   6.308   3.295   0.842
11416TIP3   OH234204   0.190   2.091   3.244
11416TIP3    H134205   0.124   2.076   3.176
11416TIP3    H234206   0.195   2.008   3.291
11417TIP3   OH234207   2.591   5.352   3.688
11417TIP3    H134208   2.635   5.311   3.763
11417TIP3    H234209   2.626   5.441   3.685
11418TIP3   OH234210   7.076   2.624   0.435
11418TIP3    H134211   7.165   2.646   0.408
11418TIP3    H234212   7.086   2.587   0.523
11419TIP3   OH234213   1.154   2.156   4.131
11419TIP3    H134214   1.086   2.101   4.171
11419TIP3    H234215   1.143   2.241   4.174
11420TIP3   OH234216   1.042   6.029   1.094
11420TIP3    H134217   0.977   5.966   1.061
11420TIP3    H234218   0.999   6.114   1.087
11421TIP3   OH234219   5.864   0.495   3.219
11421TIP3    H134220   5.897   0.415   3.178
11421TIP3    H234221   5.899   0.566   3.164
11422TIP3   OH234222   5.424   1.561   4.561
11422TIP3    H134223   5.479   1.635   4.586
11422TIP3    H234224   5.335   1.597   4.559
11423TIP3   OH234225   7.708   1.774   2.490
11423TIP3    H134226   7.664   1.808   2.568
11423TIP3    H234227   7.801   1.790   2.507
11424TIP3   OH234228   6.660   4.905   6.482
11424TIP3    H134229   6.663   4.991   6.524
11424TIP3    H234230   6.646   4.843   6.554
11425TIP3   OH234231   0.174   2.348   5.050
11425TIP3    H134232   0.155   2.257   5.072
11425TIP3    H234233   0.169   2.352   4.954
11426TIP3   OH234234   7.334   5.011   1.324
11426TIP3    H134235   7.427   4.990   1.337
11426TIP3    H234236   7.332   5.107   1.320
11427TIP3   OH234237   1.374   2.472   0.892
11427TIP3    H134238   1.317   2.433   0.826
11427TIP3    H234239   1.331   2.452   0.975
11428TIP3   OH234240   5.762   1.059   1.709
11428TIP3    H134241   5.822   1.132   1.695
11428TIP3    H234242   5.682   1.085   1.663
11429TIP3   OH234243   4.242   6.875   0.356
11429TIP3    H134244   4.305   6.943   0.333
11429TIP3    H234245   4.265   6.851   0.446
11430TIP3   OH234246   6.917   4.571   3.779
11430TIP3    H134247   6.937   4.482   3.808
11430TIP3    H234248   6.994   4.622   3.803
11431TIP3   OH234249   5.061   0.191   1.842
11431TIP3    H134250   5.131   0.127   1.856
11431TIP3    H234251   5.096   0.272   1.878
11432TIP3   OH234252   3.088   6.560   1.651
11432TIP3    H134253   3.128   6.473   1.657
11432TIP3    H234254   3.161   6.620   1.662
11433TIP3   OH234255   1.302   4.691   0.317
11433TIP3    H134256   1.261   4.758   0.371
11433TIP3    H234257   1.396   4.707   0.325
11434TIP3   OH234258   0.844   5.793   0.542
11434TIP3    H134259   0.839   5.887   0.525
11434TIP3    H234260   0.853   5.786   0.637
11435TIP3   OH234261   0.158   3.369   1.124
11435TIP3    H134262   0.246   3.340   1.097
11435TIP3    H234263   0.151   3.458   1.090
11436TIP3   OH234264   5.955   7.529   0.368
11436TIP3    H134265   5.864   7.540   0.340
11436TIP3    H234266   6.003   7.511   0.287
11437TIP3   OH234267   2.942   7.119   4.788
11437TIP3    H134268   3.015   7.110   4.849
11437TIP3    H234269   2.970   7.189   4.728
11438TIP3   OH234270   7.254   5.334   1.634
11438TIP3    H134271   7.325   5.369   1.689
11438TIP3    H234272   7.251   5.241   1.655
11439TIP3   OH234273   0.141   2.302   3.444
11439TIP3    H134274   0.151   2.218   3.489
11439TIP3    H234275   0.152   2.282   3.352
11440TIP3   OH234276   6.112   1.674   3.300
11440TIP3    H134277   6.147   1.587   3.318
11440TIP3    H234278   6.055   1.692   3.375
11441TIP3   OH234279   4.704   3.590   0.383
11441TIP3    H134280   4.635   3.656   0.386
11441TIP3    H234281   4.771   3.628   0.326
11442TIP3   OH234282   1.388   0.553   6.413
11442TIP3    H134283   1.320   0.494   6.445
11442TIP3    H234284   1.413   0.605   6.490
11443TIP3   OH234285   1.878   6.252   3.890
11443TIP3    H134286   1.827   6.313   3.838
11443TIP3    H234287   1.832   6.249   3.974
11444TIP3   OH234288   4.900   1.704   6.018
11444TIP3    H134289   4.834   1.737   5.957
11444TIP3    H234290   4.950   1.781   6.044
11445TIP3   OH234291   3.715   3.987   6.392
11445TIP3    H134292   3.790   3.928   6.385
11445TIP3    H234293   3.644   3.932   6.426
11446TIP3   OH234294   2.275   1.447   0.025
11446TIP3    H134295   2.243   1.432   0.114
11446TIP3    H234296   2.227   1.384  -0.029
11447TIP3   OH234297   5.838   4.362   3.499
11447TIP3    H134298   5.867   4.275   3.473
11447TIP3    H234299   5.790   4.394   3.423
11448TIP3   OH234300   0.049   2.428   0.692
11448TIP3    H134301   0.080   2.340   0.668
11448TIP3    H234302   0.042   2.474   0.608
11449TIP3   OH234303   5.973   7.606   6.067
11449TIP3    H134304   6.037   7.535   6.070
11449TIP3    H234305   5.893   7.565   6.035
11450TIP3   OH234306   6.106   5.424   2.853
11450TIP3    H134307   6.013   5.407   2.868
11450TIP3    H234308   6.151   5.372   2.920
11451TIP3   OH234309   2.826   0.703   6.278
11451TIP3    H134310   2.888   0.630   6.277
11451TIP3    H234311   2.744   0.665   6.247
11452TIP3   OH234312   4.691   3.241   3.276
11452TIP3    H134313   4.655   3.320   3.316
11452TIP3    H234314   4.637   3.226   3.199
11453TIP3   OH234315   4.023   1.418   1.085
11453TIP3    H134316   4.080   1.386   1.154
11453TIP3    H234317   4.080   1.473   1.031
11454TIP3   OH234318   0.526   6.900   5.480
11454TIP3    H134319   0.614   6.886   5.445
11454TIP3    H234320   0.481   6.951   5.412
11455TIP3   OH234321   6.460   1.474   0.280
11455TIP3    H134322   6.511   1.536   0.228
11455TIP3    H234323   6.405   1.429   0.216
11456TIP3   OH234324   7.082   7.239   4.614
11456TIP3    H134325   7.119   7.186   4.543
11456TIP3    H234326   7.155   7.294   4.643
11457TIP3   OH234327   6.864   3.550   4.732
11457TIP3    H134328   6.853   3.456   4.747
11457TIP3    H234329   6.775   3.583   4.721
11458TIP3   OH234330   0.313   6.427   5.048
11458TIP3    H134331   0.289   6.456   4.960
11458TIP3    H234332   0.321   6.331   5.041
11459TIP3   OH234333   7.000   6.375   6.735
11459TIP3    H134334   6.919   6.364   6.785
11459TIP3    H234335   6.972   6.412   6.651
11460TIP3   OH234336   2.799   4.069   4.204
11460TIP3    H134337   2.869   4.112   4.254
11460TIP3    H234338   2.823   3.976   4.204
11461TIP3   OH234339   4.034   5.440   6.027
11461TIP3    H134340   4.109   5.487   5.991
11461TIP3    H234341   3.959   5.494   6.005
11462TIP3   OH234342   0.874   1.846   2.786
11462TIP3    H134343   0.875   1.879   2.876
11462TIP3    H234344   0.797   1.888   2.747
11463TIP3   OH234345   0.405   6.895   1.799
11463TIP3    H134346   0.341   6.951   1.843
11463TIP3    H234347   0.481   6.894   1.857
11464TIP3   OH234348   0.668   7.533   5.057
11464TIP3    H134349   0.706   7.620   5.059
11464TIP3    H234350   0.658   7.509   5.150
11465TIP3   OH234351   1.620   4.705   0.330
11465TIP3    H134352   1.675   4.777   0.299
11465TIP3    H234353   1.665   4.626   0.299
11466TIP3   OH234354   3.557   3.244   4.067
11466TIP3    H134355   3.501   3.321   4.078
11466TIP3    H234356   3.604   3.237   4.150
11467TIP3   OH234357   8.272  -0.001   2.622
11467TIP3    H134358   8.177   0.005   2.613
11467TIP3    H234359   8.303   0.090   2.621
11468TIP3   OH234360   8.149   2.608   3.326
11468TIP3    H134361   8.166   2.514   3.319
11468TIP3    H234362   8.205   2.636   3.399
11469TIP3   OH234363   5.771   5.291   4.885
11469TIP3    H134364   5.834   5.335   4.828
11469TIP3    H234365   5.819   5.275   4.966
11470TIP3   OH234366   3.794   3.718   2.619
11470TIP3    H134367   3.737   3.732   2.695
11470TIP3    H234368   3.825   3.628   2.629
11471TIP3   OH234369   5.208   1.018   0.731
11471TIP3    H134370   5.222   1.076   0.656
11471TIP3    H234371   5.175   1.076   0.800
11472TIP3   OH234372   7.572   0.956   0.124
11472TIP3    H134373   7.524   0.905   0.188
11472TIP3    H234374   7.588   1.040   0.167
11473TIP3   OH234375   8.040   1.673   0.585
11473TIP3    H134376   7.987   1.732   0.531
11473TIP3    H234377   8.123   1.666   0.539
11474TIP3   OH234378   5.851   2.361   4.188
11474TIP3    H134379   5.764   2.326   4.168
11474TIP3    H234380   5.852   2.369   4.283
11475TIP3   OH234381   8.164   2.745   1.234
11475TIP3    H134382   8.084   2.713   1.193
11475TIP3    H234383   8.134   2.801   1.305
11476TIP3   OH234384   0.370   0.883   0.940
11476TIP3    H134385   0.356   0.801   0.893
11476TIP3    H234386   0.426   0.860   1.014
11477TIP3   OH234387   1.924   7.163   2.269
11477TIP3    H134388   1.835   7.197   2.264
11477TIP3    H234389   1.980   7.240   2.258
11478TIP3   OH234390   6.061   0.444   1.639
11478TIP3    H134391   6.000   0.440   1.712
11478TIP3    H234392   6.087   0.536   1.634
11479TIP3   OH234393   1.450   3.395   0.104
11479TIP3    H134394   1.366   3.393   0.058
11479TIP3    H234395   1.430   3.360   0.191
11480TIP3   OH234396   2.675   1.814   0.497
11480TIP3    H134397   2.589   1.856   0.502
11480TIP3    H234398   2.705   1.831   0.408
11481TIP3   OH234399   3.756   2.702   1.251
11481TIP3    H134400   3.734   2.739   1.165
11481TIP3    H234401   3.851   2.687   1.247
11482TIP3   OH234402   3.097   5.108   5.646
11482TIP3    H134403   3.089   5.167   5.572
11482TIP3    H234404   3.012   5.111   5.690
11483TIP3   OH234405   6.161   7.035   5.876
11483TIP3    H134406   6.126   7.106   5.824
11483TIP3    H234407   6.089   6.973   5.884
11484TIP3   OH234408   6.164   6.167   2.226
11484TIP3    H134409   6.220   6.239   2.198
11484TIP3    H234410   6.151   6.182   2.320
11485TIP3   OH234411   5.490   2.422   3.542
11485TIP3    H134412   5.434   2.345   3.532
11485TIP3    H234413   5.572   2.387   3.577
11486TIP3   OH234414   4.853   7.258   1.705
11486TIP3    H134415   4.836   7.340   1.752
11486TIP3    H234416   4.941   7.232   1.734
11487TIP3   OH234417   6.511   6.420   3.045
11487TIP3    H134418   6.438   6.394   3.102
11487TIP3    H234419   6.474   6.421   2.957
11488TIP3   OH234420   1.211   3.674   5.911
11488TIP3    H134421   1.159   3.602   5.947
11488TIP3    H234422   1.282   3.631   5.863
11489TIP3   OH234423   2.404   0.197   4.782
11489TIP3    H134424   2.357   0.127   4.736
11489TIP3    H234425   2.485   0.208   4.732
11490TIP3   OH234426   5.530   2.251   5.451
11490TIP3    H134427   5.551   2.215   5.365
11490TIP3    H234428   5.574   2.337   5.452
11491TIP3   OH234429   4.343   5.789   1.664
11491TIP3    H134430   4.291   5.815   1.589
11491TIP3    H234431   4.284   5.736   1.717
11492TIP3   OH234432   3.876   1.619   4.175
11492TIP3    H134433   3.950   1.635   4.116
11492TIP3    H234434   3.808   1.584   4.118
11493TIP3   OH234435   6.032   2.980   4.754
11493TIP3    H134436   5.981   3.011   4.829
11493TIP3    H234437   6.026   2.885   4.758
11494TIP3   OH234438   2.182   2.801   3.362
11494TIP3    H134439   2.189   2.727   3.422
11494TIP3    H234440   2.241   2.867   3.398
11495TIP3   OH234441   0.497   1.482   0.922
11495TIP3    H134442   0.509   1.422   0.995
11495TIP3    H234443   0.581   1.525   0.912
11496TIP3   OH234444   2.957   5.658   5.093
11496TIP3    H134445   2.976   5.690   5.181
11496TIP3    H234446   2.922   5.570   5.106
11497TIP3   OH234447   7.156   1.447   3.721
11497TIP3    H134448   7.102   1.371   3.700
11497TIP3    H234449   7.180   1.484   3.636
11498TIP3   OH234450   7.431   0.658   2.417
11498TIP3    H134451   7.385   0.579   2.389
11498TIP3    H234452   7.415   0.662   2.512
11499TIP3   OH234453   3.256   5.806   4.762
11499TIP3    H134454   3.296   5.892   4.743
11499TIP3    H234455   3.325   5.743   4.740
11500TIP3   OH234456   5.007   5.929   4.916
11500TIP3    H134457   5.000   5.986   4.994
11500TIP3    H234458   5.083   5.962   4.869
11501TIP3   OH234459   5.445   5.717   6.317
11501TIP3    H134460   5.433   5.796   6.370
11501TIP3    H234461   5.536   5.693   6.330
11502TIP3   OH234462   4.557   6.520   4.733
11502TIP3    H134463   4.580   6.470   4.655
11502TIP3    H234464   4.536   6.608   4.701
11503TIP3   OH234465   4.521   5.471   2.320
11503TIP3    H134466   4.556   5.393   2.363
11503TIP3    H234467   4.567   5.474   2.235
11504TIP3   OH234468   4.094   3.489   3.472
11504TIP3    H134469   4.151   3.566   3.481
11504TIP3    H234470   4.039   3.509   3.396
11505TIP3   OH234471   4.181   0.136   1.676
11505TIP3    H134472   4.162   0.229   1.689
11505TIP3    H234473   4.151   0.118   1.587
11506TIP3   OH234474   7.701   7.128   1.937
11506TIP3    H134475   7.698   7.132   2.033
11506TIP3    H234476   7.784   7.169   1.914
11507TIP3   OH234477   2.705   4.285   3.600
11507TIP3    H134478   2.734   4.300   3.510
11507TIP3    H234479   2.768   4.334   3.654
11508TIP3   OH234480   2.663   3.098   1.641
11508TIP3    H134481   2.599   3.165   1.616
11508TIP3    H234482   2.627   3.016   1.607
11509TIP3   OH234483   4.238   1.919   1.267
11509TIP3    H134484   4.298   1.921   1.342
11509TIP3    H234485   4.223   1.826   1.250
11510TIP3   OH234486   8.234   0.610   1.557
11510TIP3    H134487   8.193   0.526   1.541
11510TIP3    H234488   8.323   0.589   1.585
11511TIP3   OH234489   5.516   4.848   6.345
11511TIP3    H134490   5.477   4.770   6.307
11511TIP3    H234491   5.442   4.901   6.373
11512TIP3   OH234492   5.157   6.396   3.515
11512TIP3    H134493   5.181   6.304   3.510
11512TIP3    H234494   5.218   6.433   3.579
11513TIP3   OH234495   3.096   2.842   6.006
11513TIP3    H134496   3.007   2.826   6.038
11513TIP3    H234497   3.152   2.824   6.082
11514TIP3   OH234498   7.271   2.950   6.041
11514TIP3    H134499   7.348   2.937   5.986
11514TIP3    H234500   7.301   2.927   6.129
11515TIP3   OH234501   4.057   1.833   1.723
11515TIP3    H134502   4.036   1.894   1.653
11515TIP3    H234503   4.087   1.888   1.795
11516TIP3   OH234504   1.572   0.770   5.386
11516TIP3    H134505   1.478   0.779   5.402
11516TIP3    H234506   1.614   0.806   5.464
11517TIP3   OH234507   2.810   1.474   6.404
11517TIP3    H134508   2.892   1.500   6.363
11517TIP3    H234509   2.831   1.469   6.498
11518TIP3   OH234510   7.562   3.694   3.720
11518TIP3    H134511   7.547   3.737   3.804
11518TIP3    H234512   7.637   3.740   3.683
11519TIP3   OH234513   7.353   1.249   2.514
11519TIP3    H134514   7.273   1.210   2.549
11519TIP3    H234515   7.421   1.223   2.575
11520TIP3   OH234516   4.389   3.959   0.178
11520TIP3    H134517   4.295   3.952   0.161
11520TIP3    H234518   4.416   4.040   0.136
11521TIP3   OH234519   8.117   6.576   5.709
11521TIP3    H134520   8.197   6.587   5.657
11521TIP3    H234521   8.086   6.489   5.686
11522TIP3   OH234522   1.598   5.748   1.449
11522TIP3    H134523   1.519   5.800   1.464
11522TIP3    H234524   1.569   5.676   1.393
11523TIP3   OH234525   6.441   5.757   0.449
11523TIP3    H134526   6.465   5.729   0.537
11523TIP3    H234527   6.473   5.688   0.392
11524TIP3   OH234528   6.798   5.858   5.418
11524TIP3    H134529   6.806   5.877   5.512
11524TIP3    H234530   6.786   5.944   5.377
11525TIP3   OH234531   2.029   2.630   0.366
11525TIP3    H134532   2.000   2.612   0.456
11525TIP3    H234533   1.988   2.562   0.314
11526TIP3   OH234534   5.587   2.599   2.653
11526TIP3    H134535   5.664   2.656   2.647
11526TIP3    H234536   5.576   2.564   2.565
11527TIP3   OH234537   8.091   6.956   1.761
11527TIP3    H134538   8.152   6.951   1.687
11527TIP3    H234539   8.005   6.968   1.720
11528TIP3   OH234540   2.281   1.319   2.556
11528TIP3    H134541   2.194   1.289   2.583
11528TIP3    H234542   2.317   1.246   2.505
11529TIP3   OH234543   0.605   4.010   6.608
11529TIP3    H134544   0.663   3.942   6.642
11529TIP3    H234545   0.650   4.044   6.530
11530TIP3   OH234546   6.806   0.240   4.966
11530TIP3    H134547   6.895   0.212   4.987
11530TIP3    H234548   6.816   0.298   4.890
11531TIP3   OH234549   6.216   2.800   0.011
11531TIP3    H134550   6.311   2.796   0.023
11531TIP3    H234551   6.191   2.888   0.039
11532TIP3   OH234552   1.438   5.824   3.885
11532TIP3    H134553   1.422   5.918   3.882
11532TIP3    H234554   1.519   5.812   3.836
11533TIP3   OH234555   0.028   0.247   6.485
11533TIP3    H134556  -0.009   0.244   6.397
11533TIP3    H234557   0.076   0.330   6.489
11534TIP3   OH234558   4.841   3.275   5.779
11534TIP3    H134559   4.929   3.296   5.748
11534TIP3    H234560   4.839   3.179   5.780
11535TIP3   OH234561   4.503   4.194   0.062
11535TIP3    H134562   4.463   4.277   0.039
11535TIP3    H234563   4.590   4.198   0.022
11536TIP3   OH234564   0.058   4.983   4.202
11536TIP3    H134565   0.103   5.055   4.157
11536TIP3    H234566   0.021   5.024   4.281
11537TIP3   OH234567   7.677   7.435   3.023
11537TIP3    H134568   7.655   7.379   3.098
11537TIP3    H234569   7.603   7.424   2.963
11538TIP3   OH234570   6.273   1.153   1.413
11538TIP3    H134571   6.276   1.236   1.460
11538TIP3    H234572   6.356   1.110   1.434
11539TIP3   OH234573   6.172   3.090   3.818
11539TIP3    H134574   6.117   3.088   3.739
11539TIP3    H234575   6.235   3.019   3.805
11540TIP3   OH234576   0.073   6.226   0.480
11540TIP3    H134577   0.025   6.165   0.424
11540TIP3    H234578   0.015   6.242   0.554
11541TIP3   OH234579   5.895   0.609   6.263
11541TIP3    H134580   5.871   0.535   6.319
11541TIP3    H234581   5.812   0.655   6.247
11542TIP3   OH234582   2.046   3.351   0.334
11542TIP3    H134583   1.988   3.280   0.307
11542TIP3    H234584   1.992   3.430   0.326
11543TIP3   OH234585   1.549   5.976  -0.014
11543TIP3    H134586   1.590   5.935   0.062
11543TIP3    H234587   1.605   6.051  -0.034
11544TIP3   OH234588   4.430   0.754   0.721
11544TIP3    H134589   4.505   0.695   0.734
11544TIP3    H234590   4.366   0.727   0.787
11545TIP3   OH234591   0.734   0.850   3.182
11545TIP3    H134592   0.748   0.943   3.200
11545TIP3    H234593   0.662   0.825   3.241
11546TIP3   OH234594   3.111   2.204   6.139
11546TIP3    H134595   3.192   2.234   6.179
11546TIP3    H234596   3.068   2.283   6.108
11547TIP3   OH234597   7.326   5.513   2.306
11547TIP3    H134598   7.333   5.433   2.358
11547TIP3    H234599   7.385   5.498   2.232
11548TIP3   OH234600   6.012   1.632   5.740
11548TIP3    H134601   5.942   1.572   5.714
11548TIP3    H234602   6.050   1.592   5.818
11549TIP3   OH234603   1.316   5.576   3.923
11549TIP3    H134604   1.277   5.555   3.839
11549TIP3    H234605   1.357   5.662   3.911
11550TIP3   OH234606   0.714   0.571   2.163
11550TIP3    H134607   0.677   0.589   2.250
11550TIP3    H234608   0.788   0.513   2.180
11551TIP3   OH234609   7.177   6.896   0.764
11551TIP3    H134610   7.204   6.898   0.672
11551TIP3    H234611   7.201   6.808   0.794
11552TIP3   OH234612   6.646   5.107   0.764
11552TIP3    H134613   6.577   5.143   0.708
11552TIP3    H234614   6.611   5.022   0.793
11553TIP3   OH234615   6.977   3.369   5.123
11553TIP3    H134616   6.974   3.445   5.182
11553TIP3    H234617   7.022   3.400   5.045
11554TIP3   OH234618   5.466   4.512   2.311
11554TIP3    H134619   5.429   4.548   2.392
11554TIP3    H234620   5.502   4.427   2.337
11555TIP3   OH234621   4.454   1.254   3.401
11555TIP3    H134622   4.456   1.326   3.464
11555TIP3    H234623   4.382   1.198   3.431
11556TIP3   OH234624   4.564   4.439   2.490
11556TIP3    H134625   4.621   4.377   2.445
11556TIP3    H234626   4.597   4.442   2.580
11557TIP3   OH234627   4.799   0.378   1.916
11557TIP3    H134628   4.831   0.387   1.826
11557TIP3    H234629   4.713   0.337   1.907
11558TIP3   OH234630   6.817   3.722   2.852
11558TIP3    H134631   6.868   3.648   2.819
11558TIP3    H234632   6.832   3.792   2.788
11559TIP3   OH234633   1.270   4.849   4.972
11559TIP3    H134634   1.334   4.843   4.902
11559TIP3    H234635   1.318   4.828   5.052
11560TIP3   OH234636   6.381   0.114   2.528
11560TIP3    H134637   6.443   0.075   2.467
11560TIP3    H234638   6.377   0.207   2.503
11561TIP3   OH234639   6.100   4.262   2.835
11561TIP3    H134640   6.177   4.205   2.836
11561TIP3    H234641   6.068   4.261   2.925
11562TIP3   OH234642   4.269   0.814   2.120
11562TIP3    H134643   4.330   0.858   2.178
11562TIP3    H234644   4.228   0.746   2.175
11563TIP3   OH234645   5.897   2.439   1.371
11563TIP3    H134646   5.903   2.396   1.456
11563TIP3    H234647   5.803   2.457   1.360
11564TIP3   OH234648   1.521   5.229   2.385
11564TIP3    H134649   1.523   5.208   2.479
11564TIP3    H234650   1.593   5.291   2.373
11565TIP3   OH234651   4.903   4.380   0.190
11565TIP3    H134652   4.990   4.419   0.185
11565TIP3    H234653   4.842   4.453   0.176
11566TIP3   OH234654   7.777   7.713   6.336
11566TIP3    H134655   7.832   7.664   6.275
11566TIP3    H234656   7.712   7.756   6.280
11567TIP3   OH234657   3.529   3.722   6.280
11567TIP3    H134658   3.476   3.644   6.259
11567TIP3    H234659   3.586   3.733   6.204
11568TIP3   OH234660   0.909   4.287   3.790
11568TIP3    H134661   0.994   4.302   3.747
11568TIP3    H234662   0.931   4.283   3.884
11569TIP3   OH234663   5.991   6.755   3.979
11569TIP3    H134664   5.998   6.676   4.033
11569TIP3    H234665   5.983   6.826   4.042
11570TIP3   OH234666   2.303   3.907   3.117
11570TIP3    H134667   2.269   3.988   3.078
11570TIP3    H234668   2.313   3.928   3.210
11571TIP3   OH234669   7.496   0.639   6.459
11571TIP3    H134670   7.538   0.692   6.391
11571TIP3    H234671   7.403   0.665   6.454
11572TIP3   OH234672   0.052   3.961   3.783
11572TIP3    H134673   0.042   3.963   3.879
11572TIP3    H234674   0.139   3.923   3.770
11573TIP3   OH234675   0.626   2.941   2.578
11573TIP3    H134676   0.622   3.024   2.625
11573TIP3    H234677   0.599   2.875   2.642
11574TIP3   OH234678   2.044   7.643   3.481
11574TIP3    H134679   2.017   7.653   3.390
11574TIP3    H234680   2.059   7.733   3.511
11575TIP3   OH234681   6.634   4.269   2.823
11575TIP3    H134682   6.624   4.296   2.731
11575TIP3    H234683   6.546   4.279   2.860
11576TIP3   OH234684   3.762   5.048   6.032
11576TIP3    H134685   3.731   5.036   6.122
11576TIP3    H234686   3.802   4.964   6.010
11577TIP3   OH234687   2.260   5.212   4.533
11577TIP3    H134688   2.199   5.263   4.479
11577TIP3    H234689   2.290   5.274   4.599
11578TIP3   OH234690   8.314   7.449   3.817
11578TIP3    H134691   8.311   7.399   3.736
11578TIP3    H234692   8.225   7.480   3.830
11579TIP3   OH234693   5.350   3.770   2.154
11579TIP3    H134694   5.307   3.703   2.208
11579TIP3    H234695   5.407   3.817   2.215
11580TIP3   OH234696   1.525   3.003   0.501
11580TIP3    H134697   1.522   2.923   0.555
11580TIP3    H234698   1.602   3.050   0.533
11581TIP3   OH234699   2.850   3.133   0.808
11581TIP3    H134700   2.916   3.174   0.863
11581TIP3    H234701   2.862   3.039   0.820
11582TIP3   OH234702   6.561   6.537   1.622
11582TIP3    H134703   6.539   6.454   1.580
11582TIP3    H234704   6.636   6.516   1.678
11583TIP3   OH234705   6.514   4.505   3.413
11583TIP3    H134706   6.553   4.501   3.326
11583TIP3    H234707   6.588   4.513   3.473
11584TIP3   OH234708   3.650   2.177   2.409
11584TIP3    H134709   3.735   2.188   2.451
11584TIP3    H234710   3.588   2.216   2.469
11585TIP3   OH234711   3.770   4.110   2.011
11585TIP3    H134712   3.854   4.068   1.992
11585TIP3    H234713   3.792   4.183   2.069
11586TIP3   OH234714   7.830   7.051   4.399
11586TIP3    H134715   7.908   7.099   4.372
11586TIP3    H234716   7.788   7.026   4.317
11587TIP3   OH234717   6.082   5.576   5.204
11587TIP3    H134718   6.164   5.526   5.209
11587TIP3    H234719   6.055   5.587   5.295
11588TIP3   OH234720   5.966   1.806   1.589
11588TIP3    H134721   6.004   1.835   1.672
11588TIP3    H234722   5.980   1.878   1.529
11589TIP3   OH234723   5.404   6.903   3.516
11589TIP3    H134724   5.451   6.983   3.538
11589TIP3    H234725   5.333   6.931   3.459
11590TIP3   OH234726   0.806   1.354   0.048
11590TIP3    H134727   0.776   1.316  -0.034
11590TIP3    H234728   0.844   1.438   0.023
11591TIP3   OH234729   1.995   3.042   3.897
11591TIP3    H134730   2.002   3.044   3.801
11591TIP3    H234731   1.990   3.134   3.923
11592TIP3   OH234732   3.663   6.912   5.729
11592TIP3    H134733   3.584   6.868   5.761
11592TIP3    H234734   3.631   6.993   5.690
11593TIP3   OH234735   4.493   7.622   2.425
11593TIP3    H134736   4.442   7.662   2.354
11593TIP3    H234737   4.582   7.614   2.389
11594TIP3   OH234738   1.286   7.250   4.219
11594TIP3    H134739   1.268   7.258   4.312
11594TIP3    H234740   1.238   7.171   4.192
11595TIP3   OH234741   7.899   6.170   0.801
11595TIP3    H134742   7.956   6.199   0.871
11595TIP3    H234743   7.958   6.138   0.732
11596TIP3   OH234744   8.175   7.397   3.202
11596TIP3    H134745   8.099   7.389   3.146
11596TIP3    H234746   8.176   7.489   3.228
11597TIP3   OH234747   2.054   4.883   1.545
11597TIP3    H134748   1.971   4.871   1.497
11597TIP3    H234749   2.090   4.795   1.551
11598TIP3   OH234750   1.154   6.276   5.187
11598TIP3    H134751   1.156   6.366   5.153
11598TIP3    H234752   1.195   6.223   5.119
11599TIP3   OH234753   6.222   5.861   6.360
11599TIP3    H134754   6.283   5.852   6.433
11599TIP3    H234755   6.186   5.773   6.349
11600TIP3   OH234756   7.608   0.791   0.937
11600TIP3    H134757   7.534   0.748   0.981
11600TIP3    H234758   7.683   0.773   0.993
11601TIP3   OH234759   5.989   1.379   1.372
11601TIP3    H134760   6.055   1.445   1.393
11601TIP3    H234761   5.932   1.377   1.449
11602TIP3   OH234762   1.243   5.578   5.865
11602TIP3    H134763   1.183   5.504   5.866
11602TIP3    H234764   1.189   5.654   5.843
11603TIP3   OH234765   5.637   4.629   5.305
11603TIP3    H134766   5.674   4.717   5.310
11603TIP3    H234767   5.614   4.608   5.396
11604TIP3   OH234768   3.738   0.613   0.346
11604TIP3    H134769   3.668   0.554   0.374
11604TIP3    H234770   3.794   0.623   0.423
11605TIP3   OH234771   7.619   1.432   3.854
11605TIP3    H134772   7.638   1.523   3.877
11605TIP3    H234773   7.620   1.386   3.937
11606TIP3   OH234774   6.778   3.771   4.528
11606TIP3    H134775   6.789   3.704   4.460
11606TIP3    H234776   6.705   3.739   4.581
11607TIP3   OH234777   7.223   3.535   6.434
11607TIP3    H134778   7.142   3.573   6.399
11607TIP3    H234779   7.194   3.488   6.513
11608TIP3   OH234780   6.023   4.154   1.570
11608TIP3    H134781   6.024   4.181   1.478
11608TIP3    H234782   6.114   4.137   1.591
11609TIP3   OH234783   3.259   0.385   2.417
11609TIP3    H134784   3.201   0.309   2.405
11609TIP3    H234785   3.320   0.379   2.343
11610TIP3   OH234786   1.749   6.372   6.491
11610TIP3    H134787   1.682   6.350   6.426
11610TIP3    H234788   1.704   6.364   6.575
11611TIP3   OH234789   4.565   0.644   1.327
11611TIP3    H134790   4.520   0.581   1.383
11611TIP3    H234791   4.534   0.729   1.358
11612TIP3   OH234792   0.509   7.617   3.682
11612TIP3    H134793   0.434   7.561   3.658
11612TIP3    H234794   0.534   7.659   3.599
11613TIP3   OH234795   4.810   1.523   3.571
11613TIP3    H134796   4.794   1.444   3.623
11613TIP3    H234797   4.807   1.493   3.480
11614TIP3   OH234798   1.140   5.749   0.907
11614TIP3    H134799   1.117   5.750   0.999
11614TIP3    H234800   1.072   5.801   0.864
11615TIP3   OH234801   4.978   6.366   0.810
11615TIP3    H134802   5.015   6.351   0.897
11615TIP3    H234803   5.054   6.366   0.752
11616TIP3   OH234804   3.360   1.929   2.959
11616TIP3    H134805   3.375   2.021   2.939
11616TIP3    H234806   3.444   1.897   2.990
11617TIP3   OH234807   4.803   5.817   5.517
11617TIP3    H134808   4.744   5.827   5.442
11617TIP3    H234809   4.803   5.723   5.535
11618TIP3   OH234810   7.271   4.148   1.640
11618TIP3    H134811   7.356   4.190   1.630
11618TIP3    H234812   7.223   4.171   1.560
11619TIP3   OH234813   2.797   6.712   4.493
11619TIP3    H134814   2.883   6.705   4.452
11619TIP3    H234815   2.795   6.800   4.530
11620TIP3   OH234816   8.220   6.038   0.303
11620TIP3    H134817   8.149   6.045   0.240
11620TIP3    H234818   8.244   5.945   0.303
11621TIP3   OH234819   4.681   1.750   3.404
11621TIP3    H134820   4.772   1.760   3.379
11621TIP3    H234821   4.683   1.736   3.499
11622TIP3   OH234822   4.943   6.491   2.965
11622TIP3    H134823   4.900   6.408   2.948
11622TIP3    H234824   5.006   6.501   2.894
11623TIP3   OH234825   4.426   7.690   5.726
11623TIP3    H134826   4.359   7.659   5.665
11623TIP3    H234827   4.501   7.711   5.671
11624TIP3   OH234828   5.213   3.246   1.305
11624TIP3    H134829   5.162   3.270   1.383
11624TIP3    H234830   5.186   3.308   1.238
11625TIP3   OH234831   2.193   5.024   2.901
11625TIP3    H134832   2.174   4.933   2.878
11625TIP3    H234833   2.277   5.020   2.947
11626TIP3   OH234834   0.328   1.583   2.427
11626TIP3    H134835   0.332   1.505   2.483
11626TIP3    H234836   0.278   1.556   2.351
11627TIP3   OH234837   4.418   3.069   5.889
11627TIP3    H134838   4.476   3.130   5.935
11627TIP3    H234839   4.429   3.091   5.797
11628TIP3   OH234840   2.178   1.454   2.933
11628TIP3    H134841   2.184   1.528   2.994
11628TIP3    H234842   2.124   1.487   2.861
11629TIP3   OH234843   6.106   1.584   1.499
11629TIP3    H134844   6.086   1.650   1.566
11629TIP3    H234845   6.156   1.631   1.433
11630TIP3   OH234846   1.045   3.297   1.583
11630TIP3    H134847   1.090   3.363   1.636
11630TIP3    H234848   1.072   3.315   1.493
11631TIP3   OH234849   3.433   2.789   4.071
11631TIP3    H134850   3.515   2.830   4.100
11631TIP3    H234851   3.447   2.770   3.979
11632TIP3   OH234852   6.460   3.512   0.690
11632TIP3    H134853   6.542   3.549   0.657
11632TIP3    H234854   6.413   3.587   0.726
11633TIP3   OH234855   6.601   7.643   1.113
11633TIP3    H134856   6.574   7.554   1.136
11633TIP3    H234857   6.565   7.697   1.182
11634TIP3   OH234858   1.102   3.535   1.738
11634TIP3    H134859   1.057   3.604   1.689
11634TIP3    H234860   1.178   3.578   1.776
11635TIP3   OH234861   0.002   5.690   5.090
11635TIP3    H134862   0.028   5.699   4.999
11635TIP3    H234863   0.084   5.683   5.139
11636TIP3   OH234864   4.860   4.071   6.253
11636TIP3    H134865   4.925   4.082   6.184
11636TIP3    H234866   4.820   3.986   6.237
11637TIP3   OH234867   6.024   5.742   6.136
11637TIP3    H134868   6.110   5.720   6.101
11637TIP3    H234869   6.022   5.837   6.138
11638TIP3   OH234870   3.359   1.923   4.988
11638TIP3    H134871   3.335   1.963   5.072
11638TIP3    H234872   3.442   1.879   5.006
11639TIP3   OH234873   5.662   3.703   6.665
11639TIP3    H134874   5.631   3.760   6.595
11639TIP3    H234875   5.583   3.662   6.700
11640TIP3   OH234876   3.407   5.837   1.003
11640TIP3    H134877   3.449   5.875   1.080
11640TIP3    H234878   3.314   5.842   1.022
11641TIP3   OH234879   7.687   2.316   1.833
11641TIP3    H134880   7.717   2.371   1.906
11641TIP3    H234881   7.742   2.343   1.759
11642TIP3   OH234882   1.858   1.869   5.045
11642TIP3    H134883   1.916   1.828   4.981
11642TIP3    H234884   1.793   1.801   5.066
11643TIP3   OH234885   1.854   6.071   3.045
11643TIP3    H134886   1.822   6.022   3.120
11643TIP3    H234887   1.796   6.147   3.039
11644TIP3   OH234888   0.871   5.477   1.232
11644TIP3    H134889   0.849   5.384   1.226
11644TIP3    H234890   0.966   5.479   1.236
11645TIP3   OH234891   7.967   5.154   5.760
11645TIP3    H134892   8.052   5.110   5.756
11645TIP3    H234893   7.913   5.106   5.696
11646TIP3   OH234894   6.017   3.876   1.172
11646TIP3    H134895   5.982   3.964   1.184
11646TIP3    H234896   6.067   3.880   1.090
11647TIP3   OH234897   7.192   6.731   5.335
11647TIP3    H134898   7.131   6.687   5.395
11647TIP3    H234899   7.168   6.698   5.249
11648TIP3   OH234900   7.520   4.205   1.602
11648TIP3    H134901   7.572   4.202   1.521
11648TIP3    H234902   7.575   4.163   1.667
11649TIP3   OH234903   3.125   5.750   0.602
11649TIP3    H134904   3.096   5.784   0.517
11649TIP3    H234905   3.197   5.807   0.627
11650TIP3   OH234906   1.687   1.747   6.095
11650TIP3    H134907   1.752   1.677   6.091
11650TIP3    H234908   1.603   1.703   6.099
11651TIP3   OH234909   3.773   1.350   4.746
11651TIP3    H134910   3.712   1.310   4.808
11651TIP3    H234911   3.751   1.443   4.747
11652TIP3   OH234912   8.155   4.932   6.579
11652TIP3    H134913   8.179   4.844   6.548
11652TIP3    H234914   8.122   4.918   6.667
11653TIP3   OH234915   4.329   4.811   6.637
11653TIP3    H134916   4.290   4.793   6.551
11653TIP3    H234917   4.305   4.902   6.656
11654TIP3   OH234918   5.691   2.527   0.161
11654TIP3    H134919   5.612   2.529   0.214
11654TIP3    H234920   5.710   2.619   0.144
11655TIP3   OH234921   6.231   2.358   4.860
11655TIP3    H134922   6.250   2.377   4.768
11655TIP3    H234923   6.317   2.347   4.900
11656TIP3   OH234924   6.659   0.379   4.633
11656TIP3    H134925   6.730   0.387   4.696
11656TIP3    H234926   6.584   0.349   4.684
11657TIP3   OH234927   4.761   2.002   4.775
11657TIP3    H134928   4.752   1.985   4.869
11657TIP3    H234929   4.717   1.928   4.733
11658TIP3   OH234930   0.082   6.664   4.600
11658TIP3    H134931   0.012   6.645   4.662
11658TIP3    H234932   0.134   6.732   4.642
11659TIP3   OH234933   5.665   0.840   6.755
11659TIP3    H134934   5.633   0.917   6.802
11659TIP3    H234935   5.676   0.870   6.664
11660TIP3   OH234936   2.545   5.221   1.184
11660TIP3    H134937   2.488   5.244   1.110
11660TIP3    H234938   2.526   5.287   1.251
11661TIP3   OH234939   6.931   4.301   1.169
11661TIP3    H134940   6.998   4.238   1.141
11661TIP3    H234941   6.979   4.383   1.179
11662TIP3   OH234942   3.796   7.310   3.495
11662TIP3    H134943   3.747   7.294   3.576
11662TIP3    H234944   3.740   7.368   3.444
11663TIP3   OH234945   6.288   6.609   6.719
11663TIP3    H134946   6.217   6.545   6.714
11663TIP3    H234947   6.352   6.579   6.655
11664TIP3   OH234948   2.686   6.070   3.288
11664TIP3    H134949   2.590   6.075   3.281
11664TIP3    H234950   2.711   6.153   3.330
11665TIP3   OH234951   3.229   0.121   2.793
11665TIP3    H134952   3.288   0.064   2.844
11665TIP3    H234953   3.287   0.186   2.754
11666TIP3   OH234954   3.023   4.152   0.574
11666TIP3    H134955   3.043   4.067   0.535
11666TIP3    H234956   3.082   4.213   0.531
11667TIP3   OH234957   1.784   2.137   4.475
11667TIP3    H134958   1.762   2.049   4.505
11667TIP3    H234959   1.720   2.157   4.408
11668TIP3   OH234960   1.136   6.807   3.891
11668TIP3    H134961   1.109   6.777   3.804
11668TIP3    H234962   1.228   6.829   3.882
11669TIP3   OH234963   6.803   2.263   1.728
11669TIP3    H134964   6.866   2.204   1.768
11669TIP3    H234965   6.727   2.209   1.710
11670TIP3   OH234966   3.614   5.438   4.405
11670TIP3    H134967   3.709   5.431   4.414
11670TIP3    H234968   3.595   5.400   4.319
11671TIP3   OH234969   4.392   2.550   5.619
11671TIP3    H134970   4.372   2.635   5.579
11671TIP3    H234971   4.311   2.526   5.664
11672TIP3   OH234972   4.113   1.668   4.049
11672TIP3    H134973   4.184   1.731   4.065
11672TIP3    H234974   4.153   1.583   4.063
11673TIP3   OH234975   0.595   1.252   4.663
11673TIP3    H134976   0.551   1.194   4.725
11673TIP3    H234977   0.528   1.316   4.639
11674TIP3   OH234978   5.211   7.033   0.406
11674TIP3    H134979   5.128   7.015   0.362
11674TIP3    H234980   5.270   6.966   0.374
11675TIP3   OH234981   0.707   7.038   3.245
11675TIP3    H134982   0.638   6.972   3.249
11675TIP3    H234983   0.676   7.103   3.182
11676TIP3   OH234984   2.142   2.737   6.643
11676TIP3    H134985   2.063   2.697   6.608
11676TIP3    H234986   2.206   2.728   6.572
11677TIP3   OH234987   1.119   2.365   2.435
11677TIP3    H134988   1.185   2.338   2.371
11677TIP3    H234989   1.069   2.433   2.390
11678TIP3   OH234990   1.963   4.130   4.584
11678TIP3    H134991   1.917   4.052   4.554
11678TIP3    H234992   1.933   4.141   4.675
11679TIP3   OH234993   1.555   2.389   5.504
11679TIP3    H134994   1.540   2.318   5.442
11679TIP3    H234995   1.468   2.423   5.523
11680TIP3   OH234996   0.099   4.713   3.803
11680TIP3    H134997   0.060   4.770   3.736
11680TIP3    H234998   0.164   4.768   3.846
11681TIP3   OH234999   3.940   3.601   3.254
11681TIP3    H135000   3.977   3.667   3.196
11681TIP3    H235001   3.845   3.610   3.244
11682TIP3   OH235002   0.692   1.697   0.190
11682TIP3    H135003   0.720   1.770   0.246
11682TIP3    H235004   0.600   1.715   0.172
11683TIP3   OH235005   2.982   7.125   3.882
11683TIP3    H135006   2.991   7.137   3.976
11683TIP3    H235007   3.025   7.041   3.864
11684TIP3   OH235008   5.723   6.369   3.460
11684TIP3    H135009   5.668   6.313   3.405
11684TIP3    H235010   5.740   6.317   3.539
11685TIP3   OH235011   7.966   2.022   0.731
11685TIP3    H135012   7.948   2.026   0.637
11685TIP3    H235013   7.912   1.949   0.762
11686TIP3   OH235014   8.178   4.906   3.200
11686TIP3    H135015   8.272   4.892   3.213
11686TIP3    H235016   8.151   4.958   3.276
11687TIP3   OH235017   7.343   7.107   0.429
11687TIP3    H135018   7.407   7.177   0.437
11687TIP3    H235019   7.342   7.086   0.335
11688TIP3   OH235020   1.186   4.876   2.735
11688TIP3    H135021   1.245   4.808   2.703
11688TIP3    H235022   1.178   4.859   2.828
11689TIP3   OH235023   1.734   7.184   0.986
11689TIP3    H135024   1.659   7.240   1.005
11689TIP3    H235025   1.732   7.173   0.891
11690TIP3   OH235026   2.913   7.521   4.362
11690TIP3    H135027   2.839   7.472   4.327
11690TIP3    H235028   2.988   7.491   4.310
11691TIP3   OH235029   8.136   5.293   2.589
11691TIP3    H135030   8.059   5.308   2.533
11691TIP3    H235031   8.206   5.343   2.547
11692TIP3   OH235032   7.088   4.433   4.519
11692TIP3    H135033   7.001   4.428   4.557
11692TIP3    H235034   7.126   4.347   4.536
11693TIP3   OH235035   4.810   5.828   6.558
11693TIP3    H135036   4.765   5.873   6.486
11693TIP3    H235037   4.777   5.871   6.637
11694TIP3   OH235038   3.790   4.595   2.215
11694TIP3    H135039   3.719   4.657   2.230
11694TIP3    H235040   3.828   4.622   2.131
11695TIP3   OH235041   5.974   4.955   6.167
11695TIP3    H135042   5.983   5.048   6.147
11695TIP3    H235043   5.957   4.914   6.082
11696TIP3   OH235044   1.836   4.639   0.126
11696TIP3    H135045   1.912   4.617   0.072
11696TIP3    H235046   1.821   4.732   0.109
11697TIP3   OH235047   2.365   1.999   6.769
11697TIP3    H135048   2.421   2.068   6.804
11697TIP3    H235049   2.418   1.956   6.703
11698TIP3   OH235050   5.657   3.170   3.933
11698TIP3    H135051   5.594   3.103   3.907
11698TIP3    H235052   5.604   3.237   3.977
11699TIP3   OH235053   6.950   7.478   2.383
11699TIP3    H135054   6.905   7.534   2.321
11699TIP3    H235055   6.882   7.453   2.446
11700TIP3   OH235056   5.596   0.819   2.589
11700TIP3    H135057   5.659   0.765   2.539
11700TIP3    H235058   5.522   0.760   2.605
11701TIP3   OH235059   4.750   6.973   6.481
11701TIP3    H135060   4.732   6.883   6.506
11701TIP3    H235061   4.687   7.025   6.532
11702TIP3   OH235062   7.537   3.898   0.971
11702TIP3    H135063   7.601   3.827   0.968
11702TIP3    H235064   7.589   3.978   0.960
11703TIP3   OH235065   0.279   7.778   3.036
11703TIP3    H135066   0.220   7.752   3.107
11703TIP3    H235067   0.273   7.874   3.034
11704TIP3   OH235068   5.771   2.906   1.085
11704TIP3    H135069   5.823   2.828   1.104
11704TIP3    H235070   5.747   2.897   0.993
11705TIP3   OH235071   3.588   1.744   5.009
11705TIP3    H135072   3.643   1.822   5.006
11705TIP3    H235073   3.645   1.677   5.048
11706TIP3   OH235074   2.082   1.355   3.837
11706TIP3    H135075   2.079   1.393   3.925
11706TIP3    H235076   2.086   1.431   3.779
11707TIP3   OH235077   7.369   6.815   1.994
11707TIP3    H135078   7.412   6.733   1.969
11707TIP3    H235079   7.290   6.788   2.040
11708TIP3   OH235080   6.585   3.200   0.570
11708TIP3    H135081   6.532   3.278   0.587
11708TIP3    H235082   6.644   3.194   0.645
11709TIP3   OH235083   3.106   6.669   5.926
11709TIP3    H135084   3.063   6.727   5.989
11709TIP3    H235085   3.052   6.589   5.927
11710TIP3   OH235086   1.977   0.300   4.941
11710TIP3    H135087   1.922   0.314   5.018
11710TIP3    H235088   2.067   0.296   4.975
11711TIP3   OH235089   7.188   2.031   6.486
11711TIP3    H135090   7.204   1.981   6.566
11711TIP3    H235091   7.105   1.998   6.453
11712TIP3   OH235092   2.470   1.831   5.317
11712TIP3    H135093   2.443   1.794   5.402
11712TIP3    H235094   2.523   1.762   5.277
11713TIP3   OH235095   4.305   5.615   5.125
11713TIP3    H135096   4.340   5.702   5.103
11713TIP3    H235097   4.238   5.600   5.058
11714TIP3   OH235098   5.747   2.578   3.800
11714TIP3    H135099   5.688   2.517   3.844
11714TIP3    H235100   5.703   2.663   3.804
11715TIP3   OH235101   3.935   1.830   3.912
11715TIP3    H135102   3.999   1.782   3.964
11715TIP3    H235103   3.938   1.790   3.825
11716TIP3   OH235104   8.197   7.438   1.705
11716TIP3    H135105   8.214   7.397   1.790
11716TIP3    H235106   8.270   7.409   1.649
11717TIP3   OH235107   3.190   3.857   1.249
11717TIP3    H135108   3.241   3.817   1.180
11717TIP3    H235109   3.115   3.799   1.260
11718TIP3   OH235110   2.223   7.467   2.248
11718TIP3    H135111   2.186   7.469   2.336
11718TIP3    H235112   2.179   7.393   2.205
11719TIP3   OH235113   6.900   6.938   3.942
11719TIP3    H135114   6.845   6.940   3.864
11719TIP3    H235115   6.951   7.019   3.938
11720TIP3   OH235116   2.805   3.177   5.659
11720TIP3    H135117   2.794   3.086   5.630
11720TIP3    H235118   2.899   3.194   5.650
11721TIP3   OH235119   6.469   5.898   1.901
11721TIP3    H135120   6.393   5.919   1.954
11721TIP3    H235121   6.519   5.836   1.954
11722TIP3   OH235122   0.241   7.480   4.879
11722TIP3    H135123   0.238   7.574   4.860
11722TIP3    H235124   0.300   7.444   4.813
11723TIP3   OH235125   0.979   0.841   6.121
11723TIP3    H135126   0.896   0.817   6.161
11723TIP3    H235127   1.014   0.759   6.085
11724TIP3   OH235128   0.368   4.561   0.376
11724TIP3    H135129   0.312   4.483   0.373
11724TIP3    H235130   0.370   4.592   0.285
11725TIP3   OH235131   0.472   4.621   1.049
11725TIP3    H135132   0.488   4.537   1.008
11725TIP3    H235133   0.441   4.600   1.137
11726TIP3   OH235134   2.620   3.641   6.737
11726TIP3    H135135   2.675   3.673   6.666
11726TIP3    H235136   2.567   3.717   6.762
11727TIP3   OH235137   4.328   4.558   2.374
11727TIP3    H135138   4.259   4.491   2.380
11727TIP3    H235139   4.406   4.514   2.408
11728TIP3   OH235140   1.564   2.015   3.788
11728TIP3    H135141   1.489   2.044   3.840
11728TIP3    H235142   1.539   2.033   3.697
11729TIP3   OH235143   5.484   1.861   1.314
11729TIP3    H135144   5.421   1.793   1.289
11729TIP3    H235145   5.521   1.890   1.231
11730TIP3   OH235146   3.754   1.927   6.021
11730TIP3    H135147   3.783   1.954   6.108
11730TIP3    H235148   3.834   1.925   5.969
11731TIP3   OH235149   0.719   6.922   4.978
11731TIP3    H135150   0.748   6.911   4.888
11731TIP3    H235151   0.747   6.842   5.023
11732TIP3   OH235152   6.818   5.459   2.583
11732TIP3    H135153   6.800   5.542   2.627
11732TIP3    H235154   6.732   5.429   2.553
11733TIP3   OH235155   6.774   3.833   3.446
11733TIP3    H135156   6.842   3.788   3.396
11733TIP3    H235157   6.790   3.926   3.431
11734TIP3   OH235158   4.658   6.615   4.331
11734TIP3    H135159   4.661   6.619   4.235
11734TIP3    H235160   4.717   6.543   4.353
11735TIP3   OH235161   7.941   4.831   6.393
11735TIP3    H135162   7.980   4.899   6.337
11735TIP3    H235163   8.016   4.789   6.435
11736TIP3   OH235164   8.227   3.118   4.825
11736TIP3    H135165   8.259   3.096   4.738
11736TIP3    H235166   8.133   3.133   4.814
11737TIP3   OH235167   1.964   4.439   0.310
11737TIP3    H135168   1.907   4.470   0.240
11737TIP3    H235169   2.034   4.393   0.265
11738TIP3   OH235170   5.402   7.389   1.149
11738TIP3    H135171   5.314   7.356   1.165
11738TIP3    H235172   5.447   7.379   1.233
11739TIP3   OH235173   2.540   6.049   5.676
11739TIP3    H135174   2.516   6.063   5.584
11739TIP3    H235175   2.521   5.957   5.692
11740TIP3   OH235176   0.023   1.129   0.359
11740TIP3    H135177   0.077   1.063   0.403
11740TIP3    H235178  -0.038   1.078   0.305
11741TIP3   OH235179   4.632   3.689   1.550
11741TIP3    H135180   4.682   3.637   1.613
11741TIP3    H235181   4.541   3.681   1.578
11742TIP3   OH235182   6.361   0.398   0.129
11742TIP3    H135183   6.452   0.379   0.105
11742TIP3    H235184   6.311   0.323   0.095
11743TIP3   OH235185   5.291   6.141   3.323
11743TIP3    H135186   5.240   6.195   3.262
11743TIP3    H235187   5.226   6.086   3.367
11744TIP3   OH235188   1.559   0.878   1.355
11744TIP3    H135189   1.501   0.829   1.297
11744TIP3    H235190   1.557   0.967   1.320
11745TIP3   OH235191   2.696   6.265   3.548
11745TIP3    H135192   2.630   6.203   3.517
11745TIP3    H235193   2.668   6.287   3.637
11746TIP3   OH235194   2.136   4.652   3.091
11746TIP3    H135195   2.174   4.732   3.129
11746TIP3    H235196   2.203   4.620   3.031
11747TIP3   OH235197   6.827   5.596   6.567
11747TIP3    H135198   6.894   5.527   6.570
11747TIP3    H235199   6.861   5.664   6.625
11748TIP3   OH235200   4.460   7.625   5.079
11748TIP3    H135201   4.499   7.554   5.029
11748TIP3    H235202   4.429   7.584   5.160
11749TIP3   OH235203   3.453   3.892   5.765
11749TIP3    H135204   3.426   3.973   5.808
11749TIP3    H235205   3.458   3.828   5.836
11750TIP3   OH235206   5.134   7.748   5.225
11750TIP3    H135207   5.057   7.805   5.223
11750TIP3    H235208   5.204   7.804   5.258
11751TIP3   OH235209   8.306   3.275   0.234
11751TIP3    H135210   8.273   3.364   0.218
11751TIP3    H235211   8.247   3.218   0.185
11752TIP3   OH235212   7.169   4.824   5.721
11752TIP3    H135213   7.143   4.751   5.777
11752TIP3    H235214   7.093   4.840   5.665
11753TIP3   OH235215   0.273   6.271   3.797
11753TIP3    H135216   0.183   6.258   3.826
11753TIP3    H235217   0.324   6.273   3.877
11754TIP3   OH235218   4.440   4.464   0.033
11754TIP3    H135219   4.518   4.506  -0.006
11754TIP3    H235220   4.434   4.502   0.120
11755TIP3   OH235221   7.707   0.292   4.599
11755TIP3    H135222   7.754   0.306   4.517
11755TIP3    H235223   7.708   0.197   4.612
11756TIP3   OH235224   2.474   3.120   5.176
11756TIP3    H135225   2.505   3.084   5.092
11756TIP3    H235226   2.543   3.096   5.238
11757TIP3   OH235227   4.665   6.338   0.004
11757TIP3    H135228   4.620   6.323   0.087
11757TIP3    H235229   4.596   6.331  -0.063
11758TIP3   OH235230   0.771   1.413   3.055
11758TIP3    H135231   0.703   1.347   3.045
11758TIP3    H235232   0.724   1.492   3.083
11759TIP3   OH235233   0.202   7.070   1.898
11759TIP3    H135234   0.200   7.148   1.842
11759TIP3    H235235   0.152   7.005   1.850
11760TIP3   OH235236   0.710   2.848   5.724
11760TIP3    H135237   0.720   2.788   5.798
11760TIP3    H235238   0.734   2.934   5.760
11761TIP3   OH235239   2.841   1.590   1.743
11761TIP3    H135240   2.840   1.560   1.652
11761TIP3    H235241   2.798   1.520   1.792
11762TIP3   OH235242   4.031   6.696   5.919
11762TIP3    H135243   3.952   6.668   5.965
11762TIP3    H235244   4.001   6.714   5.830
11763TIP3   OH235245   2.872   3.306   1.483
11763TIP3    H135246   2.829   3.254   1.551
11763TIP3    H235247   2.959   3.267   1.474
11764TIP3   OH235248   6.626   1.514   0.881
11764TIP3    H135249   6.673   1.438   0.917
11764TIP3    H235250   6.539   1.480   0.860
11765TIP3   OH235251   7.586   5.395   6.706
11765TIP3    H135252   7.581   5.339   6.783
11765TIP3    H235253   7.604   5.335   6.633
11766TIP3   OH235254   5.370   3.874   1.508
11766TIP3    H135255   5.327   3.813   1.568
11766TIP3    H235256   5.383   3.823   1.427
11767TIP3   OH235257   0.848   4.973   1.390
11767TIP3    H135258   0.823   4.883   1.371
11767TIP3    H235259   0.802   4.995   1.471
11768TIP3   OH235260   6.293   4.853   0.980
11768TIP3    H135261   6.348   4.817   1.050
11768TIP3    H235262   6.228   4.907   1.026
11769TIP3   OH235263  -0.028   7.532   4.238
11769TIP3    H135264   0.024   7.471   4.186
11769TIP3    H235265   0.022   7.614   4.237
11770TIP3   OH235266   5.592   2.918   4.980
11770TIP3    H135267   5.643   2.916   4.900
11770TIP3    H235268   5.608   3.006   5.017
11771TIP3   OH235269   2.725   3.976   4.696
11771TIP3    H135270   2.799   3.991   4.637
11771TIP3    H235271   2.722   4.054   4.752
11772TIP3   OH235272   3.954   0.327   2.028
11772TIP3    H135273   3.963   0.338   1.934
11772TIP3    H235274   3.882   0.264   2.039
11773TIP3   OH235275   4.502   4.086   5.978
11773TIP3    H135276   4.499   4.164   6.033
11773TIP3    H235277   4.476   4.015   6.037
11774TIP3   OH235278   6.808   1.028   2.987
11774TIP3    H135279   6.833   1.093   3.053
11774TIP3    H235280   6.753   1.077   2.926
11775TIP3   OH235281   6.545   5.275   4.974
11775TIP3    H135282   6.562   5.214   5.046
11775TIP3    H235283   6.465   5.321   5.000
11776TIP3   OH235284   6.388   3.069   0.050
11776TIP3    H135285   6.441   3.071  -0.029
11776TIP3    H235286   6.438   3.119   0.115
11777TIP3   OH235287   2.152   6.497   1.069
11777TIP3    H135288   2.147   6.546   1.151
11777TIP3    H235289   2.148   6.563   1.000
11778TIP3   OH235290   2.330   7.270   2.955
11778TIP3    H135291   2.414   7.226   2.949
11778TIP3    H235292   2.349   7.354   2.998
11779TIP3   OH235293   1.449   4.534   3.247
11779TIP3    H135294   1.421   4.625   3.247
11779TIP3    H235295   1.543   4.538   3.265
11780TIP3   OH235296   8.152   1.688   0.847
11780TIP3    H135297   8.077   1.679   0.788
11780TIP3    H235298   8.154   1.606   0.896
11781TIP3   OH235299   3.845   0.780   1.900
11781TIP3    H135300   3.764   0.741   1.866
11781TIP3    H235301   3.825   0.801   1.991
11782TIP3   OH235302   0.209   3.781   2.218
11782TIP3    H135303   0.288   3.785   2.272
11782TIP3    H235304   0.149   3.843   2.259
11783TIP3   OH235305   1.845   6.901   2.322
11783TIP3    H135306   1.871   6.993   2.334
11783TIP3    H235307   1.893   6.854   2.389
11784TIP3   OH235308   1.302   7.000   1.611
11784TIP3    H135309   1.240   7.045   1.553
11784TIP3    H235310   1.356   7.069   1.648
11785TIP3   OH235311   6.797   6.171   6.273
11785TIP3    H135312   6.846   6.136   6.347
11785TIP3    H235313   6.806   6.104   6.204
11786TIP3   OH235314   3.493   0.004   2.646
11786TIP3    H135315   3.421  -0.023   2.590
11786TIP3    H235316   3.472   0.094   2.670
11787TIP3   OH235317   4.129   6.236   2.295
11787TIP3    H135318   4.060   6.302   2.288
11787TIP3    H235319   4.211   6.285   2.297
11788TIP3   OH235320   7.050   5.872   5.950
11788TIP3    H135321   7.129   5.925   5.947
11788TIP3    H235322   7.069   5.802   6.012
11789TIP3   OH235323   5.073   6.027   4.542
11789TIP3    H135324   5.159   5.984   4.547
11789TIP3    H235325   5.087   6.099   4.480
11790TIP3   OH235326   4.146   5.967   0.683
11790TIP3    H135327   4.155   6.017   0.601
11790TIP3    H235328   4.077   6.013   0.731
11791TIP3   OH235329   6.345   3.305   1.011
11791TIP3    H135330   6.305   3.368   1.072
11791TIP3    H235331   6.396   3.247   1.067
11792TIP3   OH235332   4.353   4.795   1.179
11792TIP3    H135333   4.341   4.877   1.226
11792TIP3    H235334   4.362   4.821   1.087
11793TIP3   OH235335   1.746   3.938   4.530
11793TIP3    H135336   1.759   3.906   4.619
11793TIP3    H235337   1.717   3.862   4.481
11794TIP3   OH235338   0.570   7.471   0.428
11794TIP3    H135339   0.589   7.384   0.393
11794TIP3    H235340   0.482   7.491   0.396
11795TIP3   OH235341   0.806   5.094   6.247
11795TIP3    H135342   0.888   5.045   6.259
11795TIP3    H235343   0.775   5.067   6.160
11796TIP3   OH235344   4.866   5.973   0.039
11796TIP3    H135345   4.957   5.944   0.035
11796TIP3    H235346   4.868   6.064   0.010
11797TIP3   OH235347   5.357   2.837   1.223
11797TIP3    H135348   5.405   2.878   1.151
11797TIP3    H235349   5.374   2.743   1.212
11798TIP3   OH235350   0.120   0.110   5.972
11798TIP3    H135351   0.194   0.068   6.015
11798TIP3    H235352   0.043   0.081   6.021
11799TIP3   OH235353   4.062   7.161   2.727
11799TIP3    H135354   3.985   7.106   2.740
11799TIP3    H235355   4.121   7.107   2.674
11800TIP3   OH235356   8.036   6.985   4.096
11800TIP3    H135357   8.021   6.902   4.050
11800TIP3    H235358   8.104   7.028   4.045
11801TIP3   OH235359   6.925   1.669   1.965
11801TIP3    H135360   6.857   1.655   2.031
11801TIP3    H235361   6.885   1.726   1.900
11802TIP3   OH235362   2.097   1.658   2.052
11802TIP3    H135363   2.095   1.628   2.143
11802TIP3    H235364   2.136   1.745   2.056
11803TIP3   OH235365   3.641   1.630   5.609
11803TIP3    H135366   3.599   1.586   5.683
11803TIP3    H235367   3.644   1.563   5.540
11804TIP3   OH235368   0.925   6.787   1.389
11804TIP3    H135369   0.887   6.857   1.443
11804TIP3    H235370   0.998   6.753   1.440
11805TIP3   OH235371  -0.021   5.244   6.187
11805TIP3    H135372   0.062   5.244   6.235
11805TIP3    H235373   0.003   5.264   6.097
11806TIP3   OH235374   6.571   0.603   1.542
11806TIP3    H135375   6.575   0.697   1.524
11806TIP3    H235376   6.494   0.572   1.494
11807TIP3   OH235377   3.386   4.382   6.552
11807TIP3    H135378   3.341   4.331   6.619
11807TIP3    H235379   3.434   4.318   6.500
11808TIP3   OH235380   1.426   1.586   6.101
11808TIP3    H135381   1.359   1.535   6.055
11808TIP3    H235382   1.472   1.521   6.155
11809TIP3   OH235383   3.845   0.224   0.820
11809TIP3    H135384   3.857   0.166   0.895
11809TIP3    H235385   3.792   0.174   0.759
11810TIP3   OH235386   6.277   4.034   2.832
11810TIP3    H135387   6.227   3.952   2.831
11810TIP3    H235388   6.338   4.023   2.904
11811TIP3   OH235389   5.133   7.681   1.090
11811TIP3    H135390   5.057   7.724   1.128
11811TIP3    H235391   5.151   7.607   1.148
11812TIP3   OH235392   2.898   6.634   0.524
11812TIP3    H135393   2.851   6.681   0.456
11812TIP3    H235394   2.830   6.603   0.584
11813TIP3   OH235395   4.245   7.143   3.781
11813TIP3    H135396   4.169   7.150   3.724
11813TIP3    H235397   4.217   7.086   3.853
11814TIP3   OH235398   7.555   2.534   4.033
11814TIP3    H135399   7.582   2.617   3.993
11814TIP3    H235400   7.637   2.498   4.069
11815TIP3   OH235401   7.210   3.417   3.040
11815TIP3    H135402   7.207   3.499   2.992
11815TIP3    H235403   7.301   3.409   3.069
11816TIP3   OH235404   4.155   0.851   0.767
11816TIP3    H135405   4.233   0.812   0.805
11816TIP3    H235406   4.082   0.804   0.806
11817TIP3   OH235407   4.970   4.440   4.075
11817TIP3    H135408   4.975   4.377   4.147
11817TIP3    H235409   4.985   4.525   4.117
11818TIP3   OH235410   2.096   0.994   4.192
11818TIP3    H135411   2.070   0.965   4.280
11818TIP3    H235412   2.164   0.932   4.165
11819TIP3   OH235413   0.905   0.151   3.894
11819TIP3    H135414   0.894   0.062   3.859
11819TIP3    H235415   0.834   0.159   3.959
11820TIP3   OH235416   1.106   1.218   2.750
11820TIP3    H135417   1.177   1.153   2.757
11820TIP3    H235418   1.103   1.241   2.657
11821TIP3   OH235419   4.765   6.542   0.270
11821TIP3    H135420   4.819   6.475   0.313
11821TIP3    H235421   4.829   6.607   0.239
11822TIP3   OH235422   8.307   1.162   3.421
11822TIP3    H135423   8.222   1.124   3.443
11822TIP3    H235424   8.318   1.144   3.327
11823TIP3   OH235425   6.855   3.359   5.972
11823TIP3    H135426   6.886   3.443   5.937
11823TIP3    H235427   6.868   3.367   6.066
11824TIP3   OH235428   2.731   3.691   3.779
11824TIP3    H135429   2.719   3.681   3.685
11824TIP3    H235430   2.652   3.654   3.818
11825TIP3   OH235431   7.537   7.504   3.302
11825TIP3    H135432   7.579   7.541   3.380
11825TIP3    H235433   7.562   7.411   3.303
11826TIP3   OH235434   7.741   3.435   2.133
11826TIP3    H135435   7.658   3.483   2.141
11826TIP3    H235436   7.773   3.427   2.222
11827TIP3   OH235437   2.328   6.338   4.717
11827TIP3    H135438   2.295   6.386   4.641
11827TIP3    H235439   2.256   6.279   4.740
11828TIP3   OH235440   3.837   1.765   0.199
11828TIP3    H135441   3.862   1.726   0.116
11828TIP3    H235442   3.753   1.724   0.221
11829TIP3   OH235443   6.323   7.139   0.947
11829TIP3    H135444   6.245   7.120   0.895
11829TIP3    H235445   6.385   7.178   0.884
11830TIP3   OH235446   1.620   0.303   4.230
11830TIP3    H135447   1.674   0.306   4.150
11830TIP3    H235448   1.603   0.210   4.244
11831TIP3   OH235449   3.930   5.857   0.357
11831TIP3    H135450   4.011   5.900   0.383
11831TIP3    H235451   3.863   5.898   0.412
11832TIP3   OH235452   7.487   4.111   4.736
11832TIP3    H135453   7.492   4.179   4.669
11832TIP3    H235454   7.565   4.058   4.722
11833TIP3   OH235455   0.926   3.424   4.157
11833TIP3    H135456   0.865   3.352   4.145
11833TIP3    H235457   0.875   3.493   4.199
11834TIP3   OH235458   0.684   0.414   6.612
11834TIP3    H135459   0.649   0.330   6.581
11834TIP3    H235460   0.622   0.442   6.680
11835TIP3   OH235461   5.535   3.929   3.599
11835TIP3    H135462   5.565   4.018   3.611
11835TIP3    H235463   5.614   3.875   3.603
11836TIP3   OH235464   7.151   5.511   6.570
11836TIP3    H135465   7.174   5.497   6.662
11836TIP3    H235466   7.184   5.433   6.525
11837TIP3   OH235467   7.128   2.868   0.870
11837TIP3    H135468   7.089   2.940   0.820
11837TIP3    H235469   7.207   2.905   0.908
11838TIP3   OH235470   0.467   4.130   0.607
11838TIP3    H135471   0.477   4.144   0.701
11838TIP3    H235472   0.514   4.049   0.589
11839TIP3   OH235473   8.004   0.356   2.365
11839TIP3    H135474   8.001   0.348   2.461
11839TIP3    H235475   7.978   0.270   2.332
11840TIP3   OH235476   3.253   1.024   0.146
11840TIP3    H135477   3.300   1.097   0.105
11840TIP3    H235478   3.174   1.064   0.183
11841TIP3   OH235479   3.469   6.450   5.535
11841TIP3    H135480   3.473   6.416   5.624
11841TIP3    H235481   3.379   6.433   5.507
11842TIP3   OH235482   4.710   5.945   6.319
11842TIP3    H135483   4.719   6.029   6.273
11842TIP3    H235484   4.768   5.886   6.271
11843TIP3   OH235485   7.576   2.500   0.954
11843TIP3    H135486   7.639   2.477   0.885
11843TIP3    H235487   7.534   2.580   0.923
11844TIP3   OH235488   6.184   7.780   5.998
11844TIP3    H135489   6.101   7.752   5.957
11844TIP3    H235490   6.163   7.785   6.091
11845TIP3   OH235491   1.578   3.404   5.081
11845TIP3    H135492   1.626   3.347   5.141
11845TIP3    H235493   1.540   3.344   5.017
11846TIP3   OH235494   4.897   0.230   1.167
11846TIP3    H135495   4.976   0.196   1.126
11846TIP3    H235496   4.876   0.309   1.116
11847TIP3   OH235497   6.541   3.381   1.530
11847TIP3    H135498   6.521   3.383   1.623
11847TIP3    H235499   6.612   3.444   1.519
11848TIP3   OH235500   4.577   4.337   5.744
11848TIP3    H135501   4.662   4.381   5.743
11848TIP3    H235502   4.598   4.244   5.736
11849TIP3   OH235503   0.944   3.878   6.224
11849TIP3    H135504   0.915   3.814   6.159
11849TIP3    H235505   0.979   3.950   6.172
11850TIP3   OH235506   6.364   1.885   5.369
11850TIP3    H135507   6.306   1.961   5.373
11850TIP3    H235508   6.317   1.816   5.415
11851TIP3   OH235509   5.455   4.756   1.180
11851TIP3    H135510   5.466   4.759   1.085
11851TIP3    H235511   5.365   4.726   1.193
11852TIP3   OH235512   1.972   1.420   2.500
11852TIP3    H135513   1.993   1.364   2.426
11852TIP3    H235514   1.910   1.369   2.552
11853TIP3   OH235515   0.448   4.397   1.888
11853TIP3    H135516   0.389   4.373   1.959
11853TIP3    H235517   0.390   4.408   1.812
11854TIP3   OH235518   6.603   1.720   6.074
11854TIP3    H135519   6.669   1.699   6.008
11854TIP3    H235520   6.527   1.752   6.024
11855TIP3   OH235521   5.955   5.547   2.598
11855TIP3    H135522   5.924   5.476   2.654
11855TIP3    H235523   5.926   5.523   2.510
11856TIP3   OH235524   1.913   1.282   4.221
11856TIP3    H135525   1.895   1.190   4.203
11856TIP3    H235526   1.985   1.281   4.284
11857TIP3   OH235527   3.171   1.363   2.129
11857TIP3    H135528   3.163   1.457   2.143
11857TIP3    H235529   3.085   1.337   2.095
11858TIP3   OH235530   4.234   4.900   1.664
11858TIP3    H135531   4.194   4.886   1.750
11858TIP3    H235532   4.320   4.938   1.684
11859TIP3   OH235533   3.735   3.034   0.799
11859TIP3    H135534   3.787   3.018   0.720
11859TIP3    H235535   3.768   2.971   0.862
11860TIP3   OH235536   2.179   1.029   2.043
11860TIP3    H135537   2.160   0.949   2.091
11860TIP3    H235538   2.261   1.011   1.997
11861TIP3   OH235539   0.056   4.684   4.932
11861TIP3    H135540   0.141   4.660   4.895
11861TIP3    H235541   0.007   4.721   4.859
11862TIP3   OH235542   3.305   0.748   3.314
11862TIP3    H135543   3.313   0.824   3.256
11862TIP3    H235544   3.374   0.688   3.286
11863TIP3   OH235545   1.620   2.463   2.790
11863TIP3    H135546   1.618   2.550   2.831
11863TIP3    H235547   1.534   2.426   2.808
11864TIP3   OH235548   1.955   0.638   1.045
11864TIP3    H135549   1.988   0.549   1.052
11864TIP3    H235550   1.903   0.639   0.965
11865TIP3   OH235551   1.421   2.789   5.721
11865TIP3    H135552   1.407   2.864   5.778
11865TIP3    H235553   1.368   2.807   5.643
11866TIP3   OH235554   6.748   4.794   4.157
11866TIP3    H135555   6.775   4.710   4.119
11866TIP3    H235556   6.726   4.773   4.248
11867TIP3   OH235557   1.960   5.900   4.975
11867TIP3    H135558   2.050   5.866   4.974
11867TIP3    H235559   1.907   5.830   4.938
11868TIP3   OH235560   1.214   0.457   4.140
11868TIP3    H135561   1.164   0.428   4.216
11868TIP3    H235562   1.289   0.503   4.177
11869TIP3   OH235563   1.509   6.943   0.554
11869TIP3    H135564   1.552   7.024   0.582
11869TIP3    H235565   1.540   6.929   0.464
11870TIP3   OH235566   3.146   4.178   6.088
11870TIP3    H135567   3.238   4.203   6.102
11870TIP3    H235568   3.128   4.202   5.997
11871TIP3   OH235569   6.995   2.733   3.294
11871TIP3    H135570   6.993   2.675   3.370
11871TIP3    H235571   6.959   2.680   3.223
11872TIP3   OH235572   6.858   6.237   0.684
11872TIP3    H135573   6.841   6.154   0.728
11872TIP3    H235574   6.786   6.246   0.621
11873TIP3   OH235575   4.142   6.986   2.370
11873TIP3    H135576   4.231   6.977   2.405
11873TIP3    H235577   4.144   6.937   2.288
11874TIP3   OH235578   6.180   0.665   1.261
11874TIP3    H135579   6.262   0.700   1.227
11874TIP3    H235580   6.149   0.731   1.323
11875TIP3   OH235581   7.686   2.976   5.246
11875TIP3    H135582   7.754   2.964   5.312
11875TIP3    H235583   7.610   2.931   5.282
11876TIP3   OH235584   2.858   0.409   5.614
11876TIP3    H135585   2.838   0.398   5.707
11876TIP3    H235586   2.873   0.503   5.603
11877TIP3   OH235587   0.938   7.137   0.895
11877TIP3    H135588   0.982   7.058   0.864
11877TIP3    H235589   0.856   7.105   0.934
11878TIP3   OH235590   2.853   2.430   0.825
11878TIP3    H135591   2.790   2.490   0.786
11878TIP3    H235592   2.927   2.485   0.851
11879TIP3   OH235593   7.175   2.869   6.629
11879TIP3    H135594   7.120   2.945   6.649
11879TIP3    H235595   7.153   2.847   6.538
11880TIP3   OH235596   8.140   0.117   5.208
11880TIP3    H135597   8.204   0.177   5.170
11880TIP3    H235598   8.186   0.033   5.216
11881TIP3   OH235599   3.079   5.219   0.868
11881TIP3    H135600   3.121   5.218   0.953
11881TIP3    H235601   3.143   5.258   0.809
11882TIP3   OH235602   3.608   4.732   6.452
11882TIP3    H135603   3.629   4.653   6.502
11882TIP3    H235604   3.606   4.802   6.517
11883TIP3   OH235605   6.273   6.134   4.201
11883TIP3    H135606   6.226   6.182   4.269
11883TIP3    H235607   6.319   6.201   4.151
11884TIP3   OH235608   4.184   5.210   1.763
11884TIP3    H135609   4.179   5.148   1.835
11884TIP3    H235610   4.143   5.165   1.689
11885TIP3   OH235611   4.359   2.096   4.834
11885TIP3    H135612   4.414   2.158   4.882
11885TIP3    H235613   4.391   2.101   4.744
11886TIP3   OH235614   6.664   7.007   4.090
11886TIP3    H135615   6.685   7.100   4.082
11886TIP3    H235616   6.729   6.963   4.035
11887TIP3   OH235617   4.892   0.279   6.085
11887TIP3    H135618   4.918   0.220   6.014
11887TIP3    H235619   4.851   0.354   6.040
11888TIP3   OH235620   1.731   5.455   5.639
11888TIP3    H135621   1.718   5.379   5.695
11888TIP3    H235622   1.684   5.526   5.683
11889TIP3   OH235623   7.419   2.588   2.437
11889TIP3    H135624   7.384   2.540   2.362
11889TIP3    H235625   7.389   2.540   2.513
11890TIP3   OH235626   6.223   3.369   6.657
11890TIP3    H135627   6.200   3.298   6.597
11890TIP3    H235628   6.204   3.449   6.608
11891TIP3   OH235629   0.891   5.417   3.436
11891TIP3    H135630   0.925   5.506   3.432
11891TIP3    H235631   0.797   5.428   3.453
11892TIP3   OH235632   2.091   5.373   4.399
11892TIP3    H135633   2.102   5.333   4.312
11892TIP3    H235634   1.999   5.397   4.403
11893TIP3   OH235635   3.579   3.555   5.111
11893TIP3    H135636   3.596   3.462   5.096
11893TIP3    H235637   3.484   3.563   5.109
11894TIP3   OH235638   7.584   2.793   6.416
11894TIP3    H135639   7.629   2.774   6.334
11894TIP3    H235640   7.509   2.847   6.391
11895TIP3   OH235641   2.020   1.624   1.255
11895TIP3    H135642   2.019   1.532   1.278
11895TIP3    H235643   1.991   1.669   1.334
11896TIP3   OH235644   1.185   3.411   2.724
11896TIP3    H135645   1.156   3.500   2.744
11896TIP3    H235646   1.147   3.392   2.638
11897TIP3   OH235647   0.736   0.447   1.656
11897TIP3    H135648   0.702   0.473   1.742
11897TIP3    H235649   0.741   0.352   1.660
11898TIP3   OH235650   8.091   7.536   6.396
11898TIP3    H135651   8.007   7.493   6.410
11898TIP3    H235652   8.084   7.572   6.307
11899TIP3   OH235653   7.954   6.451   0.580
11899TIP3    H135654   7.936   6.374   0.527
11899TIP3    H235655   7.883   6.452   0.645
11900TIP3   OH235656   0.329   6.080   4.371
11900TIP3    H135657   0.420   6.104   4.384
11900TIP3    H235658   0.280   6.142   4.424
11901TIP3   OH235659   3.561   4.276   5.278
11901TIP3    H135660   3.552   4.369   5.259
11901TIP3    H235661   3.555   4.269   5.373
11902TIP3   OH235662   8.212   7.142   2.681
11902TIP3    H135663   8.159   7.064   2.663
11902TIP3    H235664   8.156   7.197   2.735
11903TIP3   OH235665   7.063   2.150   3.059
11903TIP3    H135666   7.157   2.134   3.050
11903TIP3    H235667   7.025   2.063   3.065
11904TIP3   OH235668   7.146   4.646   1.395
11904TIP3    H135669   7.239   4.640   1.373
11904TIP3    H235670   7.134   4.582   1.464
11905TIP3   OH235671   6.222   6.090   2.656
11905TIP3    H135672   6.170   6.141   2.595
11905TIP3    H235673   6.214   6.000   2.625
11906TIP3   OH235674   6.694   1.955   0.696
11906TIP3    H135675   6.629   1.996   0.753
11906TIP3    H235676   6.668   1.863   0.692
11907TIP3   OH235677   0.038   6.639   5.529
11907TIP3    H135678   0.081   6.626   5.444
11907TIP3    H235679   0.097   6.597   5.592
11908TIP3   OH235680   7.002   2.890   5.622
11908TIP3    H135681   6.980   2.982   5.611
11908TIP3    H235682   7.039   2.884   5.710
11909TIP3   OH235683   6.214   2.319   3.683
11909TIP3    H135684   6.180   2.274   3.760
11909TIP3    H235685   6.137   2.362   3.644
11910TIP3   OH235686   7.762   1.226   0.731
11910TIP3    H135687   7.731   1.144   0.769
11910TIP3    H235688   7.745   1.292   0.798
11911TIP3   OH235689   5.670   0.735   6.248
11911TIP3    H135690   5.610   0.704   6.181
11911TIP3    H235691   5.641   0.825   6.267
11912TIP3   OH235692   3.217   7.091   4.496
11912TIP3    H135693   3.221   7.171   4.442
11912TIP3    H235694   3.245   7.120   4.583
11913TIP3   OH235695   7.278   3.740   5.558
11913TIP3    H135696   7.255   3.830   5.583
11913TIP3    H235697   7.273   3.691   5.640
11914TIP3   OH235698   0.324   4.316   6.501
11914TIP3    H135699   0.319   4.233   6.453
11914TIP3    H235700   0.356   4.291   6.588
11915TIP3   OH235701   5.699   7.613   0.312
11915TIP3    H135702   5.665   7.666   0.384
11915TIP3    H235703   5.629   7.551   0.291
11916TIP3   OH235704   1.381   4.180   4.271
11916TIP3    H135705   1.471   4.181   4.237
11916TIP3    H235706   1.329   4.150   4.197
11917TIP3   OH235707   8.151   0.912   0.335
11917TIP3    H135708   8.105   0.934   0.416
11917TIP3    H235709   8.127   0.821   0.318
11918TIP3   OH235710   0.453   7.248   6.679
11918TIP3    H135711   0.476   7.163   6.717
11918TIP3    H235712   0.523   7.307   6.707
11919TIP3   OH235713   0.165   3.224   5.899
11919TIP3    H135714   0.179   3.174   5.819
11919TIP3    H235715   0.248   3.269   5.916
11920TIP3   OH235716   0.735   5.406   0.295
11920TIP3    H135717   0.670   5.338   0.281
11920TIP3    H235718   0.816   5.359   0.312
11921TIP3   OH235719   1.120   7.382   2.233
11921TIP3    H135720   1.129   7.393   2.138
11921TIP3    H235721   1.209   7.393   2.267
11922TIP3   OH235722   2.153   2.023   0.977
11922TIP3    H135723   2.142   1.961   0.904
11922TIP3    H235724   2.103   1.984   1.049
11923TIP3   OH235725   4.445   7.757   2.201
11923TIP3    H135726   4.351   7.761   2.184
11923TIP3    H235727   4.464   7.837   2.250
11924TIP3   OH235728   3.868   4.278   0.424
11924TIP3    H135729   3.952   4.314   0.450
11924TIP3    H235730   3.865   4.192   0.466
11925TIP3   OH235731   7.469   0.445   3.165
11925TIP3    H135732   7.512   0.410   3.243
11925TIP3    H235733   7.520   0.410   3.091
11926TIP3   OH235734   5.984   0.808   3.498
11926TIP3    H135735   6.045   0.842   3.563
11926TIP3    H235736   6.034   0.741   3.451
11927TIP3   OH235737   6.181   7.296   4.500
11927TIP3    H135738   6.129   7.336   4.570
11927TIP3    H235739   6.271   7.306   4.529
11928TIP3   OH235740   3.676   7.644   5.019
11928TIP3    H135741   3.636   7.580   5.078
11928TIP3    H235742   3.757   7.602   4.990
11929TIP3   OH235743   6.204   1.720   0.850
11929TIP3    H135744   6.263   1.793   0.871
11929TIP3    H235745   6.186   1.679   0.935
11930TIP3   OH235746   6.396   4.132   1.287
11930TIP3    H135747   6.486   4.120   1.256
11930TIP3    H235748   6.399   4.212   1.340
11931TIP3   OH235749   4.874   4.256   1.157
11931TIP3    H135750   4.825   4.324   1.202
11931TIP3    H235751   4.826   4.175   1.175
11932TIP3   OH235752   5.705   5.027   6.258
11932TIP3    H135753   5.795   4.995   6.249
11932TIP3    H235754   5.658   4.955   6.300
11933TIP3   OH235755   7.991   4.111   0.529
11933TIP3    H135756   7.950   4.186   0.487
11933TIP3    H235757   7.918   4.063   0.569
11934TIP3   OH235758   6.956   7.021   1.793
11934TIP3    H135759   7.005   7.022   1.711
11934TIP3    H235760   7.023   7.021   1.861
11935TIP3   OH235761   0.246   7.133   3.738
11935TIP3    H135762   0.254   7.117   3.832
11935TIP3    H235763   0.302   7.209   3.721
11936TIP3   OH235764   5.245   2.383   3.958
11936TIP3    H135765   5.285   2.418   4.038
11936TIP3    H235766   5.318   2.370   3.898
11937TIP3   OH235767   2.395   6.311   0.742
11937TIP3    H135768   2.423   6.365   0.816
11937TIP3    H235769   2.440   6.349   0.667
11938TIP3   OH235770   5.760   1.994   4.430
11938TIP3    H135771   5.698   1.927   4.400
11938TIP3    H235772   5.705   2.064   4.465
11939TIP3   OH235773   7.141   3.416   2.576
11939TIP3    H135774   7.207   3.357   2.612
11939TIP3    H235775   7.189   3.474   2.518
11940TIP3   OH235776   2.495   5.921   6.715
11940TIP3    H135777   2.489   5.999   6.659
11940TIP3    H235778   2.589   5.909   6.728
11941TIP3   OH235779   4.872   4.928   3.180
11941TIP3    H135780   4.782   4.940   3.149
11941TIP3    H235781   4.896   4.840   3.152
11942TIP3   OH235782   7.824   2.053   5.284
11942TIP3    H135783   7.831   2.069   5.378
11942TIP3    H235784   7.811   2.140   5.246
11943TIP3   OH235785   2.974   6.935   5.735
11943TIP3    H135786   2.996   7.010   5.679
11943TIP3    H235787   3.057   6.909   5.775
11944TIP3   OH235788   0.698   3.674   5.299
11944TIP3    H135789   0.653   3.646   5.378
11944TIP3    H235790   0.643   3.642   5.227
11945TIP3   OH235791   6.619   0.719   0.808
11945TIP3    H135792   6.690   0.690   0.750
11945TIP3    H235793   6.664   0.762   0.880
11946TIP3   OH235794   3.077   3.410   5.778
11946TIP3    H135795   3.029   3.488   5.751
11946TIP3    H235796   3.165   3.424   5.745
11947TIP3   OH235797   3.844   1.762   0.880
11947TIP3    H135798   3.875   1.756   0.971
11947TIP3    H235799   3.754   1.730   0.884
11948TIP3   OH235800   1.365   1.727   5.729
11948TIP3    H135801   1.402   1.807   5.691
11948TIP3    H235802   1.440   1.669   5.742
11949TIP3   OH235803   7.400   3.548   2.670
11949TIP3    H135804   7.456   3.492   2.724
11949TIP3    H235805   7.459   3.584   2.604
11950TIP3   OH235806   0.572   3.745   2.862
11950TIP3    H135807   0.510   3.761   2.934
11950TIP3    H235808   0.642   3.693   2.901
11951TIP3   OH235809   5.803   6.256   3.685
11951TIP3    H135810   5.883   6.276   3.733
11951TIP3    H235811   5.797   6.160   3.687
11952TIP3   OH235812   3.724   3.732   4.184
11952TIP3    H135813   3.662   3.668   4.149
11952TIP3    H235814   3.673   3.812   4.195
11953TIP3   OH235815   0.418   0.516   1.195
11953TIP3    H135816   0.429   0.421   1.204
11953TIP3    H235817   0.353   0.526   1.125
11954TIP3   OH235818   3.666   5.319   3.656
11954TIP3    H135819   3.630   5.259   3.591
11954TIP3    H235820   3.691   5.397   3.606
11955TIP3   OH235821   1.410   5.130   5.110
11955TIP3    H135822   1.396   5.051   5.162
11955TIP3    H235823   1.451   5.192   5.171
11956TIP3   OH235824   7.695   6.141   2.950
11956TIP3    H135825   7.760   6.188   2.897
11956TIP3    H235826   7.692   6.189   3.032
11957TIP3   OH235827   6.141   1.222   2.207
11957TIP3    H135828   6.129   1.309   2.246
11957TIP3    H235829   6.235   1.217   2.188
11958TIP3   OH235830   4.321   7.641   1.605
11958TIP3    H135831   4.265   7.619   1.679
11958TIP3    H235832   4.260   7.661   1.534
11959TIP3   OH235833   1.142   7.312   0.942
11959TIP3    H135834   1.048   7.295   0.949
11959TIP3    H235835   1.170   7.262   0.865
11960TIP3   OH235836   1.281   0.128   1.246
11960TIP3    H135837   1.262   0.132   1.340
11960TIP3    H235838   1.258   0.214   1.213
11961TIP3   OH235839   1.008   7.693   6.057
11961TIP3    H135840   1.074   7.754   6.022
11961TIP3    H235841   0.926   7.741   6.050
11962TIP3   OH235842   8.207   4.137   2.072
11962TIP3    H135843   8.168   4.135   2.159
11962TIP3    H235844   8.133   4.127   2.012
11963TIP3   OH235845   7.011   6.908   2.186
11963TIP3    H135846   7.066   6.910   2.108
11963TIP3    H235847   7.003   7.000   2.211
11964TIP3   OH235848   1.162   0.829   6.334
11964TIP3    H135849   1.196   0.750   6.293
11964TIP3    H235850   1.116   0.875   6.264
11965TIP3   OH235851   4.271   0.733   1.385
11965TIP3    H135852   4.189   0.736   1.335
11965TIP3    H235853   4.307   0.646   1.368
11966TIP3   OH235854   7.055   3.254   1.206
11966TIP3    H135855   7.109   3.319   1.252
11966TIP3    H235856   6.966   3.268   1.241
11967TIP3   OH235857   0.532   3.655   3.820
11967TIP3    H135858   0.524   3.634   3.913
11967TIP3    H235859   0.616   3.700   3.813
11968TIP3   OH235860   6.444   7.370   3.731
11968TIP3    H135861   6.416   7.279   3.733
11968TIP3    H235862   6.411   7.407   3.813
11969TIP3   OH235863   7.796   1.298   5.740
11969TIP3    H135864   7.744   1.221   5.763
11969TIP3    H235865   7.814   1.340   5.824
11970TIP3   OH235866   5.908   5.995   2.566
11970TIP3    H135867   5.948   6.020   2.649
11970TIP3    H235868   5.951   6.050   2.501
11971TIP3   OH235869   2.592   3.532   4.061
11971TIP3    H135870   2.664   3.595   4.069
11971TIP3    H235871   2.513   3.586   4.062
11972TIP3   OH235872   5.413   2.285   4.339
11972TIP3    H135873   5.444   2.228   4.268
11972TIP3    H235874   5.373   2.359   4.295
11973TIP3   OH235875   7.230   5.680   5.089
11973TIP3    H135876   7.160   5.673   5.154
11973TIP3    H235877   7.187   5.659   5.006
11974TIP3   OH235878   5.060   4.471   4.829
11974TIP3    H135879   5.021   4.396   4.873
11974TIP3    H235880   4.991   4.537   4.827
11975TIP3   OH235881   0.998   0.230   1.422
11975TIP3    H135882   0.932   0.279   1.374
11975TIP3    H235883   1.081   0.257   1.383
11976TIP3   OH235884   6.679   3.970   6.310
11976TIP3    H135885   6.610   4.032   6.287
11976TIP3    H235886   6.742   4.022   6.362
11977TIP3   OH235887   3.439   7.127   4.711
11977TIP3    H135888   3.450   7.059   4.644
11977TIP3    H235889   3.477   7.089   4.790
11978TIP3   OH235890   5.659   5.538   6.469
11978TIP3    H135891   5.580   5.512   6.517
11978TIP3    H235892   5.644   5.506   6.380
11979TIP3   OH235893   7.027   0.319   1.379
11979TIP3    H135894   7.016   0.413   1.364
11979TIP3    H235895   6.985   0.304   1.463
11980TIP3   OH235896   6.834   6.492   3.585
11980TIP3    H135897   6.918   6.485   3.631
11980TIP3    H235898   6.857   6.486   3.492
11981TIP3   OH235899   0.173   5.409   4.128
11981TIP3    H135900   0.187   5.464   4.205
11981TIP3    H235901   0.093   5.444   4.088
11982TIP3   OH235902   1.139   5.395   6.143
11982TIP3    H135903   1.219   5.396   6.197
11982TIP3    H235904   1.075   5.443   6.195
11983TIP3   OH235905   5.777   5.504   3.196
11983TIP3    H135906   5.702   5.445   3.191
11983TIP3    H235907   5.747   5.585   3.154
11984TIP3   OH235908   5.518   3.362   5.214
11984TIP3    H135909   5.427   3.371   5.188
11984TIP3    H235910   5.563   3.434   5.169
11985TIP3   OH235911   1.111   6.884   6.741
11985TIP3    H135912   1.086   6.895   6.649
11985TIP3    H235913   1.038   6.835   6.780
11986TIP3   OH235914   4.002   3.661   3.701
11986TIP3    H135915   4.030   3.592   3.642
11986TIP3    H235916   4.050   3.644   3.782
11987TIP3   OH235917   2.118   4.529   6.756
11987TIP3    H135918   2.040   4.535   6.813
11987TIP3    H235919   2.083   4.506   6.670
11988TIP3   OH235920   4.904   7.006   5.156
11988TIP3    H135921   4.959   7.053   5.219
11988TIP3    H235922   4.921   7.051   5.073
11989TIP3   OH235923   7.999   6.577   2.841
11989TIP3    H135924   7.953   6.577   2.757
11989TIP3    H235925   8.018   6.670   2.858
11990TIP3   OH235926   4.671   7.223   5.206
11990TIP3    H135927   4.752   7.173   5.193
11990TIP3    H235928   4.617   7.168   5.262
11991TIP3   OH235929   1.105   1.021   0.499
11991TIP3    H135930   1.148   1.047   0.417
11991TIP3    H235931   1.014   1.003   0.474
11992TIP3   OH235932   5.352   6.560   1.878
11992TIP3    H135933   5.346   6.488   1.816
11992TIP3    H235934   5.375   6.636   1.824
11993TIP3   OH235935   1.117   6.423   6.666
11993TIP3    H135936   1.130   6.457   6.754
11993TIP3    H235937   1.169   6.343   6.663
11994TIP3   OH235938   5.602   4.873   3.592
11994TIP3    H135939   5.590   4.916   3.677
11994TIP3    H235940   5.562   4.787   3.603
11995TIP3   OH235941   4.064   3.979   6.591
11995TIP3    H135942   4.054   4.071   6.615
11995TIP3    H235943   4.153   3.956   6.617
11996TIP3   OH235944   6.770   5.479   4.749
11996TIP3    H135945   6.829   5.405   4.736
11996TIP3    H235946   6.683   5.443   4.732
11997TIP3   OH235947   6.639   7.476   0.480
11997TIP3    H135948   6.554   7.519   0.480
11997TIP3    H235949   6.622   7.389   0.445
11998TIP3   OH235950   7.349   2.976   6.324
11998TIP3    H135951   7.358   3.039   6.396
11998TIP3    H235952   7.284   2.913   6.356
11999TIP3   OH235953   5.188   1.182   3.120
11999TIP3    H135954   5.107   1.138   3.145
11999TIP3    H235955   5.160   1.265   3.083
12000TIP3   OH235956   4.153   3.586   6.436
12000TIP3    H135957   4.147   3.514   6.498
12000TIP3    H235958   4.228   3.637   6.466
12001TIP3   OH235959   1.574   5.963   1.872
12001TIP3    H135960   1.542   6.052   1.889
12001TIP3    H235961   1.539   5.911   1.944
12002TIP3   OH235962   6.332   4.690   4.180
12002TIP3    H135963   6.419   4.656   4.200
12002TIP3    H235964   6.293   4.625   4.122
12003TIP3   OH235965   2.165   2.374   4.032
12003TIP3    H135966   2.156   2.418   4.116
12003TIP3    H235967   2.094   2.410   3.978
12004TIP3   OH235968   3.546   3.835   3.353
12004TIP3    H135969   3.573   3.755   3.399
12004TIP3    H235970   3.615   3.851   3.289
12005TIP3   OH235971   1.531   2.326   2.531
12005TIP3    H135972   1.447   2.318   2.576
12005TIP3    H235973   1.585   2.379   2.589
12006TIP3   OH235974   1.539   7.552   2.160
12006TIP3    H135975   1.523   7.539   2.066
12006TIP3    H235976   1.556   7.646   2.168
12007TIP3   OH235977   1.744   6.204   0.408
12007TIP3    H135978   1.720   6.112   0.421
12007TIP3    H235979   1.795   6.226   0.486
12008TIP3   OH235980   7.488   5.259   3.090
12008TIP3    H135981   7.511   5.220   3.174
12008TIP3    H235982   7.440   5.339   3.114
12009TIP3   OH235983   4.104   5.601   0.906
12009TIP3    H135984   4.063   5.615   0.992
12009TIP3    H235985   4.046   5.537   0.863
12010TIP3   OH235986   3.668   0.864   3.573
12010TIP3    H135987   3.692   0.941   3.625
12010TIP3    H235988   3.616   0.899   3.501
12011TIP3   OH235989   6.232   2.539   5.985
12011TIP3    H135990   6.153   2.569   5.940
12011TIP3    H235991   6.301   2.599   5.956
12012TIP3   OH235992   0.884   3.364   0.968
12012TIP3    H135993   0.930   3.288   1.004
12012TIP3    H235994   0.954   3.424   0.943
12013TIP3   OH235995   0.386   1.786   5.875
12013TIP3    H135996   0.381   1.769   5.781
12013TIP3    H235997   0.452   1.724   5.907
12014TIP3   OH235998   7.960   0.720   0.396
12014TIP3    H135999   7.873   0.751   0.420
12014TIP3    H236000   7.951   0.690   0.306
12015TIP3   OH236001   0.070   0.531   1.840
12015TIP3    H136002   0.074   0.544   1.935
12015TIP3    H236003   0.028   0.446   1.829
12016TIP3   OH236004   7.292   0.617   3.807
12016TIP3    H136005   7.365   0.586   3.861
12016TIP3    H236006   7.233   0.659   3.868
12017TIP3   OH236007   2.019   6.189   4.271
12017TIP3    H136008   2.047   6.233   4.191
12017TIP3    H236009   2.090   6.203   4.333
12018TIP3   OH236010   3.443   6.940   3.682
12018TIP3    H136011   3.451   6.854   3.723
12018TIP3    H236012   3.399   6.994   3.747
12019TIP3   OH236013   5.110   0.354   2.389
12019TIP3    H136014   5.018   0.347   2.414
12019TIP3    H236015   5.153   0.283   2.436
12020TIP3   OH236016   7.421   1.697   5.585
12020TIP3    H136017   7.382   1.783   5.601
12020TIP3    H236018   7.402   1.679   5.493
12021TIP3   OH236019   3.281   2.953   4.224
12021TIP3    H136020   3.353   2.991   4.274
12021TIP3    H236021   3.323   2.893   4.163
12022TIP3   OH236022   7.609   5.688   5.762
12022TIP3    H136023   7.589   5.724   5.848
12022TIP3    H236024   7.603   5.762   5.702
12023TIP3   OH236025   8.077   6.456   3.902
12023TIP3    H136026   8.015   6.386   3.925
12023TIP3    H236027   8.042   6.492   3.820
12024TIP3   OH236028   5.104   7.249   1.810
12024TIP3    H136029   5.166   7.180   1.785
12024TIP3    H236030   5.159   7.317   1.849
12025TIP3   OH236031   4.817   3.406   0.585
12025TIP3    H136032   4.772   3.470   0.530
12025TIP3    H236033   4.787   3.426   0.674
12026TIP3   OH236034   5.889   0.168   6.081
12026TIP3    H136035   5.899   0.197   5.990
12026TIP3    H236036   5.796   0.180   6.100
12027TIP3   OH236037   2.941   6.439   6.562
12027TIP3    H136038   2.877   6.425   6.492
12027TIP3    H236039   2.896   6.497   6.623
12028TIP3   OH236040   1.482   3.286   6.099
12028TIP3    H136041   1.426   3.216   6.133
12028TIP3    H236042   1.552   3.241   6.052
12029TIP3   OH236043   3.474   5.973   0.437
12029TIP3    H136044   3.398   5.918   0.419
12029TIP3    H236045   3.437   6.058   0.461
12030TIP3   OH236046   7.535   2.092   0.978
12030TIP3    H136047   7.453   2.140   0.969
12030TIP3    H236048   7.579   2.133   1.052
12031TIP3   OH236049   4.823   1.695   0.942
12031TIP3    H136050   4.745   1.745   0.920
12031TIP3    H236051   4.789   1.617   0.987
12032TIP3   OH236052   5.227   7.159   1.362
12032TIP3    H136053   5.203   7.203   1.281
12032TIP3    H236054   5.177   7.078   1.361
12033TIP3   OH236055   3.163   0.756   0.708
12033TIP3    H136056   3.199   0.844   0.715
12033TIP3    H236057   3.201   0.720   0.628
12034TIP3   OH236058   2.915   7.154   5.523
12034TIP3    H136059   2.859   7.076   5.523
12034TIP3    H236060   2.874   7.213   5.459
12035TIP3   OH236061   0.726   0.936   5.103
12035TIP3    H136062   0.812   0.894   5.102
12035TIP3    H236063   0.693   0.921   5.192
12036TIP3   OH236064   5.365   7.197   5.332
12036TIP3    H136065   5.378   7.255   5.257
12036TIP3    H236066   5.354   7.256   5.406
12037TIP3   OH236067   1.189   7.408   1.981
12037TIP3    H136068   1.256   7.436   1.918
12037TIP3    H236069   1.143   7.336   1.937
12038TIP3   OH236070   0.540   2.909   1.875
12038TIP3    H136071   0.552   2.993   1.832
12038TIP3    H236072   0.446   2.905   1.895
12039TIP3   OH236073   0.496   7.282   5.559
12039TIP3    H136074   0.413   7.312   5.596
12039TIP3    H236075   0.558   7.286   5.631
12040TIP3   OH236076   5.502   0.271   6.585
12040TIP3    H136077   5.446   0.348   6.600
12040TIP3    H236078   5.441   0.198   6.580
12041TIP3   OH236079   5.878   7.219   0.524
12041TIP3    H136080   5.868   7.304   0.481
12041TIP3    H236081   5.788   7.187   0.534
12042TIP3   OH236082   4.414   7.426   6.026
12042TIP3    H136083   4.444   7.413   5.936
12042TIP3    H236084   4.454   7.354   6.074
12043TIP3   OH236085   6.269   1.391   0.117
12043TIP3    H136086   6.181   1.387   0.155
12043TIP3    H236087   6.272   1.474   0.071
12044TIP3   OH236088   6.643   3.701   3.666
12044TIP3    H136089   6.585   3.763   3.709
12044TIP3    H236090   6.679   3.749   3.592
12045TIP3   OH236091   2.759   5.620   1.375
12045TIP3    H136092   2.769   5.571   1.457
12045TIP3    H236093   2.690   5.575   1.328
12046TIP3   OH236094   4.520   3.294   6.033
12046TIP3    H136095   4.452   3.362   6.037
12046TIP3    H236096   4.602   3.342   6.024
12047TIP3   OH236097   1.792   5.548   6.478
12047TIP3    H136098   1.818   5.592   6.559
12047TIP3    H236099   1.701   5.574   6.465
12048TIP3   OH236100   2.274   2.810   5.638
12048TIP3    H136101   2.254   2.758   5.561
12048TIP3    H236102   2.189   2.840   5.670
12049TIP3   OH236103   2.959   6.876   0.088
12049TIP3    H136104   2.916   6.948   0.043
12049TIP3    H236105   2.932   6.885   0.179
12050TIP3   OH236106   0.920   4.288   4.067
12050TIP3    H136107   0.973   4.270   4.144
12050TIP3    H236108   0.842   4.333   4.101
12051TIP3   OH236109   6.142   3.072   6.121
12051TIP3    H136110   6.134   3.043   6.030
12051TIP3    H236111   6.100   3.158   6.123
12052TIP3   OH236112   1.058   6.878   5.261
12052TIP3    H136113   1.014   6.923   5.190
12052TIP3    H236114   1.101   6.803   5.219
12053TIP3   OH236115   7.326   4.705   4.115
12053TIP3    H136116   7.412   4.663   4.116
12053TIP3    H236117   7.283   4.668   4.037
12054TIP3   OH236118   0.212   6.108   2.720
12054TIP3    H136119   0.272   6.182   2.730
12054TIP3    H236120   0.138   6.143   2.671
12055TIP3   OH236121   3.707   3.021   0.222
12055TIP3    H136122   3.786   3.012   0.168
12055TIP3    H236123   3.710   3.111   0.253
12056TIP3   OH236124   7.623   2.728   3.861
12056TIP3    H136125   7.588   2.811   3.830
12056TIP3    H236126   7.716   2.745   3.877
12057TIP3   OH236127   0.293   7.766   1.437
12057TIP3    H136128   0.291   7.673   1.460
12057TIP3    H236129   0.250   7.771   1.352
12058TIP3   OH236130   7.890   3.729   2.267
12058TIP3    H136131   7.892   3.716   2.362
12058TIP3    H236132   7.945   3.805   2.252
12059TIP3   OH236133   0.437   5.706   6.423
12059TIP3    H136134   0.437   5.618   6.460
12059TIP3    H236135   0.518   5.745   6.455
12060TIP3   OH236136   0.890   2.431   3.556
12060TIP3    H136137   0.957   2.371   3.590
12060TIP3    H236138   0.807   2.390   3.581
12061TIP3   OH236139   2.603   6.576   0.125
12061TIP3    H136140   2.508   6.581   0.130
12061TIP3    H236141   2.620   6.524   0.046
12062TIP3   OH236142   4.495   2.729   1.851
12062TIP3    H136143   4.568   2.791   1.858
12062TIP3    H236144   4.492   2.707   1.757
12063TIP3   OH236145   3.913   6.437   2.940
12063TIP3    H136146   3.894   6.372   3.008
12063TIP3    H236147   4.008   6.445   2.941
12064TIP3   OH236148   7.050   2.335   5.786
12064TIP3    H136149   7.059   2.242   5.763
12064TIP3    H236150   6.981   2.337   5.853
12065TIP3   OH236151   4.677   6.002   4.713
12065TIP3    H136152   4.733   6.072   4.747
12065TIP3    H236153   4.619   5.980   4.786
12066TIP3   OH236154   1.634   1.181   2.389
12066TIP3    H136155   1.579   1.105   2.408
12066TIP3    H236156   1.575   1.243   2.345
12067TIP3   OH236157   7.069   4.751   5.319
12067TIP3    H136158   7.112   4.831   5.348
12067TIP3    H236159   7.110   4.681   5.371
12068TIP3   OH236160   1.960   0.245   5.888
12068TIP3    H136161   1.896   0.280   5.951
12068TIP3    H236162   2.045   0.257   5.931
12069TIP3   OH236163   7.729   4.262   4.901
12069TIP3    H136164   7.705   4.303   4.818
12069TIP3    H236165   7.653   4.210   4.926
12070TIP3   OH236166   5.708   2.992   2.501
12070TIP3    H136167   5.645   3.062   2.519
12070TIP3    H236168   5.772   3.032   2.442
12071TIP3   OH236169   6.599   3.410   6.093
12071TIP3    H136170   6.650   3.381   6.169
12071TIP3    H236171   6.653   3.388   6.018
12072TIP3   OH236172   3.913   5.746   2.931
12072TIP3    H136173   3.980   5.815   2.933
12072TIP3    H236174   3.957   5.670   2.894
12073TIP3   OH236175   5.140   6.951   5.605
12073TIP3    H136176   5.224   6.985   5.635
12073TIP3    H236177   5.080   7.025   5.612
12074TIP3   OH236178   0.572   7.642   4.296
12074TIP3    H136179   0.477   7.635   4.302
12074TIP3    H236180   0.589   7.736   4.285
12075TIP3   OH236181   4.025   6.680   4.946
12075TIP3    H136182   4.044   6.720   4.861
12075TIP3    H236183   4.049   6.747   5.010
12076TIP3   OH236184   0.126   3.813   1.090
12076TIP3    H136185   0.070   3.828   1.166
12076TIP3    H236186   0.203   3.868   1.105
12077TIP3   OH236187   7.696   4.770   2.744
12077TIP3    H136188   7.764   4.826   2.705
12077TIP3    H236189   7.617   4.824   2.739
12078TIP3   OH236190   5.421   0.719   6.700
12078TIP3    H136191   5.412   0.646   6.639
12078TIP3    H236192   5.515   0.738   6.702
12079TIP3   OH236193   3.573   5.619   0.955
12079TIP3    H136194   3.502   5.681   0.968
12079TIP3    H236195   3.614   5.646   0.873
12080TIP3   OH236196   1.394   4.331   3.471
12080TIP3    H136197   1.405   4.396   3.401
12080TIP3    H236198   1.433   4.372   3.548
12081TIP3   OH236199   2.607   4.576   2.047
12081TIP3    H136200   2.615   4.663   2.008
12081TIP3    H236201   2.647   4.517   1.983
12082TIP3   OH236202   3.942   3.194   4.343
12082TIP3    H136203   3.935   3.102   4.366
12082TIP3    H236204   4.025   3.223   4.380
12083TIP3   OH236205   4.224   0.590   2.326
12083TIP3    H136206   4.317   0.572   2.312
12083TIP3    H236207   4.179   0.537   2.260
12084TIP3   OH236208   3.063   2.781   2.934
12084TIP3    H136209   3.114   2.700   2.940
12084TIP3    H236210   3.065   2.804   2.841
12085TIP3   OH236211   3.030   5.806   0.074
12085TIP3    H136212   2.947   5.811   0.027
12085TIP3    H236213   3.078   5.885   0.048
12086TIP3   OH236214   6.764   7.623   0.709
12086TIP3    H136215   6.776   7.717   0.705
12086TIP3    H236216   6.683   7.611   0.760
12087TIP3   OH236217   3.198   7.796   4.824
12087TIP3    H136218   3.264   7.818   4.890
12087TIP3    H236219   3.177   7.704   4.841
12088TIP3   OH236220   5.220   1.633   3.225
12088TIP3    H136221   5.195   1.586   3.305
12088TIP3    H236222   5.310   1.661   3.240
12089TIP3   OH236223  -0.012   3.311   1.774
12089TIP3    H136224   0.064   3.270   1.815
12089TIP3    H236225  -0.010   3.282   1.683
12090TIP3   OH236226   2.478   4.171   2.954
12090TIP3    H136227   2.386   4.153   2.970
12090TIP3    H236228   2.504   4.106   2.888
12091TIP3   OH236229   1.137   4.583   3.167
12091TIP3    H136230   1.194   4.519   3.123
12091TIP3    H236231   1.171   4.586   3.257
12092TIP3   OH236232   3.786   6.095   5.503
12092TIP3    H136233   3.805   6.188   5.516
12092TIP3    H236234   3.828   6.073   5.420
12093TIP3   OH236235   4.136   1.371   6.007
12093TIP3    H136236   4.157   1.327   6.089
12093TIP3    H236237   4.041   1.383   6.009
12094TIP3   OH236238   7.849   1.849   2.076
12094TIP3    H136239   7.764   1.861   2.118
12094TIP3    H236240   7.895   1.932   2.089
12095TIP3   OH236241   2.490   6.159   1.762
12095TIP3    H136242   2.432   6.107   1.707
12095TIP3    H236243   2.570   6.107   1.770
12096TIP3   OH236244   0.544   5.748   4.580
12096TIP3    H136245   0.542   5.656   4.607
12096TIP3    H236246   0.607   5.751   4.508
12097TIP3   OH236247   5.276   4.782   2.643
12097TIP3    H136248   5.274   4.870   2.681
12097TIP3    H236249   5.184   4.760   2.628
12098TIP3   OH236250   0.552   2.240   2.217
12098TIP3    H136251   0.610   2.204   2.151
12098TIP3    H236252   0.599   2.229   2.300
12099TIP3   OH236253   6.790   0.291   5.235
12099TIP3    H136254   6.875   0.249   5.247
12099TIP3    H236255   6.776   0.290   5.140
12100TIP3   OH236256   3.552   6.600   0.549
12100TIP3    H136257   3.482   6.663   0.571
12100TIP3    H236258   3.597   6.639   0.474
12101TIP3   OH236259   6.991   0.433   3.006
12101TIP3    H136260   6.983   0.337   3.010
12101TIP3    H236261   7.055   0.454   3.074
12102TIP3   OH236262   6.739   2.277   3.568
12102TIP3    H136263   6.805   2.208   3.557
12102TIP3    H236264   6.657   2.230   3.581
12103TIP3   OH236265   4.295   6.530   0.413
12103TIP3    H136266   4.356   6.594   0.450
12103TIP3    H236267   4.291   6.552   0.320
12104TIP3   OH236268   4.889   4.829   5.911
12104TIP3    H136269   4.845   4.913   5.896
12104TIP3    H236270   4.981   4.853   5.924
12105TIP3   OH236271   6.517   6.347   0.776
12105TIP3    H136272   6.462   6.345   0.697
12105TIP3    H236273   6.527   6.441   0.794
12106TIP3   OH236274   1.668   1.471   0.148
12106TIP3    H136275   1.683   1.546   0.206
12106TIP3    H236276   1.739   1.477   0.084
12107TIP3   OH236277   1.616   6.819   3.433
12107TIP3    H136278   1.569   6.813   3.350
12107TIP3    H236279   1.551   6.794   3.499
12108TIP3   OH236280   2.144   1.123   0.131
12108TIP3    H136281   2.179   1.163   0.051
12108TIP3    H236282   2.062   1.169   0.147
12109TIP3   OH236283   0.487   4.243   6.729
12109TIP3    H136284   0.553   4.309   6.712
12109TIP3    H236285   0.526   4.161   6.698
12110TIP3   OH236286   3.417   1.353   0.454
12110TIP3    H136287   3.375   1.271   0.480
12110TIP3    H236288   3.499   1.326   0.414
12111TIP3   OH236289   7.242   6.274   2.788
12111TIP3    H136290   7.290   6.195   2.813
12111TIP3    H236291   7.310   6.336   2.762
12112TIP3   OH236292   7.993   4.124   4.907
12112TIP3    H136293   8.088   4.128   4.894
12112TIP3    H236294   7.957   4.178   4.837
12113TIP3   OH236295   5.878   5.789   4.959
12113TIP3    H136296   5.920   5.803   4.874
12113TIP3    H236297   5.893   5.696   4.978
12114TIP3   OH236298   3.427   5.663   3.777
12114TIP3    H136299   3.367   5.685   3.706
12114TIP3    H236300   3.414   5.569   3.790
12115TIP3   OH236301   6.797   7.162   1.026
12115TIP3    H136302   6.814   7.256   1.035
12115TIP3    H236303   6.881   7.125   1.000
12116TIP3   OH236304   5.605   5.624   0.975
12116TIP3    H136305   5.560   5.561   0.918
12116TIP3    H236306   5.541   5.645   1.042
12117TIP3   OH236307   1.741   0.316   2.408
12117TIP3    H136308   1.752   0.408   2.385
12117TIP3    H236309   1.695   0.318   2.492
12118TIP3   OH236310   3.215   2.553   5.883
12118TIP3    H136311   3.170   2.571   5.800
12118TIP3    H236312   3.307   2.543   5.859
12119TIP3   OH236313   6.984   5.242   2.159
12119TIP3    H136314   6.966   5.325   2.204
12119TIP3    H236315   7.049   5.199   2.214
12120TIP3   OH236316   5.365   5.207   5.602
12120TIP3    H136317   5.387   5.152   5.677
12120TIP3    H236318   5.303   5.271   5.638
12121TIP3   OH236319   0.874   1.314   1.947
12121TIP3    H136320   0.831   1.230   1.930
12121TIP3    H236321   0.910   1.306   2.035
12122TIP3   OH236322   2.007   0.692   4.913
12122TIP3    H136323   1.974   0.608   4.944
12122TIP3    H236324   1.944   0.756   4.944
12123TIP3   OH236325   4.768   0.951   2.662
12123TIP3    H136326   4.684   0.948   2.708
12123TIP3    H236327   4.804   0.863   2.672
12124TIP3   OH236328   3.113   2.242   3.117
12124TIP3    H136329   3.039   2.247   3.056
12124TIP3    H236330   3.092   2.169   3.175
12125TIP3   OH236331   7.689   4.328   6.705
12125TIP3    H136332   7.730   4.259   6.757
12125TIP3    H236333   7.605   4.291   6.678
12126TIP3   OH236334   5.275   1.607   1.804
12126TIP3    H136335   5.249   1.697   1.784
12126TIP3    H236336   5.369   1.612   1.823
12127TIP3   OH236337   0.321   5.143   0.892
12127TIP3    H136338   0.367   5.125   0.810
12127TIP3    H236339   0.235   5.175   0.865
12128TIP3   OH236340   2.886   6.085   6.457
12128TIP3    H136341   2.888   5.992   6.478
12128TIP3    H236342   2.875   6.128   6.542
12129TIP3   OH236343   4.919   6.181   3.655
12129TIP3    H136344   4.883   6.117   3.716
12129TIP3    H236345   4.843   6.234   3.629
12130TIP3   OH236346   1.520   0.239   4.604
12130TIP3    H136347   1.490   0.195   4.524
12130TIP3    H236348   1.559   0.169   4.656
12131TIP3   OH236349   4.616   3.450   5.208
12131TIP3    H136350   4.570   3.534   5.211
12131TIP3    H236351   4.707   3.474   5.195
12132TIP3   OH236352   2.259   7.217   4.871
12132TIP3    H136353   2.329   7.177   4.923
12132TIP3    H236354   2.295   7.222   4.783
12133TIP3   OH236355   1.209   7.716   3.178
12133TIP3    H136356   1.227   7.795   3.129
12133TIP3    H236357   1.273   7.716   3.249
12134TIP3   OH236358   2.968   4.540   4.801
12134TIP3    H136359   3.063   4.532   4.804
12134TIP3    H236360   2.952   4.618   4.749
12135TIP3   OH236361   5.250   7.033   6.204
12135TIP3    H136362   5.248   7.025   6.109
12135TIP3    H236363   5.173   6.984   6.234
12136TIP3   OH236364   7.145   6.713   6.241
12136TIP3    H136365   7.133   6.808   6.245
12136TIP3    H236366   7.235   6.699   6.271
12137TIP3   OH236367   8.008   6.985   2.594
12137TIP3    H136368   7.983   7.052   2.531
12137TIP3    H236369   8.015   6.905   2.542
12138TIP3   OH236370   6.482   7.669   6.301
12138TIP3    H136371   6.503   7.665   6.394
12138TIP3    H236372   6.520   7.589   6.264
12139TIP3   OH236373   6.900   7.000   6.715
12139TIP3    H136374   6.954   7.039   6.784
12139TIP3    H236375   6.903   7.063   6.643
12140TIP3   OH236376   6.868   1.150   6.128
12140TIP3    H136377   6.782   1.189   6.109
12140TIP3    H236378   6.864   1.063   6.090
12141TIP3   OH236379   1.515   2.203   0.889
12141TIP3    H136380   1.489   2.119   0.849
12141TIP3    H236381   1.491   2.269   0.823
12142TIP3   OH236382   6.693   4.585   2.079
12142TIP3    H136383   6.652   4.657   2.127
12142TIP3    H236384   6.731   4.627   2.002
12143TIP3   OH236385   0.807   5.746   6.276
12143TIP3    H136386   0.871   5.766   6.207
12143TIP3    H236387   0.860   5.738   6.355
12144TIP3   OH236388   5.530   0.200   1.486
12144TIP3    H136389   5.594   0.207   1.415
12144TIP3    H236390   5.446   0.213   1.444
12145TIP3   OH236391   4.487   4.742   2.281
12145TIP3    H136392   4.446   4.683   2.344
12145TIP3    H236393   4.493   4.691   2.201
12146TIP3   OH236394   2.857   1.579   3.046
12146TIP3    H136395   2.835   1.518   3.117
12146TIP3    H236396   2.821   1.538   2.968
12147TIP3   OH236397   3.650   7.719   3.166
12147TIP3    H136398   3.739   7.684   3.164
12147TIP3    H236399   3.632   7.746   3.076
12148TIP3   OH236400   4.859   4.944   4.027
12148TIP3    H136401   4.887   4.890   3.954
12148TIP3    H236402   4.864   5.034   3.993
12149TIP3   OH236403   1.070   7.440   3.503
12149TIP3    H136404   0.994   7.383   3.493
12149TIP3    H236405   1.145   7.381   3.503
12150TIP3   OH236406   4.837   5.596   3.403
12150TIP3    H136407   4.910   5.657   3.402
12150TIP3    H236408   4.821   5.576   3.311
12151TIP3   OH236409   2.308   2.007   2.711
12151TIP3    H136410   2.257   2.083   2.684
12151TIP3    H236411   2.396   2.042   2.726
12152TIP3   OH236412   1.799   0.706   3.049
12152TIP3    H136413   1.803   0.776   2.984
12152TIP3    H236414   1.880   0.657   3.036
12153TIP3   OH236415   3.924   0.862  -0.030
12153TIP3    H136416   4.000   0.866   0.029
12153TIP3    H236417   3.850   0.847   0.029
12154TIP3   OH236418   4.547   1.995   0.610
12154TIP3    H136419   4.454   2.019   0.600
12154TIP3    H236420   4.594   2.063   0.561
12155TIP3   OH236421   1.973   7.737   4.428
12155TIP3    H136422   1.956   7.820   4.383
12155TIP3    H236423   1.941   7.670   4.368
12156TIP3   OH236424   7.815   7.192   0.636
12156TIP3    H136425   7.778   7.130   0.700
12156TIP3    H236426   7.904   7.208   0.668
12157TIP3   OH236427   0.579   2.856   3.944
12157TIP3    H136428   0.559   2.763   3.945
12157TIP3    H236429   0.558   2.886   4.033
12158TIP3   OH236430   5.895   4.225   6.631
12158TIP3    H136431   5.910   4.135   6.602
12158TIP3    H236432   5.965   4.276   6.590
12159TIP3   OH236433   7.033   6.502   2.888
12159TIP3    H136434   7.087   6.476   2.813
12159TIP3    H236435   6.943   6.482   2.861
12160TIP3   OH236436   6.610   4.649   1.094
12160TIP3    H136437   6.533   4.654   1.151
12160TIP3    H236438   6.663   4.725   1.118
12161TIP3   OH236439   7.917   2.821   5.952
12161TIP3    H136440   7.849   2.799   5.889
12161TIP3    H236441   7.954   2.903   5.920
12162TIP3   OH236442   7.100   3.305   4.799
12162TIP3    H136443   7.127   3.381   4.851
12162TIP3    H236444   7.175   3.246   4.803
12163TIP3   OH236445   3.834   5.622   5.959
12163TIP3    H136446   3.801   5.703   5.998
12163TIP3    H236447   3.771   5.555   5.987
12164TIP3   OH236448   6.907   1.657   5.627
12164TIP3    H136449   6.925   1.656   5.533
12164TIP3    H236450   6.920   1.566   5.654
12165TIP3   OH236451   6.419   2.212   1.565
12165TIP3    H136452   6.358   2.283   1.583
12165TIP3    H236453   6.366   2.146   1.520
12166TIP3   OH236454   0.183   3.092   1.821
12166TIP3    H136455   0.245   3.021   1.808
12166TIP3    H236456   0.133   3.067   1.899
12167TIP3   OH236457   5.231   1.245   3.829
12167TIP3    H136458   5.316   1.202   3.827
12167TIP3    H236459   5.225   1.284   3.916
12168TIP3   OH236460   1.366   4.281   1.611
12168TIP3    H136461   1.307   4.229   1.666
12168TIP3    H236462   1.386   4.358   1.664
12169TIP3   OH236463   2.836   1.735   4.192
12169TIP3    H136464   2.778   1.679   4.243
12169TIP3    H236465   2.791   1.820   4.189
12170TIP3   OH236466   3.066   1.189   4.432
12170TIP3    H136467   2.977   1.163   4.410
12170TIP3    H236468   3.073   1.280   4.403
12171TIP3   OH236469   4.311   3.725   4.524
12171TIP3    H136470   4.317   3.644   4.575
12171TIP3    H236471   4.252   3.781   4.574
12172TIP3   OH236472   1.201   4.626   3.445
12172TIP3    H136473   1.118   4.670   3.428
12172TIP3    H236474   1.244   4.680   3.511
12173TIP3   OH236475   0.857   7.080   0.297
12173TIP3    H136476   0.819   7.018   0.360
12173TIP3    H236477   0.915   7.135   0.349
12174TIP3   OH236478   1.343   0.787   3.678
12174TIP3    H136479   1.265   0.843   3.665
12174TIP3    H236480   1.336   0.721   3.609
12175TIP3   OH236481   6.220   6.274   1.543
12175TIP3    H136482   6.309   6.295   1.514
12175TIP3    H236483   6.175   6.249   1.463
12176TIP3   OH236484   2.169   3.249   1.425
12176TIP3    H136485   2.259   3.268   1.401
12176TIP3    H236486   2.119   3.263   1.344
12177TIP3   OH236487   7.203   3.734   1.985
12177TIP3    H136488   7.243   3.815   2.018
12177TIP3    H236489   7.272   3.693   1.933
12178TIP3   OH236490   6.747   1.105   0.780
12178TIP3    H136491   6.716   1.133   0.866
12178TIP3    H236492   6.818   1.043   0.800
12179TIP3   OH236493   1.791   7.104   3.094
12179TIP3    H136494   1.853   7.048   3.141
12179TIP3    H236495   1.706   7.084   3.133
12180TIP3   OH236496   7.051   2.104   1.845
12180TIP3    H136497   7.102   2.054   1.909
12180TIP3    H236498   7.088   2.079   1.760
12181TIP3   OH236499   7.972   6.380   5.963
12181TIP3    H136500   8.067   6.386   5.952
12181TIP3    H236501   7.945   6.316   5.897
12182TIP3   OH236502   8.112   6.947   0.177
12182TIP3    H136503   8.098   7.038   0.204
12182TIP3    H236504   8.167   6.910   0.247
12183TIP3   OH236505   0.694   0.800   3.614
12183TIP3    H136506   0.642   0.814   3.535
12183TIP3    H236507   0.773   0.853   3.601
12184TIP3   OH236508   2.415   2.383   5.467
12184TIP3    H136509   2.482   2.451   5.455
12184TIP3    H236510   2.379   2.401   5.554
12185TIP3   OH236511   2.275   7.740   5.310
12185TIP3    H136512   2.270   7.761   5.403
12185TIP3    H236513   2.358   7.778   5.281
12186TIP3   OH236514   2.003   5.118   3.915
12186TIP3    H136515   2.026   5.050   3.852
12186TIP3    H236516   1.916   5.147   3.887
12187TIP3   OH236517   1.018   4.545   4.007
12187TIP3    H136518   0.977   4.567   3.923
12187TIP3    H236519   0.972   4.468   4.037
12188TIP3   OH236520   3.093   2.749   5.200
12188TIP3    H136521   3.082   2.695   5.121
12188TIP3    H236522   3.160   2.702   5.251
12189TIP3   OH236523   3.935   2.366   1.103
12189TIP3    H136524   3.979   2.286   1.132
12189TIP3    H236525   3.844   2.339   1.090
12190TIP3   OH236526   2.727   7.714   1.107
12190TIP3    H136527   2.738   7.652   1.035
12190TIP3    H236528   2.772   7.673   1.181
12191TIP3   OH236529   7.016   6.581   0.244
12191TIP3    H136530   7.063   6.582   0.161
12191TIP3    H236531   6.928   6.611   0.223
12192TIP3   OH236532   4.373   4.701   4.171
12192TIP3    H136533   4.377   4.795   4.151
12192TIP3    H236534   4.317   4.696   4.248
12193TIP3   OH236535   5.260   4.715   1.632
12193TIP3    H136536   5.334   4.689   1.577
12193TIP3    H236537   5.208   4.635   1.642
12194TIP3   OH236538   3.036   1.826   6.385
12194TIP3    H136539   3.091   1.871   6.320
12194TIP3    H236540   2.984   1.896   6.424
12195TIP3   OH236541   5.127   1.571   5.739
12195TIP3    H136542   5.054   1.623   5.705
12195TIP3    H236543   5.204   1.611   5.700
12196TIP3   OH236544   7.478   0.328   4.904
12196TIP3    H136545   7.565   0.360   4.878
12196TIP3    H236546   7.491   0.234   4.920
12197TIP3   OH236547   7.426   2.375   0.385
12197TIP3    H136548   7.498   2.326   0.346
12197TIP3    H236549   7.350   2.356   0.330
12198TIP3   OH236550   7.011   4.797   1.716
12198TIP3    H136551   7.081   4.847   1.676
12198TIP3    H236552   6.931   4.845   1.694
12199TIP3   OH236553   7.862   7.723   5.259
12199TIP3    H136554   7.908   7.752   5.338
12199TIP3    H236555   7.886   7.787   5.193
12200TIP3   OH236556   3.266   4.308   1.188
12200TIP3    H136557   3.323   4.285   1.261
12200TIP3    H236558   3.326   4.337   1.119
12201TIP3   OH236559   1.454   5.979   6.091
12201TIP3    H136560   1.368   6.020   6.080
12201TIP3    H236561   1.448   5.897   6.041
12202TIP3   OH236562   2.124   2.379   2.086
12202TIP3    H136563   2.195   2.314   2.086
12202TIP3    H236564   2.158   2.450   2.140
12203TIP3   OH236565   4.920   0.713   5.736
12203TIP3    H136566   4.839   0.746   5.697
12203TIP3    H236567   4.990   0.749   5.681
12204TIP3   OH236568   4.731   2.671   0.981
12204TIP3    H136569   4.785   2.656   0.904
12204TIP3    H236570   4.751   2.761   1.008
12205TIP3   OH236571   3.925   3.239   1.276
12205TIP3    H136572   3.932   3.147   1.251
12205TIP3    H236573   3.927   3.286   1.192
12206TIP3   OH236574   7.158   1.863   3.751
12206TIP3    H136575   7.192   1.926   3.688
12206TIP3    H236576   7.115   1.797   3.697
12207TIP3   OH236577   6.415   2.306   2.452
12207TIP3    H136578   6.332   2.257   2.457
12207TIP3    H236579   6.412   2.365   2.527
12208TIP3   OH236580   4.980   2.945   2.795
12208TIP3    H136581   5.033   2.873   2.831
12208TIP3    H236582   4.974   2.925   2.702
12209TIP3   OH236583   1.340   7.756   1.854
12209TIP3    H136584   1.357   7.817   1.782
12209TIP3    H236585   1.378   7.799   1.931
12210TIP3   OH236586   7.072   7.093   0.976
12210TIP3    H136587   7.099   7.069   1.064
12210TIP3    H236588   7.100   7.019   0.922
12211TIP3   OH236589   4.647   3.868   3.169
12211TIP3    H136590   4.630   3.855   3.262
12211TIP3    H236591   4.707   3.797   3.146
12212TIP3   OH236592   6.516   0.831   0.463
12212TIP3    H136593   6.430   0.802   0.493
12212TIP3    H236594   6.577   0.767   0.501
12213TIP3   OH236595   3.736   0.769   1.131
12213TIP3    H136596   3.663   0.714   1.104
12213TIP3    H236597   3.741   0.758   1.226
12214TIP3   OH236598   7.808   1.232   2.223
12214TIP3    H136599   7.852   1.270   2.299
12214TIP3    H236600   7.760   1.306   2.184
12215TIP3   OH236601   4.235   2.816   3.715
12215TIP3    H136602   4.173   2.765   3.767
12215TIP3    H236603   4.180   2.870   3.658
12216TIP3   OH236604   0.960   2.787   6.389
12216TIP3    H136605   0.979   2.796   6.296
12216TIP3    H236606   0.894   2.718   6.394
12217TIP3   OH236607   8.143   0.754   5.209
12217TIP3    H136608   8.159   0.836   5.256
12217TIP3    H236609   8.091   0.780   5.133
12218TIP3   OH236610   1.068   0.959   2.183
12218TIP3    H136611   1.133   0.889   2.181
12218TIP3    H236612   1.060   0.986   2.091
12219TIP3   OH236613   0.433   6.189   1.262
12219TIP3    H136614   0.391   6.140   1.192
12219TIP3    H236615   0.498   6.244   1.218
12220TIP3   OH236616   2.434   3.398   3.601
12220TIP3    H136617   2.361   3.354   3.557
12220TIP3    H236618   2.508   3.384   3.543
12221TIP3   OH236619   3.515   4.463   1.386
12221TIP3    H136620   3.530   4.521   1.461
12221TIP3    H236621   3.572   4.498   1.318
12222TIP3   OH236622   6.068   3.235   0.228
12222TIP3    H136623   6.127   3.160   0.222
12222TIP3    H236624   6.087   3.273   0.314
12223TIP3   OH236625   6.516   0.273   1.543
12223TIP3    H136626   6.475   0.335   1.484
12223TIP3    H236627   6.456   0.198   1.544
12224TIP3   OH236628   1.074   1.612   3.865
12224TIP3    H136629   1.075   1.615   3.769
12224TIP3    H236630   1.137   1.678   3.892
12225TIP3   OH236631   1.737   7.203   2.550
12225TIP3    H136632   1.659   7.178   2.502
12225TIP3    H236633   1.706   7.262   2.618
12226TIP3   OH236634   8.118   0.286   5.442
12226TIP3    H136635   8.121   0.233   5.362
12226TIP3    H236636   8.045   0.248   5.493
12227TIP3   OH236637   3.918   5.245   5.688
12227TIP3    H136638   3.930   5.335   5.659
12227TIP3    H236639   3.982   5.194   5.637
12228TIP3   OH236640   1.847   4.019   1.048
12228TIP3    H136641   1.874   3.930   1.071
12228TIP3    H236642   1.926   4.061   1.016
12229TIP3   OH236643   3.354   2.388   3.738
12229TIP3    H136644   3.388   2.311   3.694
12229TIP3    H236645   3.414   2.403   3.811
12230TIP3   OH236646   4.213   1.632   1.214
12230TIP3    H136647   4.287   1.579   1.244
12230TIP3    H236648   4.212   1.621   1.119
12231TIP3   OH236649   7.517   4.789   3.334
12231TIP3    H136650   7.536   4.704   3.374
12231TIP3    H236651   7.423   4.803   3.351
12232TIP3   OH236652   1.631   6.947   0.301
12232TIP3    H136653   1.645   6.866   0.252
12232TIP3    H236654   1.675   7.014   0.249
12233TIP3   OH236655   7.757   5.312   1.848
12233TIP3    H136656   7.762   5.257   1.926
12233TIP3    H236657   7.846   5.346   1.837
12234TIP3   OH236658   1.756   4.524   3.859
12234TIP3    H136659   1.844   4.541   3.893
12234TIP3    H236660   1.719   4.459   3.919
12235TIP3   OH236661   5.379   5.584   3.106
12235TIP3    H136662   5.379   5.491   3.083
12235TIP3    H236663   5.420   5.628   3.031
12236TIP3   OH236664   5.927   0.854   0.594
12236TIP3    H136665   6.008   0.875   0.548
12236TIP3    H236666   5.858   0.892   0.541
12237TIP3   OH236667   8.025   7.021   2.194
12237TIP3    H136668   8.074   7.060   2.267
12237TIP3    H236669   8.080   7.037   2.117
12238TIP3   OH236670   0.629   1.535   2.812
12238TIP3    H136671   0.641   1.539   2.907
12238TIP3    H236672   0.614   1.626   2.786
12239TIP3   OH236673   4.168   2.303   0.290
12239TIP3    H136674   4.102   2.337   0.230
12239TIP3    H236675   4.118   2.270   0.364
12240TIP3   OH236676   7.684   2.548   4.375
12240TIP3    H136677   7.732   2.515   4.299
12240TIP3    H236678   7.592   2.529   4.355
12241TIP3   OH236679   7.706   3.997   2.587
12241TIP3    H136680   7.658   4.071   2.624
12241TIP3    H236681   7.771   3.975   2.654
12242TIP3   OH236682   1.611   2.647   5.604
12242TIP3    H136683   1.584   2.557   5.585
12242TIP3    H236684   1.529   2.691   5.629
12243TIP3   OH236685   3.183   2.382   5.394
12243TIP3    H136686   3.178   2.358   5.302
12243TIP3    H236687   3.161   2.302   5.441
12244TIP3   OH236688   1.529   1.663   5.425
12244TIP3    H136689   1.611   1.625   5.395
12244TIP3    H236690   1.552   1.754   5.447
12245TIP3   OH236691   1.659   7.760   4.394
12245TIP3    H136692   1.721   7.806   4.450
12245TIP3    H236693   1.714   7.717   4.328
12246TIP3   OH236694   1.127   3.292   3.333
12246TIP3    H136695   1.035   3.287   3.309
12246TIP3    H236696   1.144   3.211   3.381
12247TIP3   OH236697   3.989   6.832   5.196
12247TIP3    H136698   3.903   6.868   5.218
12247TIP3    H236699   4.051   6.889   5.241
12248TIP3   OH236700   0.190   7.735   3.545
12248TIP3    H136701   0.258   7.742   3.479
12248TIP3    H236702   0.223   7.669   3.607
12249TIP3   OH236703   3.117   3.962   4.304
12249TIP3    H136704   3.204   3.997   4.322
12249TIP3    H236705   3.065   4.039   4.278
12250TIP3   OH236706   5.331   2.755   6.476
12250TIP3    H136707   5.328   2.828   6.539
12250TIP3    H236708   5.268   2.779   6.408
12251TIP3   OH236709   0.987   7.451   4.985
12251TIP3    H136710   1.001   7.517   5.053
12251TIP3    H236711   0.915   7.398   5.017
12252TIP3   OH236712   2.437   2.856   1.184
12252TIP3    H136713   2.467   2.933   1.233
12252TIP3    H236714   2.516   2.820   1.145
12253TIP3   OH236715   6.399   0.943   4.166
12253TIP3    H136716   6.490   0.960   4.191
12253TIP3    H236717   6.406   0.885   4.090
12254TIP3   OH236718   1.427   1.170   5.245
12254TIP3    H136719   1.415   1.114   5.168
12254TIP3    H236720   1.499   1.228   5.222
12255TIP3   OH236721   2.581   6.750   5.635
12255TIP3    H136722   2.590   6.665   5.677
12255TIP3    H236723   2.622   6.738   5.549
12256TIP3   OH236724   4.532   6.143   1.420
12256TIP3    H136725   4.475   6.207   1.376
12256TIP3    H236726   4.618   6.157   1.381
12257TIP3   OH236727   3.359   6.559   4.069
12257TIP3    H136728   3.403   6.509   4.000
12257TIP3    H236729   3.369   6.650   4.042
12258TIP3   OH236730   1.159   2.968   1.599
12258TIP3    H136731   1.100   2.973   1.674
12258TIP3    H236732   1.141   2.882   1.561
12259TIP3   OH236733   7.434   7.247   2.351
12259TIP3    H136734   7.524   7.227   2.325
12259TIP3    H236735   7.389   7.269   2.270
12260TIP3   OH236736   0.585   1.969   5.945
12260TIP3    H136737   0.522   1.903   5.916
12260TIP3    H236738   0.566   2.045   5.890
12261TIP3   OH236739   4.339   2.293   1.928
12261TIP3    H136740   4.368   2.376   1.966
12261TIP3    H236741   4.368   2.227   1.990
12262TIP3   OH236742   7.218   1.629   4.691
12262TIP3    H136743   7.229   1.583   4.607
12262TIP3    H236744   7.307   1.645   4.721
12263TIP3   OH236745   5.299   5.299   3.162
12263TIP3    H136746   5.355   5.237   3.209
12263TIP3    H236747   5.214   5.292   3.204
12264TIP3   OH236748   7.083   0.933   4.268
12264TIP3    H136749   7.145   0.988   4.220
12264TIP3    H236750   7.023   0.994   4.310
12265TIP3   OH236751   5.747   1.693   1.481
12265TIP3    H136752   5.829   1.741   1.474
12265TIP3    H236753   5.772   1.601   1.476
12266TIP3   OH236754   1.316   4.020   4.071
12266TIP3    H136755   1.288   4.064   3.990
12266TIP3    H236756   1.319   3.927   4.048
12267TIP3   OH236757   0.382   1.979   2.372
12267TIP3    H136758   0.340   1.931   2.301
12267TIP3    H236759   0.377   2.070   2.345
12268TIP3   OH236760   7.059   0.073   2.437
12268TIP3    H136761   7.071   0.163   2.468
12268TIP3    H236762   7.019   0.028   2.511
12269TIP3   OH236763   6.515   3.161   3.178
12269TIP3    H136764   6.552   3.148   3.265
12269TIP3    H236765   6.589   3.187   3.123
12270TIP3   OH236766   6.836   2.765   4.223
12270TIP3    H136767   6.850   2.682   4.178
12270TIP3    H236768   6.820   2.741   4.314
12271TIP3   OH236769   1.231   4.367   5.536
12271TIP3    H136770   1.302   4.327   5.585
12271TIP3    H236771   1.168   4.395   5.602
12272TIP3   OH236772   2.559   3.849   1.123
12272TIP3    H136773   2.582   3.941   1.113
12272TIP3    H236774   2.636   3.811   1.167
12273TIP3   OH236775   6.674   6.890   0.492
12273TIP3    H136776   6.625   6.870   0.571
12273TIP3    H236777   6.703   6.805   0.459
12274TIP3   OH236778   3.167   1.240   6.369
12274TIP3    H136779   3.153   1.161   6.422
12274TIP3    H236780   3.195   1.306   6.433
12275TIP3   OH236781   3.698   0.580   1.635
12275TIP3    H136782   3.633   0.518   1.604
12275TIP3    H236783   3.734   0.618   1.555
12276TIP3   OH236784   5.583   5.002   2.764
12276TIP3    H136785   5.673   4.970   2.771
12276TIP3    H236786   5.576   5.032   2.673
12277TIP3   OH236787   6.364   3.700   4.800
12277TIP3    H136788   6.292   3.731   4.744
12277TIP3    H236789   6.378   3.771   4.862
12278TIP3   OH236790   6.601   7.213   0.451
12278TIP3    H136791   6.506   7.200   0.453
12278TIP3    H236792   6.637   7.125   0.450
12279TIP3   OH236793   7.949   1.483   3.762
12279TIP3    H136794   7.965   1.416   3.696
12279TIP3    H236795   7.854   1.493   3.763
12280TIP3   OH236796   0.679   2.103   4.243
12280TIP3    H136797   0.666   2.130   4.152
12280TIP3    H236798   0.593   2.076   4.273
12281TIP3   OH236799   3.926   3.783   0.295
12281TIP3    H136800   3.938   3.744   0.382
12281TIP3    H236801   3.839   3.824   0.299
12282TIP3   OH236802   1.598   0.741   3.761
12282TIP3    H136803   1.515   0.777   3.729
12282TIP3    H236804   1.626   0.681   3.691
12283TIP3   OH236805   7.238   4.393   6.573
12283TIP3    H136806   7.297   4.319   6.590
12283TIP3    H236807   7.182   4.362   6.502
12284TIP3   OH236808   3.887   2.372   3.311
12284TIP3    H136809   3.867   2.405   3.399
12284TIP3    H236810   3.858   2.281   3.313
12285TIP3   OH236811   2.479   7.201   0.844
12285TIP3    H136812   2.393   7.233   0.814
12285TIP3    H236813   2.457   7.132   0.907
12286TIP3   OH236814   3.457   5.059   1.436
12286TIP3    H136815   3.415   4.989   1.385
12286TIP3    H236816   3.423   5.140   1.398
12287TIP3   OH236817   4.547   3.803   5.576
12287TIP3    H136818   4.616   3.828   5.637
12287TIP3    H236819   4.587   3.737   5.520
12288TIP3   OH236820   5.378   5.442   6.502
12288TIP3    H136821   5.381   5.414   6.593
12288TIP3    H236822   5.303   5.502   6.498
12289TIP3   OH236823   1.155   2.074   1.159
12289TIP3    H136824   1.153   1.979   1.146
12289TIP3    H236825   1.108   2.089   1.240
12290TIP3   OH236826   6.489   2.363   0.378
12290TIP3    H136827   6.574   2.324   0.400
12290TIP3    H236828   6.511   2.441   0.327
12291TIP3   OH236829   3.921   1.432   0.035
12291TIP3    H136830   3.967   1.350   0.018
12291TIP3    H236831   3.985   1.485   0.084
12292TIP3   OH236832   7.867   2.042   6.309
12292TIP3    H136833   7.902   2.067   6.224
12292TIP3    H236834   7.866   2.123   6.360
12293TIP3   OH236835   0.442   5.455   1.639
12293TIP3    H136836   0.520   5.511   1.637
12293TIP3    H236837   0.457   5.391   1.569
12294TIP3   OH236838   1.084   7.084   5.412
12294TIP3    H136839   1.152   7.057   5.474
12294TIP3    H236840   1.088   7.018   5.343
12295TIP3   OH236841   4.055   0.722   1.180
12295TIP3    H136842   4.050   0.783   1.106
12295TIP3    H236843   4.021   0.639   1.146
12296TIP3   OH236844   1.293   4.627   2.633
12296TIP3    H136845   1.384   4.643   2.657
12296TIP3    H236846   1.290   4.535   2.608
12297TIP3   OH236847   2.064   0.532   2.687
12297TIP3    H136848   2.029   0.490   2.765
12297TIP3    H236849   2.156   0.508   2.686
12298TIP3   OH236850   5.234   0.247   3.123
12298TIP3    H136851   5.275   0.230   3.208
12298TIP3    H236852   5.260   0.173   3.068
12299TIP3   OH236853   3.253   0.973   6.136
12299TIP3    H136854   3.168   0.964   6.179
12299TIP3    H236855   3.313   0.999   6.205
12300TIP3   OH236856   5.396   1.417   2.905
12300TIP3    H136857   5.315   1.394   2.950
12300TIP3    H236858   5.416   1.505   2.936
12301TIP3   OH236859   4.222   2.256   6.525
12301TIP3    H136860   4.210   2.260   6.620
12301TIP3    H236861   4.179   2.335   6.492
12302TIP3   OH236862   3.912   6.085   2.427
12302TIP3    H136863   3.905   6.092   2.332
12302TIP3    H236864   3.947   6.170   2.455
12303TIP3   OH236865   6.297   4.601   1.590
12303TIP3    H136866   6.299   4.591   1.685
12303TIP3    H236867   6.295   4.696   1.576
12304TIP3   OH236868   7.776   2.027   0.131
12304TIP3    H136869   7.686   1.996   0.129
12304TIP3    H236870   7.827   1.961   0.084
12305TIP3   OH236871   7.444   7.726   3.594
12305TIP3    H136872   7.467   7.698   3.682
12305TIP3    H236873   7.519   7.699   3.540
12306TIP3   OH236874   1.464   0.490   4.525
12306TIP3    H136875   1.556   0.517   4.523
12306TIP3    H236876   1.466   0.401   4.559
12307TIP3   OH236877   1.704   4.289   1.014
12307TIP3    H136878   1.782   4.233   1.014
12307TIP3    H236879   1.691   4.312   0.922
12308TIP3   OH236880   4.807   1.764   4.944
12308TIP3    H136881   4.724   1.716   4.937
12308TIP3    H236882   4.856   1.717   5.011
12309TIP3   OH236883   1.852   6.298   1.501
12309TIP3    H136884   1.848   6.208   1.470
12309TIP3    H236885   1.832   6.351   1.423
12310TIP3   OH236886   2.816   5.008   3.343
12310TIP3    H136887   2.740   4.966   3.304
12310TIP3    H236888   2.785   5.041   3.427
12311TIP3   OH236889   0.545   4.425   0.106
12311TIP3    H136890   0.486   4.496   0.080
12311TIP3    H236891   0.488   4.349   0.116
12312TIP3   OH236892   0.289   5.768   6.090
12312TIP3    H136893   0.199   5.780   6.122
12312TIP3    H236894   0.289   5.809   6.004
12313TIP3   OH236895   0.431   2.097   6.747
12313TIP3    H136896   0.430   2.177   6.801
12313TIP3    H236897   0.523   2.074   6.740
12314TIP3   OH236898   3.850   3.791   0.789
12314TIP3    H136899   3.933   3.827   0.761
12314TIP3    H236900   3.812   3.859   0.845
12315TIP3   OH236901   1.079   0.398   5.702
12315TIP3    H136902   1.049   0.337   5.634
12315TIP3    H236903   1.158   0.358   5.737
12316TIP3   OH236904   4.584   1.602   4.851
12316TIP3    H136905   4.527   1.533   4.819
12316TIP3    H236906   4.608   1.653   4.773
12317TIP3   OH236907   1.527   2.487   3.468
12317TIP3    H136908   1.553   2.414   3.411
12317TIP3    H236909   1.560   2.463   3.554
12318TIP3   OH236910   0.856   1.284   4.499
12318TIP3    H136911   0.793   1.212   4.495
12318TIP3    H236912   0.941   1.241   4.509
12319TIP3   OH236913   8.299   4.691   2.838
12319TIP3    H136914   8.213   4.680   2.879
12319TIP3    H236915   8.285   4.669   2.746
12320TIP3   OH236916   7.429   7.048   3.214
12320TIP3    H136917   7.402   7.012   3.129
12320TIP3    H236918   7.351   7.039   3.269
12321TIP3   OH236919   7.168   6.360   3.907
12321TIP3    H136920   7.234   6.337   3.841
12321TIP3    H236921   7.136   6.446   3.879
12322TIP3   OH236922   3.552   5.940   5.177
12322TIP3    H136923   3.463   5.974   5.170
12322TIP3    H236924   3.604   5.999   5.122
12323TIP3   OH236925   6.625   7.227   3.100
12323TIP3    H136926   6.631   7.156   3.164
12323TIP3    H236927   6.536   7.219   3.064
12324TIP3   OH236928   7.286   7.495   3.207
12324TIP3    H136929   7.379   7.486   3.228
12324TIP3    H236930   7.261   7.578   3.247
12325TIP3   OH236931   2.608   5.498   5.419
12325TIP3    H136932   2.680   5.477   5.480
12325TIP3    H236933   2.633   5.456   5.337
12326TIP3   OH236934   4.067   0.899   6.234
12326TIP3    H136935   3.975   0.892   6.262
12326TIP3    H236936   4.110   0.946   6.305
12327TIP3   OH236937   4.024   4.294   1.713
12327TIP3    H136938   4.112   4.310   1.747
12327TIP3    H236939   4.030   4.210   1.668
12328TIP3   OH236940   4.382   5.690   4.382
12328TIP3    H136941   4.360   5.623   4.448
12328TIP3    H236942   4.469   5.666   4.352
12329TIP3   OH236943   1.763   1.211   5.993
12329TIP3    H136944   1.785   1.249   5.908
12329TIP3    H236945   1.733   1.122   5.972
12330TIP3   OH236946   6.307   0.478   4.689
12330TIP3    H136947   6.299   0.467   4.595
12330TIP3    H236948   6.271   0.398   4.727
12331TIP3   OH236949   3.791   1.483   1.223
12331TIP3    H136950   3.824   1.538   1.294
12331TIP3    H236951   3.867   1.470   1.165
12332TIP3   OH236952   1.162   7.282   2.892
12332TIP3    H136953   1.135   7.344   2.824
12332TIP3    H236954   1.081   7.254   2.933
12333TIP3   OH236955   1.689   6.818   5.585
12333TIP3    H136956   1.693   6.726   5.558
12333TIP3    H236957   1.682   6.867   5.504
12334TIP3   OH236958   2.631   5.164   0.215
12334TIP3    H136959   2.581   5.245   0.227
12334TIP3    H236960   2.684   5.156   0.294
12335TIP3   OH236961   3.808   2.636   3.799
12335TIP3    H136962   3.807   2.543   3.779
12335TIP3    H236963   3.861   2.676   3.730
12336TIP3   OH236964   7.702   6.787   2.455
12336TIP3    H136965   7.752   6.869   2.450
12336TIP3    H236966   7.707   6.751   2.366
12337TIP3   OH236967   5.858   2.700   6.207
12337TIP3    H136968   5.936   2.695   6.262
12337TIP3    H236969   5.836   2.793   6.205
12338TIP3   OH236970   1.049   1.504   3.029
12338TIP3    H136971   1.069   1.486   3.121
12338TIP3    H236972   0.954   1.498   3.024
12339TIP3   OH236973   6.393   3.597   2.184
12339TIP3    H136974   6.371   3.666   2.246
12339TIP3    H236975   6.487   3.609   2.167
12340TIP3   OH236976   0.514   4.951   1.735
12340TIP3    H136977   0.521   4.962   1.829
12340TIP3    H236978   0.549   4.863   1.718
12341TIP3   OH236979   6.614   2.091   5.515
12341TIP3    H136980   6.644   2.004   5.540
12341TIP3    H236981   6.579   2.080   5.427
12342TIP3   OH236982   7.149   6.225   0.616
12342TIP3    H136983   7.060   6.259   0.624
12342TIP3    H236984   7.144   6.137   0.655
12343TIP3   OH236985   5.287   1.947   3.453
12343TIP3    H136986   5.201   1.978   3.424
12343TIP3    H236987   5.333   2.025   3.482
12344TIP3   OH236988   0.554   3.893   1.414
12344TIP3    H136989   0.529   3.850   1.496
12344TIP3    H236990   0.566   3.985   1.438
12345TIP3   OH236991   6.688   7.131   0.770
12345TIP3    H136992   6.751   7.144   0.842
12345TIP3    H236993   6.672   7.037   0.768
12346TIP3   OH236994   0.293   5.514   4.838
12346TIP3    H136995   0.381   5.499   4.872
12346TIP3    H236996   0.237   5.460   4.893
12347TIP3   OH236997   8.308   2.653   2.204
12347TIP3    H136998   8.320   2.739   2.243
12347TIP3    H236999   8.220   2.654   2.169
12348TIP3   OH237000   7.933   3.625   5.047
12348TIP3    H137001   7.988   3.648   5.121
12348TIP3    H237002   7.993   3.583   4.985
12349TIP3   OH237003   5.221   4.263   6.161
12349TIP3    H137004   5.300   4.264   6.216
12349TIP3    H237005   5.205   4.356   6.142
12350TIP3   OH237006   5.683   6.365   5.212
12350TIP3    H137007   5.655   6.335   5.299
12350TIP3    H237008   5.606   6.407   5.175
12351TIP3   OH237009   7.592   5.438   2.181
12351TIP3    H137010   7.581   5.445   2.086
12351TIP3    H237011   7.622   5.524   2.208
12352TIP3   OH237012   2.611   6.542   2.262
12352TIP3    H137013   2.542   6.602   2.292
12352TIP3    H237014   2.683   6.599   2.237
12353TIP3   OH237015   1.531   1.372   2.864
12353TIP3    H137016   1.557   1.318   2.939
12353TIP3    H237017   1.435   1.372   2.868
12354TIP3   OH237018   4.853   2.383   0.085
12354TIP3    H137019   4.935   2.431   0.075
12354TIP3    H237020   4.800   2.411   0.009
12355TIP3   OH237021   7.733   1.089   3.626
12355TIP3    H137022   7.756   1.058   3.713
12355TIP3    H237023   7.744   1.013   3.569
12356TIP3   OH237024   1.467   6.004   2.174
12356TIP3    H137025   1.413   5.948   2.230
12356TIP3    H237026   1.524   6.052   2.235
12357TIP3   OH237027   2.333   0.385   1.207
12357TIP3    H137028   2.387   0.313   1.174
12357TIP3    H237029   2.257   0.341   1.247
12358TIP3   OH237030   5.250   1.283   2.298
12358TIP3    H137031   5.251   1.275   2.393
12358TIP3    H237032   5.237   1.376   2.281
12359TIP3   OH237033   1.601   5.238   3.400
12359TIP3    H137034   1.505   5.244   3.403
12359TIP3    H237035   1.627   5.307   3.339
12360TIP3   OH237036   8.215   4.483   4.670
12360TIP3    H137037   8.296   4.435   4.688
12360TIP3    H237038   8.154   4.416   4.641
12361TIP3   OH237039   7.857   1.480   1.839
12361TIP3    H137040   7.798   1.404   1.841
12361TIP3    H237041   7.827   1.530   1.763
12362TIP3   OH237042   3.243   0.707   2.197
12362TIP3    H137043   3.295   0.672   2.125
12362TIP3    H237044   3.247   0.802   2.186
12363TIP3   OH237045   5.479   3.828   2.695
12363TIP3    H137046   5.405   3.773   2.722
12363TIP3    H237047   5.440   3.911   2.671
12364TIP3   OH237048   3.549   3.023   0.003
12364TIP3    H137049   3.553   3.056   0.093
12364TIP3    H237050   3.590   2.937   0.006
12365TIP3   OH237051   1.068   0.686   0.765
12365TIP3    H137052   1.031   0.760   0.813
12365TIP3    H237053   1.024   0.610   0.801
12366TIP3   OH237054   5.250   0.923   4.863
12366TIP3    H137055   5.172   0.891   4.816
12366TIP3    H237056   5.313   0.943   4.794
12367TIP3   OH237057   5.910   7.352   6.275
12367TIP3    H137058   5.863   7.366   6.192
12367TIP3    H237059   5.922   7.258   6.280
12368TIP3   OH237060   4.498   6.883   0.744
12368TIP3    H137061   4.507   6.979   0.746
12368TIP3    H237062   4.572   6.852   0.797
12369TIP3   OH237063   6.127   4.113   0.234
12369TIP3    H137064   6.149   4.069   0.152
12369TIP3    H237065   6.185   4.074   0.299
12370TIP3   OH237066   8.203   1.752   3.967
12370TIP3    H137067   8.291   1.722   3.989
12370TIP3    H237068   8.144   1.691   4.011
12371TIP3   OH237069   3.200   0.988   2.159
12371TIP3    H137070   3.189   0.946   2.074
12371TIP3    H237071   3.197   1.082   2.141
12372TIP3   OH237072   2.849   5.948   0.763
12372TIP3    H137073   2.895   5.975   0.842
12372TIP3    H237074   2.888   5.864   0.740
12373TIP3   OH237075   2.223   3.743   0.104
12373TIP3    H137076   2.313   3.720   0.127
12373TIP3    H237077   2.172   3.724   0.184
12374TIP3   OH237078   0.619   2.669   3.625
12374TIP3    H137079   0.623   2.706   3.537
12374TIP3    H237080   0.651   2.739   3.682
12375TIP3   OH237081   4.224   0.883   3.154
12375TIP3    H137082   4.281   0.950   3.115
12375TIP3    H237083   4.192   0.833   3.079
12376TIP3   OH237084   7.474   6.388   2.654
12376TIP3    H137085   7.519   6.351   2.579
12376TIP3    H237086   7.420   6.458   2.618
12377TIP3   OH237087   8.221   7.194   4.012
12377TIP3    H137088   8.236   7.289   4.014
12377TIP3    H237089   8.145   7.183   3.956
12378TIP3   OH237090   0.235   1.464   5.858
12378TIP3    H137091   0.285   1.412   5.921
12378TIP3    H237092   0.299   1.484   5.789
12379TIP3   OH237093   7.632   7.466   1.555
12379TIP3    H137094   7.683   7.390   1.582
12379TIP3    H237095   7.666   7.538   1.608
12380TIP3   OH237096   3.754   7.474   2.860
12380TIP3    H137097   3.776   7.559   2.823
12380TIP3    H237098   3.776   7.411   2.792
12381TIP3   OH237099   1.700   4.150   1.767
12381TIP3    H137100   1.640   4.093   1.815
12381TIP3    H237101   1.685   4.237   1.803
12382TIP3   OH237102   5.161   2.879   1.910
12382TIP3    H137103   5.253   2.898   1.923
12382TIP3    H237104   5.159   2.789   1.878
12383TIP3   OH237105   1.123   7.545   0.364
12383TIP3    H137106   1.092   7.564   0.452
12383TIP3    H237107   1.206   7.498   0.377
12384TIP3   OH237108   6.196   3.115   6.559
12384TIP3    H137109   6.242   3.051   6.614
12384TIP3    H237110   6.120   3.067   6.525
12385TIP3   OH237111   4.887   2.334   3.247
12385TIP3    H137112   4.845   2.391   3.182
12385TIP3    H237113   4.836   2.347   3.327
12386TIP3   OH237114   7.953   7.534   2.029
12386TIP3    H137115   8.007   7.612   2.017
12386TIP3    H237116   7.866   7.568   2.050
12387TIP3   OH237117   0.880   1.823   5.024
12387TIP3    H137118   0.881   1.728   5.011
12387TIP3    H237119   0.835   1.835   5.107
12388TIP3   OH237120   1.704   2.090   1.645
12388TIP3    H137121   1.642   2.059   1.711
12388TIP3    H237122   1.789   2.057   1.675
12389TIP3   OH237123   6.258   7.726   2.768
12389TIP3    H137124   6.258   7.787   2.841
12389TIP3    H237125   6.166   7.716   2.745
12390TIP3   OH237126   1.700   7.099   4.109
12390TIP3    H137127   1.764   7.041   4.149
12390TIP3    H237128   1.733   7.188   4.126
12391TIP3   OH237129   1.006   0.042   5.199
12391TIP3    H137130   0.978   0.105   5.133
12391TIP3    H237131   0.925   0.014   5.241
12392TIP3   OH237132   5.977   3.690   4.856
12392TIP3    H137133   5.893   3.685   4.811
12392TIP3    H237134   6.006   3.781   4.842
12393TIP3   OH237135   1.920   0.083   2.429
12393TIP3    H137136   1.860   0.052   2.362
12393TIP3    H237137   1.892   0.172   2.448
12394TIP3   OH237138   2.512   3.756   2.399
12394TIP3    H137139   2.472   3.712   2.473
12394TIP3    H237140   2.597   3.712   2.388
12395TIP3   OH237141   4.132   7.631   6.793
12395TIP3    H137142   4.122   7.607   6.701
12395TIP3    H237143   4.124   7.727   6.793
12396TIP3   OH237144   7.787   0.315   0.422
12396TIP3    H137145   7.865   0.362   0.391
12396TIP3    H237146   7.790   0.325   0.517
12397TIP3   OH237147   7.630   5.208   2.350
12397TIP3    H137148   7.652   5.279   2.289
12397TIP3    H237149   7.537   5.220   2.368
12398TIP3   OH237150   4.703   1.358   3.736
12398TIP3    H137151   4.655   1.275   3.732
12398TIP3    H237152   4.753   1.354   3.818
12399TIP3   OH237153   7.829   7.758   3.391
12399TIP3    H137154   7.824   7.674   3.436
12399TIP3    H237155   7.793   7.740   3.304
12400TIP3   OH237156   7.343   7.817   5.629
12400TIP3    H137157   7.373   7.745   5.574
12400TIP3    H237158   7.249   7.824   5.612
12401TIP3   OH237159   1.443   6.012   1.496
12401TIP3    H137160   1.510   6.032   1.561
12401TIP3    H237161   1.364   6.056   1.528
12402TIP3   OH237162   4.121   4.160   0.265
12402TIP3    H137163   4.077   4.244   0.272
12402TIP3    H237164   4.109   4.134   0.173
12403TIP3   OH237165   7.292   5.596   5.851
12403TIP3    H137166   7.325   5.654   5.782
12403TIP3    H237167   7.208   5.565   5.817
12404TIP3   OH237168   3.728   2.484   2.845
12404TIP3    H137169   3.815   2.501   2.810
12404TIP3    H237170   3.714   2.390   2.833
12405TIP3   OH237171   6.366   5.028   2.362
12405TIP3    H137172   6.388   5.043   2.270
12405TIP3    H237173   6.286   4.974   2.359
12406TIP3   OH237174   1.031   1.817   1.473
12406TIP3    H137175   1.106   1.771   1.512
12406TIP3    H237176   0.957   1.760   1.489
12407TIP3   OH237177   0.515   4.464   4.440
12407TIP3    H137178   0.551   4.429   4.521
12407TIP3    H237179   0.493   4.555   4.460
12408TIP3   OH237180   7.619   2.646   2.975
12408TIP3    H137181   7.540   2.683   2.935
12408TIP3    H237182   7.662   2.720   3.018
12409TIP3   OH237183   2.769   4.271   1.505
12409TIP3    H137184   2.853   4.236   1.534
12409TIP3    H237185   2.706   4.201   1.522
12410TIP3   OH237186   0.799   1.048   1.543
12410TIP3    H137187   0.746   1.053   1.622
12410TIP3    H237188   0.759   0.977   1.491
12411TIP3   OH237189   2.926   1.076   0.856
12411TIP3    H137190   2.845   1.035   0.884
12411TIP3    H237191   2.906   1.114   0.771
12412TIP3   OH237192   7.497   5.907   2.324
12412TIP3    H137193   7.512   5.990   2.279
12412TIP3    H237194   7.428   5.926   2.387
12413TIP3   OH237195   6.077   5.223   1.619
12413TIP3    H137196   6.133   5.175   1.681
12413TIP3    H237197   6.080   5.171   1.539
12414TIP3   OH237198   4.911   3.774   0.270
12414TIP3    H137199   4.993   3.727   0.257
12414TIP3    H237200   4.916   3.848   0.209
12415TIP3   OH237201   0.316   4.365   3.794
12415TIP3    H137202   0.312   4.283   3.745
12415TIP3    H237203   0.227   4.378   3.827
12416TIP3   OH237204   6.870   0.910   5.983
12416TIP3    H137205   6.883   0.913   5.888
12416TIP3    H237206   6.951   0.872   6.018
12417TIP3   OH237207   3.979   6.845   6.486
12417TIP3    H137208   4.043   6.774   6.477
12417TIP3    H237209   3.984   6.892   6.403
12418TIP3   OH237210   7.310   6.481   1.056
12418TIP3    H137211   7.380   6.421   1.082
12418TIP3    H237212   7.230   6.442   1.092
12419TIP3   OH237213   1.383   5.484   5.581
12419TIP3    H137214   1.365   5.573   5.552
12419TIP3    H237215   1.343   5.478   5.668
12420TIP3   OH237216   6.575   1.202   3.165
12420TIP3    H137217   6.553   1.284   3.209
12420TIP3    H237218   6.645   1.165   3.217
12421TIP3   OH237219   1.023   5.256   5.922
12421TIP3    H137220   1.074   5.299   5.990
12421TIP3    H237221   0.932   5.275   5.945
12422TIP3   OH237222   0.671   2.191   2.870
12422TIP3    H137223   0.595   2.166   2.923
12422TIP3    H237224   0.636   2.196   2.781
12423TIP3   OH237225   3.667   5.062   1.597
12423TIP3    H137226   3.593   5.062   1.536
12423TIP3    H237227   3.646   4.993   1.660
12424TIP3   OH237228   1.738   2.024   0.658
12424TIP3    H137229   1.775   2.050   0.742
12424TIP3    H237230   1.651   1.990   0.678
12425TIP3   OH237231   2.804   6.458   4.945
12425TIP3    H137232   2.734   6.522   4.957
12425TIP3    H237233   2.785   6.415   4.862
12426TIP3   OH237234   0.561   2.335   1.342
12426TIP3    H137235   0.533   2.420   1.377
12426TIP3    H237236   0.656   2.335   1.353
12427TIP3   OH237237   3.742   6.514   1.760
12427TIP3    H137238   3.659   6.477   1.789
12427TIP3    H237239   3.725   6.607   1.748
12428TIP3   OH237240   4.477   0.709   3.770
12428TIP3    H137241   4.467   0.735   3.861
12428TIP3    H237242   4.389   0.683   3.743
12429TIP3   OH237243   5.246   0.285   0.438
12429TIP3    H137244   5.226   0.261   0.347
12429TIP3    H237245   5.333   0.324   0.434
12430TIP3   OH237246   7.339   3.616   5.337
12430TIP3    H137247   7.295   3.651   5.414
12430TIP3    H237248   7.327   3.521   5.344
12431TIP3   OH237249   1.904   2.429   0.966
12431TIP3    H137250   1.836   2.445   0.901
12431TIP3    H237251   1.979   2.480   0.935
12432TIP3   OH237252   2.924   0.032   5.930
12432TIP3    H137253   2.878  -0.034   5.878
12432TIP3    H237254   2.986   0.072   5.868
12433TIP3   OH237255   0.490   6.321   5.928
12433TIP3    H137256   0.471   6.385   5.859
12433TIP3    H237257   0.404   6.283   5.949
12434TIP3   OH237258   1.273   7.518   5.649
12434TIP3    H137259   1.201   7.460   5.622
12434TIP3    H237260   1.278   7.506   5.744
12435TIP3   OH237261   2.147   1.378   1.644
12435TIP3    H137262   2.208   1.365   1.717
12435TIP3    H237263   2.184   1.451   1.594
12436TIP3   OH237264   4.400   7.772   6.601
12436TIP3    H137265   4.479   7.804   6.558
12436TIP3    H237266   4.432   7.717   6.673
12437TIP3   OH237267   1.650   1.652   5.082
12437TIP3    H137268   1.561   1.687   5.092
12437TIP3    H237269   1.676   1.628   5.171
12438TIP3   OH237270   1.047   3.497   6.040
12438TIP3    H137271   1.091   3.430   6.093
12438TIP3    H237272   0.970   3.522   6.092
12439TIP3   OH237273   6.178   3.768   0.220
12439TIP3    H137274   6.088   3.767   0.189
12439TIP3    H237275   6.231   3.755   0.142
12440TIP3   OH237276   6.578   5.324   2.445
12440TIP3    H137277   6.607   5.234   2.458
12440TIP3    H237278   6.545   5.326   2.355
12441TIP3   OH237279   7.825   4.969   3.285
12441TIP3    H137280   7.789   4.897   3.336
12441TIP3    H237281   7.755   5.034   3.283
12442TIP3   OH237282   7.480   7.795   1.956
12442TIP3    H137283   7.571   7.816   1.976
12442TIP3    H237284   7.451   7.742   2.029
12443TIP3   OH237285   3.359   1.669   3.301
12443TIP3    H137286   3.388   1.592   3.252
12443TIP3    H237287   3.294   1.710   3.245
12444TIP3   OH237288   1.860   2.604   2.740
12444TIP3    H137289   1.846   2.639   2.653
12444TIP3    H237290   1.790   2.541   2.752
12445TIP3   OH237291   3.913   6.857   2.083
12445TIP3    H137292   3.916   6.891   1.994
12445TIP3    H237293   4.003   6.861   2.114
12446TIP3   OH237294   5.715   4.624   4.983
12446TIP3    H137295   5.801   4.607   5.022
12446TIP3    H237296   5.654   4.618   5.057
12447TIP3   OH237297   0.090   3.988   2.334
12447TIP3    H137298   0.164   4.048   2.343
12447TIP3    H237299   0.013   4.040   2.356
12448TIP3   OH237300   4.545   0.350   0.677
12448TIP3    H137301   4.577   0.297   0.750
12448TIP3    H237302   4.467   0.303   0.646
12449TIP3   OH237303   2.708   4.547   6.290
12449TIP3    H137304   2.795   4.512   6.309
12449TIP3    H237305   2.650   4.471   6.300
12450TIP3   OH237306   3.298   3.037   3.046
12450TIP3    H137307   3.295   3.074   3.134
12450TIP3    H237308   3.282   2.944   3.059
12451TIP3   OH237309   0.839   1.366   5.818
12451TIP3    H137310   0.879   1.372   5.731
12451TIP3    H237311   0.880   1.436   5.869
12452TIP3   OH237312   1.058   7.578   3.773
12452TIP3    H137313   1.083   7.508   3.713
12452TIP3    H237314   1.002   7.636   3.721
12453TIP3   OH237315   1.444   4.410   4.881
12453TIP3    H137316   1.405   4.363   4.955
12453TIP3    H237317   1.375   4.409   4.814
12454TIP3   OH237318   3.693   0.556   3.151
12454TIP3    H137319   3.711   0.647   3.126
12454TIP3    H237320   3.619   0.562   3.211
12455TIP3   OH237321   3.252   0.877   4.553
12455TIP3    H137322   3.330   0.822   4.544
12455TIP3    H237323   3.270   0.954   4.501
12456TIP3   OH237324   3.310   2.105   6.415
12456TIP3    H137325   3.273   2.117   6.502
12456TIP3    H237326   3.334   2.194   6.387
12457TIP3   OH237327   3.371   6.832   0.175
12457TIP3    H137328   3.463   6.853   0.194
12457TIP3    H237329   3.322   6.904   0.214
12458TIP3   OH237330   7.742   3.161   2.909
12458TIP3    H137331   7.793   3.190   2.984
12458TIP3    H237332   7.804   3.112   2.855
12459TIP3   OH237333   4.812   1.299   5.130
12459TIP3    H137334   4.718   1.304   5.113
12459TIP3    H237335   4.845   1.232   5.070
12460TIP3   OH237336   2.575   5.471   3.088
12460TIP3    H137337   2.666   5.482   3.059
12460TIP3    H237338   2.523   5.512   3.019
12461TIP3   OH237339   1.884   5.595   5.422
12461TIP3    H137340   1.911   5.503   5.414
12461TIP3    H237341   1.812   5.593   5.485
12462TIP3   OH237342   3.127   7.286   2.781
12462TIP3    H137343   3.178   7.367   2.784
12462TIP3    H237344   3.089   7.277   2.868
12463TIP3   OH237345   7.023   6.285   0.321
12463TIP3    H137346   6.937   6.319   0.297
12463TIP3    H237347   7.060   6.351   0.379
12464TIP3   OH237348   0.769   5.884   1.720
12464TIP3    H137349   0.782   5.948   1.650
12464TIP3    H237350   0.772   5.936   1.800
12465TIP3   OH237351   7.852   0.978   1.918
12465TIP3    H137352   7.779   1.018   1.965
12465TIP3    H237353   7.897   0.924   1.983
12466TIP3   OH237354   7.500   6.783   0.260
12466TIP3    H137355   7.559   6.855   0.239
12466TIP3    H237356   7.516   6.765   0.352
12467TIP3   OH237357   1.083   0.672   0.483
12467TIP3    H137358   1.102   0.692   0.575
12467TIP3    H237359   0.988   0.682   0.476
12468TIP3   OH237360   1.197   0.233   3.183
12468TIP3    H137361   1.102   0.239   3.193
12468TIP3    H237362   1.211   0.152   3.133
12469TIP3   OH237363   5.381   2.281   0.686
12469TIP3    H137364   5.420   2.332   0.615
12469TIP3    H237365   5.287   2.299   0.680
12470TIP3   OH237366   3.938   7.162   5.727
12470TIP3    H137367   3.896   7.163   5.813
12470TIP3    H237368   3.866   7.167   5.665
12471TIP3   OH237369   8.262   0.502   5.334
12471TIP3    H137370   8.179   0.475   5.373
12471TIP3    H237371   8.252   0.596   5.319
12472TIP3   OH237372   3.986   0.849   0.382
12472TIP3    H137373   3.903   0.877   0.421
12472TIP3    H237374   3.990   0.755   0.401
12473TIP3   OH237375   2.859   0.765   1.765
12473TIP3    H137376   2.813   0.842   1.797
12473TIP3    H237377   2.877   0.784   1.673
12474TIP3   OH237378   5.720   0.128   4.721
12474TIP3    H137379   5.811   0.160   4.723
12474TIP3    H237380   5.726   0.044   4.675
12475TIP3   OH237381   5.719   5.091   4.717
12475TIP3    H137382   5.719   5.172   4.769
12475TIP3    H237383   5.670   5.028   4.771
12476TIP3   OH237384   2.800   2.852   4.666
12476TIP3    H137385   2.745   2.844   4.745
12476TIP3    H237386   2.839   2.939   4.673
12477TIP3   OH237387   0.889   1.183   0.993
12477TIP3    H137388   0.892   1.169   0.899
12477TIP3    H237389   0.910   1.098   1.031
12478TIP3   OH237390   1.148   1.632   5.591
12478TIP3    H137391   1.150   1.695   5.519
12478TIP3    H237392   1.216   1.663   5.651
12479TIP3   OH237393   7.392   5.335   4.711
12479TIP3    H137394   7.476   5.289   4.713
12479TIP3    H237395   7.335   5.277   4.661
12480TIP3   OH237396   2.783   7.020   5.073
12480TIP3    H137397   2.790   7.101   5.023
12480TIP3    H237398   2.874   6.992   5.085
12481TIP3   OH237399   5.861   5.898   5.797
12481TIP3    H137400   5.842   5.835   5.866
12481TIP3    H237401   5.840   5.852   5.716
12482TIP3   OH237402   6.648   6.238   0.508
12482TIP3    H137403   6.674   6.266   0.420
12482TIP3    H237404   6.572   6.291   0.529
12483TIP3   OH237405   6.017   3.930   5.567
12483TIP3    H137406   6.051   3.884   5.490
12483TIP3    H237407   5.991   3.860   5.627
12484TIP3   OH237408   5.131   3.336   1.586
12484TIP3    H137409   5.180   3.340   1.668
12484TIP3    H237410   5.082   3.419   1.583
12485TIP3   OH237411   5.148   7.350   6.491
12485TIP3    H137412   5.176   7.400   6.415
12485TIP3    H237413   5.056   7.330   6.474
12486TIP3   OH237414   7.328   2.409   2.230
12486TIP3    H137415   7.280   2.368   2.158
12486TIP3    H237416   7.305   2.357   2.307
12487TIP3   OH237417   1.403   0.399   2.921
12487TIP3    H137418   1.409   0.304   2.919
12487TIP3    H237419   1.464   0.426   2.990
12488TIP3   OH237420   6.983   6.734   6.672
12488TIP3    H137421   7.066   6.741   6.624
12488TIP3    H237422   6.966   6.823   6.704
12489TIP3   OH237423   5.014   3.689   2.693
12489TIP3    H137424   5.011   3.777   2.657
12489TIP3    H237425   4.953   3.689   2.766
12490TIP3   OH237426   3.246   4.143   4.065
12490TIP3    H137427   3.206   4.230   4.066
12490TIP3    H237428   3.341   4.160   4.065
12491TIP3   OH237429   3.879   6.987   0.303
12491TIP3    H137430   3.899   6.895   0.320
12491TIP3    H237431   3.963   7.025   0.274
12492TIP3   OH237432   8.053   5.316   2.312
12492TIP3    H137433   8.140   5.348   2.287
12492TIP3    H237434   8.004   5.395   2.332
12493TIP3   OH237435   7.855   6.457   2.014
12493TIP3    H137436   7.886   6.367   2.009
12493TIP3    H237437   7.808   6.472   1.932
12494TIP3   OH237438   6.785   4.921   4.962
12494TIP3    H137439   6.852   4.958   4.905
12494TIP3    H237440   6.834   4.881   5.034
12495TIP3   OH237441   4.788   6.279   6.351
12495TIP3    H137442   4.785   6.279   6.255
12495TIP3    H237443   4.868   6.231   6.372
12496TIP3   OH237444   2.573   5.056   4.004
12496TIP3    H137445   2.617   5.131   3.963
12496TIP3    H237446   2.574   4.988   3.936
12497TIP3   OH237447   3.703   3.758   6.076
12497TIP3    H137448   3.718   3.852   6.090
12497TIP3    H237449   3.735   3.742   5.988
12498TIP3   OH237450   1.097   2.836   3.941
12498TIP3    H137451   1.108   2.897   4.014
12498TIP3    H237452   1.156   2.868   3.873
12499TIP3   OH237453   1.425   4.275   1.248
12499TIP3    H137454   1.451   4.337   1.180
12499TIP3    H237455   1.342   4.310   1.281
12500TIP3   OH237456   6.889   5.021   6.632
12500TIP3    H137457   6.980   5.038   6.654
12500TIP3    H237458   6.852   4.981   6.711
12501TIP3   OH237459   1.811   4.477   2.671
12501TIP3    H137460   1.799   4.558   2.720
12501TIP3    H237461   1.904   4.476   2.648
12502TIP3   OH237462   5.102   3.581   4.774
12502TIP3    H137463   5.110   3.676   4.773
12502TIP3    H237464   5.027   3.563   4.717
12503TIP3   OH237465   5.450   5.764   2.903
12503TIP3    H137466   5.513   5.758   2.831
12503TIP3    H237467   5.472   5.846   2.947
12504TIP3   OH237468   8.117   6.476   1.639
12504TIP3    H137469   8.100   6.547   1.701
12504TIP3    H237470   8.075   6.400   1.678
12505TIP3   OH237471   6.486   6.223   5.661
12505TIP3    H137472   6.467   6.132   5.635
12505TIP3    H237473   6.425   6.276   5.610
12506TIP3   OH237474   0.694   0.351   2.633
12506TIP3    H137475   0.683   0.269   2.585
12506TIP3    H237476   0.763   0.334   2.696
12507TIP3   OH237477   3.505   2.747   0.623
12507TIP3    H137478   3.544   2.811   0.564
12507TIP3    H237479   3.534   2.774   0.711
12508TIP3   OH237480   5.847   4.197   0.564
12508TIP3    H137481   5.857   4.292   0.569
12508TIP3    H237482   5.935   4.163   0.579
12509TIP3   OH237483   7.116   5.989   0.754
12509TIP3    H137484   7.180   5.939   0.803
12509TIP3    H237485   7.045   5.928   0.737
12510TIP3   OH237486   3.874   5.241   3.427
12510TIP3    H137487   3.960   5.266   3.462
12510TIP3    H237488   3.818   5.316   3.445
12511TIP3   OH237489   1.213   1.679   4.829
12511TIP3    H137490   1.213   1.638   4.916
12511TIP3    H237491   1.261   1.760   4.841
12512TIP3   OH237492   2.073   1.144   2.609
12512TIP3    H137493   2.069   1.094   2.527
12512TIP3    H237494   1.998   1.112   2.659
12513TIP3   OH237495   2.121  -0.007   5.920
12513TIP3    H137496   2.213   0.008   5.898
12513TIP3    H237497   2.075   0.001   5.836
12514TIP3   OH237498   4.659   2.768   5.375
12514TIP3    H137499   4.733   2.749   5.432
12514TIP3    H237500   4.649   2.689   5.321
12515TIP3   OH237501   3.764   1.956   4.992
12515TIP3    H137502   3.801   2.041   5.014
12515TIP3    H237503   3.790   1.941   4.901
12516TIP3   OH237504   7.790   4.576   1.909
12516TIP3    H137505   7.819   4.552   1.997
12516TIP3    H237506   7.715   4.634   1.924
12517TIP3   OH237507   3.078   7.123   0.594
12517TIP3    H137508   3.107   7.040   0.555
12517TIP3    H237509   3.030   7.097   0.673
12518TIP3   OH237510   3.909   1.418   6.253
12518TIP3    H137511   3.928   1.485   6.187
12518TIP3    H237512   3.995   1.386   6.280
12519TIP3   OH237513   3.885   0.975   5.336
12519TIP3    H137514   3.853   1.046   5.390
12519TIP3    H237515   3.856   0.895   5.381
12520TIP3   OH237516   0.826   2.135   5.812
12520TIP3    H137517   0.894   2.076   5.845
12520TIP3    H237518   0.850   2.151   5.720
12521TIP3   OH237519   7.671   2.503   3.631
12521TIP3    H137520   7.659   2.598   3.642
12521TIP3    H237521   7.594   2.465   3.674
12522TIP3   OH237522   1.005   7.603   2.150
12522TIP3    H137523   1.006   7.529   2.211
12522TIP3    H237524   1.096   7.634   2.149
12523TIP3   OH237525   5.689   0.487   5.652
12523TIP3    H137526   5.682   0.510   5.560
12523TIP3    H237527   5.607   0.441   5.672
12524TIP3   OH237528   2.268   6.892   3.938
12524TIP3    H137529   2.206   6.943   3.990
12524TIP3    H237530   2.315   6.957   3.886
12525TIP3   OH237531   3.693   0.442   6.738
12525TIP3    H137532   3.776   0.418   6.696
12525TIP3    H237533   3.698   0.405   6.826
12526TIP3   OH237534   1.987   2.151   5.667
12526TIP3    H137535   1.999   2.122   5.577
12526TIP3    H237536   2.043   2.094   5.719
12527TIP3   OH237537   1.568   6.569   4.021
12527TIP3    H137538   1.534   6.578   4.110
12527TIP3    H237539   1.606   6.654   4.001
12528TIP3   OH237540   5.568   0.499   2.795
12528TIP3    H137541   5.629   0.439   2.836
12528TIP3    H237542   5.517   0.445   2.734
12529TIP3   OH237543   8.192   2.422   2.970
12529TIP3    H137544   8.160   2.387   3.053
12529TIP3    H237545   8.224   2.345   2.923
12530TIP3   OH237546   3.423   6.862   0.608
12530TIP3    H137547   3.406   6.857   0.514
12530TIP3    H237548   3.470   6.944   0.621
12531TIP3   OH237549   4.013  -0.007   0.646
12531TIP3    H137550   3.961   0.074   0.653
12531TIP3    H237551   4.038  -0.010   0.553
12532TIP3   OH237552   7.832   5.033   1.599
12532TIP3    H137553   7.864   5.103   1.656
12532TIP3    H237554   7.800   4.966   1.659
12533TIP3   OH237555   4.928   3.996   4.796
12533TIP3    H137556   4.860   3.930   4.812
12533TIP3    H237557   4.919   4.018   4.703
12534TIP3   OH237558   0.348   1.244   4.989
12534TIP3    H137559   0.352   1.197   4.906
12534TIP3    H237560   0.399   1.324   4.975
12535TIP3   OH237561   0.825   1.940   6.074
12535TIP3    H137562   0.893   1.972   6.015
12535TIP3    H237563   0.743   1.956   6.026
12536TIP3   OH237564   0.908   5.277   5.367
12536TIP3    H137565   0.952   5.343   5.313
12536TIP3    H237566   0.967   5.264   5.442
12537TIP3   OH237567   8.214   5.659   1.179
12537TIP3    H137568   8.248   5.579   1.219
12537TIP3    H237569   8.214   5.640   1.085
12538TIP3   OH237570   1.903   2.011   3.662
12538TIP3    H137571   1.949   2.012   3.746
12538TIP3    H237572   1.893   2.103   3.639
12539TIP3   OH237573   1.385   3.307   6.692
12539TIP3    H137574   1.424   3.224   6.663
12539TIP3    H237575   1.459   3.359   6.722
12540TIP3   OH237576   1.343   2.558   1.541
12540TIP3    H137577   1.434   2.544   1.516
12540TIP3    H237578   1.349   2.603   1.625
12541TIP3   OH237579   0.616   2.309   4.532
12541TIP3    H137580   0.701   2.280   4.500
12541TIP3    H237581   0.594   2.384   4.477
12542TIP3   OH237582   1.347   5.338   3.364
12542TIP3    H137583   1.348   5.434   3.368
12542TIP3    H237584   1.277   5.312   3.424
12543TIP3   OH237585   7.700   5.257   1.192
12543TIP3    H137586   7.770   5.231   1.252
12543TIP3    H237587   7.629   5.286   1.249
12544TIP3   OH237588   2.286   5.930   3.789
12544TIP3    H137589   2.222   5.882   3.736
12544TIP3    H237590   2.237   6.004   3.825
12545TIP3   OH237591   0.249   4.505   0.657
12545TIP3    H137592   0.260   4.430   0.598
12545TIP3    H237593   0.303   4.574   0.618
12546TIP3   OH237594   7.774   4.319   3.496
12546TIP3    H137595   7.839   4.323   3.426
12546TIP3    H237596   7.742   4.228   3.493
12547TIP3   OH237597   1.876   7.015   2.845
12547TIP3    H137598   1.833   7.055   2.920
12547TIP3    H237599   1.959   6.981   2.879
12548TIP3   OH237600   4.582   2.892   0.311
12548TIP3    H137601   4.584   2.914   0.404
12548TIP3    H237602   4.489   2.892   0.289
12549TIP3   OH237603   6.594   3.593   2.582
12549TIP3    H137604   6.613   3.510   2.539
12549TIP3    H237605   6.666   3.650   2.558
12550TIP3   OH237606   6.191   7.749   0.435
12550TIP3    H137607   6.127   7.680   0.450
12550TIP3    H237608   6.164   7.788   0.351
12551TIP3   OH237609   6.437   4.126   3.085
12551TIP3    H137610   6.425   4.201   3.027
12551TIP3    H237611   6.363   4.128   3.144
12552TIP3   OH237612   4.565   3.728   4.114
12552TIP3    H137613   4.543   3.760   4.202
12552TIP3    H237614   4.595   3.806   4.067
12553TIP3   OH237615   8.121   4.073   2.397
12553TIP3    H137616   8.123   4.158   2.440
12553TIP3    H237617   8.028   4.056   2.381
12554TIP3   OH237618   3.375   1.059   5.887
12554TIP3    H137619   3.347   1.039   5.976
12554TIP3    H237620   3.324   1.137   5.863
12555TIP3   OH237621   0.478   6.132   6.627
12555TIP3    H137622   0.550   6.182   6.589
12555TIP3    H237623   0.412   6.197   6.651
12556TIP3   OH237624   0.515   5.835   1.484
12556TIP3    H137625   0.594   5.780   1.485
12556TIP3    H237626   0.542   5.914   1.437
12557TIP3   OH237627   3.375   5.096   2.283
12557TIP3    H137628   3.362   5.113   2.190
12557TIP3    H237629   3.299   5.135   2.326
12558TIP3   OH237630   7.172   5.822   1.668
12558TIP3    H137631   7.098   5.882   1.670
12558TIP3    H237632   7.144   5.752   1.609
12559TIP3   OH237633   8.212   3.495   0.861
12559TIP3    H137634   8.212   3.400   0.874
12559TIP3    H237635   8.301   3.522   0.883
12560TIP3   OH237636   8.075   4.310   6.516
12560TIP3    H137637   8.100   4.327   6.425
12560TIP3    H237638   8.022   4.386   6.540
12561TIP3   OH237639   4.720   6.278   5.828
12561TIP3    H137640   4.786   6.293   5.760
12561TIP3    H237641   4.768   6.287   5.910
12562TIP3   OH237642   8.259   1.379   5.240
12562TIP3    H137643   8.281   1.299   5.289
12562TIP3    H237644   8.259   1.447   5.307
12563TIP3   OH237645   2.453   5.058   5.758
12563TIP3    H137646   2.430   5.028   5.670
12563TIP3    H237647   2.538   5.102   5.747
12564TIP3   OH237648   1.139   1.576   5.084
12564TIP3    H137649   1.046   1.554   5.094
12564TIP3    H237650   1.177   1.558   5.170
12565TIP3   OH237651   1.633   6.320   6.737
12565TIP3    H137652   1.578   6.359   6.806
12565TIP3    H237653   1.587   6.240   6.713
12566TIP3   OH237654   6.939   7.703   6.335
12566TIP3    H137655   6.912   7.672   6.422
12566TIP3    H237656   6.996   7.778   6.354
12567TIP3   OH237657   2.751   5.066   0.550
12567TIP3    H137658   2.782   5.143   0.597
12567TIP3    H237659   2.657   5.083   0.537
12568TIP3   OH237660   8.147   1.578   4.483
12568TIP3    H137661   8.219   1.517   4.472
12568TIP3    H237662   8.109   1.557   4.568
12569TIP3   OH237663   5.730   4.193   6.274
12569TIP3    H137664   5.635   4.203   6.282
12569TIP3    H237665   5.767   4.267   6.322
12570TIP3   OH237666   5.494   2.321   1.860
12570TIP3    H137667   5.558   2.392   1.861
12570TIP3    H237668   5.522   2.262   1.929
12571TIP3   OH237669   6.843   2.894   4.628
12571TIP3    H137670   6.897   2.961   4.587
12571TIP3    H237671   6.863   2.901   4.722
12572TIP3   OH237672   5.144   3.313   2.482
12572TIP3    H137673   5.116   3.247   2.419
12572TIP3    H237674   5.081   3.384   2.473
12573TIP3   OH237675   2.351   1.245   4.307
12573TIP3    H137676   2.296   1.238   4.230
12573TIP3    H237677   2.401   1.326   4.293
12574TIP3   OH237678   7.357   4.272   6.251
12574TIP3    H137679   7.281   4.328   6.234
12574TIP3    H237680   7.418   4.292   6.180
12575TIP3   OH237681   7.222   7.195   0.171
12575TIP3    H137682   7.259   7.221   0.086
12575TIP3    H237683   7.150   7.136   0.149
12576TIP3   OH237684   0.897   3.053   5.728
12576TIP3    H137685   0.882   3.079   5.637
12576TIP3    H237686   0.979   3.096   5.752
12577TIP3   OH237687   3.167   4.794   5.663
12577TIP3    H137688   3.072   4.784   5.671
12577TIP3    H237689   3.183   4.886   5.682
12578TIP3   OH237690   5.090   5.688   1.411
12578TIP3    H137691   5.012   5.688   1.465
12578TIP3    H237692   5.106   5.596   1.390
12579TIP3   OH237693   7.044   3.453   6.189
12579TIP3    H137694   7.098   3.487   6.118
12579TIP3    H237695   7.099   3.387   6.232
12580TIP3   OH237696   5.132   2.934   3.699
12580TIP3    H137697   5.153   3.019   3.660
12580TIP3    H237698   5.148   2.945   3.793
12581TIP3   OH237699   6.416   2.135   4.668
12581TIP3    H137700   6.350   2.094   4.725
12581TIP3    H237701   6.409   2.088   4.585
12582TIP3   OH237702   5.660   4.497   1.138
12582TIP3    H137703   5.583   4.450   1.170
12582TIP3    H237704   5.642   4.589   1.160
12583TIP3   OH237705   4.388   3.956   1.296
12583TIP3    H137706   4.437   3.888   1.250
12583TIP3    H237707   4.421   4.038   1.261
12584TIP3   OH237708   3.139   0.387   0.509
12584TIP3    H137709   3.057   0.401   0.462
12584TIP3    H237710   3.176   0.475   0.520
12585TIP3   OH237711   5.580   2.090   4.196
12585TIP3    H137712   5.527   2.010   4.205
12585TIP3    H237713   5.670   2.058   4.185
12586TIP3   OH237714   2.390   2.346   1.662
12586TIP3    H137715   2.314   2.336   1.718
12586TIP3    H237716   2.396   2.440   1.644
12587TIP3   OH237717   8.067   4.734   1.199
12587TIP3    H137718   8.113   4.658   1.233
12587TIP3    H237719   8.066   4.722   1.104
12588TIP3   OH237720   2.448   0.160   3.108
12588TIP3    H137721   2.428   0.079   3.155
12588TIP3    H237722   2.424   0.230   3.169
12589TIP3   OH237723   3.929   7.542   5.008
12589TIP3    H137724   3.964   7.462   5.046
12589TIP3    H237725   3.990   7.611   5.035
12590TIP3   OH237726   0.882   4.231   0.605
12590TIP3    H137727   0.968   4.203   0.573
12590TIP3    H237728   0.902   4.292   0.675
12591TIP3   OH237729   8.121   3.471   2.492
12591TIP3    H137730   8.035   3.447   2.459
12591TIP3    H237731   8.172   3.494   2.414
12592TIP3   OH237732   3.631   0.288   2.307
12592TIP3    H137733   3.623   0.380   2.335
12592TIP3    H237734   3.546   0.268   2.268
12593TIP3   OH237735   0.869   5.749   4.747
12593TIP3    H137736   0.800   5.716   4.689
12593TIP3    H237737   0.950   5.734   4.698
12594TIP3   OH237738   1.366   7.305   2.611
12594TIP3    H137739   1.422   7.260   2.547
12594TIP3    H237740   1.423   7.318   2.687
12595TIP3   OH237741   2.243   2.658   1.399
12595TIP3    H137742   2.197   2.583   1.360
12595TIP3    H237743   2.332   2.627   1.413
12596TIP3   OH237744   1.977   3.016   0.558
12596TIP3    H137745   2.018   2.999   0.473
12596TIP3    H237746   1.920   3.091   0.542
12597TIP3   OH237747   6.334   6.758   3.197
12597TIP3    H137748   6.290   6.829   3.244
12597TIP3    H237749   6.398   6.803   3.142
12598TIP3   OH237750   7.902   6.146   4.593
12598TIP3    H137751   7.815   6.159   4.557
12598TIP3    H237752   7.955   6.216   4.554
12599TIP3   OH237753   4.282   6.114   2.577
12599TIP3    H137754   4.199   6.067   2.583
12599TIP3    H237755   4.339   6.056   2.527
12600TIP3   OH237756   2.648   7.380   1.798
12600TIP3    H137757   2.680   7.292   1.816
12600TIP3    H237758   2.691   7.436   1.862
12601TIP3   OH237759   0.193   0.093   4.062
12601TIP3    H137760   0.231   0.021   4.013
12601TIP3    H237761   0.261   0.120   4.124
12602TIP3   OH237762   4.288   3.308   3.880
12602TIP3    H137763   4.352   3.320   3.810
12602TIP3    H237764   4.273   3.214   3.883
12603TIP3   OH237765   7.055   1.216   6.309
12603TIP3    H137766   7.034   1.123   6.318
12603TIP3    H237767   7.040   1.235   6.217
12604TIP3   OH237768   3.022   2.071   5.176
12604TIP3    H137769   3.089   2.138   5.167
12604TIP3    H237770   3.066   2.000   5.223
12605TIP3   OH237771   5.710   3.003   4.752
12605TIP3    H137772   5.751   3.084   4.723
12605TIP3    H237773   5.641   2.986   4.688
12606TIP3   OH237774   0.680   2.156   3.980
12606TIP3    H137775   0.745   2.220   3.950
12606TIP3    H237776   0.673   2.093   3.909
12607TIP3   OH237777   0.927   5.546   2.383
12607TIP3    H137778   0.845   5.497   2.389
12607TIP3    H237779   0.932   5.573   2.291
12608TIP3   OH237780   7.401   5.777   6.031
12608TIP3    H137781   7.344   5.717   5.983
12608TIP3    H237782   7.374   5.864   6.002
12609TIP3   OH237783   2.504   3.594   2.648
12609TIP3    H137784   2.527   3.513   2.602
12609TIP3    H237785   2.520   3.575   2.740
12610TIP3   OH237786   7.177   2.313   6.641
12610TIP3    H137787   7.116   2.317   6.567
12610TIP3    H237788   7.184   2.403   6.671
12611TIP3   OH237789   6.188   7.158   2.769
12611TIP3    H137790   6.103   7.140   2.809
12611TIP3    H237791   6.195   7.095   2.697
12612TIP3   OH237792   7.762   0.562   3.631
12612TIP3    H137793   7.744   0.469   3.639
12612TIP3    H237794   7.799   0.587   3.716
12613TIP3   OH237795   2.084   4.382   5.554
12613TIP3    H137796   2.034   4.459   5.527
12613TIP3    H237797   2.136   4.413   5.629
12614TIP3   OH237798   7.322   7.759   0.827
12614TIP3    H137799   7.411   7.774   0.795
12614TIP3    H237800   7.283   7.847   0.831
12615TIP3   OH237801   2.273   7.782   3.137
12615TIP3    H137802   2.182   7.787   3.167
12615TIP3    H237803   2.324   7.805   3.215
12616TIP3   OH237804   0.604   1.045   4.880
12616TIP3    H137805   0.623   0.995   4.960
12616TIP3    H237806   0.687   1.087   4.857
12617TIP3   OH237807   5.970   4.574   1.097
12617TIP3    H137808   5.983   4.571   1.192
12617TIP3    H237809   5.907   4.504   1.079
12618TIP3   OH237810   4.648   2.760   5.017
12618TIP3    H137811   4.661   2.694   4.949
12618TIP3    H237812   4.556   2.749   5.043
12619TIP3   OH237813   5.926   2.083   1.413
12619TIP3    H137814   5.935   2.165   1.462
12619TIP3    H237815   5.832   2.067   1.410
12620TIP3   OH237816   7.336   0.879   3.712
12620TIP3    H137817   7.400   0.808   3.712
12620TIP3    H237818   7.339   0.914   3.801
12621TIP3   OH237819   3.441   0.679   1.054
12621TIP3    H137820   3.361   0.648   1.012
12621TIP3    H237821   3.427   0.662   1.147
12622TIP3   OH237822   4.602   5.875   0.048
12622TIP3    H137823   4.696   5.888   0.038
12622TIP3    H237824   4.564   5.905  -0.034
12623TIP3   OH237825   5.824   0.842   5.394
12623TIP3    H137826   5.909   0.804   5.372
12623TIP3    H237827   5.771   0.767   5.421
12624TIP3   OH237828   3.467   0.552   1.308
12624TIP3    H137829   3.500   0.478   1.256
12624TIP3    H237830   3.403   0.513   1.367
12625TIP3   OH237831   2.028   5.834   2.843
12625TIP3    H137832   1.988   5.850   2.928
12625TIP3    H237833   2.056   5.743   2.846
12626TIP3   OH237834   7.175   1.917   4.420
12626TIP3    H137835   7.255   1.903   4.370
12626TIP3    H237836   7.115   1.848   4.389
12627TIP3   OH237837   1.302   5.743   5.542
12627TIP3    H137838   1.246   5.775   5.613
12627TIP3    H237839   1.337   5.823   5.502
12628TIP3   OH237840   3.941   7.590   6.328
12628TIP3    H137841   3.935   7.677   6.365
12628TIP3    H237842   4.017   7.593   6.271
12629TIP3   OH237843   5.602   0.804   3.831
12629TIP3    H137844   5.674   0.760   3.787
12629TIP3    H237845   5.635   0.824   3.918
12630TIP3   OH237846   6.448   7.439   2.325
12630TIP3    H137847   6.482   7.357   2.362
12630TIP3    H237848   6.468   7.433   2.232
12631TIP3   OH237849   6.789   0.905   4.106
12631TIP3    H137850   6.781   0.934   4.197
12631TIP3    H237851   6.763   0.813   4.107
12632TIP3   OH237852   1.391   7.498   1.796
12632TIP3    H137853   1.370   7.589   1.818
12632TIP3    H237854   1.486   7.496   1.788
12633TIP3   OH237855   2.551   5.149   2.350
12633TIP3    H137856   2.516   5.192   2.272
12633TIP3    H237857   2.550   5.217   2.417
12634TIP3   OH237858   1.057   7.052   5.880
12634TIP3    H137859   1.003   7.095   5.947
12634TIP3    H237860   0.999   6.987   5.841
12635TIP3   OH237861   6.201   7.147   3.200
12635TIP3    H137862   6.129   7.091   3.228
12635TIP3    H237863   6.234   7.185   3.282
12636TIP3   OH237864   4.430   4.979   4.919
12636TIP3    H137865   4.375   5.054   4.898
12636TIP3    H237866   4.370   4.917   4.961
12637TIP3   OH237867   6.163   5.762   1.786
12637TIP3    H137868   6.183   5.819   1.860
12637TIP3    H237869   6.248   5.744   1.746
12638TIP3   OH237870   1.238   4.909   0.456
12638TIP3    H137871   1.170   4.934   0.518
12638TIP3    H237872   1.320   4.922   0.504
12639TIP3   OH237873   2.876   0.605   2.803
12639TIP3    H137874   2.813   0.560   2.746
12639TIP3    H237875   2.910   0.535   2.860
12640TIP3   OH237876   6.656   0.386   0.155
12640TIP3    H137877   6.648   0.308   0.209
12640TIP3    H237878   6.716   0.362   0.085
12641TIP3   OH237879   6.713   4.521   0.790
12641TIP3    H137880   6.627   4.529   0.830
12641TIP3    H237881   6.770   4.578   0.842
12642TIP3   OH237882   5.323   0.710   0.278
12642TIP3    H137883   5.405   0.756   0.296
12642TIP3    H237884   5.300   0.669   0.361
12643TIP3   OH237885   0.858   5.092   2.599
12643TIP3    H137886   0.930   5.128   2.651
12643TIP3    H237887   0.892   5.010   2.564
12644TIP3   OH237888   1.083   0.944   3.774
12644TIP3    H137889   1.047   1.031   3.757
12644TIP3    H237890   1.010   0.884   3.756
12645TIP3   OH237891   7.170   7.042   2.005
12645TIP3    H137892   7.262   7.062   1.985
12645TIP3    H237893   7.137   7.121   2.047
12646TIP3   OH237894   7.753   6.814   5.750
12646TIP3    H137895   7.664   6.790   5.775
12646TIP3    H237896   7.809   6.761   5.808
12647TIP3   OH237897   2.293   3.137   2.018
12647TIP3    H137898   2.245   3.074   1.965
12647TIP3    H237899   2.384   3.126   1.991
12648TIP3   OH237900   3.387   2.149   3.580
12648TIP3    H137901   3.439   2.088   3.632
12648TIP3    H237902   3.305   2.103   3.563
12649TIP3   OH237903   8.282   7.484   6.098
12649TIP3    H137904   8.208   7.425   6.110
12649TIP3    H237905   8.359   7.426   6.102
12650TIP3   OH237906   0.982   4.415   2.337
12650TIP3    H137907   1.024   4.469   2.404
12650TIP3    H237908   0.933   4.477   2.283
12651TIP3   OH237909   8.211   2.181   3.921
12651TIP3    H137910   8.147   2.113   3.903
12651TIP3    H237911   8.215   2.232   3.840
12652TIP3   OH237912   3.688   5.893   5.985
12652TIP3    H137913   3.608   5.843   5.998
12652TIP3    H237914   3.717   5.916   6.074
12653TIP3   OH237915   7.219   7.012   3.404
12653TIP3    H137916   7.234   6.927   3.447
12653TIP3    H237917   7.128   7.008   3.375
12654TIP3   OH237918   3.615   4.609   6.120
12654TIP3    H137919   3.602   4.557   6.199
12654TIP3    H237920   3.709   4.605   6.104
12655TIP3   OH237921   4.615   4.859   0.389
12655TIP3    H137922   4.580   4.837   0.475
12655TIP3    H237923   4.655   4.945   0.401
12656TIP3   OH237924   7.490   2.937   1.765
12656TIP3    H137925   7.528   2.939   1.853
12656TIP3    H237926   7.465   3.028   1.749
12657TIP3   OH237927   2.798   5.333   3.310
12657TIP3    H137928   2.860   5.394   3.350
12657TIP3    H237929   2.804   5.253   3.362
12658TIP3   OH237930   7.544   2.914   5.973
12658TIP3    H137931   7.592   2.900   5.891
12658TIP3    H237932   7.607   2.956   6.031
12659TIP3   OH237933   4.232   2.725   2.425
12659TIP3    H137934   4.226   2.700   2.517
12659TIP3    H237935   4.275   2.811   2.427
12660TIP3   OH237936   2.215   0.303   5.949
12660TIP3    H137937   2.287   0.276   6.006
12660TIP3    H237938   2.257   0.357   5.882
12661TIP3   OH237939   8.095   6.659   0.450
12661TIP3    H137940   8.166   6.604   0.415
12661TIP3    H237941   8.031   6.596   0.483
12662TIP3   OH237942   5.624   7.033   0.608
12662TIP3    H137943   5.584   7.107   0.563
12662TIP3    H237944   5.607   6.958   0.551
12663TIP3   OH237945   4.388   1.970   0.175
12663TIP3    H137946   4.295   1.990   0.188
12663TIP3    H237947   4.388   1.892   0.120
12664TIP3   OH237948   0.251   1.071   5.196
12664TIP3    H137949   0.190   0.998   5.198
12664TIP3    H237950   0.286   1.071   5.107
12665TIP3   OH237951   5.671   4.994   1.578
12665TIP3    H137952   5.691   4.903   1.599
12665TIP3    H237953   5.650   4.993   1.484
12666TIP3   OH237954   0.255   0.435   2.820
12666TIP3    H137955   0.290   0.511   2.774
12666TIP3    H237956   0.256   0.459   2.912
12667TIP3   OH237957   4.778   5.766   0.453
12667TIP3    H137958   4.690   5.799   0.436
12667TIP3    H237959   4.836   5.828   0.408
12668TIP3   OH237960   3.050   6.401   4.854
12668TIP3    H137961   2.967   6.410   4.901
12668TIP3    H237962   3.026   6.409   4.762
12669TIP3   OH237963   3.902   0.318   6.582
12669TIP3    H137964   3.994   0.344   6.578
12669TIP3    H237965   3.865   0.349   6.499
12670TIP3   OH237966   0.307   0.156   6.523
12670TIP3    H137967   0.372   0.213   6.483
12670TIP3    H237968   0.235   0.153   6.459
12671TIP3   OH237969   0.388   4.987   5.323
12671TIP3    H137970   0.293   4.982   5.316
12671TIP3    H237971   0.421   4.950   5.241
12672TIP3   OH237972   6.768   3.748   1.001
12672TIP3    H137973   6.767   3.763   1.096
12672TIP3    H237974   6.769   3.653   0.991
12673TIP3   OH237975   0.703   5.615   1.700
12673TIP3    H137976   0.789   5.577   1.715
12673TIP3    H237977   0.716   5.709   1.709
12674TIP3   OH237978   5.031   0.922   1.932
12674TIP3    H137979   5.004   0.842   1.976
12674TIP3    H237980   5.096   0.893   1.867
12675TIP3   OH237981   2.302   0.664   1.223
12675TIP3    H137982   2.322   0.578   1.187
12675TIP3    H237983   2.211   0.658   1.252
12676TIP3   OH237984   2.208   4.050   1.185
12676TIP3    H137985   2.173   4.006   1.263
12676TIP3    H237986   2.212   3.981   1.119
12677TIP3   OH237987   3.003   1.321   5.515
12677TIP3    H137988   3.090   1.357   5.503
12677TIP3    H237989   3.013   1.227   5.498
12678TIP3   OH237990   1.690   6.804   2.893
12678TIP3    H137991   1.666   6.885   2.849
12678TIP3    H237992   1.773   6.824   2.936
12679TIP3   OH237993   0.666   6.407   0.883
12679TIP3    H137994   0.586   6.368   0.849
12679TIP3    H237995   0.676   6.368   0.970
12680TIP3   OH237996   5.450   2.768   0.963
12680TIP3    H137997   5.398   2.843   0.935
12680TIP3    H237998   5.516   2.759   0.893
12681TIP3   OH237999   0.433   0.464   0.613
12681TIP3    H138000   0.342   0.458   0.583
12681TIP3    H238001   0.470   0.378   0.592
12682TIP3   OH238002   7.490   4.183   3.595
12682TIP3    H138003   7.412   4.149   3.639
12682TIP3    H238004   7.529   4.244   3.658
12683TIP3   OH238005   4.297   0.147   0.781
12683TIP3    H138006   4.392   0.157   0.788
12683TIP3    H238007   4.284   0.094   0.703
12684TIP3   OH238008   4.307   0.446   1.098
12684TIP3    H138009   4.402   0.444   1.089
12684TIP3    H238010   4.292   0.464   1.190
12685TIP3   OH238011   4.567   0.668   5.858
12685TIP3    H138012   4.568   0.682   5.764
12685TIP3    H238013   4.554   0.756   5.895
12686TIP3   OH238014   0.155   5.844   2.400
12686TIP3    H138015   0.082   5.842   2.463
12686TIP3    H238016   0.217   5.907   2.437
12687TIP3   OH238017   1.720   7.435   6.302
12687TIP3    H138018   1.807   7.476   6.301
12687TIP3    H238019   1.738   7.342   6.311
12688TIP3   OH238020   4.198   3.088   6.054
12688TIP3    H138021   4.281   3.078   6.007
12688TIP3    H238022   4.218   3.149   6.125
12689TIP3   OH238023   3.833   3.183   6.296
12689TIP3    H138024   3.922   3.218   6.295
12689TIP3    H238025   3.777   3.260   6.283
12690TIP3   OH238026   5.880   0.972   2.790
12690TIP3    H138027   5.947   0.989   2.725
12690TIP3    H238028   5.928   0.940   2.867
12691TIP3   OH238029   6.446   4.022   6.725
12691TIP3    H138030   6.515   4.087   6.713
12691TIP3    H238031   6.448   3.969   6.645
12692TIP3   OH238032   0.554   3.205   6.338
12692TIP3    H138033   0.511   3.164   6.263
12692TIP3    H238034   0.549   3.140   6.408
12693TIP3   OH238035   2.208   5.961   1.030
12693TIP3    H138036   2.186   6.047   1.065
12693TIP3    H238037   2.287   5.976   0.977
12694TIP3   OH238038   4.950   5.318   0.332
12694TIP3    H138039   4.912   5.382   0.392
12694TIP3    H238040   5.044   5.334   0.337
12695TIP3   OH238041   5.846   7.439   2.570
12695TIP3    H138042   5.801   7.514   2.609
12695TIP3    H238043   5.826   7.366   2.629
12696TIP3   OH238044   7.550   4.333   2.426
12696TIP3    H138045   7.537   4.341   2.331
12696TIP3    H238046   7.468   4.363   2.464
12697TIP3   OH238047   0.768   5.796   0.827
12697TIP3    H138048   0.803   5.820   0.913
12697TIP3    H238049   0.704   5.864   0.807
12698TIP3   OH238050   1.158   4.850   3.848
12698TIP3    H138051   1.110   4.803   3.916
12698TIP3    H238052   1.108   4.931   3.835
12699TIP3   OH238053   5.360   0.557   3.635
12699TIP3    H138054   5.430   0.508   3.679
12699TIP3    H238055   5.298   0.576   3.705
12700TIP3   OH238056   4.107   2.730   5.452
12700TIP3    H138057   4.105   2.825   5.438
12700TIP3    H238058   4.193   2.703   5.421
12701TIP3   OH238059   4.463   1.571   3.340
12701TIP3    H138060   4.445   1.533   3.426
12701TIP3    H238061   4.389   1.543   3.285
12702TIP3   OH238062   2.510   1.634   3.110
12702TIP3    H138063   2.469   1.641   3.023
12702TIP3    H238064   2.564   1.713   3.117
12703TIP3   OH238065   2.672   1.194   6.213
12703TIP3    H138066   2.758   1.163   6.184
12703TIP3    H238067   2.685   1.288   6.229
12704TIP3   OH238068   5.307   5.623   0.608
12704TIP3    H138069   5.220   5.601   0.641
12704TIP3    H238070   5.366   5.601   0.680
12705TIP3   OH238071   1.519   6.059   5.764
12705TIP3    H138072   1.573   6.108   5.825
12705TIP3    H238073   1.435   6.050   5.807
12706TIP3   OH238074   6.626   0.287   0.560
12706TIP3    H138075   6.681   0.365   0.548
12706TIP3    H238076   6.540   0.314   0.526
12707TIP3   OH238077   6.107   1.356   2.572
12707TIP3    H138078   6.098   1.446   2.540
12707TIP3    H238079   6.067   1.357   2.658
12708TIP3   OH238080   4.636   1.914   2.013
12708TIP3    H138081   4.612   1.821   2.008
12708TIP3    H238082   4.704   1.917   2.080
12709TIP3   OH238083   3.342   4.510   4.547
12709TIP3    H138084   3.312   4.594   4.511
12709TIP3    H238085   3.433   4.503   4.519
12710TIP3   OH238086   4.310   7.502   1.098
12710TIP3    H138087   4.379   7.569   1.092
12710TIP3    H238088   4.305   7.466   1.010
12711TIP3   OH238089   4.357   7.310   3.428
12711TIP3    H138090   4.261   7.309   3.434
12711TIP3    H238091   4.382   7.399   3.453
12712TIP3   OH238092   5.940   3.368   4.333
12712TIP3    H138093   5.861   3.405   4.373
12712TIP3    H238094   5.989   3.332   4.407
12713TIP3   OH238095   0.434   2.085   1.415
12713TIP3    H138096   0.359   2.093   1.474
12713TIP3    H238097   0.456   2.174   1.391
12714TIP3   OH238098   6.206   4.721   4.623
12714TIP3    H138099   6.118   4.701   4.652
12714TIP3    H238100   6.232   4.797   4.676
12715TIP3   OH238101   0.045   4.928   2.259
12715TIP3    H138102  -0.037   4.975   2.244
12715TIP3    H238103   0.113   4.988   2.226
12716TIP3   OH238104   5.921   2.814   5.083
12716TIP3    H138105   5.945   2.754   5.013
12716TIP3    H238106   5.924   2.901   5.042
12717TIP3   OH238107   7.293   4.392   1.130
12717TIP3    H138108   7.244   4.341   1.065
12717TIP3    H238109   7.319   4.471   1.083
12718TIP3   OH238110   5.880   4.118   1.161
12718TIP3    H138111   5.852   4.131   1.070
12718TIP3    H238112   5.800   4.132   1.213
12719TIP3   OH238113   3.602   2.124   3.127
12719TIP3    H138114   3.599   2.180   3.204
12719TIP3    H238115   3.522   2.146   3.078
12720TIP3   OH238116   5.457   4.576   2.628
12720TIP3    H138117   5.391   4.643   2.647
12720TIP3    H238118   5.537   4.625   2.613
12721TIP3   OH238119   0.864   7.337   5.994
12721TIP3    H138120   0.772   7.360   6.004
12721TIP3    H238121   0.885   7.358   5.903
12722TIP3   OH238122   1.713   6.058   4.702
12722TIP3    H138123   1.758   6.028   4.623
12722TIP3    H238124   1.781   6.103   4.753
12723TIP3   OH238125   5.410   4.297   0.209
12723TIP3    H138126   5.476   4.250   0.158
12723TIP3    H238127   5.327   4.268   0.172
12724TIP3   OH238128   2.034   7.500   1.617
12724TIP3    H138129   2.052   7.422   1.670
12724TIP3    H238130   1.986   7.467   1.542
12725TIP3   OH238131   7.964   0.773   6.614
12725TIP3    H138132   7.894   0.824   6.656
12725TIP3    H238133   8.042   0.791   6.667
12726TIP3   OH238134   3.087   3.087   1.513
12726TIP3    H138135   3.033   3.050   1.582
12726TIP3    H238136   3.169   3.038   1.518
12727TIP3   OH238137   0.976   6.549   5.906
12727TIP3    H138138   1.033   6.507   5.971
12727TIP3    H238139   1.032   6.562   5.830
12728TIP3   OH238140   2.676   5.696   2.143
12728TIP3    H138141   2.749   5.752   2.114
12728TIP3    H238142   2.719   5.617   2.176
12729TIP3   OH238143   6.983   1.895   0.474
12729TIP3    H138144   6.937   1.825   0.427
12729TIP3    H238145   6.971   1.875   0.566
12730TIP3   OH238146   1.872   2.793   5.995
12730TIP3    H138147   1.824   2.797   5.912
12730TIP3    H238148   1.817   2.738   6.051
12731TIP3   OH238149   5.353   7.352   4.068
12731TIP3    H138150   5.398   7.299   4.003
12731TIP3    H238151   5.316   7.288   4.129
12732TIP3   OH238152   2.292   5.394   0.726
12732TIP3    H138153   2.352   5.320   0.740
12732TIP3    H238154   2.244   5.401   0.809
12733TIP3   OH238155   1.019   7.116   3.195
12733TIP3    H138156   0.998   7.180   3.127
12733TIP3    H238157   0.936   7.072   3.213
12734TIP3   OH238158   5.398   1.578   6.314
12734TIP3    H138159   5.392   1.626   6.232
12734TIP3    H238160   5.383   1.644   6.382
12735TIP3   OH238161   6.780   5.179   3.053
12735TIP3    H138162   6.832   5.252   3.021
12735TIP3    H238163   6.789   5.111   2.986
12736TIP3   OH238164   6.383   6.073   3.179
12736TIP3    H138165   6.329   6.123   3.116
12736TIP3    H238166   6.322   6.011   3.219
12737TIP3   OH238167   5.975   2.672   1.645
12737TIP3    H138168   6.039   2.740   1.624
12737TIP3    H238169   5.898   2.695   1.592
12738TIP3   OH238170   3.045   1.639   4.581
12738TIP3    H138171   3.056   1.713   4.522
12738TIP3    H238172   3.024   1.565   4.524
12739TIP3   OH238173   0.034   0.280   2.684
12739TIP3    H138174   0.105   0.272   2.749
12739TIP3    H238175   0.078   0.310   2.605
12740TIP3   OH238176   4.397   3.268   4.148
12740TIP3    H138177   4.404   3.359   4.177
12740TIP3    H238178   4.347   3.273   4.066
12741TIP3   OH238179   5.880   4.833   1.099
12741TIP3    H138180   5.924   4.748   1.107
12741TIP3    H238181   5.848   4.834   1.009
12742TIP3   OH238182   5.541   4.742   5.746
12742TIP3    H138183   5.457   4.741   5.793
12742TIP3    H238184   5.606   4.761   5.813
12743TIP3   OH238185   6.860   7.475   3.228
12743TIP3    H138186   6.892   7.562   3.250
12743TIP3    H238187   6.882   7.464   3.135
12744TIP3   OH238188   7.527   5.580   4.259
12744TIP3    H138189   7.445   5.547   4.297
12744TIP3    H238190   7.512   5.577   4.164
12745TIP3   OH238191   7.662   6.957   6.675
12745TIP3    H138192   7.738   6.999   6.715
12745TIP3    H238193   7.606   6.935   6.749
12746TIP3   OH238194   6.699   4.220   3.123
12746TIP3    H138195   6.713   4.221   3.028
12746TIP3    H238196   6.628   4.158   3.136
12747TIP3   OH238197   4.648   0.326   1.413
12747TIP3    H138198   4.737   0.325   1.450
12747TIP3    H238199   4.597   0.271   1.473
12748TIP3   OH238200   3.304   7.469   0.423
12748TIP3    H138201   3.342   7.545   0.379
12748TIP3    H238202   3.212   7.470   0.398
12749TIP3   OH238203   4.915   7.148   4.878
12749TIP3    H138204   4.823   7.156   4.850
12749TIP3    H238205   4.940   7.238   4.901
12750TIP3   OH238206   6.716   0.826   2.301
12750TIP3    H138207   6.796   0.802   2.255
12750TIP3    H238208   6.690   0.909   2.262
12751TIP3   OH238209   1.678   0.213   0.538
12751TIP3    H138210   1.607   0.166   0.495
12751TIP3    H238211   1.691   0.290   0.483
12752TIP3   OH238212   8.121   4.146   2.727
12752TIP3    H138213   8.202   4.146   2.779
12752TIP3    H238214   8.105   4.054   2.706
12753TIP3   OH238215   5.966   3.134   4.534
12753TIP3    H138216   5.937   3.201   4.595
12753TIP3    H238217   6.009   3.068   4.589
12754TIP3   OH238218   3.257   5.239   5.194
12754TIP3    H138219   3.322   5.304   5.166
12754TIP3    H238220   3.175   5.267   5.151
12755TIP3   OH238221   4.763   7.348   6.085
12755TIP3    H138222   4.830   7.303   6.136
12755TIP3    H238223   4.770   7.311   5.997
12756TIP3   OH238224   4.560   4.018   5.008
12756TIP3    H138225   4.611   3.999   4.929
12756TIP3    H238226   4.582   3.948   5.068
12757TIP3   OH238227   3.323   4.131   6.337
12757TIP3    H138228   3.315   4.072   6.262
12757TIP3    H238229   3.256   4.100   6.399
12758TIP3   OH238230   1.936   4.881   0.894
12758TIP3    H138231   1.856   4.858   0.847
12758TIP3    H238232   1.999   4.904   0.826
12759TIP3   OH238233   6.575   2.130   6.122
12759TIP3    H138234   6.651   2.075   6.104
12759TIP3    H238235   6.569   2.188   6.046
12760TIP3   OH238236   4.515   5.057   0.792
12760TIP3    H138237   4.551   5.057   0.881
12760TIP3    H238238   4.431   5.013   0.800
12761TIP3   OH238239   4.849   6.675   1.384
12761TIP3    H138240   4.929   6.651   1.430
12761TIP3    H238241   4.879   6.697   1.295
12762TIP3   OH238242   3.537   3.466   4.467
12762TIP3    H138243   3.524   3.377   4.433
12762TIP3    H238244   3.630   3.468   4.491
12763TIP3   OH238245   0.442   1.025   5.979
12763TIP3    H138246   0.461   1.015   6.072
12763TIP3    H238247   0.519   1.069   5.943
12764TIP3   OH238248   2.298   4.885   3.216
12764TIP3    H138249   2.354   4.938   3.273
12764TIP3    H238250   2.356   4.856   3.146
12765TIP3   OH238251   5.977   1.596   2.571
12765TIP3    H138252   5.948   1.621   2.659
12765TIP3    H238253   5.897   1.592   2.519
12766TIP3   OH238254   8.285   6.690   6.385
12766TIP3    H138255   8.197   6.654   6.375
12766TIP3    H238256   8.287   6.723   6.475
12767TIP3   OH238257   5.773   6.677   2.290
12767TIP3    H138258   5.779   6.772   2.275
12767TIP3    H238259   5.807   6.665   2.379
12768TIP3   OH238260   3.018   1.579   5.157
12768TIP3    H138261   2.931   1.611   5.182
12768TIP3    H238262   3.003   1.491   5.124
12769TIP3   OH238263   7.044   6.012   3.923
12769TIP3    H138264   7.133   5.989   3.896
12769TIP3    H238265   7.025   5.951   3.995
12770TIP3   OH238266   4.823   6.731   2.949
12770TIP3    H138267   4.841   6.725   2.855
12770TIP3    H238268   4.877   6.661   2.988
12771TIP3   OH238269   5.735   4.937   3.910
12771TIP3    H138270   5.700   4.854   3.877
12771TIP3    H238271   5.703   4.944   3.999
12772TIP3   OH238272   3.030   7.599   5.250
12772TIP3    H138273   2.936   7.594   5.264
12772TIP3    H238274   3.060   7.665   5.312
12773TIP3   OH238275   8.196   4.098   6.674
12773TIP3    H138276   8.292   4.091   6.676
12773TIP3    H238277   8.178   4.168   6.611
12774TIP3   OH238278   2.721   6.950   5.494
12774TIP3    H138279   2.639   6.971   5.539
12774TIP3    H238280   2.713   6.858   5.470
12775TIP3   OH238281   7.345   6.179   3.806
12775TIP3    H138282   7.356   6.172   3.900
12775TIP3    H238283   7.382   6.097   3.771
12776TIP3   OH238284   7.268   6.755   6.599
12776TIP3    H138285   7.316   6.707   6.532
12776TIP3    H238286   7.283   6.706   6.680
12777TIP3   OH238287   3.753   5.477   6.307
12777TIP3    H138288   3.783   5.440   6.390
12777TIP3    H238289   3.823   5.538   6.282
12778TIP3   OH238290   5.530   2.657   5.299
12778TIP3    H138291   5.516   2.642   5.392
12778TIP3    H238292   5.460   2.607   5.256
12779TIP3   OH238293   0.035   7.193   4.268
12779TIP3    H138294  -0.005   7.173   4.183
12779TIP3    H238295   0.118   7.235   4.247
12780TIP3   OH238296   4.628   4.380   4.895
12780TIP3    H138297   4.566   4.330   4.948
12780TIP3    H238298   4.685   4.313   4.856
12781TIP3   OH238299   4.618   4.035   5.381
12781TIP3    H138300   4.594   3.979   5.455
12781TIP3    H238301   4.622   3.976   5.306
12782TIP3   OH238302   6.609   5.957   0.622
12782TIP3    H138303   6.607   6.053   0.623
12782TIP3    H238304   6.648   5.935   0.537
12783TIP3   OH238305   5.632   7.733   0.654
12783TIP3    H138306   5.664   7.689   0.732
12783TIP3    H238307   5.571   7.670   0.615
12784TIP3   OH238308   4.511   4.504   3.306
12784TIP3    H138309   4.462   4.522   3.387
12784TIP3    H238310   4.561   4.424   3.326
12785TIP3   OH238311   0.106   1.146   0.667
12785TIP3    H138312   0.181   1.129   0.724
12785TIP3    H238313   0.144   1.175   0.584
12786TIP3   OH238314   2.418   3.797   0.438
12786TIP3    H138315   2.329   3.779   0.471
12786TIP3    H238316   2.404   3.853   0.361
12787TIP3   OH238317   6.615   0.193   2.813
12787TIP3    H138318   6.588   0.227   2.728
12787TIP3    H238319   6.625   0.270   2.868
12788TIP3   OH238320   7.523   4.649   6.001
12788TIP3    H138321   7.453   4.703   6.037
12788TIP3    H238322   7.603   4.686   6.039
12789TIP3   OH238323   4.003   6.749   1.452
12789TIP3    H138324   4.006   6.656   1.430
12789TIP3    H238325   3.921   6.780   1.414
12790TIP3   OH238326   5.016   4.358   6.724
12790TIP3    H138327   4.950   4.316   6.668
12790TIP3    H238328   4.966   4.392   6.798
12791TIP3   OH238329   5.230   1.196   2.035
12791TIP3    H138330   5.216   1.222   2.126
12791TIP3    H238331   5.274   1.271   1.995
12792TIP3   OH238332   8.084   6.023   2.761
12792TIP3    H138333   8.158   5.968   2.737
12792TIP3    H238334   8.012   5.960   2.776
12793TIP3   OH238335   1.744   5.398   0.635
12793TIP3    H138336   1.717   5.403   0.727
12793TIP3    H238337   1.824   5.450   0.630
12794TIP3   OH238338   6.600   4.611   1.686
12794TIP3    H138339   6.603   4.665   1.607
12794TIP3    H238340   6.511   4.576   1.688
12795TIP3   OH238341   7.705   2.079   6.744
12795TIP3    H138342   7.663   2.139   6.682
12795TIP3    H238343   7.643   2.007   6.753
12796TIP3   OH238344   5.315   3.930   0.275
12796TIP3    H138345   5.250   3.885   0.221
12796TIP3    H238346   5.399   3.909   0.234
12797TIP3   OH238347   5.633   4.760   0.304
12797TIP3    H138348   5.604   4.835   0.355
12797TIP3    H238349   5.553   4.712   0.283
12798TIP3   OH238350   4.506   2.411   3.592
12798TIP3    H138351   4.500   2.377   3.682
12798TIP3    H238352   4.507   2.506   3.602
12799TIP3   OH238353   5.065   4.385   2.005
12799TIP3    H138354   5.091   4.364   2.095
12799TIP3    H238355   5.071   4.481   2.001
12800TIP3   OH238356   5.025   2.133   6.601
12800TIP3    H138357   4.987   2.158   6.686
12800TIP3    H238358   5.087   2.063   6.623
12801TIP3   OH238359   4.889   4.457   2.998
12801TIP3    H138360   4.797   4.447   2.971
12801TIP3    H238361   4.886   4.522   3.069
12802TIP3   OH238362   5.446   2.862   1.891
12802TIP3    H138363   5.441   2.767   1.879
12802TIP3    H238364   5.521   2.875   1.948
12803TIP3   OH238365   6.397   6.472   2.714
12803TIP3    H138366   6.312   6.444   2.749
12803TIP3    H238367   6.376   6.548   2.659
12804TIP3   OH238368   7.002   5.041   4.782
12804TIP3    H138369   7.054   4.961   4.784
12804TIP3    H238370   7.061   5.109   4.815
12805TIP3   OH238371   4.509   2.382   6.486
12805TIP3    H138372   4.454   2.443   6.436
12805TIP3    H238373   4.450   2.345   6.552
12806TIP3   OH238374   5.633   5.933   4.591
12806TIP3    H138375   5.720   5.909   4.558
12806TIP3    H238376   5.576   5.926   4.514
12807TIP3   OH238377   6.796   7.170   2.286
12807TIP3    H138378   6.761   7.081   2.298
12807TIP3    H238379   6.783   7.212   2.371
12808TIP3   OH238380   7.449   3.093   4.582
12808TIP3    H138381   7.373   3.086   4.639
12808TIP3    H238382   7.417   3.067   4.495
12809TIP3   OH238383   4.554   3.911   2.400
12809TIP3    H138384   4.567   3.999   2.434
12809TIP3    H238385   4.475   3.917   2.347
12810TIP3   OH238386   6.250   7.100   5.387
12810TIP3    H138387   6.257   7.006   5.370
12810TIP3    H238388   6.278   7.110   5.478
12811TIP3   OH238389   1.190   0.394   6.553
12811TIP3    H138390   1.115   0.390   6.613
12811TIP3    H238391   1.219   0.303   6.545
12812TIP3   OH238392   2.876   0.403   2.362
12812TIP3    H138393   2.920   0.335   2.413
12812TIP3    H238394   2.887   0.375   2.271
12813TIP3   OH238395   1.919   6.792   0.388
12813TIP3    H138396   1.857   6.782   0.317
12813TIP3    H238397   1.902   6.880   0.423
12814TIP3   OH238398   1.522   6.080   2.784
12814TIP3    H138399   1.440   6.120   2.812
12814TIP3    H238400   1.525   6.096   2.689
12815TIP3   OH238401   0.074   0.572   4.194
12815TIP3    H138402   0.080   0.490   4.145
12815TIP3    H238403   0.157   0.616   4.176
12816TIP3   OH238404   2.385   6.712   4.598
12816TIP3    H138405   2.449   6.717   4.668
12816TIP3    H238406   2.356   6.803   4.586
12817TIP3   OH238407   1.252   0.490   3.284
12817TIP3    H138408   1.243   0.395   3.273
12817TIP3    H238409   1.166   0.520   3.311
12818TIP3   OH238410   4.394   5.468   1.133
12818TIP3    H138411   4.321   5.461   1.194
12818TIP3    H238412   4.362   5.429   1.052
12819TIP3   OH238413   3.771   4.194   5.008
12819TIP3    H138414   3.677   4.207   5.000
12819TIP3    H238415   3.809   4.246   4.938
12820TIP3   OH238416   1.071   7.784   3.511
12820TIP3    H138417   1.120   7.825   3.440
12820TIP3    H238418   1.106   7.695   3.515
12821TIP3   OH238419   2.409   3.810   0.755
12821TIP3    H138420   2.424   3.796   0.662
12821TIP3    H238421   2.488   3.855   0.786
12822TIP3   OH238422   5.445   2.114   6.588
12822TIP3    H138423   5.414   2.068   6.510
12822TIP3    H238424   5.535   2.083   6.600
12823TIP3   OH238425   2.653   2.895   3.074
12823TIP3    H138426   2.702   2.815   3.093
12823TIP3    H238427   2.671   2.912   2.982
12824TIP3   OH238428   4.648   1.033   5.419
12824TIP3    H138429   4.646   1.047   5.324
12824TIP3    H238430   4.705   1.103   5.452
12825TIP3   OH238431   4.277   6.840   3.518
12825TIP3    H138432   4.255   6.836   3.425
12825TIP3    H238433   4.344   6.908   3.524
12826TIP3   OH238434   0.946   3.454   5.023
12826TIP3    H138435   1.012   3.430   4.958
12826TIP3    H238436   0.870   3.481   4.971
12827TIP3   OH238437   3.029   0.146   6.160
12827TIP3    H138438   2.950   0.189   6.192
12827TIP3    H238439   3.007   0.118   6.071
12828TIP3   OH238440   6.915   7.748   1.508
12828TIP3    H138441   6.848   7.698   1.461
12828TIP3    H238442   6.942   7.816   1.446
12829TIP3   OH238443   2.879   5.135   5.822
12829TIP3    H138444   2.837   5.078   5.887
12829TIP3    H238445   2.808   5.186   5.785
12830TIP3   OH238446   8.144   1.931   6.001
12830TIP3    H138447   8.235   1.912   5.978
12830TIP3    H238448   8.111   1.848   6.036
12831TIP3   OH238449   1.291   2.831   5.454
12831TIP3    H138450   1.230   2.904   5.437
12831TIP3    H238451   1.371   2.856   5.407
12832TIP3   OH238452   8.166   3.877   2.652
12832TIP3    H138453   8.213   3.864   2.569
12832TIP3    H238454   8.175   3.793   2.698
12833TIP3   OH238455   4.240   4.093   2.675
12833TIP3    H138456   4.313   4.113   2.617
12833TIP3    H238457   4.167   4.143   2.639
12834TIP3   OH238458   7.408   6.855   5.131
12834TIP3    H138459   7.447   6.788   5.188
12834TIP3    H238460   7.375   6.806   5.056
12835TIP3   OH238461   1.739   2.271   4.899
12835TIP3    H138462   1.691   2.258   4.981
12835TIP3    H238463   1.801   2.341   4.918
12836TIP3   OH238464   4.931   0.931   3.544
12836TIP3    H138465   5.018   0.910   3.509
12836TIP3    H238466   4.947   0.958   3.634
12837TIP3   OH238467   8.244   4.671   0.978
12837TIP3    H138468   8.252   4.747   0.920
12837TIP3    H238469   8.329   4.627   0.971
12838TIP3   OH238470   2.983   1.155   5.893
12838TIP3    H138471   2.975   1.171   5.987
12838TIP3    H238472   3.069   1.190   5.870
12839TIP3   OH238473   2.090   7.317   4.295
12839TIP3    H138474   2.145   7.387   4.331
12839TIP3    H238475   2.075   7.258   4.368
12840TIP3   OH238476   5.570   6.207   3.290
12840TIP3    H138477   5.485   6.208   3.333
12840TIP3    H238478   5.556   6.254   3.207
12841TIP3   OH238479   0.713   3.354   0.762
12841TIP3    H138480   0.754   3.325   0.844
12841TIP3    H238481   0.786   3.359   0.700
12842TIP3   OH238482   2.885   0.650   1.155
12842TIP3    H138483   2.933   0.618   1.079
12842TIP3    H238484   2.929   0.732   1.178
12843TIP3   OH238485   6.501   5.991   6.724
12843TIP3    H138486   6.449   6.014   6.801
12843TIP3    H238487   6.587   6.031   6.740
12844TIP3   OH238488   7.723   5.870   2.895
12844TIP3    H138489   7.721   5.965   2.910
12844TIP3    H238490   7.720   5.832   2.983
12845TIP3   OH238491   0.150   0.783   2.523
12845TIP3    H138492   0.136   0.878   2.532
12845TIP3    H238493   0.064   0.745   2.541
12846TIP3   OH238494   1.275   3.908   1.176
12846TIP3    H138495   1.234   3.849   1.240
12846TIP3    H238496   1.201   3.944   1.127
12847TIP3   OH238497   5.146   7.547   3.992
12847TIP3    H138498   5.068   7.496   3.974
12847TIP3    H238499   5.216   7.482   4.004
12848TIP3   OH238500   2.267   2.271   3.505
12848TIP3    H138501   2.324   2.289   3.580
12848TIP3    H238502   2.198   2.336   3.511
12849TIP3   OH238503   3.444   7.689   0.300
12849TIP3    H138504   3.537   7.698   0.319
12849TIP3    H238505   3.405   7.772   0.327
12850TIP3   OH238506   4.662   0.176   4.814
12850TIP3    H138507   4.641   0.202   4.903
12850TIP3    H238508   4.579   0.149   4.776
12851TIP3   OH238509   4.060   6.098   4.738
12851TIP3    H138510   4.079   6.091   4.645
12851TIP3    H238511   3.972   6.136   4.742
12852TIP3   OH238512   0.466   7.631   3.224
12852TIP3    H138513   0.420   7.678   3.155
12852TIP3    H238514   0.559   7.646   3.206
12853TIP3   OH238515   0.494   7.783   0.478
12853TIP3    H138516   0.435   7.712   0.458
12853TIP3    H238517   0.581   7.744   0.475
12854TIP3   OH238518   7.562   6.881   2.875
12854TIP3    H138519   7.653   6.860   2.893
12854TIP3    H238520   7.513   6.832   2.942
12855TIP3   OH238521   4.997   6.785   6.041
12855TIP3    H138522   4.947   6.832   5.974
12855TIP3    H238523   5.070   6.746   5.993
12856TIP3   OH238524   3.748   7.259   1.624
12856TIP3    H138525   3.688   7.214   1.682
12856TIP3    H238526   3.697   7.332   1.588
12857TIP3   OH238527   6.591   5.904   6.258
12857TIP3    H138528   6.595   5.819   6.301
12857TIP3    H238529   6.682   5.932   6.250
12858TIP3   OH238530   4.665   2.495   2.320
12858TIP3    H138531   4.592   2.549   2.289
12858TIP3    H238532   4.712   2.471   2.240
12859TIP3   OH238533   0.370   3.434   2.490
12859TIP3    H138534   0.292   3.381   2.474
12859TIP3    H238535   0.366   3.455   2.583
12860TIP3   OH238536   3.083   6.020   6.757
12860TIP3    H138537   3.000   6.066   6.746
12860TIP3    H238538   3.149   6.083   6.728
12861TIP3   OH238539   3.029   5.404   4.758
12861TIP3    H138540   3.115   5.443   4.739
12861TIP3    H238541   3.037   5.313   4.729
12862TIP3   OH238542   5.082   4.557   6.328
12862TIP3    H138543   4.993   4.538   6.299
12862TIP3    H238544   5.074   4.566   6.423
12863TIP3   OH238545   7.137   6.292   1.178
12863TIP3    H138546   7.096   6.241   1.107
12863TIP3    H238547   7.169   6.226   1.239
12864TIP3   OH238548   6.601   2.587   5.439
12864TIP3    H138549   6.535   2.533   5.483
12864TIP3    H238550   6.685   2.557   5.476
12865TIP3   OH238551   6.165   5.297   4.868
12865TIP3    H138552   6.142   5.255   4.951
12865TIP3    H238553   6.216   5.373   4.893
12866TIP3   OH238554   6.136   5.819   2.503
12866TIP3    H138555   6.149   5.734   2.545
12866TIP3    H238556   6.049   5.847   2.532
12867TIP3   OH238557   3.054   2.538   2.315
12867TIP3    H138558   3.124   2.566   2.373
12867TIP3    H238559   2.974   2.576   2.353
12868TIP3   OH238560   3.245   5.217   2.761
12868TIP3    H138561   3.204   5.138   2.797
12868TIP3    H238562   3.338   5.209   2.781
12869TIP3   OH238563   2.807   6.211   2.667
12869TIP3    H138564   2.810   6.259   2.584
12869TIP3    H238565   2.850   6.269   2.730
12870TIP3   OH238566   3.859   6.062   1.376
12870TIP3    H138567   3.795   6.059   1.447
12870TIP3    H238568   3.912   6.140   1.394
12871TIP3   OH238569   6.100   4.109   0.600
12871TIP3    H138570   6.182   4.157   0.588
12871TIP3    H238571   6.118   4.022   0.563
12872TIP3   OH238572   4.888   4.196   1.602
12872TIP3    H138573   4.946   4.177   1.529
12872TIP3    H238574   4.942   4.184   1.680
12873TIP3   OH238575   2.489   5.531   6.311
12873TIP3    H138576   2.570   5.561   6.351
12873TIP3    H238577   2.420   5.572   6.364
12874TIP3   OH238578   4.951   2.137   5.687
12874TIP3    H138579   4.864   2.155   5.724
12874TIP3    H238580   4.938   2.061   5.631
12875TIP3   OH238581   2.970   2.097   6.712
12875TIP3    H138582   3.025   2.071   6.786
12875TIP3    H238583   3.010   2.054   6.636
12876TIP3   OH238584   1.440   1.035   5.001
12876TIP3    H138585   1.449   0.992   4.917
12876TIP3    H238586   1.457   1.128   4.983
12877TIP3   OH238587   1.927   6.992   2.579
12877TIP3    H138588   1.865   7.061   2.555
12877TIP3    H238589   1.899   6.962   2.665
12878TIP3   OH238590   5.580   1.070   6.013
12878TIP3    H138591   5.672   1.094   6.000
12878TIP3    H238592   5.548   1.052   5.924
12879TIP3   OH238593   1.191   2.740   2.485
12879TIP3    H138594   1.172   2.834   2.489
12879TIP3    H238595   1.124   2.700   2.540
12880TIP3   OH238596   3.952   6.020   5.255
12880TIP3    H138597   3.945   5.936   5.209
12880TIP3    H238598   3.950   6.086   5.186
12881TIP3   OH238599   6.329   0.744   2.679
12881TIP3    H138600   6.333   0.838   2.695
12881TIP3    H238601   6.366   0.734   2.591
12882TIP3   OH238602   5.775   3.950   3.870
12882TIP3    H138603   5.798   4.039   3.845
12882TIP3    H238604   5.844   3.896   3.832
12883TIP3   OH238605   7.012   0.734   2.487
12883TIP3    H138606   6.938   0.771   2.535
12883TIP3    H238607   6.984   0.645   2.466
12884TIP3   OH238608   4.425   1.888   1.457
12884TIP3    H138609   4.473   1.841   1.526
12884TIP3    H238610   4.421   1.978   1.488
12885TIP3   OH238611   5.422   2.788   4.171
12885TIP3    H138612   5.360   2.790   4.245
12885TIP3    H238613   5.475   2.867   4.183
12886TIP3   OH238614   0.182   6.043   3.172
12886TIP3    H138615   0.221   6.104   3.109
12886TIP3    H238616   0.253   6.024   3.234
12887TIP3   OH238617   0.899   1.766   5.543
12887TIP3    H138618   0.966   1.708   5.578
12887TIP3    H238619   0.941   1.810   5.469
12888TIP3   OH238620   4.864   0.898   1.660
12888TIP3    H138621   4.812   0.822   1.636
12888TIP3    H238622   4.949   0.883   1.619
12889TIP3   OH238623   6.642   3.457   4.093
12889TIP3    H138624   6.562   3.450   4.041
12889TIP3    H238625   6.655   3.370   4.129
12890TIP3   OH238626   4.559   2.364   1.511
12890TIP3    H138627   4.622   2.366   1.439
12890TIP3    H238628   4.502   2.439   1.495
12891TIP3   OH238629   2.228   6.345   0.463
12891TIP3    H138630   2.211   6.260   0.504
12891TIP3    H238631   2.302   6.380   0.511
12892TIP3   OH238632   2.599   6.794   5.105
12892TIP3    H138633   2.632   6.741   5.177
12892TIP3    H238634   2.630   6.883   5.123
12893TIP3   OH238635   7.957   4.900   5.126
12893TIP3    H138636   7.939   4.865   5.213
12893TIP3    H238637   7.984   4.990   5.141
12894TIP3   OH238638   3.936   1.813   5.539
12894TIP3    H138639   3.996   1.873   5.495
12894TIP3    H238640   3.858   1.811   5.484
12895TIP3   OH238641   4.991   4.682   3.180
12895TIP3    H138642   5.041   4.687   3.098
12895TIP3    H238643   5.057   4.663   3.247
12896TIP3   OH238644   0.617   3.604   4.068
12896TIP3    H138645   0.676   3.679   4.061
12896TIP3    H238646   0.586   3.605   4.158
12897TIP3   OH238647   1.548   5.538   1.288
12897TIP3    H138648   1.566   5.583   1.205
12897TIP3    H238649   1.467   5.491   1.271
12898TIP3   OH238650   7.951   0.020   5.536
12898TIP3    H138651   7.864   0.005   5.499
12898TIP3    H238652   7.935   0.039   5.629
12899TIP3   OH238653   1.612   1.977   0.160
12899TIP3    H138654   1.577   2.043   0.100
12899TIP3    H238655   1.638   2.026   0.238
12900TIP3   OH238656   7.316   5.385   1.978
12900TIP3    H138657   7.391   5.379   1.920
12900TIP3    H238658   7.325   5.311   2.038
12901TIP3   OH238659   5.471   2.913   3.404
12901TIP3    H138660   5.493   2.826   3.436
12901TIP3    H238661   5.481   2.907   3.309
12902TIP3   OH238662   3.852   6.599   4.599
12902TIP3    H138663   3.857   6.691   4.625
12902TIP3    H238664   3.941   6.566   4.610
12903TIP3   OH238665   6.650   4.080   5.351
12903TIP3    H138666   6.684   4.154   5.301
12903TIP3    H238667   6.707   4.074   5.428
12904TIP3   OH238668   3.554   3.181   5.580
12904TIP3    H138669   3.597   3.129   5.512
12904TIP3    H238670   3.550   3.269   5.543
12905TIP3   OH238671   7.355   3.922   2.657
12905TIP3    H138672   7.428   3.861   2.661
12905TIP3    H238673   7.391   4.005   2.685
12906TIP3   OH238674   2.923   7.727   6.119
12906TIP3    H138675   2.937   7.785   6.194
12906TIP3    H238676   2.860   7.774   6.064
12907TIP3   OH238677   2.162   6.546   6.026
12907TIP3    H138678   2.072   6.530   5.998
12907TIP3    H238679   2.167   6.640   6.038
12908TIP3   OH238680   1.729   4.997   0.562
12908TIP3    H138681   1.805   4.947   0.530
12908TIP3    H238682   1.766   5.057   0.626
12909TIP3   OH238683   7.894   6.209   2.697
12909TIP3    H138684   7.965   6.145   2.701
12909TIP3    H238685   7.842   6.182   2.622
12910TIP3   OH238686   7.380   6.844   4.210
12910TIP3    H138687   7.295   6.834   4.253
12910TIP3    H238688   7.397   6.938   4.213
12911TIP3   OH238689   4.136   2.419   2.431
12911TIP3    H138690   4.172   2.508   2.430
12911TIP3    H238691   4.103   2.405   2.342
12912TIP3   OH238692   5.111   2.582   0.678
12912TIP3    H138693   5.110   2.634   0.758
12912TIP3    H238694   5.096   2.492   0.707
12913TIP3   OH238695   1.637   0.204   5.476
12913TIP3    H138696   1.718   0.237   5.436
12913TIP3    H238697   1.583   0.176   5.402
12914TIP3   OH238698   5.736   6.163   4.696
12914TIP3    H138699   5.699   6.093   4.643
12914TIP3    H238700   5.682   6.239   4.677
12915TIP3   OH238701   5.436   3.025   3.805
12915TIP3    H138702   5.394   3.057   3.725
12915TIP3    H238703   5.367   3.027   3.871
12916TIP3   OH238704   2.375   1.380   5.850
12916TIP3    H138705   2.322   1.442   5.799
12916TIP3    H238706   2.312   1.323   5.893
12917TIP3   OH238707   1.639   5.838   2.847
12917TIP3    H138708   1.599   5.924   2.829
12917TIP3    H238709   1.700   5.824   2.775
12918TIP3   OH238710   5.079   4.058   3.784
12918TIP3    H138711   5.155   4.020   3.740
12918TIP3    H238712   5.067   4.143   3.742
12919TIP3   OH238713   4.170   1.088   6.024
12919TIP3    H138714   4.075   1.083   6.026
12919TIP3    H238715   4.197   1.013   5.971
12920TIP3   OH238716   7.947   1.139   6.711
12920TIP3    H138717   8.042   1.135   6.704
12920TIP3    H238718   7.921   1.211   6.654
12921TIP3   OH238719   2.357   0.079   5.558
12921TIP3    H138720   2.265   0.053   5.570
12921TIP3    H238721   2.370   0.150   5.620
12922TIP3   OH238722   5.619   6.328   1.009
12922TIP3    H138723   5.692   6.359   1.063
12922TIP3    H238724   5.660   6.267   0.947
12923TIP3   OH238725   4.434   2.912   2.489
12923TIP3    H138726   4.457   2.972   2.418
12923TIP3    H238727   4.473   2.950   2.567
12924TIP3   OH238728   2.182   6.976   2.696
12924TIP3    H138729   2.173   7.008   2.786
12924TIP3    H238730   2.100   7.002   2.653
12925TIP3   OH238731   3.406   6.115   6.012
12925TIP3    H138732   3.485   6.156   6.048
12925TIP3    H238733   3.335   6.149   6.065
12926TIP3   OH238734   3.132   1.992   1.925
12926TIP3    H138735   3.128   2.041   1.843
12926TIP3    H238736   3.128   1.900   1.898
12927TIP3   OH238737   7.553   2.940   2.639
12927TIP3    H138738   7.617   2.915   2.573
12927TIP3    H238739   7.600   2.997   2.699
12928TIP3   OH238740   2.875   5.067   6.723
12928TIP3    H138741   2.910   5.017   6.796
12928TIP3    H238742   2.917   5.152   6.730
12929TIP3   OH238743   4.777   3.565   3.784
12929TIP3    H138744   4.796   3.491   3.727
12929TIP3    H238745   4.720   3.528   3.852
12930TIP3   OH238746   7.920   6.451   4.886
12930TIP3    H138747   7.889   6.532   4.925
12930TIP3    H238748   7.924   6.390   4.960
12931TIP3   OH238749   0.608   7.762   2.213
12931TIP3    H138750   0.548   7.688   2.222
12931TIP3    H238751   0.615   7.798   2.301
12932TIP3   OH238752   7.342   3.152   4.976
12932TIP3    H138753   7.311   3.111   4.895
12932TIP3    H238754   7.415   3.097   5.004
12933TIP3   OH238755   3.307   7.625   1.782
12933TIP3    H138756   3.267   7.607   1.867
12933TIP3    H238757   3.321   7.720   1.782
12934TIP3   OH238758   7.908   4.104   2.070
12934TIP3    H138759   7.925   4.166   1.999
12934TIP3    H238760   7.903   4.158   2.149
12935TIP3   OH238761   7.891   1.610   1.038
12935TIP3    H138762   7.847   1.586   1.120
12935TIP3    H238763   7.984   1.605   1.058
12936TIP3   OH238764   1.283   7.008   5.578
12936TIP3    H138765   1.319   6.922   5.558
12936TIP3    H238766   1.329   7.035   5.658
12937TIP3   OH238767   3.006   2.240   0.728
12937TIP3    H138768   3.099   2.241   0.750
12937TIP3    H238769   2.972   2.320   0.768
12938TIP3   OH238770   0.164   3.749   3.453
12938TIP3    H138771   0.143   3.842   3.449
12938TIP3    H238772   0.258   3.744   3.434
12939TIP3   OH238773   0.732   3.473   1.958
12939TIP3    H138774   0.754   3.382   1.978
12939TIP3    H238775   0.770   3.523   2.031
12940TIP3   OH238776   1.031   0.363   4.305
12940TIP3    H138777   0.984   0.424   4.363
12940TIP3    H238778   1.021   0.278   4.348
12941TIP3   OH238779   5.983   7.273   1.467
12941TIP3    H138780   6.032   7.304   1.543
12941TIP3    H238781   5.893   7.266   1.497
12942TIP3   OH238782   1.748   7.438   6.747
12942TIP3    H138783   1.666   7.442   6.795
12942TIP3    H238784   1.762   7.527   6.716
12943TIP3   OH238785   6.214   2.505   6.499
12943TIP3    H138786   6.234   2.450   6.423
12943TIP3    H238787   6.281   2.483   6.563
12944TIP3   OH238788   7.806   0.504   6.199
12944TIP3    H138789   7.780   0.505   6.292
12944TIP3    H238790   7.865   0.579   6.191
12945TIP3   OH238791   1.224   4.046   6.747
12945TIP3    H138792   1.173   4.024   6.669
12945TIP3    H238793   1.163   4.033   6.820
12946TIP3   OH238794   1.723   2.974   3.608
12946TIP3    H138795   1.721   2.911   3.680
12946TIP3    H238796   1.766   3.051   3.645
12947TIP3   OH238797   2.254   7.439   3.315
12947TIP3    H138798   2.254   7.344   3.330
12947TIP3    H238799   2.172   7.469   3.354
12948TIP3   OH238800   0.314   4.153   4.498
12948TIP3    H138801   0.372   4.168   4.573
12948TIP3    H238802   0.230   4.130   4.537
12949TIP3   OH238803   1.826   5.775   2.326
12949TIP3    H138804   1.917   5.798   2.344
12949TIP3    H238805   1.807   5.704   2.387
12950TIP3   OH238806   2.461   0.337   3.337
12950TIP3    H138807   2.516   0.280   3.391
12950TIP3    H238808   2.505   0.422   3.338
12951TIP3   OH238809   2.341   2.602   5.174
12951TIP3    H138810   2.309   2.623   5.086
12951TIP3    H238811   2.433   2.631   5.173
12952TIP3   OH238812   6.255   0.742   4.842
12952TIP3    H138813   6.176   0.752   4.788
12952TIP3    H238814   6.253   0.651   4.870
12953TIP3   OH238815   4.132   4.010   5.547
12953TIP3    H138816   4.161   3.961   5.470
12953TIP3    H238817   4.209   4.059   5.575
12954TIP3   OH238818   5.205   0.168   1.458
12954TIP3    H138819   5.235   0.080   1.481
12954TIP3    H238820   5.231   0.222   1.533
12955TIP3   OH238821   8.257   3.169   2.492
12955TIP3    H138822   8.318   3.202   2.558
12955TIP3    H238823   8.247   3.242   2.431
12956TIP3   OH238824   4.008   2.503   3.556
12956TIP3    H138825   3.989   2.593   3.531
12956TIP3    H238826   4.077   2.476   3.495
12957TIP3   OH238827   2.949   3.814   5.203
12957TIP3    H138828   2.895   3.826   5.281
12957TIP3    H238829   3.031   3.777   5.236
12958TIP3   OH238830   1.500   1.657   1.760
12958TIP3    H138831   1.448   1.737   1.762
12958TIP3    H238832   1.437   1.586   1.773
12959TIP3   OH238833   7.985   4.403   4.883
12959TIP3    H138834   7.908   4.350   4.904
12959TIP3    H238835   7.969   4.435   4.795
12960TIP3   OH238836   5.518   2.837   4.554
12960TIP3    H138837   5.535   2.873   4.467
12960TIP3    H238838   5.572   2.758   4.558
12961TIP3   OH238839   1.897   5.187   5.886
12961TIP3    H138840   1.972   5.237   5.919
12961TIP3    H238841   1.886   5.116   5.950
12962TIP3   OH238842   4.459   1.650   4.361
12962TIP3    H138843   4.491   1.562   4.383
12962TIP3    H238844   4.486   1.662   4.269
12963TIP3   OH238845   3.574   0.633   2.109
12963TIP3    H138846   3.565   0.587   2.193
12963TIP3    H238847   3.612   0.569   2.050
12964TIP3   OH238848   6.454   0.230   5.860
12964TIP3    H138849   6.376   0.273   5.896
12964TIP3    H238850   6.427   0.140   5.844
12965TIP3   OH238851   2.614   1.147   3.783
12965TIP3    H138852   2.567   1.209   3.840
12965TIP3    H238853   2.671   1.098   3.843
12966TIP3   OH238854   5.276   4.221   2.907
12966TIP3    H138855   5.228   4.299   2.879
12966TIP3    H238856   5.249   4.208   2.998
12967TIP3   OH238857   6.184   3.379   3.897
12967TIP3    H138858   6.173   3.302   3.841
12967TIP3    H238859   6.102   3.386   3.945
12968TIP3   OH238860   0.346   4.454   5.694
12968TIP3    H138861   0.280   4.515   5.728
12968TIP3    H238862   0.366   4.488   5.606
12969TIP3   OH238863   2.995   3.362   4.192
12969TIP3    H138864   3.084   3.378   4.222
12969TIP3    H238865   2.940   3.388   4.267
12970TIP3   OH238866   0.350   4.316   5.188
12970TIP3    H138867   0.340   4.408   5.210
12970TIP3    H238868   0.267   4.291   5.147
12971TIP3   OH238869   0.034   6.536   4.046
12971TIP3    H138870   0.117   6.584   4.041
12971TIP3    H238871  -0.010   6.557   3.964
12972TIP3   OH238872   7.807   7.256   5.368
12972TIP3    H138873   7.713   7.240   5.378
12972TIP3    H238874   7.831   7.307   5.445
12973TIP3   OH238875   1.084   5.345   0.656
12973TIP3    H138876   1.037   5.391   0.725
12973TIP3    H238877   1.121   5.268   0.700
12974TIP3   OH238878   1.794   6.260   0.706
12974TIP3    H138879   1.814   6.192   0.770
12974TIP3    H238880   1.699   6.271   0.711
12975TIP3   OH238881   4.168   6.882   2.827
12975TIP3    H138882   4.094   6.928   2.867
12975TIP3    H238883   4.132   6.798   2.798
12976TIP3   OH238884   7.714   0.317   5.603
12976TIP3    H138885   7.706   0.412   5.611
12976TIP3    H238886   7.730   0.302   5.510
12977TIP3   OH238887   8.188   2.396   4.824
12977TIP3    H138888   8.209   2.410   4.916
12977TIP3    H238889   8.268   2.357   4.787
12978TIP3   OH238890   1.697   2.978   3.907
12978TIP3    H138891   1.791   2.999   3.904
12978TIP3    H238892   1.654   3.062   3.922
12979TIP3   OH238893   6.953   7.244   6.349
12979TIP3    H138894   6.972   7.242   6.442
12979TIP3    H238895   6.986   7.328   6.318
12980TIP3   OH238896   3.986   1.660   0.431
12980TIP3    H138897   3.927   1.722   0.389
12980TIP3    H238898   4.051   1.714   0.475
12981TIP3   OH238899   0.072   5.763   5.766
12981TIP3    H138900   0.054   5.672   5.743
12981TIP3    H238901   0.032   5.774   5.852
12982TIP3   OH238902   5.562   4.215   3.543
12982TIP3    H138903   5.486   4.187   3.493
12982TIP3    H238904   5.633   4.219   3.479
12983TIP3   OH238905   2.058   2.921   5.797
12983TIP3    H138906   2.081   2.960   5.882
12983TIP3    H238907   1.991   2.856   5.819
12984TIP3   OH238908   5.382   5.392   4.508
12984TIP3    H138909   5.438   5.331   4.461
12984TIP3    H238910   5.297   5.347   4.514
12985TIP3   OH238911   7.279   3.961   1.257
12985TIP3    H138912   7.268   3.866   1.252
12985TIP3    H238913   7.374   3.974   1.245
12986TIP3   OH238914   2.926   5.819   2.142
12986TIP3    H138915   2.999   5.866   2.102
12986TIP3    H238916   2.968   5.758   2.203
12987TIP3   OH238917   1.862   4.529   6.176
12987TIP3    H138918   1.893   4.588   6.244
12987TIP3    H238919   1.811   4.463   6.223
12988TIP3   OH238920   6.734   0.601   1.305
12988TIP3    H138921   6.665   0.596   1.371
12988TIP3    H238922   6.757   0.694   1.303
12989TIP3   OH238923   1.363   7.012   5.029
12989TIP3    H138924   1.288   7.068   5.050
12989TIP3    H238925   1.358   7.002   4.934
12990TIP3   OH238926   5.899   3.566   3.495
12990TIP3    H138927   5.970   3.625   3.472
12990TIP3    H238928   5.933   3.514   3.568
12991TIP3   OH238929   2.035   2.087   3.120
12991TIP3    H138930   2.036   2.182   3.108
12991TIP3    H238931   2.032   2.052   3.031
12992TIP3   OH238932   8.014   7.241   5.110
12992TIP3    H138933   8.068   7.180   5.160
12992TIP3    H238934   8.025   7.325   5.154
12993TIP3   OH238935   5.782   5.821   0.960
12993TIP3    H138936   5.811   5.818   1.052
12993TIP3    H238937   5.720   5.748   0.952
12994TIP3   OH238938   5.107   1.105   5.481
12994TIP3    H138939   5.044   1.150   5.426
12994TIP3    H238940   5.109   1.155   5.562
12995TIP3   OH238941   1.660   2.447   6.064
12995TIP3    H138942   1.747   2.409   6.050
12995TIP3    H238943   1.670   2.540   6.044
12996TIP3   OH238944   4.899   7.278   4.592
12996TIP3    H138945   4.907   7.185   4.572
12996TIP3    H238946   4.822   7.306   4.542
12997TIP3   OH238947   7.874   3.902   2.789
12997TIP3    H138948   7.798   3.898   2.847
12997TIP3    H238949   7.946   3.871   2.843
12998TIP3   OH238950   7.533   3.186   6.209
12998TIP3    H138951   7.468   3.119   6.225
12998TIP3    H238952   7.483   3.264   6.184
12999TIP3   OH238953   3.690   0.874   2.125
12999TIP3    H138954   3.637   0.796   2.111
12999TIP3    H238955   3.731   0.859   2.211
13000TIP3   OH238956   5.522   1.215   2.217
13000TIP3    H138957   5.530   1.133   2.168
13000TIP3    H238958   5.429   1.222   2.237
13001TIP3   OH238959   4.300   2.940   2.100
13001TIP3    H138960   4.328   2.923   2.010
13001TIP3    H238961   4.271   2.855   2.133
13002TIP3   OH238962   6.894   7.567   1.956
13002TIP3    H138963   6.846   7.485   1.964
13002TIP3    H238964   6.974   7.552   2.007
13003TIP3   OH238965   6.794   2.657   4.499
13003TIP3    H138966   6.747   2.727   4.544
13003TIP3    H238967   6.883   2.661   4.533
13004TIP3   OH238968   0.366   4.208   5.540
13004TIP3    H138969   0.317   4.233   5.462
13004TIP3    H238970   0.357   4.283   5.599
13005TIP3   OH238971   4.555   4.405   4.250
13005TIP3    H138972   4.575   4.450   4.332
13005TIP3    H238973   4.609   4.449   4.185
13006TIP3   OH238974   3.946   1.079   3.363
13006TIP3    H138975   3.922   1.142   3.295
13006TIP3    H238976   3.886   1.097   3.435
13007TIP3   OH238977   5.895   1.770   2.268
13007TIP3    H138978   5.847   1.820   2.202
13007TIP3    H238979   5.846   1.688   2.275
13008TIP3   OH238980   2.136   6.106   0.754
13008TIP3    H138981   2.126   6.201   0.766
13008TIP3    H238982   2.067   6.068   0.808
13009TIP3   OH238983   1.537   2.623   5.088
13009TIP3    H138984   1.560   2.671   5.009
13009TIP3    H238985   1.604   2.647   5.152
13010TIP3   OH238986   2.359   0.450   5.567
13010TIP3    H138987   2.289   0.494   5.615
13010TIP3    H238988   2.406   0.400   5.633
13011TIP3   OH238989   8.191   0.504   5.911
13011TIP3    H138990   8.236   0.589   5.912
13011TIP3    H238991   8.219   0.463   5.830
13012TIP3   OH238992   7.564   1.990   3.082
13012TIP3    H138993   7.637   1.962   3.137
13012TIP3    H238994   7.524   1.908   3.052
13013TIP3   OH238995   0.217   1.848   2.196
13013TIP3    H138996   0.199   1.895   2.114
13013TIP3    H238997   0.141   1.791   2.208
13014TIP3   OH238998   5.738   1.396   6.664
13014TIP3    H138999   5.827   1.370   6.687
13014TIP3    H239000   5.685   1.368   6.739
13015TIP3   OH239001   1.161   5.889   4.199
13015TIP3    H139002   1.250   5.894   4.233
13015TIP3    H239003   1.150   5.798   4.172
13016TIP3   OH239004   5.980   1.704   3.874
13016TIP3    H139005   6.057   1.698   3.931
13016TIP3    H239006   5.981   1.794   3.842
13017TIP3   OH239007   6.334   2.762   4.494
13017TIP3    H139008   6.314   2.699   4.424
13017TIP3    H239009   6.361   2.707   4.568
13018TIP3   OH239010   1.532   1.526   5.778
13018TIP3    H139011   1.485   1.471   5.842
13018TIP3    H239012   1.529   1.475   5.697
13019TIP3   OH239013   2.915   3.076   4.748
13019TIP3    H139014   3.006   3.056   4.725
13019TIP3    H239015   2.922   3.149   4.809
13020TIP3   OH239016   4.500   2.150   6.268
13020TIP3    H139017   4.491   2.238   6.305
13020TIP3    H239018   4.515   2.165   6.175
13021TIP3   OH239019   5.439   7.671   5.167
13021TIP3    H139020   5.471   7.601   5.225
13021TIP3    H239021   5.505   7.676   5.098
13022TIP3   OH239022   5.399   1.908   5.733
13022TIP3    H139023   5.489   1.927   5.706
13022TIP3    H239024   5.398   1.926   5.827
13023TIP3   OH239025   2.874   6.205   6.715
13023TIP3    H139026   2.894   6.284   6.665
13023TIP3    H239027   2.790   6.224   6.758
13024TIP3   OH239028   3.601   5.514   6.689
13024TIP3    H139029   3.521   5.531   6.639
13024TIP3    H239030   3.583   5.551   6.776
13025TIP3   OH239031   6.241   2.089   4.382
13025TIP3    H139032   6.288   2.119   4.305
13025TIP3    H239033   6.202   2.006   4.356
13026TIP3   OH239034   6.026   3.469   4.978
13026TIP3    H139035   5.934   3.482   5.002
13026TIP3    H239036   6.048   3.544   4.924
13027TIP3   OH239037   3.426   7.072   6.378
13027TIP3    H139038   3.358   7.137   6.393
13027TIP3    H239039   3.426   7.018   6.457
13028TIP3   OH239040   6.436   2.596   1.313
13028TIP3    H139041   6.418   2.654   1.387
13028TIP3    H239042   6.463   2.513   1.352
13029TIP3   OH239043   3.165   3.819   2.607
13029TIP3    H139044   3.202   3.907   2.608
13029TIP3    H239045   3.184   3.783   2.694
13030TIP3   OH239046   2.989   1.077   1.707
13030TIP3    H139047   3.054   1.094   1.639
13030TIP3    H239048   2.920   1.029   1.662
13031TIP3   OH239049   2.398   7.575   4.785
13031TIP3    H139050   2.347   7.578   4.866
13031TIP3    H239051   2.333   7.589   4.715
13032TIP3   OH239052   3.168   0.684   0.027
13032TIP3    H139053   3.074   0.693   0.041
13032TIP3    H239054   3.192   0.763  -0.021
13033TIP3   OH239055   1.024   7.246   4.592
13033TIP3    H139056   1.104   7.197   4.608
13033TIP3    H239057   0.974   7.192   4.530
13034TIP3   OH239058   4.696   7.788   0.220
13034TIP3    H139059   4.761   7.835   0.272
13034TIP3    H239060   4.740   7.770   0.137
13035TIP3   OH239061   7.939   1.382   0.343
13035TIP3    H139062   7.864   1.431   0.377
13035TIP3    H239063   7.956   1.315   0.408
13036TIP3   OH239064   7.898   7.025   5.662
13036TIP3    H139065   7.821   7.045   5.609
13036TIP3    H239066   7.872   6.950   5.716
13037TIP3   OH239067   6.704   7.256   1.781
13037TIP3    H139068   6.739   7.189   1.722
13037TIP3    H239069   6.766   7.258   1.854
13038TIP3   OH239070   5.936   0.962   3.251
13038TIP3    H139071   5.888   0.924   3.325
13038TIP3    H239072   5.880   1.034   3.221
13039TIP3   OH239073   7.127   1.630   4.069
13039TIP3    H139074   7.187   1.703   4.060
13039TIP3    H239075   7.176   1.554   4.036
13040TIP3   OH239076   5.076   2.329   0.733
13040TIP3    H139077   4.990   2.287   0.723
13040TIP3    H239078   5.114   2.288   0.810
13041TIP3   OH239079   3.067   7.089   2.003
13041TIP3    H139080   3.072   7.005   1.956
13041TIP3    H239081   3.050   7.064   2.094
13042TIP3   OH239082   2.857   0.834   2.982
13042TIP3    H139083   2.928   0.892   2.954
13042TIP3    H239084   2.846   0.773   2.908
13043TIP3   OH239085   3.006   2.881   2.668
13043TIP3    H139086   2.942   2.871   2.596
13043TIP3    H239087   3.038   2.970   2.658
13044TIP3   OH239088   7.055   2.381   0.285
13044TIP3    H139089   7.078   2.466   0.323
13044TIP3    H239090   7.034   2.326   0.360
13045TIP3   OH239091   1.696   0.614   3.534
13045TIP3    H139092   1.727   0.523   3.535
13045TIP3    H239093   1.720   0.646   3.448
13046TIP3   OH239094   1.031   1.944   5.867
13046TIP3    H139095   1.099   1.981   5.811
13046TIP3    H239096   1.059   1.854   5.882
13047TIP3   OH239097   2.555   5.846   5.094
13047TIP3    H139098   2.521   5.932   5.119
13047TIP3    H239099   2.646   5.848   5.125
13048TIP3   OH239100   2.627   1.711   3.621
13048TIP3    H139101   2.592   1.712   3.532
13048TIP3    H239102   2.586   1.787   3.663
13049TIP3   OH239103   3.973   1.586   3.471
13049TIP3    H139104   3.881   1.599   3.447
13049TIP3    H239105   3.971   1.563   3.563
13050TIP3   OH239106   7.389   7.167   1.017
13050TIP3    H139107   7.362   7.175   0.926
13050TIP3    H239108   7.480   7.136   1.013
13051TIP3   OH239109   1.653   5.365   4.872
13051TIP3    H139110   1.647   5.358   4.777
13051TIP3    H239111   1.633   5.277   4.903
13052TIP3   OH239112   6.326   7.412   5.712
13052TIP3    H139113   6.398   7.408   5.775
13052TIP3    H239114   6.298   7.321   5.703
13053TIP3   OH239115   7.899   1.805   0.379
13053TIP3    H139116   7.921   1.895   0.403
13053TIP3    H239117   7.903   1.804   0.284
13054TIP3   OH239118   2.716   4.104   5.798
13054TIP3    H139119   2.720   4.115   5.703
13054TIP3    H239120   2.627   4.129   5.821
13055TIP3   OH239121   2.350   3.693   1.043
13055TIP3    H139122   2.404   3.766   1.073
13055TIP3    H239123   2.262   3.713   1.075
13056TIP3   OH239124   3.451   1.936   1.846
13056TIP3    H139125   3.459   2.017   1.794
13056TIP3    H239126   3.366   1.943   1.889
13057TIP3   OH239127   5.598   0.684   1.195
13057TIP3    H139128   5.665   0.639   1.143
13057TIP3    H239129   5.560   0.748   1.136
13058TIP3   OH239130   1.064   4.475   4.371
13058TIP3    H139131   1.024   4.561   4.385
13058TIP3    H239132   1.110   4.482   4.288
13059TIP3   OH239133   6.417   1.653   5.790
13059TIP3    H139134   6.353   1.604   5.842
13059TIP3    H239135   6.445   1.724   5.848
13060TIP3   OH239136   7.184   1.543   6.728
13060TIP3    H139137   7.270   1.541   6.686
13060TIP3    H239138   7.129   1.595   6.669
13061TIP3   OH239139   1.362   4.492   0.108
13061TIP3    H139140   1.313   4.544   0.045
13061TIP3    H239141   1.348   4.536   0.192
13062TIP3   OH239142   2.877   2.453   1.143
13062TIP3    H139143   2.920   2.526   1.189
13062TIP3    H239144   2.931   2.439   1.065
13063TIP3   OH239145   3.282   5.977   1.647
13063TIP3    H139146   3.279   5.972   1.551
13063TIP3    H239147   3.197   5.946   1.675
13064TIP3   OH239148   0.879   2.794   0.724
13064TIP3    H139149   0.887   2.711   0.770
13064TIP3    H239150   0.823   2.848   0.781
13065TIP3   OH239151   6.650   7.329   0.191
13065TIP3    H139152   6.745   7.329   0.184
13065TIP3    H239153   6.631   7.272   0.266
13066TIP3   OH239154   1.142   4.635   4.781
13066TIP3    H139155   1.183   4.642   4.867
13066TIP3    H239156   1.161   4.546   4.752
13067TIP3   OH239157   4.432   3.209   0.636
13067TIP3    H139158   4.399   3.292   0.670
13067TIP3    H239159   4.465   3.230   0.549
13068TIP3   OH239160   2.438   1.685   5.585
13068TIP3    H139161   2.432   1.591   5.568
13068TIP3    H239162   2.531   1.701   5.601
13069TIP3   OH239163   0.879   4.528   3.250
13069TIP3    H139164   0.966   4.546   3.215
13069TIP3    H239165   0.856   4.606   3.300
13070TIP3   OH239166   3.594   3.281   5.084
13070TIP3    H139167   3.522   3.227   5.116
13070TIP3    H239168   3.673   3.238   5.117
13071TIP3   OH239169   4.665   2.024   0.193
13071TIP3    H139170   4.716   1.945   0.173
13071TIP3    H239171   4.575   2.000   0.170
13072TIP3   OH239172   0.067   1.742   1.481
13072TIP3    H139173   0.000   1.704   1.424
13072TIP3    H239174   0.145   1.690   1.465
13073TIP3   OH239175   0.945   0.337   2.770
13073TIP3    H139176   0.992   0.298   2.696
13073TIP3    H239177   1.009   0.394   2.812
13074TIP3   OH239178   6.657   2.777   4.879
13074TIP3    H139179   6.647   2.722   4.957
13074TIP3    H239180   6.749   2.764   4.853
13075TIP3   OH239181   1.195   5.309   4.613
13075TIP3    H139182   1.231   5.221   4.621
13075TIP3    H239183   1.137   5.304   4.537
13076TIP3   OH239184   7.499   4.922   3.031
13076TIP3    H139185   7.511   4.827   3.035
13076TIP3    H239186   7.516   4.952   3.120
13077TIP3   OH239187   5.881   4.532   5.158
13077TIP3    H139188   5.916   4.452   5.196
13077TIP3    H239189   5.909   4.601   5.217
13078TIP3   OH239190   6.151   5.306   5.492
13078TIP3    H139191   6.082   5.240   5.497
13078TIP3    H239192   6.184   5.313   5.581
13079TIP3   OH239193   2.087   0.872   1.050
13079TIP3    H139194   2.049   0.785   1.066
13079TIP3    H239195   2.141   0.888   1.127
13080TIP3   OH239196   2.086   0.209   4.227
13080TIP3    H139197   2.165   0.235   4.275
13080TIP3    H239198   2.074   0.117   4.249
13081TIP3   OH239199   3.641   6.153   3.779
13081TIP3    H139200   3.670   6.070   3.816
13081TIP3    H239201   3.576   6.129   3.713
13082TIP3   OH239202   0.809   2.541   4.366
13082TIP3    H139203   0.852   2.625   4.382
13082TIP3    H239204   0.758   2.555   4.286
13083TIP3   OH239205   3.704  -0.001   0.606
13083TIP3    H139206   3.616   0.009   0.571
13083TIP3    H239207   3.758   0.060   0.555
13084TIP3   OH239208   2.848   7.710   3.791
13084TIP3    H139209   2.817   7.763   3.718
13084TIP3    H239210   2.900   7.640   3.751
13085TIP3   OH239211   7.139   1.749   4.981
13085TIP3    H139212   7.083   1.794   5.044
13085TIP3    H239213   7.187   1.819   4.937
13086TIP3   OH239214   0.315   7.110   2.145
13086TIP3    H139215   0.282   7.199   2.143
13086TIP3    H239216   0.278   7.068   2.067
13087TIP3   OH239217   3.992   6.187   5.014
13087TIP3    H139218   4.087   6.190   5.021
13087TIP3    H239219   3.973   6.228   4.929
13088TIP3   OH239220   5.922   5.135   2.564
13088TIP3    H139221   5.954   5.078   2.494
13088TIP3    H239222   6.000   5.183   2.593
13089TIP3   OH239223   6.792   4.286   4.839
13089TIP3    H139224   6.808   4.306   4.747
13089TIP3    H239225   6.736   4.357   4.871
13090TIP3   OH239226   7.288   5.133   4.597
13090TIP3    H139227   7.345   5.091   4.532
13090TIP3    H239228   7.245   5.060   4.642
13091TIP3   OH239229   2.609   7.436   1.129
13091TIP3    H139230   2.532   7.470   1.085
13091TIP3    H239231   2.592   7.450   1.222
13092TIP3   OH239232   0.312   2.388   2.199
13092TIP3    H139233   0.272   2.420   2.280
13092TIP3    H239234   0.394   2.348   2.228
13093TIP3   OH239235   3.495   0.501   2.749
13093TIP3    H139236   3.536   0.462   2.826
13093TIP3    H239237   3.420   0.549   2.784
13094TIP3   OH239238   7.705   1.467   0.892
13094TIP3    H139239   7.670   1.518   0.819
13094TIP3    H239240   7.772   1.525   0.931
13095TIP3   OH239241   4.641   2.674   6.574
13095TIP3    H139242   4.685   2.604   6.526
13095TIP3    H239243   4.630   2.744   6.509
13096TIP3   OH239244   5.345   1.337   1.753
13096TIP3    H139245   5.407   1.375   1.816
13096TIP3    H239246   5.274   1.401   1.747
13097TIP3   OH239247   8.047   4.871   5.379
13097TIP3    H139248   8.133   4.900   5.351
13097TIP3    H239249   8.061   4.782   5.413
13098TIP3   OH239250   4.715   4.392   2.704
13098TIP3    H139251   4.731   4.361   2.794
13098TIP3    H239252   4.793   4.441   2.681
13099TIP3   OH239253   0.602   1.639   3.829
13099TIP3    H139254   0.659   1.628   3.753
13099TIP3    H239255   0.658   1.618   3.904
13100TIP3   OH239256   2.609   6.523   6.002
13100TIP3    H139257   2.700   6.546   6.020
13100TIP3    H239258   2.571   6.500   6.087
13101TIP3   OH239259   1.274   7.252   6.654
13101TIP3    H139260   1.336   7.308   6.608
13101TIP3    H239261   1.326   7.179   6.687
13102TIP3   OH239262   7.696   6.765   3.579
13102TIP3    H139263   7.766   6.825   3.553
13102TIP3    H239264   7.637   6.764   3.503
13103TIP3   OH239265   4.116   2.805   4.543
13103TIP3    H139266   4.185   2.763   4.595
13103TIP3    H239267   4.131   2.774   4.454
13104TIP3   OH239268   4.236   6.570   0.804
13104TIP3    H139269   4.308   6.507   0.802
13104TIP3    H239270   4.237   6.604   0.894
13105TIP3   OH239271   1.172   0.928   2.435
13105TIP3    H139272   1.107   0.920   2.505
13105TIP3    H239273   1.121   0.959   2.359
13106TIP3   OH239274   2.731   1.333   2.622
13106TIP3    H139275   2.675   1.268   2.581
13106TIP3    H239276   2.815   1.326   2.576
13107TIP3   OH239277   2.621   0.909   0.653
13107TIP3    H139278   2.652   0.964   0.725
13107TIP3    H239279   2.529   0.934   0.643
13108TIP3   OH239280   2.274   1.640   0.474
13108TIP3    H139281   2.195   1.667   0.520
13108TIP3    H239282   2.342   1.639   0.542
13109TIP3   OH239283   8.243   4.449   0.291
13109TIP3    H139284   8.234   4.386   0.362
13109TIP3    H239285   8.260   4.533   0.334
13110TIP3   OH239286   3.715   5.249   4.666
13110TIP3    H139287   3.654   5.265   4.737
13110TIP3    H239288   3.722   5.153   4.661
13111TIP3   OH239289   1.740   4.317   0.129
13111TIP3    H139290   1.719   4.399   0.084
13111TIP3    H239291   1.696   4.249   0.078
13112TIP3   OH239292   3.128   5.279   0.480
13112TIP3    H139293   3.208   5.228   0.496
13112TIP3    H239294   3.154   5.343   0.414
13113TIP3   OH239295   6.912   5.149   6.186
13113TIP3    H139296   6.874   5.187   6.266
13113TIP3    H239297   6.922   5.223   6.127
13114TIP3   OH239298   5.880   0.739   3.079
13114TIP3    H139299   5.876   0.825   3.120
13114TIP3    H239300   5.806   0.738   3.018
13115TIP3   OH239301   7.360   6.135   0.425
13115TIP3    H139302   7.378   6.214   0.374
13115TIP3    H239303   7.283   6.157   0.477
13116TIP3   OH239304   6.869   4.971   0.425
13116TIP3    H139305   6.945   4.923   0.391
13116TIP3    H239306   6.804   4.904   0.443
13117TIP3   OH239307   5.860   1.326   2.058
13117TIP3    H139308   5.831   1.239   2.085
13117TIP3    H239309   5.912   1.358   2.132
13118TIP3   OH239310   3.165   6.364   2.913
13118TIP3    H139311   3.095   6.302   2.927
13118TIP3    H239312   3.241   6.310   2.891
13119TIP3   OH239313   4.348   5.127   6.198
13119TIP3    H139314   4.405   5.086   6.132
13119TIP3    H239315   4.262   5.088   6.182
13120TIP3   OH239316   4.774   3.907   0.482
13120TIP3    H139317   4.810   3.854   0.411
13120TIP3    H239318   4.824   3.989   0.479
13121TIP3   OH239319   6.072   2.215   3.184
13121TIP3    H139320   6.101   2.304   3.205
13121TIP3    H239321   6.042   2.221   3.093
13122TIP3   OH239322   1.625   2.707   2.930
13122TIP3    H139323   1.720   2.714   2.921
13122TIP3    H239324   1.610   2.702   3.024
13123TIP3   OH239325   4.478   5.827   0.738
13123TIP3    H139326   4.408   5.776   0.779
13123TIP3    H239327   4.445   5.847   0.650
13124TIP3   OH239328   5.694   0.739   2.901
13124TIP3    H139329   5.714   0.779   2.816
13124TIP3    H239330   5.642   0.661   2.878
13125TIP3   OH239331   5.730   3.037   3.292
13125TIP3    H139332   5.777   2.986   3.359
13125TIP3    H239333   5.660   3.080   3.339
13126TIP3   OH239334   7.680   7.779   3.752
13126TIP3    H139335   7.626   7.853   3.724
13126TIP3    H239336   7.684   7.721   3.676
13127TIP3   OH239337   7.260   4.731   3.417
13127TIP3    H139338   7.198   4.670   3.456
13127TIP3    H239339   7.265   4.706   3.325
13128TIP3   OH239340   0.613   5.000   2.803
13128TIP3    H139341   0.523   4.990   2.774
13128TIP3    H239342   0.662   5.022   2.724
13129TIP3   OH239343   1.388   1.032   2.141
13129TIP3    H139344   1.423   0.987   2.217
13129TIP3    H239345   1.386   0.965   2.072
13130TIP3   OH239346   8.043   0.958   6.418
13130TIP3    H139347   7.958   1.004   6.424
13130TIP3    H239348   8.045   0.903   6.496
13131TIP3   OH239349   3.243   7.110   0.953
13131TIP3    H139350   3.166   7.136   1.004
13131TIP3    H239351   3.303   7.184   0.963
13132TIP3   OH239352   3.824   6.346   4.248
13132TIP3    H139353   3.830   6.318   4.157
13132TIP3    H239354   3.812   6.441   4.244
13133TIP3   OH239355   7.436   1.385   0.598
13133TIP3    H139356   7.418   1.469   0.641
13133TIP3    H239357   7.369   1.326   0.631
13134TIP3   OH239358   4.476   3.904   0.784
13134TIP3    H139359   4.420   3.861   0.848
13134TIP3    H239360   4.499   3.988   0.825
13135TIP3   OH239361   5.680   2.299   3.666
13135TIP3    H139362   5.758   2.265   3.711
13135TIP3    H239363   5.611   2.236   3.688
13136TIP3   OH239364   2.787   0.036   3.327
13136TIP3    H139365   2.863   0.095   3.328
13136TIP3    H239366   2.815  -0.039   3.379
13137TIP3   OH239367   7.976   4.518   0.242
13137TIP3    H139368   7.954   4.501   0.151
13137TIP3    H239369   8.070   4.499   0.248
13138TIP3   OH239370   5.830   1.466   3.213
13138TIP3    H139371   5.841   1.475   3.308
13138TIP3    H239372   5.919   1.459   3.179
13139TIP3   OH239373   6.862   6.657   2.239
13139TIP3    H139374   6.899   6.745   2.227
13139TIP3    H239375   6.773   6.663   2.205
13140TIP3   OH239376   1.092   3.284   2.478
13140TIP3    H139377   1.034   3.359   2.467
13140TIP3    H239378   1.104   3.249   2.389
13141TIP3   OH239379   4.610   6.574   6.758
13141TIP3    H139380   4.639   6.489   6.726
13141TIP3    H239381   4.517   6.577   6.735
13142TIP3   OH239382   5.199   6.678   0.928
13142TIP3    H139383   5.234   6.638   1.008
13142TIP3    H239384   5.249   6.637   0.857
13143TIP3   OH239385   5.415   7.237   6.134
13143TIP3    H139386   5.486   7.174   6.125
13143TIP3    H239387   5.349   7.191   6.186
13144TIP3   OH239388   5.206   3.253   0.793
13144TIP3    H139389   5.194   3.336   0.841
13144TIP3    H239390   5.211   3.279   0.701
13145TIP3   OH239391   5.362   2.860   3.096
13145TIP3    H139392   5.350   2.803   3.171
13145TIP3    H239393   5.429   2.816   3.043
13146TIP3   OH239394   2.809   2.168   4.347
13146TIP3    H139395   2.831   2.258   4.370
13146TIP3    H239396   2.720   2.157   4.381
13147TIP3   OH239397   6.270   3.971   0.448
13147TIP3    H139398   6.325   3.971   0.369
13147TIP3    H239399   6.333   3.966   0.520
13148TIP3   OH239400   7.506   6.346   1.573
13148TIP3    H139401   7.432   6.386   1.527
13148TIP3    H239402   7.469   6.318   1.656
13149TIP3   OH239403   5.622   6.977   5.229
13149TIP3    H139404   5.589   6.889   5.247
13149TIP3    H239405   5.604   6.991   5.136
13150TIP3   OH239406   6.149   7.660   3.309
13150TIP3    H139407   6.206   7.642   3.235
13150TIP3    H239408   6.176   7.747   3.340
13151TIP3   OH239409   2.867   2.092   4.076
13151TIP3    H139410   2.874   2.113   4.169
13151TIP3    H239411   2.773   2.082   4.061
13152TIP3   OH239412   3.858   7.101   3.864
13152TIP3    H139413   3.821   7.188   3.849
13152TIP3    H239414   3.924   7.091   3.794
13153TIP3   OH239415   7.656   7.611   3.988
13153TIP3    H139416   7.664   7.685   3.927
13153TIP3    H239417   7.699   7.642   4.068
13154TIP3   OH239418   1.143   3.668   0.156
13154TIP3    H139419   1.229   3.678   0.116
13154TIP3    H239420   1.144   3.579   0.193
13155TIP3   OH239421   4.634   6.101   1.114
13155TIP3    H139422   4.700   6.078   1.049
13155TIP3    H239423   4.649   6.193   1.133
13156TIP3   OH239424   1.522   3.166   2.932
13156TIP3    H139425   1.601   3.145   2.981
13156TIP3    H239426   1.459   3.193   2.999
13157TIP3   OH239427   0.895   4.478   0.110
13157TIP3    H139428   0.945   4.511   0.035
13157TIP3    H239429   0.820   4.433   0.071
13158TIP3   OH239430   0.121   1.537   0.118
13158TIP3    H139431   0.188   1.511   0.182
13158TIP3    H239432   0.170   1.575   0.046
13159TIP3   OH239433   0.392   6.215   4.084
13159TIP3    H139434   0.417   6.123   4.096
13159TIP3    H239435   0.313   6.225   4.137
13160TIP3   OH239436   4.111   7.109   0.185
13160TIP3    H139437   4.196   7.065   0.186
13160TIP3    H239438   4.126   7.190   0.135
13161TIP3   OH239439   7.142   1.178   2.247
13161TIP3    H139440   7.112   1.188   2.156
13161TIP3    H239441   7.068   1.137   2.292
13162TIP3   OH239442   3.205   1.340   6.629
13162TIP3    H139443   3.154   1.420   6.619
13162TIP3    H239444   3.289   1.369   6.664
13163TIP3   OH239445   4.278   1.713   6.185
13163TIP3    H139446   4.312   1.782   6.128
13163TIP3    H239447   4.272   1.636   6.129
13164TIP3   OH239448   0.787   4.934   0.927
13164TIP3    H139449   0.769   5.011   0.873
13164TIP3    H239450   0.700   4.899   0.948
13165TIP3   OH239451   3.373   2.776   3.053
13165TIP3    H139452   3.435   2.829   3.003
13165TIP3    H239453   3.425   2.703   3.088
13166TIP3   OH239454   5.299   6.311   5.646
13166TIP3    H139455   5.236   6.335   5.714
13166TIP3    H239456   5.363   6.382   5.646
13167TIP3   OH239457   3.175   4.373   0.796
13167TIP3    H139458   3.230   4.342   0.724
13167TIP3    H239459   3.120   4.297   0.818
13168TIP3   OH239460   0.981   6.136   0.164
13168TIP3    H139461   0.934   6.218   0.180
13168TIP3    H239462   1.071   6.164   0.148
13169TIP3   OH239463   1.784   6.171   1.146
13169TIP3    H139464   1.758   6.238   1.209
13169TIP3    H239465   1.717   6.103   1.154
13170TIP3   OH239466   8.222   4.067   6.297
13170TIP3    H139467   8.244   4.074   6.204
13170TIP3    H239468   8.244   4.154   6.333
13171TIP3   OH239469   0.215   7.348   2.252
13171TIP3    H139470   0.202   7.378   2.343
13171TIP3    H239471   0.126   7.336   2.219
13172TIP3   OH239472   1.586   3.047   1.333
13172TIP3    H139473   1.618   3.099   1.259
13172TIP3    H239474   1.651   2.977   1.342
13173TIP3   OH239475   6.178   2.164   2.502
13173TIP3    H139476   6.163   2.105   2.428
13173TIP3    H239477   6.095   2.165   2.549
13174TIP3   OH239478   1.379   2.183   4.846
13174TIP3    H139479   1.404   2.274   4.864
13174TIP3    H239480   1.462   2.138   4.830
13175TIP3   OH239481   1.454   5.207   1.472
13175TIP3    H139482   1.514   5.132   1.466
13175TIP3    H239483   1.426   5.221   1.382
13176TIP3   OH239484   6.639   0.608   0.545
13176TIP3    H139485   6.588   0.551   0.488
13176TIP3    H239486   6.730   0.582   0.530
13177TIP3   OH239487   1.686   2.141   0.376
13177TIP3    H139488   1.601   2.173   0.407
13177TIP3    H239489   1.740   2.136   0.455
13178TIP3   OH239490   6.301   7.550   6.626
13178TIP3    H139491   6.362   7.497   6.574
13178TIP3    H239492   6.215   7.530   6.590
13179TIP3   OH239493   3.496   5.258   2.869
13179TIP3    H139494   3.520   5.345   2.902
13179TIP3    H239495   3.579   5.219   2.842
13180TIP3   OH239496   1.725   4.113   6.279
13180TIP3    H139497   1.701   4.072   6.196
13180TIP3    H239498   1.648   4.101   6.335
13181TIP3   OH239499   1.934   1.983   1.196
13181TIP3    H139500   1.861   2.000   1.136
13181TIP3    H239501   1.891   1.966   1.281
13182TIP3   OH239502   0.513   5.941   4.056
13182TIP3    H139503   0.428   5.917   4.093
13182TIP3    H239504   0.538   5.865   4.003
13183TIP3   OH239505   7.135   2.465   4.422
13183TIP3    H139506   7.144   2.433   4.511
13183TIP3    H239507   7.101   2.390   4.373
13184TIP3   OH239508   1.302   1.934   1.372
13184TIP3    H139509   1.376   1.875   1.360
13184TIP3    H239510   1.339   2.022   1.369
13185TIP3   OH239511   3.519   7.419   5.133
13185TIP3    H139512   3.427   7.441   5.119
13185TIP3    H239513   3.546   7.377   5.051
13186TIP3   OH239514   6.002   5.611   3.600
13186TIP3    H139515   5.999   5.701   3.569
13186TIP3    H239516   6.013   5.558   3.521
13187TIP3   OH239517   2.140   0.977   4.527
13187TIP3    H139518   2.097   0.892   4.518
13187TIP3    H239519   2.230   0.961   4.499
13188TIP3   OH239520   2.109   5.562   0.117
13188TIP3    H139521   2.050   5.486   0.116
13188TIP3    H239522   2.190   5.531   0.076
13189TIP3   OH239523   7.280   3.447   5.682
13189TIP3    H139524   7.295   3.362   5.723
13189TIP3    H239525   7.367   3.476   5.655
13190TIP3   OH239526   3.410   0.082   1.847
13190TIP3    H139527   3.456   0.094   1.764
13190TIP3    H239528   3.457   0.012   1.891
13191TIP3   OH239529   0.570   2.483   0.795
13191TIP3    H139530   0.503   2.415   0.808
13191TIP3    H239531   0.542   2.555   0.851
13192TIP3   OH239532   8.173   5.282   3.440
13192TIP3    H139533   8.181   5.369   3.479
13192TIP3    H239534   8.133   5.297   3.355
13193TIP3   OH239535   3.929   5.599   2.607
13193TIP3    H139536   3.965   5.566   2.690
13193TIP3    H239537   3.949   5.530   2.544
13194TIP3   OH239538   5.024   4.109   1.356
13194TIP3    H139539   5.110   4.122   1.316
13194TIP3    H239540   4.966   4.165   1.305
13195TIP3   OH239541   5.548   1.309   2.472
13195TIP3    H139542   5.577   1.252   2.543
13195TIP3    H239543   5.564   1.258   2.393
13196TIP3   OH239544   3.224   3.680   5.013
13196TIP3    H139545   3.202   3.661   4.922
13196TIP3    H239546   3.240   3.774   5.015
13197TIP3   OH239547   0.655   5.642   1.272
13197TIP3    H139548   0.730   5.582   1.273
13197TIP3    H239549   0.579   5.585   1.279
13198TIP3   OH239550   5.131   1.049   5.856
13198TIP3    H139551   5.041   1.063   5.886
13198TIP3    H239552   5.153   1.128   5.807
13199TIP3   OH239553   8.209   2.722   2.505
13199TIP3    H139554   8.215   2.631   2.474
13199TIP3    H239555   8.207   2.774   2.424
13200TIP3   OH239556   5.142   0.643   6.572
13200TIP3    H139557   5.133   0.726   6.619
13200TIP3    H239558   5.056   0.602   6.578
13201TIP3   OH239559   1.636   5.582   4.339
13201TIP3    H139560   1.632   5.643   4.266
13201TIP3    H239561   1.558   5.602   4.391
13202TIP3   OH239562   3.817   2.254   5.791
13202TIP3    H139563   3.748   2.192   5.766
13202TIP3    H239564   3.781   2.300   5.867
13203TIP3   OH239565   7.075   1.942   1.129
13203TIP3    H139566   7.041   1.969   1.214
13203TIP3    H239567   7.163   1.978   1.126
13204TIP3   OH239568   0.740   0.806   1.403
13204TIP3    H139569   0.675   0.749   1.444
13204TIP3    H239570   0.760   0.764   1.319
13205TIP3   OH239571   2.004   0.702   1.947
13205TIP3    H139572   1.956   0.633   1.994
13205TIP3    H239573   1.939   0.771   1.933
13206TIP3   OH239574   0.454   3.698   3.120
13206TIP3    H139575   0.411   3.783   3.112
13206TIP3    H239576   0.391   3.635   3.086
13207TIP3   OH239577   0.495   1.052   0.062
13207TIP3    H139578   0.475   1.088  -0.025
13207TIP3    H239579   0.504   1.129   0.118
13208TIP3   OH239580   0.626   3.678   5.812
13208TIP3    H139581   0.664   3.690   5.900
13208TIP3    H239582   0.650   3.758   5.765
13209TIP3   OH239583   2.292   3.003   3.819
13209TIP3    H139584   2.327   3.077   3.869
13209TIP3    H239585   2.246   2.950   3.884
13210TIP3   OH239586   4.173   1.293   2.564
13210TIP3    H139587   4.092   1.254   2.531
13210TIP3    H239588   4.147   1.382   2.591
13211TIP3   OH239589   3.728   7.726   6.158
13211TIP3    H139590   3.643   7.687   6.138
13211TIP3    H239591   3.708   7.801   6.214
13212TIP3   OH239592   8.256   6.134   0.909
13212TIP3    H139593   8.329   6.182   0.870
13212TIP3    H239594   8.236   6.181   0.989
13213TIP3   OH239595   0.948   4.727   4.389
13213TIP3    H139596   0.866   4.715   4.341
13213TIP3    H239597   0.920   4.751   4.478
13214TIP3   OH239598   5.703   2.249   2.629
13214TIP3    H139599   5.656   2.330   2.647
13214TIP3    H239600   5.669   2.187   2.695
13215TIP3   OH239601   0.738   6.290   5.604
13215TIP3    H139602   0.723   6.340   5.524
13215TIP3    H239603   0.822   6.245   5.590
13216TIP3   OH239604   4.666   7.016   2.531
13216TIP3    H139605   4.690   7.095   2.483
13216TIP3    H239606   4.723   7.015   2.608
13217TIP3   OH239607   2.416   4.482   4.987
13217TIP3    H139608   2.396   4.499   4.895
13217TIP3    H239609   2.508   4.456   4.988
13218TIP3   OH239610   4.430   7.260   2.300
13218TIP3    H139611   4.389   7.244   2.214
13218TIP3    H239612   4.356   7.263   2.361
13219TIP3   OH239613   4.223   6.564   2.268
13219TIP3    H139614   4.198   6.553   2.359
13219TIP3    H239615   4.300   6.507   2.257
13220TIP3   OH239616   5.626   2.235   6.295
13220TIP3    H139617   5.702   2.203   6.343
13220TIP3    H239618   5.578   2.156   6.271
13221TIP3   OH239619   0.776   0.620   2.618
13221TIP3    H139620   0.737   0.535   2.598
13221TIP3    H239621   0.704   0.682   2.611
13222TIP3   OH239622   6.059   1.193   0.657
13222TIP3    H139623   6.076   1.142   0.736
13222TIP3    H239624   6.146   1.224   0.630
13223TIP3   OH239625   4.679   5.625   4.694
13223TIP3    H139626   4.667   5.538   4.731
13223TIP3    H239627   4.661   5.614   4.601
13224TIP3   OH239628   2.178   1.807   1.684
13224TIP3    H139629   2.226   1.733   1.723
13224TIP3    H239630   2.230   1.884   1.708
13225TIP3   OH239631   0.184   2.072   3.942
13225TIP3    H139632   0.098   2.114   3.942
13225TIP3    H239633   0.243   2.139   3.977
13226TIP3   OH239634   7.358   5.192   5.554
13226TIP3    H139635   7.373   5.284   5.577
13226TIP3    H239636   7.268   5.189   5.522
13227TIP3   OH239637   5.562   0.485   5.175
13227TIP3    H139638   5.514   0.539   5.112
13227TIP3    H239639   5.497   0.422   5.207
13228TIP3   OH239640   6.976   4.129   2.977
13228TIP3    H139641   6.896   4.078   2.991
13228TIP3    H239642   7.027   4.078   2.915
13229TIP3   OH239643   1.940   1.096   0.986
13229TIP3    H139644   1.852   1.068   0.959
13229TIP3    H239645   1.990   1.015   0.990
13230TIP3   OH239646   1.010   6.838   3.605
13230TIP3    H139647   0.998   6.912   3.664
13230TIP3    H239648   0.953   6.857   3.530
13231TIP3   OH239649   7.363   5.090   3.584
13231TIP3    H139650   7.449   5.125   3.604
13231TIP3    H239651   7.304   5.165   3.587
13232TIP3   OH239652   8.159   4.802   4.094
13232TIP3    H139653   8.228   4.868   4.101
13232TIP3    H239654   8.172   4.745   4.169
13233TIP3   OH239655   6.888   6.470   1.205
13233TIP3    H139656   6.962   6.411   1.218
13233TIP3    H239657   6.927   6.551   1.172
13234TIP3   OH239658   5.588   4.917   4.873
13234TIP3    H139659   5.640   4.849   4.917
13234TIP3    H239660   5.503   4.914   4.917
13235TIP3   OH239661   6.019   1.553   5.184
13235TIP3    H139662   6.092   1.493   5.169
13235TIP3    H239663   5.953   1.501   5.229
13236TIP3   OH239664   1.996   5.430   5.697
13236TIP3    H139665   2.025   5.407   5.609
13236TIP3    H239666   1.912   5.386   5.707
13237TIP3   OH239667   0.578   2.281   2.576
13237TIP3    H139668   0.640   2.344   2.539
13237TIP3    H239669   0.492   2.318   2.556
13238TIP3   OH239670   3.287   2.592   4.178
13238TIP3    H139671   3.261   2.561   4.092
13238TIP3    H239672   3.345   2.666   4.160
13239TIP3   OH239673   0.731   1.894   5.239
13239TIP3    H139674   0.727   1.809   5.283
13239TIP3    H239675   0.639   1.917   5.223
13240TIP3   OH239676   0.511   1.787   4.162
13240TIP3    H139677   0.524   1.705   4.113
13240TIP3    H239678   0.434   1.826   4.122
13241TIP3   OH239679   6.616   6.648   5.348
13241TIP3    H139680   6.576   6.570   5.386
13241TIP3    H239681   6.543   6.696   5.309
13242TIP3   OH239682   6.322   5.479   5.246
13242TIP3    H139683   6.345   5.393   5.283
13242TIP3    H239684   6.344   5.541   5.315
13243TIP3   OH239685   3.652   6.366   6.433
13243TIP3    H139686   3.623   6.434   6.494
13243TIP3    H239687   3.745   6.353   6.455
13244TIP3   OH239688   2.491   3.235   4.788
13244TIP3    H139689   2.542   3.229   4.869
13244TIP3    H239690   2.557   3.225   4.719
13245TIP3   OH239691   7.355   4.483   5.157
13245TIP3    H139692   7.361   4.428   5.079
13245TIP3    H239693   7.326   4.424   5.226
13246TIP3   OH239694   4.139   5.674   4.247
13246TIP3    H139695   4.062   5.671   4.303
13246TIP3    H239696   4.213   5.680   4.308
13247TIP3   OH239697   6.178   7.602   2.392
13247TIP3    H139698   6.176   7.541   2.466
13247TIP3    H239699   6.267   7.638   2.394
13248TIP3   OH239700   7.785   6.664   1.385
13248TIP3    H139701   7.754   6.703   1.303
13248TIP3    H239702   7.846   6.596   1.357
13249TIP3   OH239703   3.786   6.549   5.087
13249TIP3    H139704   3.807   6.569   5.178
13249TIP3    H239705   3.868   6.567   5.039
13250TIP3   OH239706   8.059   2.844   6.621
13250TIP3    H139707   8.144   2.859   6.663
13250TIP3    H239708   7.996   2.889   6.677
13251TIP3   OH239709   6.462   2.240   4.224
13251TIP3    H139710   6.439   2.330   4.250
13251TIP3    H239711   6.467   2.244   4.128
13252TIP3   OH239712   0.553   2.955   3.132
13252TIP3    H139713   0.597   3.040   3.126
13252TIP3    H239714   0.621   2.891   3.112
13253TIP3   OH239715   1.283   0.975   3.164
13253TIP3    H139716   1.215   0.985   3.098
13253TIP3    H239717   1.355   1.031   3.135
13254TIP3   OH239718   6.607   2.073   1.684
13254TIP3    H139719   6.572   1.990   1.716
13254TIP3    H239720   6.534   2.114   1.638
13255TIP3   OH239721   6.474   1.845   2.684
13255TIP3    H139722   6.395   1.804   2.719
13255TIP3    H239723   6.540   1.775   2.686
13256TIP3   OH239724   5.601   0.430   3.918
13256TIP3    H139725   5.682   0.480   3.905
13256TIP3    H239726   5.560   0.472   3.994
13257TIP3   OH239727   0.785   7.638   3.743
13257TIP3    H139728   0.703   7.620   3.696
13257TIP3    H239729   0.818   7.552   3.767
13258TIP3   OH239730   2.901   6.971   3.152
13258TIP3    H139731   2.862   6.919   3.222
13258TIP3    H239732   2.827   7.013   3.109
13259TIP3   OH239733   4.044   4.196   4.096
13259TIP3    H139734   4.011   4.284   4.114
13259TIP3    H239735   4.011   4.143   4.168
13260TIP3   OH239736   5.450   5.959   1.069
13260TIP3    H139737   5.530   5.987   1.113
13260TIP3    H239738   5.451   5.864   1.075
13261TIP3   OH239739   6.463   0.515   3.791
13261TIP3    H139740   6.542   0.501   3.740
13261TIP3    H239741   6.405   0.442   3.766
13262TIP3   OH239742   0.376   5.120   4.845
13262TIP3    H139743   0.347   5.165   4.765
13262TIP3    H239744   0.297   5.076   4.877
13263TIP3   OH239745   4.913   1.357   2.726
13263TIP3    H139746   4.957   1.287   2.774
13263TIP3    H239747   4.858   1.312   2.662
13264TIP3   OH239748   0.261   3.031   2.283
13264TIP3    H139749   0.303   3.090   2.220
13264TIP3    H239750   0.331   2.969   2.307
13265TIP3   OH239751   0.971   3.081   0.879
13265TIP3    H139752   0.995   3.065   0.788
13265TIP3    H239753   0.882   3.045   0.887
13266TIP3   OH239754   5.854   5.400   2.824
13266TIP3    H139755   5.824   5.491   2.823
13266TIP3    H239756   5.775   5.348   2.838
13267TIP3   OH239757   6.312   1.038   6.641
13267TIP3    H139758   6.305   1.091   6.721
13267TIP3    H239759   6.406   1.022   6.631
13268TIP3   OH239760   1.868   4.135   6.519
13268TIP3    H139761   1.934   4.066   6.519
13268TIP3    H239762   1.810   4.113   6.447
13269TIP3   OH239763   0.767   6.790   3.014
13269TIP3    H139764   0.672   6.777   3.004
13269TIP3    H239765   0.779   6.885   3.008
13270TIP3   OH239766   6.851   1.048   5.728
13270TIP3    H139767   6.766   1.036   5.771
13270TIP3    H239768   6.850   1.138   5.697
13271TIP3   OH239769   5.258   2.589   3.374
13271TIP3    H139770   5.231   2.498   3.384
13271TIP3    H239771   5.218   2.635   3.448
13272TIP3   OH239772   7.386   2.671   1.728
13272TIP3    H139773   7.394   2.685   1.823
13272TIP3    H239774   7.452   2.728   1.690
13273TIP3   OH239775   7.038   3.536   2.066
13273TIP3    H139776   7.088   3.616   2.048
13273TIP3    H239777   7.013   3.503   1.980
13274TIP3   OH239778   3.999   0.442   3.572
13274TIP3    H139779   3.952   0.520   3.543
13274TIP3    H239780   3.933   0.392   3.620
13275TIP3   OH239781   2.884   7.553   4.818
13275TIP3    H139782   2.791   7.531   4.814
13275TIP3    H239783   2.894   7.632   4.765
13276TIP3   OH239784   0.254   0.739   5.785
13276TIP3    H139785   0.225   0.733   5.876
13276TIP3    H239786   0.309   0.818   5.782
13277TIP3   OH239787   7.214   3.294   0.500
13277TIP3    H139788   7.121   3.297   0.476
13277TIP3    H239789   7.260   3.297   0.417
13278TIP3   OH239790   7.002   2.067   5.717
13278TIP3    H139791   7.022   2.053   5.625
13278TIP3    H239792   6.988   1.978   5.752
13279TIP3   OH239793   0.206   5.299   1.069
13279TIP3    H139794   0.134   5.246   1.101
13279TIP3    H239795   0.254   5.241   1.009
13280TIP3   OH239796   5.452   0.322   5.694
13280TIP3    H139797   5.482   0.232   5.707
13280TIP3    H239798   5.359   0.319   5.717
13281TIP3   OH239799   7.657   2.809   4.486
13281TIP3    H139800   7.698   2.743   4.430
13281TIP3    H239801   7.575   2.769   4.515
13282TIP3   OH239802   2.245   3.406   2.090
13282TIP3    H139803   2.320   3.454   2.055
13282TIP3    H239804   2.259   3.316   2.061
13283TIP3   OH239805   6.354   6.013   0.408
13283TIP3    H139806   6.358   5.925   0.445
13283TIP3    H239807   6.439   6.025   0.366
13284TIP3   OH239808   1.662   5.092   3.916
13284TIP3    H139809   1.697   5.042   3.842
13284TIP3    H239810   1.676   5.036   3.992
13285TIP3   OH239811   3.478   0.537   3.338
13285TIP3    H139812   3.546   0.502   3.395
13285TIP3    H239813   3.410   0.469   3.336
13286TIP3   OH239814   4.877   7.388   0.375
13286TIP3    H139815   4.833   7.408   0.458
13286TIP3    H239816   4.902   7.474   0.339
13287TIP3   OH239817   4.507   3.938   2.937
13287TIP3    H139818   4.529   3.924   3.029
13287TIP3    H239819   4.516   3.852   2.896
13288TIP3   OH239820   6.131   6.275   4.409
13288TIP3    H139821   6.059   6.268   4.471
13288TIP3    H239822   6.165   6.364   4.421
13289TIP3   OH239823   5.283   5.961   3.682
13289TIP3    H139824   5.255   5.890   3.739
13289TIP3    H239825   5.217   5.962   3.612
13290TIP3   OH239826   3.309   3.535   4.757
13290TIP3    H139827   3.350   3.451   4.737
13290TIP3    H239828   3.215   3.515   4.759
13291TIP3   OH239829   6.177   1.839   4.275
13291TIP3    H139830   6.201   1.774   4.209
13291TIP3    H239831   6.158   1.789   4.353
13292TIP3   OH239832   6.167   1.139   3.218
13292TIP3    H139833   6.251   1.096   3.197
13292TIP3    H239834   6.102   1.092   3.166
13293TIP3   OH239835   7.951   5.051   0.181
13293TIP3    H139836   7.886   5.002   0.130
13293TIP3    H239837   8.015   4.985   0.208
13294TIP3   OH239838   5.927   3.601   5.344
13294TIP3    H139839   5.858   3.621   5.281
13294TIP3    H239840   5.882   3.562   5.419
13295TIP3   OH239841   4.289   3.565   3.218
13295TIP3    H139842   4.270   3.633   3.282
13295TIP3    H239843   4.237   3.589   3.142
13296TIP3   OH239844   4.464   2.909   4.683
13296TIP3    H139845   4.466   2.818   4.652
13296TIP3    H239846   4.545   2.920   4.733
13297TIP3   OH239847   5.230   2.582   5.363
13297TIP3    H139848   5.160   2.640   5.393
13297TIP3    H239849   5.234   2.513   5.430
13298TIP3   OH239850   4.376   7.517   5.310
13298TIP3    H139851   4.317   7.457   5.265
13298TIP3    H239852   4.349   7.513   5.402
13299TIP3   OH239853   2.676   6.241   6.045
13299TIP3    H139854   2.731   6.188   5.987
13299TIP3    H239855   2.587   6.227   6.013
13300TIP3   OH239856   7.512   6.046   4.600
13300TIP3    H139857   7.491   6.137   4.622
13300TIP3    H239858   7.568   6.017   4.671
13301TIP3   OH239859   1.277   7.246   3.476
13301TIP3    H139860   1.343   7.240   3.545
13301TIP3    H239861   1.254   7.155   3.457
13302TIP3   OH239862   5.176   6.713   3.648
13302TIP3    H139863   5.102   6.662   3.613
13302TIP3    H239864   5.242   6.647   3.670
13303TIP3   OH239865   2.539   5.710   6.526
13303TIP3    H139866   2.496   5.770   6.585
13303TIP3    H239867   2.601   5.662   6.580
13304TIP3   OH239868   1.043   7.482   3.214
13304TIP3    H139869   1.048   7.474   3.309
13304TIP3    H239870   1.107   7.550   3.193
13305TIP3   OH239871   1.331   5.299   0.061
13305TIP3    H139872   1.394   5.291  -0.011
13305TIP3    H239873   1.281   5.218   0.059
13306TIP3   OH239874   4.228   3.384   4.389
13306TIP3    H139875   4.197   3.365   4.478
13306TIP3    H239876   4.236   3.299   4.347
13307TIP3   OH239877   7.428   2.132   0.683
13307TIP3    H139878   7.382   2.178   0.753
13307TIP3    H239879   7.371   2.142   0.607
13308TIP3   OH239880   8.266   6.809   6.610
13308TIP3    H139881   8.253   6.771   6.697
13308TIP3    H239882   8.300   6.897   6.627
13309TIP3   OH239883   3.782   0.262   4.760
13309TIP3    H139884   3.835   0.187   4.788
13309TIP3    H239885   3.846   0.332   4.747
13310TIP3   OH239886   6.306   3.917   4.263
13310TIP3    H139887   6.213   3.920   4.238
13310TIP3    H239888   6.345   3.854   4.203
13311TIP3   OH239889   5.086   1.030   2.595
13311TIP3    H139890   5.054   1.051   2.682
13311TIP3    H239891   5.128   1.110   2.565
13312TIP3   OH239892   6.895   6.710   5.179
13312TIP3    H139893   6.886   6.766   5.256
13312TIP3    H239894   6.821   6.735   5.123
13313TIP3   OH239895   4.484   4.398   1.009
13313TIP3    H139896   4.526   4.350   1.080
13313TIP3    H239897   4.411   4.444   1.050
13314TIP3   OH239898   3.841   1.056   4.973
13314TIP3    H139899   3.764   1.023   4.927
13314TIP3    H239900   3.889   0.977   4.999
13315TIP3   OH239901   1.721   4.529   4.846
13315TIP3    H139902   1.641   4.489   4.813
13315TIP3    H239903   1.783   4.524   4.774
13316TIP3   OH239904   1.218   3.640   4.592
13316TIP3    H139905   1.262   3.648   4.508
13316TIP3    H239906   1.246   3.718   4.641
13317TIP3   OH239907   1.659   3.708   6.081
13317TIP3    H139908   1.732   3.727   6.023
13317TIP3    H239909   1.631   3.793   6.113
13318TIP3   OH239910   4.647   5.313   5.732
13318TIP3    H139911   4.552   5.318   5.739
13318TIP3    H239912   4.663   5.266   5.650
13319TIP3   OH239913   0.060   2.504   6.739
13319TIP3    H139914   0.145   2.479   6.701
13319TIP3    H239915   0.036   2.429   6.794
13320TIP3   OH239916   7.067   7.143   0.654
13320TIP3    H139917   7.124   7.201   0.704
13320TIP3    H239918   7.080   7.056   0.692
13321TIP3   OH239919   7.919   1.776   6.388
13321TIP3    H139920   7.889   1.864   6.368
13321TIP3    H239921   8.005   1.788   6.429
13322TIP3   OH239922   5.216   2.127   4.780
13322TIP3    H139923   5.303   2.087   4.780
13322TIP3    H239924   5.233   2.219   4.801
13323TIP3   OH239925   0.150   0.614   0.260
13323TIP3    H139926   0.224   0.585   0.206
13323TIP3    H239927   0.122   0.696   0.220
13324TIP3   OH239928   6.749   2.326   6.601
13324TIP3    H139929   6.741   2.262   6.672
13324TIP3    H239930   6.797   2.280   6.532
13325TIP3   OH239931   7.591   3.879   5.270
13325TIP3    H139932   7.643   3.901   5.193
13325TIP3    H239933   7.648   3.825   5.324
13326TIP3   OH239934   3.870   3.186   1.008
13326TIP3    H139935   3.937   3.117   1.007
13326TIP3    H239936   3.808   3.160   0.940
13327TIP3   OH239937   3.937   4.748   4.293
13327TIP3    H139938   3.892   4.784   4.217
13327TIP3    H239939   3.867   4.710   4.347
13328TIP3   OH239940   2.683   5.725   4.304
13328TIP3    H139941   2.596   5.694   4.278
13328TIP3    H239942   2.667   5.806   4.352
13329TIP3   OH239943   2.635   0.946   2.067
13329TIP3    H139944   2.602   0.886   2.000
13329TIP3    H239945   2.665   1.023   2.018
13330TIP3   OH239946   8.083   7.675   5.476
13330TIP3    H139947   8.030   7.706   5.550
13330TIP3    H239948   8.097   7.753   5.422
13331TIP3   OH239949   3.849   4.379   3.175
13331TIP3    H139950   3.804   4.360   3.092
13331TIP3    H239951   3.938   4.400   3.150
13332TIP3   OH239952   2.503   4.377   2.756
13332TIP3    H139953   2.561   4.350   2.685
13332TIP3    H239954   2.499   4.300   2.813
13333TIP3   OH239955   8.255   5.049   4.450
13333TIP3    H139956   8.201   5.128   4.452
13333TIP3    H239957   8.344   5.081   4.466
13334TIP3   OH239958   0.206   4.339   0.425
13334TIP3    H139959   0.243   4.259   0.387
13334TIP3    H239960   0.113   4.320   0.436
13335TIP3   OH239961   6.146   6.062   4.680
13335TIP3    H139962   6.106   5.982   4.714
13335TIP3    H239963   6.235   6.037   4.656
13336TIP3   OH239964   4.603   5.220   2.386
13336TIP3    H139965   4.655   5.159   2.335
13336TIP3    H239966   4.556   5.166   2.450
13337TIP3   OH239967   6.596   4.417   0.573
13337TIP3    H139968   6.643   4.372   0.643
13337TIP3    H239969   6.583   4.506   0.606
13338TIP3   OH239970   1.717   0.510   1.261
13338TIP3    H139971   1.715   0.440   1.196
13338TIP3    H239972   1.755   0.585   1.215
13339TIP3   OH239973   6.635   6.414   1.265
13339TIP3    H139974   6.723   6.433   1.233
13339TIP3    H239975   6.585   6.391   1.187
13340TIP3   OH239976   1.516   5.321   4.318
13340TIP3    H139977   1.549   5.334   4.228
13340TIP3    H239978   1.488   5.230   4.320
13341TIP3   OH239979   6.851   5.727   4.139
13341TIP3    H139980   6.788   5.656   4.151
13341TIP3    H239981   6.881   5.719   4.048
13342TIP3   OH239982   2.891   7.169   1.007
13342TIP3    H139983   2.800   7.150   1.028
13342TIP3    H239984   2.941   7.107   1.061
13343TIP3   OH239985   6.916   7.728   3.333
13343TIP3    H139986   6.822   7.746   3.332
13343TIP3    H239987   6.937   7.715   3.425
13344TIP3   OH239988   7.135   3.181   6.196
13344TIP3    H139989   7.202   3.209   6.133
13344TIP3    H239990   7.184   3.154   6.274
13345TIP3   OH239991   3.198   1.281   4.941
13345TIP3    H139992   3.168   1.229   4.867
13345TIP3    H239993   3.121   1.331   4.969
13346TIP3   OH239994   5.669   4.526   4.716
13346TIP3    H139995   5.596   4.574   4.678
13346TIP3    H239996   5.690   4.574   4.797
13347TIP3   OH239997   3.879   1.309   3.186
13347TIP3    H139998   3.902   1.302   3.093
13347TIP3    H239999   3.880   1.403   3.204
13348TIP3   OH240000   0.961   6.161   5.343
13348TIP3    H140001   1.011   6.095   5.390
13348TIP3    H240002   1.015   6.183   5.267
13349TIP3   OH240003   3.593   2.269   3.411
13349TIP3    H140004   3.626   2.292   3.497
13349TIP3    H240005   3.543   2.188   3.425
13350TIP3   OH240006   2.014   1.949   2.028
13350TIP3    H140007   2.108   1.960   2.043
13350TIP3    H240008   1.979   1.923   2.114
13351TIP3   OH240009   1.410   2.288   1.820
13351TIP3    H140010   1.443   2.246   1.741
13351TIP3    H240011   1.377   2.372   1.790
13352TIP3   OH240012   7.257   1.057   3.031
13352TIP3    H140013   7.294   1.144   3.048
13352TIP3    H240014   7.163   1.067   3.049
13353TIP3   OH240015   3.812   5.271   1.110
13353TIP3    H140016   3.823   5.326   1.188
13353TIP3    H240017   3.869   5.195   1.126
13354TIP3   OH240018   4.994   5.256   3.009
13354TIP3    H140019   5.004   5.265   3.104
13354TIP3    H240020   5.007   5.163   2.992
13355TIP3   OH240021   0.410   2.247   0.828
13355TIP3    H140022   0.433   2.250   0.921
13355TIP3    H240023   0.461   2.174   0.793
13356TIP3   OH240024   1.323   1.308   6.586
13356TIP3    H140025   1.376   1.366   6.641
13356TIP3    H240026   1.384   1.240   6.558
13357TIP3   OH240027   3.625   2.295   5.387
13357TIP3    H140028   3.673   2.218   5.416
13357TIP3    H240029   3.579   2.266   5.308
13358TIP3   OH240030   1.973   5.823   2.010
13358TIP3    H140031   1.925   5.906   2.008
13358TIP3    H240032   1.920   5.767   2.066
13359TIP3   OH240033   6.001   5.456   3.388
13359TIP3    H140034   6.010   5.361   3.379
13359TIP3    H240035   5.938   5.480   3.320
13360TIP3   OH240036   6.434   2.647   1.602
13360TIP3    H140037   6.495   2.630   1.674
13360TIP3    H240038   6.400   2.735   1.621
13361TIP3   OH240039   5.820   0.762   5.759
13361TIP3    H140040   5.747   0.701   5.747
13361TIP3    H240041   5.874   0.722   5.828
13362TIP3   OH240042   2.920   2.488   6.596
13362TIP3    H140043   2.984   2.466   6.664
13362TIP3    H240044   2.973   2.515   6.521
13363TIP3   OH240045   5.199   0.592   6.025
13363TIP3    H140046   5.217   0.685   6.013
13363TIP3    H240047   5.105   0.586   6.038
13364TIP3   OH240048   6.805   6.826   6.476
13364TIP3    H140049   6.831   6.850   6.387
13364TIP3    H240050   6.876   6.859   6.531
13365TIP3   OH240051   5.240   6.951   5.190
13365TIP3    H140052   5.214   7.017   5.126
13365TIP3    H240053   5.315   6.989   5.236
13366TIP3   OH240054   7.468   3.379   3.186
13366TIP3    H140055   7.496   3.292   3.214
13366TIP3    H240056   7.544   3.416   3.141
13367TIP3   OH240057   2.170   4.148   5.892
13367TIP3    H140058   2.088   4.101   5.880
13367TIP3    H240059   2.145   4.240   5.892
13368TIP3   OH240060   4.552   3.110   3.047
13368TIP3    H140061   4.502   3.028   3.045
13368TIP3    H240062   4.625   3.095   2.986
13369TIP3   OH240063   8.013   6.686   5.398
13369TIP3    H140064   8.058   6.602   5.406
13369TIP3    H240065   7.992   6.711   5.488
13370TIP3   OH240066   6.248   2.432   1.613
13370TIP3    H140067   6.165   2.479   1.612
13370TIP3    H240068   6.313   2.499   1.635
13371TIP3   OH240069   6.514   2.909   2.894
13371TIP3    H140070   6.594   2.957   2.870
13371TIP3    H240071   6.487   2.865   2.814
13372TIP3   OH240072   7.185   0.671   6.329
13372TIP3    H140073   7.100   0.638   6.357
13372TIP3    H240074   7.227   0.596   6.286
13373TIP3   OH240075   5.563   4.016   1.966
13373TIP3    H140076   5.659   4.018   1.955
13373TIP3    H240077   5.530   3.987   1.881
13374TIP3   OH240078   1.043   7.629   0.811
13374TIP3    H140079   0.977   7.627   0.880
13374TIP3    H240080   1.016   7.702   0.755
13375TIP3   OH240081   7.717   3.020   4.307
13375TIP3    H140082   7.738   2.952   4.371
13375TIP3    H240083   7.623   3.036   4.319
13376TIP3   OH240084   7.838   1.856   5.049
13376TIP3    H140085   7.785   1.920   5.096
13376TIP3    H240086   7.912   1.906   5.014
13377TIP3   OH240087   3.693   2.266   1.007
13377TIP3    H140088   3.699   2.171   1.013
13377TIP3    H240089   3.677   2.283   0.914
13378TIP3   OH240090   3.170   2.471   6.712
13378TIP3    H140091   3.138   2.517   6.790
13378TIP3    H240092   3.262   2.497   6.704
13379TIP3   OH240093   5.151   7.754   3.327
13379TIP3    H140094   5.220   7.771   3.264
13379TIP3    H240095   5.184   7.683   3.382
13380TIP3   OH240096   1.168   1.712   5.929
13380TIP3    H140097   1.182   1.626   5.968
13380TIP3    H240098   1.241   1.723   5.868
13381TIP3   OH240099   1.182   6.986   4.173
13381TIP3    H140100   1.121   6.954   4.239
13381TIP3    H240101   1.154   6.944   4.092
13382TIP3   OH240102   3.727   5.362   5.210
13382TIP3    H140103   3.814   5.372   5.248
13382TIP3    H240104   3.689   5.450   5.214
13383TIP3   OH240105   2.725   0.976   3.513
13383TIP3    H140106   2.683   1.061   3.526
13383TIP3    H240107   2.762   0.955   3.599
13384TIP3   OH240108   3.304   4.278   0.582
13384TIP3    H140109   3.393   4.313   0.576
13384TIP3    H240110   3.297   4.218   0.507
13385TIP3   OH240111   8.031   5.276   0.063
13385TIP3    H140112   8.006   5.207   0.123
13385TIP3    H240113   7.950   5.323   0.044
13386TIP3   OH240114   3.468   7.090   5.646
13386TIP3    H140115   3.416   7.145   5.706
13386TIP3    H240116   3.412   7.080   5.569
13387TIP3   OH240117   5.984   4.100   6.371
13387TIP3    H140118   6.017   4.136   6.288
13387TIP3    H240119   5.895   4.134   6.378
13388TIP3   OH240120   7.324   0.792   4.313
13388TIP3    H140121   7.382   0.860   4.348
13388TIP3    H240122   7.236   0.826   4.330
13389TIP3   OH240123   1.549   0.684   4.738
13389TIP3    H140124   1.518   0.694   4.648
13389TIP3    H240125   1.562   0.590   4.749
13390TIP3   OH240126   1.095   6.815   0.115
13390TIP3    H140127   1.087   6.878   0.187
13390TIP3    H240128   1.153   6.747   0.150
13391TIP3   OH240129   6.590   7.500   3.025
13391TIP3    H140130   6.605   7.461   3.111
13391TIP3    H240131   6.604   7.428   2.963
13392TIP3   OH240132   7.643   3.672   4.202
13392TIP3    H140133   7.626   3.593   4.253
13392TIP3    H240134   7.638   3.743   4.265
13393TIP3   OH240135   6.011   7.753   6.575
13393TIP3    H140136   6.000   7.680   6.514
13393TIP3    H240137   5.931   7.805   6.566
13394TIP3   OH240138   6.491   0.101   2.071
13394TIP3    H140139   6.405   0.060   2.066
13394TIP3    H240140   6.500   0.128   2.163
13395TIP3   OH240141   7.205   3.540   5.996
13395TIP3    H140142   7.245   3.459   5.965
13395TIP3    H240143   7.247   3.609   5.944
13396TIP3   OH240144   3.173   0.189   1.931
13396TIP3    H140145   3.107   0.134   1.890
13396TIP3    H240146   3.257   0.149   1.906
13397TIP3   OH240147   2.505   7.112   5.756
13397TIP3    H140148   2.432   7.050   5.747
13397TIP3    H240149   2.582   7.057   5.767
13398TIP3   OH240150   6.117   5.794   2.234
13398TIP3    H140151   6.050   5.848   2.193
13398TIP3    H240152   6.114   5.818   2.327
13399TIP3   OH240153   7.988   1.640   1.491
13399TIP3    H140154   7.947   1.605   1.411
13399TIP3    H240155   7.914   1.665   1.546
13400TIP3   OH240156   3.312   4.078   0.413
13400TIP3    H140157   3.402   4.090   0.383
13400TIP3    H240158   3.295   3.984   0.401
13401TIP3   OH240159   1.222   6.844   6.440
13401TIP3    H140160   1.166   6.895   6.381
13401TIP3    H240161   1.257   6.774   6.385
13402TIP3   OH240162   3.868   2.193   2.832
13402TIP3    H140163   3.776   2.202   2.805
13402TIP3    H240164   3.870   2.111   2.881
13403TIP3   OH240165   5.444   3.212   4.665
13403TIP3    H140166   5.371   3.274   4.653
13403TIP3    H240167   5.412   3.150   4.730
13404TIP3   OH240168   2.127   0.267   3.904
13404TIP3    H140169   2.197   0.257   3.968
13404TIP3    H240170   2.152   0.208   3.833
13405TIP3   OH240171   6.821   1.602   5.966
13405TIP3    H140172   6.868   1.682   5.943
13405TIP3    H240173   6.858   1.577   6.051
13406TIP3   OH240174   3.053   5.270   5.437
13406TIP3    H140175   3.100   5.332   5.381
13406TIP3    H240176   3.009   5.211   5.375
13407TIP3   OH240177   7.962   0.672   5.998
13407TIP3    H140178   7.920   0.628   5.924
13407TIP3    H240179   8.040   0.620   6.016
13408TIP3   OH240180   1.798   7.304   1.756
13408TIP3    H140181   1.817   7.247   1.830
13408TIP3    H240182   1.841   7.263   1.681
13409TIP3   OH240183   4.159   2.750   6.212
13409TIP3    H140184   4.193   2.772   6.299
13409TIP3    H240185   4.230   2.773   6.152
13410TIP3   OH240186   1.472   2.691   4.183
13410TIP3    H140187   1.479   2.749   4.108
13410TIP3    H240188   1.381   2.700   4.213
13411TIP3   OH240189   5.205   0.222   3.684
13411TIP3    H140190   5.270   0.231   3.754
13411TIP3    H240191   5.166   0.309   3.676
13412TIP3   OH240192   3.290   1.249   5.405
13412TIP3    H140193   3.365   1.206   5.446
13412TIP3    H240194   3.295   1.225   5.313
13413TIP3   OH240195   6.299   4.229   6.513
13413TIP3    H140196   6.251   4.311   6.506
13413TIP3    H240197   6.286   4.202   6.604
13414TIP3   OH240198   7.901   3.609   0.350
13414TIP3    H140199   7.844   3.616   0.426
13414TIP3    H240200   7.884   3.689   0.300
13415TIP3   OH240201   2.680   6.760   0.334
13415TIP3    H140202   2.590   6.770   0.367
13415TIP3    H240203   2.670   6.707   0.255
13416TIP3   OH240204   5.003   5.237   0.936
13416TIP3    H140205   5.039   5.322   0.962
13416TIP3    H240206   4.922   5.258   0.891
13417TIP3   OH240207   5.631   4.205   2.149
13417TIP3    H140208   5.699   4.243   2.093
13417TIP3    H240209   5.601   4.127   2.102
13418TIP3   OH240210   1.586   4.573   2.107
13418TIP3    H140211   1.577   4.659   2.147
13418TIP3    H240212   1.498   4.536   2.108
13419TIP3   OH240213   5.377   3.505   5.591
13419TIP3    H140214   5.377   3.584   5.645
13419TIP3    H240215   5.320   3.526   5.517
13420TIP3   OH240216   7.504   1.755   4.560
13420TIP3    H140217   7.549   1.728   4.640
13420TIP3    H240218   7.449   1.680   4.538
13421TIP3   OH240219   3.432   1.472   2.497
13421TIP3    H140220   3.513   1.427   2.472
13421TIP3    H240221   3.371   1.454   2.425
13422TIP3   OH240222   5.747   4.854   0.861
13422TIP3    H140223   5.787   4.830   0.778
13422TIP3    H240224   5.657   4.821   0.855
13423TIP3   OH240225   0.621   4.875   5.774
13423TIP3    H140226   0.565   4.798   5.783
13423TIP3    H240227   0.570   4.935   5.719
13424TIP3   OH240228   2.752   5.829   3.207
13424TIP3    H140229   2.660   5.811   3.189
13424TIP3    H240230   2.752   5.912   3.255
13425TIP3   OH240231   7.213   2.612   6.054
13425TIP3    H140232   7.282   2.635   6.117
13425TIP3    H240233   7.133   2.650   6.092
13426TIP3   OH240234   0.027   5.163   6.548
13426TIP3    H140235   0.103   5.104   6.548
13426TIP3    H240236  -0.049   5.105   6.549
13427TIP3   OH240237   5.262   0.288   4.062
13427TIP3    H140238   5.293   0.232   3.990
13427TIP3    H240239   5.210   0.229   4.117
13428TIP3   OH240240   4.499   2.345   5.832
13428TIP3    H140241   4.423   2.381   5.878
13428TIP3    H240242   4.538   2.421   5.788
13429TIP3   OH240243   6.159   2.220   3.929
13429TIP3    H140244   6.188   2.130   3.942
13429TIP3    H240245   6.064   2.218   3.942
13430TIP3   OH240246   0.756   7.426   0.997
13430TIP3    H140247   0.786   7.336   0.981
13430TIP3    H240248   0.702   7.447   0.920
13431TIP3   OH240249   7.289   3.744   0.374
13431TIP3    H140250   7.364   3.697   0.410
13431TIP3    H240251   7.317   3.836   0.372
13432TIP3   OH240252   7.543   4.007   1.355
13432TIP3    H140253   7.584   4.067   1.417
13432TIP3    H240254   7.603   4.002   1.281
13433TIP3   OH240255   0.300   1.547   1.890
13433TIP3    H140256   0.269   1.616   1.831
13433TIP3    H240257   0.386   1.577   1.919
13434TIP3   OH240258   3.219   0.534   3.962
13434TIP3    H140259   3.246   0.458   4.012
13434TIP3    H240260   3.127   0.547   3.986
13435TIP3   OH240261   2.214   2.813   4.526
13435TIP3    H140262   2.272   2.832   4.600
13435TIP3    H240263   2.152   2.748   4.560
13436TIP3   OH240264   4.826   7.629   5.994
13436TIP3    H140265   4.794   7.666   6.077
13436TIP3    H240266   4.805   7.535   6.001
13437TIP3   OH240267   1.215   3.089   4.523
13437TIP3    H140268   1.183   3.101   4.434
13437TIP3    H240269   1.229   2.995   4.531
13438TIP3   OH240270   8.212   1.135   4.794
13438TIP3    H140271   8.221   1.185   4.714
13438TIP3    H240272   8.258   1.186   4.861
13439TIP3   OH240273   4.375   4.033   4.176
13439TIP3    H140274   4.347   4.119   4.207
13439TIP3    H240275   4.321   3.971   4.226
13440TIP3   OH240276   8.016   1.801   3.029
13440TIP3    H140277   8.071   1.868   3.069
13440TIP3    H240278   7.928   1.821   3.061
13441TIP3   OH240279   6.906   0.670   0.851
13441TIP3    H140280   6.866   0.593   0.892
13441TIP3    H240281   6.885   0.742   0.910
13442TIP3   OH240282   7.023   3.739   3.841
13442TIP3    H140283   7.075   3.705   3.914
13442TIP3    H240284   6.939   3.693   3.849
13443TIP3   OH240285   2.876   2.152   6.023
13443TIP3    H140286   2.948   2.151   6.086
13443TIP3    H240287   2.832   2.068   6.036
13444TIP3   OH240288   5.850   6.108   1.428
13444TIP3    H140289   5.923   6.066   1.383
13444TIP3    H240290   5.883   6.195   1.452
13445TIP3   OH240291   8.196   3.750   2.376
13445TIP3    H140292   8.179   3.820   2.313
13445TIP3    H240293   8.162   3.671   2.334
13446TIP3   OH240294   6.351   0.250   6.211
13446TIP3    H140295   6.308   0.170   6.243
13446TIP3    H240296   6.293   0.282   6.142
13447TIP3   OH240297   2.329   7.522   0.808
13447TIP3    H140298   2.373   7.519   0.723
13447TIP3    H240299   2.387   7.575   0.863
13448TIP3   OH240300   4.340   2.960   5.201
13448TIP3    H140301   4.294   2.993   5.123
13448TIP3    H240302   4.382   3.038   5.238
13449TIP3   OH240303   2.555   5.882   0.720
13449TIP3    H140304   2.644   5.915   0.708
13449TIP3    H240305   2.564   5.788   0.729
13450TIP3   OH240306   4.220   7.000   3.270
13450TIP3    H140307   4.247   7.029   3.183
13450TIP3    H240308   4.170   7.073   3.305
13451TIP3   OH240309   1.190   3.912   1.694
13451TIP3    H140310   1.256   3.882   1.632
13451TIP3    H240311   1.229   3.990   1.734
13452TIP3   OH240312   1.694   3.305   0.311
13452TIP3    H140313   1.669   3.240   0.245
13452TIP3    H240314   1.612   3.346   0.337
13453TIP3   OH240315   6.944   2.962   6.158
13453TIP3    H140316   6.897   2.984   6.078
13453TIP3    H240317   7.023   3.017   6.155
13454TIP3   OH240318   6.733   0.848   5.195
13454TIP3    H140319   6.747   0.768   5.246
13454TIP3    H240320   6.775   0.830   5.110
13455TIP3   OH240321   1.539   4.622   0.584
13455TIP3    H140322   1.598   4.640   0.511
13455TIP3    H240323   1.503   4.535   0.565
13456TIP3   OH240324   3.645   5.930   1.202
13456TIP3    H140325   3.676   5.993   1.266
13456TIP3    H240326   3.632   5.981   1.122
13457TIP3   OH240327   3.696   5.642   5.192
13457TIP3    H140328   3.786   5.675   5.185
13457TIP3    H240329   3.646   5.716   5.226
13458TIP3   OH240330   4.874   4.138   2.582
13458TIP3    H140331   4.807   4.137   2.650
13458TIP3    H240332   4.852   4.214   2.527
13459TIP3   OH240333   6.452   3.960   0.654
13459TIP3    H140334   6.546   3.954   0.669
13459TIP3    H240335   6.416   3.883   0.696
13460TIP3   OH240336   2.872   6.962   0.338
13460TIP3    H140337   2.834   7.045   0.367
13460TIP3    H240338   2.802   6.898   0.350
13461TIP3   OH240339   2.071   6.699   4.110
13461TIP3    H140340   2.144   6.733   4.160
13461TIP3    H240341   2.111   6.642   4.044
13462TIP3   OH240342   8.219   6.053   5.708
13462TIP3    H140343   8.310   6.039   5.685
13462TIP3    H240344   8.211   6.021   5.798
13463TIP3   OH240345   0.379   5.258   6.317
13463TIP3    H140346   0.468   5.228   6.333
13463TIP3    H240347   0.388   5.351   6.296
13464TIP3   OH240348   8.245   1.661   3.093
13464TIP3    H140349   8.158   1.696   3.074
13464TIP3    H240350   8.264   1.604   3.018
13465TIP3   OH240351   1.768   6.443   2.789
13465TIP3    H140352   1.757   6.513   2.725
13465TIP3    H240353   1.851   6.463   2.832
13466TIP3   OH240354   3.758   4.059   5.892
13466TIP3    H140355   3.810   4.084   5.815
13466TIP3    H240356   3.824   4.034   5.957
13467TIP3   OH240357   2.347   4.926   2.010
13467TIP3    H140358   2.342   4.985   2.085
13467TIP3    H240359   2.317   4.978   1.936
13468TIP3   OH240360   3.568   7.485   1.517
13468TIP3    H140361   3.484   7.453   1.551
13468TIP3    H240362   3.568   7.578   1.538
13469TIP3   OH240363   4.150   6.495   2.005
13469TIP3    H140364   4.211   6.560   1.970
13469TIP3    H240365   4.138   6.520   2.097
13470TIP3   OH240366   6.810   0.228   3.576
13470TIP3    H140367   6.755   0.201   3.650
13470TIP3    H240368   6.807   0.155   3.515
13471TIP3   OH240369   7.009   6.053   6.739
13471TIP3    H140370   7.061   5.987   6.693
13471TIP3    H240371   7.072   6.098   6.795
13472TIP3   OH240372   7.529   6.132   5.590
13472TIP3    H140373   7.463   6.200   5.602
13472TIP3    H240374   7.610   6.179   5.571
13473TIP3   OH240375   0.184   0.977   6.724
13473TIP3    H140376   0.239   0.913   6.769
13473TIP3    H240377   0.184   1.053   6.783
13474TIP3   OH240378   5.718   1.331   3.842
13474TIP3    H140379   5.794   1.385   3.822
13474TIP3    H240380   5.754   1.243   3.854
13475TIP3   OH240381   3.156   3.122   2.634
13475TIP3    H140382   3.234   3.115   2.578
13475TIP3    H240383   3.106   3.194   2.596
13476TIP3   OH240384   1.805   3.168   2.025
13476TIP3    H140385   1.710   3.181   2.029
13476TIP3    H240386   1.831   3.155   2.115
13477TIP3   OH240387   5.974   7.106   5.475
13477TIP3    H140388   6.038   7.110   5.404
13477TIP3    H240389   6.024   7.128   5.554
13478TIP3   OH240390   0.312   1.271   2.182
13478TIP3    H140391   0.314   1.213   2.106
13478TIP3    H240392   0.237   1.329   2.165
13479TIP3   OH240393   2.732   4.212   4.832
13479TIP3    H140394   2.800   4.180   4.891
13479TIP3    H240395   2.729   4.306   4.847
13480TIP3   OH240396   5.244   6.751   0.237
13480TIP3    H140397   5.256   6.691   0.163
13480TIP3    H240398   5.331   6.760   0.275
13481TIP3   OH240399   5.339   5.591   2.543
13481TIP3    H140400   5.299   5.554   2.621
13481TIP3    H240401   5.423   5.545   2.534
13482TIP3   OH240402   1.568   6.219   1.917
13482TIP3    H140403   1.647   6.249   1.872
13482TIP3    H240404   1.578   6.250   2.007
13483TIP3   OH240405   7.992   3.134   6.171
13483TIP3    H140406   8.084   3.140   6.142
13483TIP3    H240407   7.996   3.081   6.251
13484TIP3   OH240408   2.641   5.132   2.061
13484TIP3    H140409   2.701   5.060   2.076
13484TIP3    H240410   2.633   5.138   1.966
13485TIP3   OH240411   4.532   4.168   2.103
13485TIP3    H140412   4.626   4.151   2.111
13485TIP3    H240413   4.495   4.086   2.070
13486TIP3   OH240414   4.495   5.838   5.704
13486TIP3    H140415   4.580   5.877   5.725
13486TIP3    H240416   4.499   5.821   5.610
13487TIP3   OH240417   0.021   6.476   4.422
13487TIP3    H140418   0.038   6.547   4.484
13487TIP3    H240419  -0.044   6.511   4.361
13488TIP3   OH240420   5.396   4.652   4.401
13488TIP3    H140421   5.404   4.686   4.491
13488TIP3    H240422   5.466   4.588   4.393
13489TIP3   OH240423   2.246   7.396   5.785
13489TIP3    H140424   2.321   7.356   5.741
13489TIP3    H240425   2.236   7.346   5.866
13490TIP3   OH240426   1.399   6.334   5.864
13490TIP3    H140427   1.477   6.318   5.917
13490TIP3    H240428   1.427   6.315   5.774
13491TIP3   OH240429   0.239   2.726   5.756
13491TIP3    H140430   0.240   2.722   5.660
13491TIP3    H240431   0.207   2.640   5.783
13492TIP3   OH240432   3.216   3.488   6.277
13492TIP3    H140433   3.256   3.522   6.197
13492TIP3    H240434   3.255   3.401   6.288
13493TIP3   OH240435   4.368   1.250   4.523
13493TIP3    H140436   4.368   1.164   4.566
13493TIP3    H240437   4.384   1.230   4.430
13494TIP3   OH240438   3.546   1.427   1.100
13494TIP3    H140439   3.628   1.419   1.150
13494TIP3    H240440   3.562   1.377   1.020
13495TIP3   OH240441   1.678   3.072   5.641
13495TIP3    H140442   1.674   3.143   5.576
13495TIP3    H240443   1.594   3.027   5.632
13496TIP3   OH240444   4.967   3.725   4.426
13496TIP3    H140445   4.953   3.684   4.341
13496TIP3    H240446   5.028   3.797   4.407
13497TIP3   OH240447   1.109   2.838   2.829
13497TIP3    H140448   1.176   2.905   2.824
13497TIP3    H240449   1.146   2.770   2.886
13498TIP3   OH240450   5.122   6.404   6.175
13498TIP3    H140451   5.169   6.358   6.245
13498TIP3    H240452   5.147   6.496   6.185
13499TIP3   OH240453   6.871   3.729   5.052
13499TIP3    H140454   6.800   3.756   5.110
13499TIP3    H240455   6.927   3.673   5.106
13500TIP3   OH240456   6.284   4.239   5.215
13500TIP3    H140457   6.232   4.194   5.148
13500TIP3    H240458   6.362   4.269   5.168
13501TIP3   OH240459   3.600   6.534   2.947
13501TIP3    H140460   3.611   6.533   3.042
13501TIP3    H240461   3.640   6.452   2.917
13502TIP3   OH240462   2.673   2.939   3.391
13502TIP3    H140463   2.753   2.886   3.393
13502TIP3    H240464   2.689   3.002   3.320
13503TIP3   OH240465   5.377   3.916   5.361
13503TIP3    H140466   5.406   3.990   5.414
13503TIP3    H240467   5.402   3.939   5.271
13504TIP3   OH240468   0.224   1.000   6.244
13504TIP3    H140469   0.302   0.960   6.283
13504TIP3    H240470   0.165   1.014   6.318
13505TIP3   OH240471   4.745   5.977   5.785
13505TIP3    H140472   4.690   6.015   5.854
13505TIP3    H240473   4.776   6.052   5.735
13506TIP3   OH240474   3.623   6.253   2.397
13506TIP3    H140475   3.653   6.337   2.431
13506TIP3    H240476   3.637   6.192   2.470
13507TIP3   OH240477   4.352   3.573   3.602
13507TIP3    H140478   4.366   3.622   3.684
13507TIP3    H240479   4.395   3.489   3.617
13508TIP3   OH240480   1.920   4.234   0.799
13508TIP3    H140481   1.976   4.312   0.804
13508TIP3    H240482   1.884   4.237   0.711
13509TIP3   OH240483   1.901   4.608   5.050
13509TIP3    H140484   1.868   4.663   5.121
13509TIP3    H240485   1.823   4.579   5.004
13510TIP3   OH240486   3.078   6.636   4.971
13510TIP3    H140487   2.987   6.666   4.963
13510TIP3    H240488   3.077   6.546   4.937
13511TIP3   OH240489   7.801   3.896   5.063
13511TIP3    H140490   7.865   3.964   5.088
13511TIP3    H240491   7.855   3.818   5.049
13512TIP3   OH240492   3.455   0.439   1.594
13512TIP3    H140493   3.365   0.435   1.629
13512TIP3    H240494   3.484   0.348   1.593
13513TIP3   OH240495   3.828   7.600   3.727
13513TIP3    H140496   3.753   7.646   3.690
13513TIP3    H240497   3.891   7.669   3.748
13514TIP3   OH240498   0.484   4.960   6.710
13514TIP3    H140499   0.457   4.933   6.797
13514TIP3    H240500   0.450   5.049   6.700
13515TIP3   OH240501   3.454   3.914   2.264
13515TIP3    H140502   3.479   3.866   2.342
13515TIP3    H240503   3.359   3.923   2.271
13516TIP3   OH240504   7.566   4.295   0.635
13516TIP3    H140505   7.549   4.384   0.602
13516TIP3    H240506   7.584   4.307   0.728
13517TIP3   OH240507   3.040   1.029   0.446
13517TIP3    H140508   3.043   1.099   0.381
13517TIP3    H240509   3.089   0.957   0.406
13518TIP3   OH240510   6.069   4.465   5.624
13518TIP3    H140511   6.120   4.395   5.583
13518TIP3    H240512   6.106   4.545   5.587
13519TIP3   OH240513   2.229   3.735   3.388
13519TIP3    H140514   2.247   3.709   3.478
13519TIP3    H240515   2.166   3.807   3.396
13520TIP3   OH240516   4.130   5.698   0.641
13520TIP3    H140517   4.117   5.666   0.730
13520TIP3    H240518   4.130   5.793   0.649
13521TIP3   OH240519   2.059   4.727   4.476
13521TIP3    H140520   2.042   4.691   4.389
13521TIP3    H240521   2.126   4.794   4.462
13522TIP3   OH240522   1.551   1.094   1.156
13522TIP3    H140523   1.636   1.127   1.185
13522TIP3    H240524   1.568   1.050   1.073
13523TIP3   OH240525   0.768   4.075   4.260
13523TIP3    H140526   0.713   4.110   4.330
13523TIP3    H240527   0.857   4.089   4.291
13524TIP3   OH240528   1.840   5.399   4.294
13524TIP3    H140529   1.860   5.424   4.204
13524TIP3    H240530   1.763   5.451   4.316
13525TIP3   OH240531   5.277   3.570   2.343
13525TIP3    H140532   5.259   3.619   2.424
13525TIP3    H240533   5.336   3.499   2.370
13526TIP3   OH240534   7.349   6.425   3.361
13526TIP3    H140535   7.300   6.482   3.302
13526TIP3    H240536   7.294   6.347   3.372
13527TIP3   OH240537   2.743   7.381   4.228
13527TIP3    H140538   2.685   7.308   4.203
13527TIP3    H240539   2.814   7.378   4.165
13528TIP3   OH240540   6.305   0.893   0.835
13528TIP3    H140541   6.360   0.956   0.789
13528TIP3    H240542   6.320   0.810   0.790
13529TIP3   OH240543   7.802   0.937   1.495
13529TIP3    H140544   7.736   0.869   1.483
13529TIP3    H240545   7.796   0.991   1.415
13530TIP3   OH240546   2.886   3.484   3.687
13530TIP3    H140547   2.844   3.554   3.738
13530TIP3    H240548   2.935   3.434   3.751
13531TIP3   OH240549   3.604   5.389   0.658
13531TIP3    H140550   3.588   5.313   0.602
13531TIP3    H240551   3.608   5.352   0.747
13532TIP3   OH240552   1.964   1.738   6.233
13532TIP3    H140553   1.927   1.710   6.149
13532TIP3    H240554   1.988   1.657   6.278
13533TIP3   OH240555   4.877   6.746   3.500
13533TIP3    H140556   4.787   6.778   3.502
13533TIP3    H240557   4.877   6.670   3.558
13534TIP3   OH240558   6.116   3.436   5.229
13534TIP3    H140559   6.053   3.464   5.295
13534TIP3    H240560   6.071   3.452   5.145
13535TIP3   OH240561   2.320   0.819   5.977
13535TIP3    H140562   2.244   0.876   5.969
13535TIP3    H240563   2.385   0.872   6.024
13536TIP3   OH240564   7.272   1.363   3.466
13536TIP3    H140565   7.293   1.270   3.471
13536TIP3    H240566   7.351   1.406   3.500
13537TIP3   OH240567   1.573   7.663   1.438
13537TIP3    H140568   1.482   7.677   1.410
13537TIP3    H240569   1.577   7.705   1.524
13538TIP3   OH240570   5.494   1.143   3.855
13538TIP3    H140571   5.559   1.213   3.851
13538TIP3    H240572   5.530   1.073   3.801
13539TIP3   OH240573   6.157   2.201   6.367
13539TIP3    H140574   6.232   2.175   6.420
13539TIP3    H240575   6.187   2.280   6.321
13540TIP3   OH240576   2.843   0.006   4.093
13540TIP3    H140577   2.857   0.099   4.075
13540TIP3    H240578   2.749  -0.007   4.081
13541TIP3   OH240579   5.837   6.939   1.109
13541TIP3    H140580   5.752   6.901   1.129
13541TIP3    H240581   5.827   7.032   1.129
13542TIP3   OH240582   4.645   0.072   2.536
13542TIP3    H140583   4.648   0.056   2.630
13542TIP3    H240584   4.630  -0.014   2.497
13543TIP3   OH240585   6.387   2.477   5.673
13543TIP3    H140586   6.319   2.410   5.673
13543TIP3    H240587   6.340   2.559   5.681
13544TIP3   OH240588   6.337   3.836   5.303
13544TIP3    H140589   6.251   3.822   5.343
13544TIP3    H240590   6.396   3.849   5.377
13545TIP3   OH240591   1.379   0.062   0.688
13545TIP3    H140592   1.436   0.077   0.612
13545TIP3    H240593   1.326   0.142   0.695
13546TIP3   OH240594   3.821   7.680   0.828
13546TIP3    H140595   3.838   7.618   0.758
13546TIP3    H240596   3.900   7.734   0.832
13547TIP3   OH240597   3.552   6.923   1.408
13547TIP3    H140598   3.522   6.990   1.469
13547TIP3    H240599   3.585   6.971   1.333
13548TIP3   OH240600   4.706   5.541   5.600
13548TIP3    H140601   4.795   5.518   5.628
13548TIP3    H240602   4.650   5.482   5.650
13549TIP3   OH240603   1.041   3.158   4.324
13549TIP3    H140604   0.960   3.114   4.349
13549TIP3    H240605   1.027   3.250   4.346
13550TIP3   OH240606   7.899   0.626   2.299
13550TIP3    H140607   7.919   0.549   2.351
13550TIP3    H240608   7.982   0.648   2.256
13551TIP3   OH240609   5.521   6.311   3.040
13551TIP3    H140610   5.586   6.372   3.004
13551TIP3    H240611   5.437   6.346   3.012
13552TIP3   OH240612   5.613   4.214   1.532
13552TIP3    H140613   5.609   4.131   1.579
13552TIP3    H240614   5.667   4.270   1.587
13553TIP3   OH240615   7.559   2.764   5.546
13553TIP3    H140616   7.475   2.795   5.581
13553TIP3    H240617   7.582   2.827   5.479
13554TIP3   OH240618   6.278   3.534   1.153
13554TIP3    H140619   6.194   3.578   1.139
13554TIP3    H240620   6.340   3.605   1.167
13555TIP3   OH240621   3.674   4.734   0.820
13555TIP3    H140622   3.586   4.752   0.851
13555TIP3    H240623   3.663   4.705   0.730
13556TIP3   OH240624   2.010   2.844   3.103
13556TIP3    H140625   2.098   2.808   3.109
13556TIP3    H240626   2.021   2.939   3.111
13557TIP3   OH240627   6.566   6.689   2.816
13557TIP3    H140628   6.558   6.597   2.790
13557TIP3    H240629   6.636   6.724   2.761
13558TIP3   OH240630   4.510   7.088   3.764
13558TIP3    H140631   4.424   7.131   3.760
13558TIP3    H240632   4.545   7.097   3.675
13559TIP3   OH240633   6.144   0.645   3.932
13559TIP3    H140634   6.110   0.559   3.957
13559TIP3    H240635   6.158   0.638   3.837
13560TIP3   OH240636   1.572   6.017   4.961
13560TIP3    H140637   1.653   6.065   4.947
13560TIP3    H240638   1.569   5.953   4.889
13561TIP3   OH240639   3.937   0.576   2.971
13561TIP3    H140640   3.877   0.531   3.030
13561TIP3    H240641   3.970   0.507   2.913
13562TIP3   OH240642   1.515   7.036   3.099
13562TIP3    H140643   1.479   6.948   3.111
13562TIP3    H240644   1.451   7.094   3.141
13563TIP3   OH240645   3.883   1.223   3.606
13563TIP3    H140646   3.848   1.306   3.639
13563TIP3    H240647   3.977   1.240   3.594
13564TIP3   OH240648   7.649   0.589   5.617
13564TIP3    H140649   7.672   0.619   5.529
13564TIP3    H240650   7.565   0.631   5.635
13565TIP3   OH240651   1.633   1.708   2.008
13565TIP3    H140652   1.644   1.801   2.028
13565TIP3    H240653   1.593   1.706   1.921
13566TIP3   OH240654   3.968   2.610   4.943
13566TIP3    H140655   3.967   2.551   4.868
13566TIP3    H240656   3.919   2.687   4.914
13567TIP3   OH240657   7.260   0.222   2.145
13567TIP3    H140658   7.317   0.203   2.070
13567TIP3    H240659   7.171   0.209   2.111
13568TIP3   OH240660   6.890   5.167   5.332
13568TIP3    H140661   6.901   5.156   5.238
13568TIP3    H240662   6.844   5.251   5.341
13569TIP3   OH240663   1.143   6.936   0.338
13569TIP3    H140664   1.224   6.985   0.322
13569TIP3    H240665   1.088   6.997   0.387
13570TIP3   OH240666   0.138   1.993   4.240
13570TIP3    H140667   0.051   1.959   4.265
13570TIP3    H240668   0.122   2.043   4.160
13571TIP3   OH240669   6.860   1.778   1.136
13571TIP3    H140670   6.940   1.827   1.118
13571TIP3    H240671   6.791   1.827   1.092
13572TIP3   OH240672   6.257   3.420   0.107
13572TIP3    H140673   6.182   3.376   0.149
13572TIP3    H240674   6.332   3.396   0.161
13573TIP3   OH240675   2.375   0.175   3.678
13573TIP3    H140676   2.305   0.111   3.674
13573TIP3    H240677   2.431   0.155   3.603
13574TIP3   OH240678   1.660   6.618   5.020
13574TIP3    H140679   1.608   6.562   5.078
13574TIP3    H240680   1.681   6.562   4.945
13575TIP3   OH240681   3.541   1.789   5.925
13575TIP3    H140682   3.551   1.695   5.941
13575TIP3    H240683   3.610   1.830   5.977
13576TIP3   OH240684   1.554   3.140   6.578
13576TIP3    H140685   1.523   3.152   6.488
13576TIP3    H240686   1.637   3.187   6.582
13577TIP3   OH240687   0.644   2.302   5.235
13577TIP3    H140688   0.579   2.343   5.178
13577TIP3    H240689   0.626   2.337   5.322
13578TIP3   OH240690   3.592   7.594   5.527
13578TIP3    H140691   3.616   7.682   5.553
13578TIP3    H240692   3.551   7.556   5.605
13579TIP3   OH240693   1.169   3.813   0.390
13579TIP3    H140694   1.231   3.885   0.379
13579TIP3    H240695   1.179   3.761   0.311
13580TIP3   OH240696   1.208   6.719   6.169
13580TIP3    H140697   1.208   6.625   6.147
13580TIP3    H240698   1.230   6.763   6.087
13581TIP3   OH240699   4.929   2.362   6.204
13581TIP3    H140700   5.010   2.385   6.158
13581TIP3    H240701   4.860   2.405   6.155
13582TIP3   OH240702   7.309   1.830   0.178
13582TIP3    H140703   7.392   1.877   0.176
13582TIP3    H240704   7.325   1.757   0.239
13583TIP3   OH240705   5.511   4.227   0.503
13583TIP3    H140706   5.579   4.230   0.436
13583TIP3    H240707   5.480   4.136   0.501
13584TIP3   OH240708   4.904   2.002   1.076
13584TIP3    H140709   4.867   2.009   0.988
13584TIP3    H240710   4.995   2.027   1.066
13585TIP3   OH240711   7.686   5.118   2.028
13585TIP3    H140712   7.673   5.106   2.122
13585TIP3    H240713   7.674   5.031   1.991
13586TIP3   OH240714   3.954   4.196   5.695
13586TIP3    H140715   4.018   4.134   5.727
13586TIP3    H240716   3.954   4.185   5.600
13587TIP3   OH240717   8.193   4.447   3.432
13587TIP3    H140718   8.207   4.534   3.395
13587TIP3    H240719   8.116   4.413   3.386
13588TIP3   OH240720   1.306   2.343   0.291
13588TIP3    H140721   1.360   2.423   0.293
13588TIP3    H240722   1.225   2.368   0.334
13589TIP3   OH240723   0.919   0.275   0.024
13589TIP3    H140724   0.846   0.224   0.058
13589TIP3    H240725   0.898   0.287  -0.069
13590TIP3   OH240726   4.037   7.259   1.284
13590TIP3    H140727   4.060   7.180   1.333
13590TIP3    H240728   4.010   7.225   1.198
13591TIP3   OH240729   0.212   2.453   0.929
13591TIP3    H140730   0.130   2.488   0.962
13591TIP3    H240731   0.187   2.380   0.871
13592TIP3   OH240732   0.559   5.753   3.144
13592TIP3    H140733   0.583   5.806   3.068
13592TIP3    H240734   0.479   5.793   3.177
13593TIP3   OH240735   0.554   6.917   1.513
13593TIP3    H140736   0.600   6.921   1.597
13593TIP3    H240737   0.559   6.825   1.487
13594TIP3   OH240738   1.494   4.475   1.065
13594TIP3    H140739   1.499   4.558   1.020
13594TIP3    H240740   1.584   4.458   1.095
13595TIP3   OH240741   5.043   5.333   5.035
13595TIP3    H140742   5.075   5.369   4.953
13595TIP3    H240743   5.081   5.390   5.102
13596TIP3   OH240744   6.426   0.841   1.307
13596TIP3    H140745   6.449   0.833   1.214
13596TIP3    H240746   6.471   0.921   1.336
13597TIP3   OH240747   7.651   5.457   0.197
13597TIP3    H140748   7.710   5.527   0.166
13597TIP3    H240749   7.604   5.497   0.270
13598TIP3   OH240750   0.567   7.090   2.651
13598TIP3    H140751   0.524   7.094   2.736
13598TIP3    H240752   0.612   7.174   2.642
13599TIP3   OH240753   1.395   1.482   3.849
13599TIP3    H140754   1.480   1.519   3.829
13599TIP3    H240755   1.351   1.550   3.901
13600TIP3   OH240756   7.046   5.967   3.178
13600TIP3    H140757   7.061   5.910   3.102
13600TIP3    H240758   6.971   6.021   3.152
13601TIP3   OH240759   2.774   3.767   5.387
13601TIP3    H140760   2.714   3.841   5.389
13601TIP3    H240761   2.720   3.690   5.404
13602TIP3   OH240762   5.191   7.037   3.359
13602TIP3    H140763   5.275   7.083   3.357
13602TIP3    H240764   5.140   7.077   3.289
13603TIP3   OH240765   6.035   2.310   2.912
13603TIP3    H140766   5.977   2.379   2.878
13603TIP3    H240767   6.025   2.238   2.850
13604TIP3   OH240768   3.452   5.669   0.383
13604TIP3    H140769   3.394   5.736   0.346
13604TIP3    H240770   3.404   5.636   0.458
13605TIP3   OH240771   3.155   6.721   2.249
13605TIP3    H140772   3.209   6.688   2.321
13605TIP3    H240773   3.124   6.806   2.279
13606TIP3   OH240774   6.740   3.278   2.974
13606TIP3    H140775   6.820   3.311   3.014
13606TIP3    H240776   6.692   3.356   2.946
13607TIP3   OH240777   7.666   6.363   0.415
13607TIP3    H140778   7.629   6.365   0.503
13607TIP3    H240779   7.591   6.380   0.357
13608TIP3   OH240780   5.497   1.495   1.434
13608TIP3    H140781   5.557   1.567   1.417
13608TIP3    H240782   5.427   1.506   1.370
13609TIP3   OH240783   7.724   2.976   5.757
13609TIP3    H140784   7.715   2.967   5.662
13609TIP3    H240785   7.718   3.070   5.772
13610TIP3   OH240786   3.661   5.902   2.277
13610TIP3    H140787   3.738   5.944   2.315
13610TIP3    H240788   3.627   5.967   2.215
13611TIP3   OH240789   3.100   6.201   0.779
13611TIP3    H140790   3.137   6.250   0.852
13611TIP3    H240791   3.023   6.157   0.816
13612TIP3   OH240792   3.303   5.026   5.337
13612TIP3    H140793   3.306   5.033   5.432
13612TIP3    H240794   3.280   5.114   5.308
13613TIP3   OH240795   3.401   2.178   4.003
13613TIP3    H140796   3.417   2.181   4.098
13613TIP3    H240797   3.427   2.265   3.972
13614TIP3   OH240798   5.871   2.970   1.371
13614TIP3    H140799   5.798   2.932   1.322
13614TIP3    H240800   5.948   2.955   1.316
13615TIP3   OH240801   0.969   4.634   3.701
13615TIP3    H140802   0.961   4.729   3.712
13615TIP3    H240803   0.908   4.613   3.631
13616TIP3   OH240804   0.572   7.328   4.907
13616TIP3    H140805   0.603   7.398   4.964
13616TIP3    H240806   0.647   7.308   4.850
13617TIP3   OH240807   3.925   1.234   4.575
13617TIP3    H140808   3.883   1.227   4.490
13617TIP3    H240809   3.866   1.288   4.627
13618TIP3   OH240810   5.164   1.282   5.686
13618TIP3    H140811   5.255   1.292   5.715
13618TIP3    H240812   5.126   1.369   5.698
13619TIP3   OH240813   5.168   5.756   3.187
13619TIP3    H140814   5.238   5.709   3.141
13619TIP3    H240815   5.115   5.794   3.117
13620TIP3   OH240816   0.138   5.854   6.335
13620TIP3    H140817   0.173   5.887   6.418
13620TIP3    H240818   0.202   5.790   6.306
13621TIP3   OH240819   2.260   6.693   6.566
13621TIP3    H140820   2.354   6.705   6.581
13621TIP3    H240821   2.228   6.653   6.647
13622TIP3   OH240822   3.898   7.611   3.458
13622TIP3    H140823   3.828   7.581   3.399
13622TIP3    H240824   3.880   7.568   3.541
13623TIP3   OH240825   1.793   6.558   3.194
13623TIP3    H140826   1.705   6.521   3.190
13623TIP3    H240827   1.809   6.572   3.287
13624TIP3   OH240828   1.546   1.892   2.213
13624TIP3    H140829   1.472   1.868   2.158
13624TIP3    H240830   1.565   1.983   2.189
13625TIP3   OH240831   3.145   6.502   5.675
13625TIP3    H140832   3.181   6.557   5.745
13625TIP3    H240833   3.067   6.550   5.646
13626TIP3   OH240834   1.869   3.191   3.669
13626TIP3    H140835   1.947   3.244   3.651
13626TIP3    H240836   1.798   3.255   3.673
13627TIP3   OH240837   4.221   4.823   0.628
13627TIP3    H140838   4.293   4.760   0.631
13627TIP3    H240839   4.246   4.884   0.558
13628TIP3   OH240840   3.385   1.314   1.972
13628TIP3    H140841   3.296   1.331   2.002
13628TIP3    H240842   3.422   1.401   1.957
13629TIP3   OH240843   1.864   6.744   0.122
13629TIP3    H140844   1.820   6.800   0.056
13629TIP3    H240845   1.915   6.682   0.070
13630TIP3   OH240846   6.956   5.431   4.245
13630TIP3    H140847   6.865   5.450   4.221
13630TIP3    H240848   6.949   5.361   4.310
13631TIP3   OH240849   1.236   5.214   0.349
13631TIP3    H140850   1.254   5.187   0.259
13631TIP3    H240851   1.253   5.136   0.401
13632TIP3   OH240852   1.099   0.803   4.660
13632TIP3    H140853   1.186   0.841   4.655
13632TIP3    H240854   1.110   0.712   4.631
13633TIP3   OH240855   3.986   1.563   3.189
13633TIP3    H140856   3.917   1.620   3.154
13633TIP3    H240857   3.987   1.580   3.283
13634TIP3   OH240858   2.853   5.925   5.092
13634TIP3    H140859   2.872   5.935   4.999
13634TIP3    H240860   2.890   5.841   5.116
13635TIP3   OH240861   0.458   4.933   3.475
13635TIP3    H140862   0.518   4.989   3.524
13635TIP3    H240863   0.411   4.884   3.542
13636TIP3   OH240864   4.660   5.817   4.985
13636TIP3    H140865   4.752   5.816   5.010
13636TIP3    H240866   4.658   5.781   4.896
13637TIP3   OH240867   1.555   0.139   3.867
13637TIP3    H140868   1.613   0.065   3.848
13637TIP3    H240869   1.607   0.197   3.921
13638TIP3   OH240870   2.400   2.603   2.483
13638TIP3    H140871   2.406   2.684   2.433
13638TIP3    H240872   2.379   2.631   2.572
13639TIP3   OH240873   2.589   0.460   1.557
13639TIP3    H140874   2.628   0.498   1.636
13639TIP3    H240875   2.537   0.532   1.519
13640TIP3   OH240876   7.796   0.703   3.240
13640TIP3    H140877   7.818   0.724   3.330
13640TIP3    H240878   7.802   0.786   3.194
13641TIP3   OH240879   4.271   0.043   2.058
13641TIP3    H140880   4.358   0.006   2.039
13641TIP3    H240881   4.283   0.137   2.049
13642TIP3   OH240882   5.329   7.342   2.793
13642TIP3    H140883   5.354   7.348   2.886
13642TIP3    H240884   5.384   7.407   2.749
13643TIP3   OH240885   3.408   0.181   5.198
13643TIP3    H140886   3.432   0.272   5.213
13643TIP3    H240887   3.317   0.183   5.171
13644TIP3   OH240888   1.863   3.464   2.896
13644TIP3    H140889   1.849   3.402   2.824
13644TIP3    H240890   1.896   3.543   2.854
13645TIP3   OH240891   7.858   2.506   4.975
13645TIP3    H140892   7.896   2.475   4.893
13645TIP3    H240893   7.896   2.593   4.988
13646TIP3   OH240894   2.637   3.193   6.614
13646TIP3    H140895   2.602   3.138   6.685
13646TIP3    H240896   2.649   3.133   6.541
13647TIP3   OH240897   5.460   3.065   1.710
13647TIP3    H140898   5.499   3.135   1.763
13647TIP3    H240899   5.456   2.990   1.769
13648TIP3   OH240900   6.792   1.307   5.459
13648TIP3    H140901   6.879   1.309   5.420
13648TIP3    H240902   6.776   1.215   5.479
13649TIP3   OH240903   7.333   7.642   6.209
13649TIP3    H140904   7.386   7.574   6.168
13649TIP3    H240905   7.390   7.719   6.209
13650TIP3   OH240906   7.989   3.653   0.962
13650TIP3    H140907   7.946   3.576   0.999
13650TIP3    H240908   8.074   3.621   0.932
13651TIP3   OH240909   1.624   4.433   1.663
13651TIP3    H140910   1.612   4.353   1.612
13651TIP3    H240911   1.702   4.474   1.626
13652TIP3   OH240912   2.573   0.521   6.270
13652TIP3    H140913   2.487   0.555   6.295
13652TIP3    H240914   2.618   0.504   6.353
13653TIP3   OH240915   1.340   3.006   2.760
13653TIP3    H140916   1.426   2.976   2.731
13653TIP3    H240917   1.358   3.078   2.820
13654TIP3   OH240918   1.907   0.436   5.652
13654TIP3    H140919   1.983   0.494   5.659
13654TIP3    H240920   1.916   0.376   5.725
13655TIP3   OH240921   4.275   0.640   4.844
13655TIP3    H140922   4.261   0.733   4.824
13655TIP3    H240923   4.253   0.633   4.937
13656TIP3   OH240924   0.663   3.781   2.601
13656TIP3    H140925   0.650   3.874   2.582
13656TIP3    H240926   0.640   3.772   2.694
13657TIP3   OH240927   4.539   4.156   1.124
13657TIP3    H140928   4.605   4.099   1.163
13657TIP3    H240929   4.563   4.159   1.031
13658TIP3   OH240930   6.801   6.353   2.878
13658TIP3    H140931   6.843   6.272   2.907
13658TIP3    H240932   6.711   6.346   2.910
13659TIP3   OH240933   6.029   7.265   4.725
13659TIP3    H140934   6.010   7.172   4.741
13659TIP3    H240935   6.014   7.307   4.809
13660TIP3   OH240936   2.621   0.604   0.564
13660TIP3    H140937   2.549   0.559   0.608
13660TIP3    H240938   2.637   0.551   0.485
13661TIP3   OH240939   0.442   3.317   5.577
13661TIP3    H140940   0.415   3.327   5.668
13661TIP3    H240941   0.466   3.224   5.570
13662TIP3   OH240942   8.058   6.460   4.237
13662TIP3    H140943   8.062   6.436   4.145
13662TIP3    H240944   8.034   6.552   4.237
13663TIP3   OH240945   2.490   3.682   3.260
13663TIP3    H140946   2.459   3.610   3.205
13663TIP3    H240947   2.410   3.727   3.288
13664TIP3   OH240948   2.652   5.729   4.747
13664TIP3    H140949   2.667   5.658   4.809
13664TIP3    H240950   2.568   5.766   4.772
13665TIP3   OH240951   8.152   2.180   1.378
13665TIP3    H140952   8.247   2.167   1.382
13665TIP3    H240953   8.116   2.104   1.423
13666TIP3   OH240954   3.304   4.562   3.419
13666TIP3    H140955   3.279   4.594   3.332
13666TIP3    H240956   3.280   4.469   3.418
13667TIP3   OH240957   0.718   0.334   3.166
13667TIP3    H140958   0.693   0.407   3.109
13667TIP3    H240959   0.638   0.314   3.216
13668TIP3   OH240960   3.215   6.416   1.965
13668TIP3    H140961   3.247   6.506   1.978
13668TIP3    H240962   3.134   6.427   1.915
13669TIP3   OH240963   7.526   6.539   2.043
13669TIP3    H140964   7.475   6.501   2.114
13669TIP3    H240965   7.555   6.463   1.991
13670TIP3   OH240966   4.123   4.805   3.958
13670TIP3    H140967   4.037   4.776   3.929
13670TIP3    H240968   4.180   4.791   3.881
13671TIP3   OH240969   7.550   1.085   4.219
13671TIP3    H140970   7.501   1.110   4.298
13671TIP3    H240971   7.625   1.145   4.217
13672TIP3   OH240972   7.961   4.795   5.782
13672TIP3    H140973   7.888   4.735   5.799
13672TIP3    H240974   7.942   4.831   5.695
13673TIP3   OH240975   5.445   7.326   3.091
13673TIP3    H140976   5.419   7.267   3.162
13673TIP3    H240977   5.374   7.390   3.086
13674TIP3   OH240978   4.485   6.491   2.067
13674TIP3    H140979   4.449   6.430   2.002
13674TIP3    H240980   4.450   6.576   2.042
13675TIP3   OH240981   6.881   5.086   1.419
13675TIP3    H140982   6.943   5.014   1.407
13675TIP3    H240983   6.862   5.116   1.330
13676TIP3   OH240984   0.771   2.703   1.470
13676TIP3    H140985   0.689   2.662   1.496
13676TIP3    H240986   0.756   2.732   1.380
13677TIP3   OH240987   1.107   5.003   3.254
13677TIP3    H140988   1.178   4.974   3.311
13677TIP3    H240989   1.045   5.046   3.312
13678TIP3   OH240990   2.642   3.111   4.361
13678TIP3    H140991   2.590   3.180   4.319
13678TIP3    H240992   2.730   3.122   4.326
13679TIP3   OH240993   3.389   6.961   1.856
13679TIP3    H140994   3.364   6.980   1.766
13679TIP3    H240995   3.307   6.963   1.905
13680TIP3   OH240996   0.294   4.769   6.397
13680TIP3    H140997   0.366   4.805   6.345
13680TIP3    H240998   0.217   4.781   6.342
13681TIP3   OH240999   7.735   0.379   1.156
13681TIP3    H141000   7.678   0.374   1.232
13681TIP3    H241001   7.693   0.443   1.099
13682TIP3   OH241002   2.977   2.051   2.144
13682TIP3    H141003   3.045   2.022   2.084
13682TIP3    H241004   3.002   2.140   2.169
13683TIP3   OH241005   7.359   7.670   0.394
13683TIP3    H141006   7.448   7.694   0.420
13683TIP3    H241007   7.332   7.603   0.458
13684TIP3   OH241008   3.948   4.831   5.954
13684TIP3    H141009   3.996   4.857   5.875
13684TIP3    H241010   3.862   4.803   5.922
13685TIP3   OH241011   7.293   6.377   6.736
13685TIP3    H141012   7.201   6.399   6.724
13685TIP3    H241013   7.292   6.303   6.798
13686TIP3   OH241014   0.035   2.072   4.924
13686TIP3    H141015   0.046   2.067   5.019
13686TIP3    H241016  -0.055   2.104   4.912
13687TIP3   OH241017   1.802   1.822   2.929
13687TIP3    H141018   1.819   1.741   2.882
13687TIP3    H241019   1.737   1.799   2.996
13688TIP3   OH241020   5.497   3.275   4.359
13688TIP3    H141021   5.527   3.289   4.449
13688TIP3    H241022   5.439   3.349   4.341
13689TIP3   OH241023   7.945   2.660   1.033
13689TIP3    H141024   7.876   2.618   1.084
13689TIP3    H241025   7.988   2.588   0.986
13690TIP3   OH241026   5.855   6.079   0.354
13690TIP3    H141027   5.792   6.010   0.373
13690TIP3    H241028   5.903   6.047   0.278
13691TIP3   OH241029   0.627   2.356   5.625
13691TIP3    H141030   0.565   2.316   5.687
13691TIP3    H241031   0.616   2.450   5.637
13692TIP3   OH241032   6.701   2.192   2.685
13692TIP3    H141033   6.634   2.220   2.747
13692TIP3    H241034   6.719   2.270   2.632
13693TIP3   OH241035   2.312   6.185   1.957
13693TIP3    H141036   2.336   6.268   1.998
13693TIP3    H241037   2.386   6.165   1.899
13694TIP3   OH241038   7.800   0.635   6.438
13694TIP3    H141039   7.747   0.578   6.494
13694TIP3    H241040   7.859   0.680   6.499
13695TIP3   OH241041   2.305   5.001   3.758
13695TIP3    H141042   2.290   5.057   3.681
13695TIP3    H241043   2.397   4.977   3.753
13696TIP3   OH241044   4.495   7.237   2.744
13696TIP3    H141045   4.537   7.158   2.710
13696TIP3    H241046   4.401   7.223   2.730
13697TIP3   OH241047   0.724   0.913   6.235
13697TIP3    H141048   0.696   0.856   6.164
13697TIP3    H241049   0.647   0.966   6.256
13698TIP3   OH241050   1.450   0.621   2.207
13698TIP3    H141051   1.459   0.545   2.150
13698TIP3    H241052   1.508   0.603   2.282
13699TIP3   OH241053   2.269   0.879   6.354
13699TIP3    H141054   2.316   0.934   6.291
13699TIP3    H241055   2.183   0.866   6.315
13700TIP3   OH241056   4.383   0.975   3.642
13700TIP3    H141057   4.325   0.973   3.566
13700TIP3    H241058   4.445   0.904   3.626
13701TIP3   OH241059   1.122   3.522   2.095
13701TIP3    H141060   1.040   3.539   2.141
13701TIP3    H241061   1.141   3.604   2.049
13702TIP3   OH241062   0.426   6.713   4.935
13702TIP3    H141063   0.496   6.658   4.971
13702TIP3    H241064   0.406   6.672   4.850
13703TIP3   OH241065   4.499   4.860   6.320
13703TIP3    H141066   4.528   4.860   6.229
13703TIP3    H241067   4.523   4.946   6.353
13704TIP3   OH241068   5.365   4.352   3.208
13704TIP3    H141069   5.400   4.264   3.192
13704TIP3    H241070   5.275   4.336   3.238
13705TIP3   OH241071   1.224   6.542   2.295
13705TIP3    H141072   1.212   6.601   2.220
13705TIP3    H241073   1.317   6.523   2.297
13706TIP3   OH241074   6.394   2.763   0.363
13706TIP3    H141075   6.394   2.677   0.405
13706TIP3    H241076   6.377   2.825   0.434
13707TIP3   OH241077   2.871   6.791   1.846
13707TIP3    H141078   2.807   6.816   1.780
13707TIP3    H241079   2.955   6.820   1.810
13708TIP3   OH241080   5.316   7.094   1.748
13708TIP3    H141081   5.411   7.105   1.749
13708TIP3    H241082   5.301   7.010   1.704
13709TIP3   OH241083   1.637   5.377   2.062
13709TIP3    H141084   1.574   5.305   2.071
13709TIP3    H241085   1.582   5.454   2.044
13710TIP3   OH241086   7.853   1.403   2.720
13710TIP3    H141087   7.869   1.421   2.627
13710TIP3    H241088   7.842   1.308   2.725
13711TIP3   OH241089   1.409   6.902   4.442
13711TIP3    H141090   1.453   6.979   4.406
13711TIP3    H241091   1.463   6.877   4.517
13712TIP3   OH241092   4.433   4.473   6.398
13712TIP3    H141093   4.393   4.416   6.464
13712TIP3    H241094   4.486   4.534   6.449
13713TIP3   OH241095   4.090   4.689   0.825
13713TIP3    H141096   4.148   4.614   0.839
13713TIP3    H241097   4.120   4.728   0.743
13714TIP3   OH241098   7.910   4.245   5.790
13714TIP3    H141099   7.911   4.249   5.886
13714TIP3    H241100   7.824   4.281   5.766
13715TIP3   OH241101   3.906   1.036   3.018
13715TIP3    H141102   3.968   0.966   2.996
13715TIP3    H241103   3.919   1.102   2.950
13716TIP3   OH241104   3.992   7.181   5.120
13716TIP3    H141105   3.899   7.167   5.104
13716TIP3    H241106   4.009   7.138   5.204
13717TIP3   OH241107   5.067   0.655   4.137
13717TIP3    H141108   5.016   0.574   4.140
13717TIP3    H241109   5.067   0.686   4.228
13718TIP3   OH241110   8.075   7.393   2.769
13718TIP3    H141111   8.144   7.452   2.739
13718TIP3    H241112   8.035   7.438   2.843
13719TIP3   OH241113   6.600   1.161   1.904
13719TIP3    H141114   6.567   1.133   1.818
13719TIP3    H241115   6.594   1.257   1.902
13720TIP3   OH241116   0.196   6.902   3.597
13720TIP3    H141117   0.206   6.982   3.648
13720TIP3    H241118   0.286   6.875   3.576
13721TIP3   OH241119   0.750   1.673   6.764
13721TIP3    H141120   0.751   1.602   6.699
13721TIP3    H241121   0.823   1.652   6.822
13722TIP3   OH241122   2.792   0.276   0.674
13722TIP3    H141123   2.698   0.291   0.661
13722TIP3    H241124   2.799   0.183   0.692
13723TIP3   OH241125   3.396   5.231   6.595
13723TIP3    H141126   3.466   5.216   6.532
13723TIP3    H241127   3.337   5.156   6.583
13724TIP3   OH241128   7.376   2.659   3.410
13724TIP3    H141129   7.382   2.751   3.436
13724TIP3    H241130   7.465   2.626   3.419
13725TIP3   OH241131   8.204   1.140   6.269
13725TIP3    H141132   8.129   1.107   6.318
13725TIP3    H241133   8.230   1.067   6.213
13726TIP3   OH241134   0.279   1.929   4.983
13726TIP3    H141135   0.207   1.970   5.031
13726TIP3    H241136   0.262   1.950   4.891
13727TIP3   OH241137   5.252   4.104   1.075
13727TIP3    H141138   5.298   4.121   0.993
13727TIP3    H241139   5.194   4.179   1.086
13728TIP3   OH241140   4.703   5.434   4.026
13728TIP3    H141141   4.780   5.380   4.048
13728TIP3    H241142   4.628   5.380   4.050
13729TIP3   OH241143   2.065   7.235   3.669
13729TIP3    H141144   2.018   7.290   3.732
13729TIP3    H241145   2.061   7.284   3.587
13730TIP3   OH241146   1.988   7.683   2.140
13730TIP3    H141147   1.976   7.640   2.055
13730TIP3    H241148   2.076   7.719   2.136
13731TIP3   OH241149   0.170   0.245   1.183
13731TIP3    H141150   0.109   0.232   1.110
13731TIP3    H241151   0.246   0.192   1.160
13732TIP3   OH241152   4.923   5.280   5.616
13732TIP3    H141153   4.928   5.337   5.539
13732TIP3    H241154   4.924   5.340   5.690
13733TIP3   OH241155   2.110   2.550   6.050
13733TIP3    H141156   2.073   2.484   5.991
13733TIP3    H241157   2.034   2.585   6.096
13734TIP3   OH241158   3.574   3.691   0.134
13734TIP3    H141159   3.596   3.608   0.177
13734TIP3    H241160   3.600   3.679   0.043
13735TIP3   OH241161   7.176   1.234   4.776
13735TIP3    H141162   7.100   1.278   4.815
13735TIP3    H241163   7.144   1.145   4.757
13736TIP3   OH241164   4.142   1.931   5.356
13736TIP3    H141165   4.176   1.925   5.267
13736TIP3    H241166   4.147   2.025   5.377
13737TIP3   OH241167   8.198   3.657   6.168
13737TIP3    H141168   8.238   3.571   6.155
13737TIP3    H241169   8.258   3.702   6.227
13738TIP3   OH241170   1.279   7.254   4.489
13738TIP3    H141171   1.232   7.337   4.494
13738TIP3    H241172   1.365   7.273   4.525
13739TIP3   OH241173   0.699   4.142   1.502
13739TIP3    H141174   0.671   4.215   1.557
13739TIP3    H241175   0.788   4.165   1.474
13740TIP3   OH241176   0.348   4.662   4.717
13740TIP3    H141177   0.443   4.655   4.706
13740TIP3    H241178   0.334   4.645   4.810
13741TIP3   OH241179   2.430   5.471   5.649
13741TIP3    H141180   2.495   5.513   5.592
13741TIP3    H241181   2.385   5.408   5.592
13742TIP3   OH241182   8.078   3.818   1.851
13742TIP3    H141183   8.038   3.732   1.845
13742TIP3    H241184   8.113   3.822   1.940
13743TIP3   OH241185   7.816   3.821   5.906
13743TIP3    H141186   7.754   3.894   5.910
13743TIP3    H241187   7.894   3.858   5.865
13744TIP3   OH241188   3.992   6.975   6.211
13744TIP3    H141189   3.938   6.997   6.135
13744TIP3    H241190   4.071   6.937   6.173
13745TIP3   OH241191   1.220   0.185   5.023
13745TIP3    H141192   1.290   0.158   4.963
13745TIP3    H241193   1.181   0.262   4.981
13746TIP3   OH241194   1.366   2.084   5.462
13746TIP3    H141195   1.392   2.042   5.544
13746TIP3    H241196   1.273   2.103   5.474
13747TIP3   OH241197   6.750   6.181   1.606
13747TIP3    H141198   6.699   6.192   1.687
13747TIP3    H241199   6.690   6.137   1.546
13748TIP3   OH241200   6.868   6.157   0.045
13748TIP3    H141201   6.950   6.151   0.094
13748TIP3    H241202   6.849   6.067   0.020
13749TIP3   OH241203   7.919   3.638   2.015
13749TIP3    H141204   7.868   3.558   2.029
13749TIP3    H241205   7.916   3.683   2.100
13750TIP3   OH241206   8.252   6.939   0.422
13750TIP3    H141207   8.276   6.866   0.479
13750TIP3    H241208   8.227   7.009   0.482
13751TIP3   OH241209   3.299   0.617   0.464
13751TIP3    H141210   3.372   0.610   0.527
13751TIP3    H241211   3.311   0.543   0.405
13752TIP3   OH241212   4.375   1.407   6.478
13752TIP3    H141213   4.363   1.502   6.482
13752TIP3    H241214   4.458   1.391   6.523
13753TIP3   OH241215   5.137   2.962   0.471
13753TIP3    H141216   5.072   2.896   0.446
13753TIP3    H241217   5.097   3.009   0.543
13754TIP3   OH241218   6.632   5.495   0.481
13754TIP3    H141219   6.584   5.422   0.522
13754TIP3    H241220   6.720   5.460   0.467
13755TIP3   OH241221   1.512   1.523   1.398
13755TIP3    H141222   1.461   1.449   1.433
13755TIP3    H241223   1.576   1.482   1.340
13756TIP3   OH241224   5.148   0.789   5.602
13756TIP3    H141225   5.182   0.849   5.668
13756TIP3    H241226   5.192   0.816   5.521
13757TIP3   OH241227   1.194   1.461   6.019
13757TIP3    H141228   1.158   1.469   6.107
13757TIP3    H241229   1.172   1.372   5.992
13758TIP3   OH241230   3.825   3.120   2.952
13758TIP3    H141231   3.900   3.064   2.932
13758TIP3    H241232   3.750   3.073   2.915
13759TIP3   OH241233   3.158   3.463   5.178
13759TIP3    H141234   3.088   3.498   5.233
13759TIP3    H241235   3.185   3.537   5.124
13760TIP3   OH241236   2.710   5.696   1.059
13760TIP3    H141237   2.672   5.696   0.972
13760TIP3    H241238   2.731   5.605   1.077
13761TIP3   OH241239   0.791   3.074   3.910
13761TIP3    H141240   0.703   3.041   3.890
13761TIP3    H241241   0.780   3.169   3.920
13762TIP3   OH241242   3.077   5.174   4.619
13762TIP3    H141243   3.130   5.106   4.659
13762TIP3    H241244   3.051   5.138   4.534
13763TIP3   OH241245   0.902   0.843   0.932
13763TIP3    H141246   0.872   0.752   0.931
13763TIP3    H241247   0.923   0.861   1.024
13764TIP3   OH241248   6.685   7.377   6.513
13764TIP3    H141249   6.765   7.326   6.508
13764TIP3    H241250   6.690   7.421   6.597
13765TIP3   OH241251   2.859   4.964   0.315
13765TIP3    H141252   2.894   5.024   0.250
13765TIP3    H241253   2.822   5.020   0.383
13766TIP3   OH241254   2.094   4.244   1.461
13766TIP3    H141255   2.172   4.294   1.433
13766TIP3    H241256   2.130   4.167   1.504
13767TIP3   OH241257   1.914   0.068   6.658
13767TIP3    H141258   1.871   0.056   6.573
13767TIP3    H241259   1.959   0.152   6.650
13768TIP3   OH241260   0.915   4.286   1.316
13768TIP3    H141261   0.907   4.238   1.233
13768TIP3    H241262   0.918   4.378   1.290
13769TIP3   OH241263   6.811   1.992   6.047
13769TIP3    H141264   6.839   1.954   6.130
13769TIP3    H241265   6.850   1.936   5.981
13770TIP3   OH241266   7.495   4.008   4.104
13770TIP3    H141267   7.426   4.046   4.158
13770TIP3    H241268   7.565   4.072   4.104
13771TIP3   OH241269   6.716   1.238   5.090
13771TIP3    H141270   6.734   1.176   5.020
13771TIP3    H241271   6.800   1.277   5.110
13772TIP3   OH241272   1.912   1.218   0.519
13772TIP3    H141273   1.903   1.308   0.487
13772TIP3    H241274   1.822   1.190   0.536
13773TIP3   OH241275   5.283   3.677   2.795
13773TIP3    H141276   5.300   3.634   2.879
13773TIP3    H241277   5.192   3.707   2.802
13774TIP3   OH241278   5.067   7.773   6.080
13774TIP3    H141279   5.006   7.778   6.006
13774TIP3    H241280   5.038   7.843   6.139
13775TIP3   OH241281   6.842   1.408   5.749
13775TIP3    H141282   6.810   1.441   5.833
13775TIP3    H241283   6.764   1.375   5.704
13776TIP3   OH241284   4.820   0.291   4.525
13776TIP3    H141285   4.914   0.302   4.508
13776TIP3    H241286   4.816   0.240   4.606
13777TIP3   OH241287   5.766   2.396   4.882
13777TIP3    H141288   5.816   2.477   4.867
13777TIP3    H241289   5.677   2.426   4.901
13778TIP3   OH241290   4.276   3.436   5.289
13778TIP3    H141291   4.344   3.369   5.295
13778TIP3    H241292   4.302   3.502   5.354
13779TIP3   OH241293   2.953   7.289   5.064
13779TIP3    H141294   3.038   7.267   5.026
13779TIP3    H241295   2.950   7.385   5.062
13780TIP3   OH241296   2.546   4.107   3.746
13780TIP3    H141297   2.587   4.054   3.814
13780TIP3    H241298   2.618   4.161   3.712
13781TIP3   OH241299   6.738   1.780   1.817
13781TIP3    H141300   6.740   1.868   1.854
13781TIP3    H241301   6.649   1.769   1.784
13782TIP3   OH241302   1.134   6.208   4.484
13782TIP3    H141303   1.224   6.177   4.477
13782TIP3    H241304   1.123   6.265   4.408
13783TIP3   OH241305   7.920   6.638   5.888
13783TIP3    H141306   8.000   6.630   5.838
13783TIP3    H241307   7.914   6.558   5.939
13784TIP3   OH241308   0.950   5.430   3.166
13784TIP3    H141309   1.023   5.381   3.127
13784TIP3    H241310   0.954   5.410   3.259
13785TIP3   OH241311   2.977   2.053   3.247
13785TIP3    H141312   2.894   2.077   3.290
13785TIP3    H241313   2.959   1.969   3.206
13786TIP3   OH241314   5.076   4.663   1.977
13786TIP3    H141315   5.072   4.725   1.905
13786TIP3    H241316   5.165   4.674   2.013
13787TIP3   OH241317   3.123   2.460   0.879
13787TIP3    H141318   3.181   2.465   0.955
13787TIP3    H241319   3.139   2.542   0.832
13788TIP3   OH241320   6.103   7.399   2.576
13788TIP3    H141321   6.109   7.306   2.555
13788TIP3    H241322   6.010   7.419   2.567
13789TIP3   OH241323   3.666   2.704   6.599
13789TIP3    H141324   3.736   2.683   6.537
13789TIP3    H241325   3.635   2.790   6.572
13790TIP3   OH241326   7.741   6.994   0.812
13790TIP3    H141327   7.750   7.022   0.903
13790TIP3    H241328   7.797   6.917   0.805
13791TIP3   OH241329   0.619   4.268   5.372
13791TIP3    H141330   0.570   4.241   5.450
13791TIP3    H241331   0.670   4.343   5.400
13792TIP3   OH241332   7.649   3.425   2.543
13792TIP3    H141333   7.731   3.387   2.511
13792TIP3    H241334   7.593   3.432   2.466
13793TIP3   OH241335   7.932   2.272   3.462
13793TIP3    H141336   7.886   2.335   3.517
13793TIP3    H241337   7.878   2.193   3.466
13794TIP3   OH241338   3.090   4.800   3.719
13794TIP3    H141339   3.162   4.812   3.782
13794TIP3    H241340   3.074   4.706   3.718
13795TIP3   OH241341   8.236   1.900   2.805
13795TIP3    H141342   8.162   1.876   2.861
13795TIP3    H241343   8.204   1.883   2.716
13796TIP3   OH241344   5.251   7.225   5.029
13796TIP3    H141345   5.160   7.252   5.032
13796TIP3    H241346   5.301   7.307   5.024
13797TIP3   OH241347   4.858   6.479   2.208
13797TIP3    H141348   4.924   6.436   2.262
13797TIP3    H241349   4.908   6.525   2.140
13798TIP3   OH241350   1.993   7.101   4.439
13798TIP3    H141351   1.905   7.101   4.475
13798TIP3    H241352   2.041   7.037   4.492
13799TIP3   OH241353   4.545   6.418   2.860
13799TIP3    H141354   4.640   6.417   2.850
13799TIP3    H241355   4.532   6.443   2.952
13800TIP3   OH241356   5.373   3.106   4.918
13800TIP3    H141357   5.366   3.180   4.979
13800TIP3    H241358   5.404   3.033   4.973
13801TIP3   OH241359   6.335   7.692   5.324
13801TIP3    H141360   6.313   7.720   5.413
13801TIP3    H241361   6.397   7.619   5.337
13802TIP3   OH241362   7.775   1.949   4.466
13802TIP3    H141363   7.842   1.918   4.528
13802TIP3    H241364   7.695   1.902   4.492
13803TIP3   OH241365   5.222   3.774   2.515
13803TIP3    H141366   5.208   3.862   2.481
13803TIP3    H241367   5.158   3.765   2.585
13804TIP3   OH241368   4.519   3.291   1.034
13804TIP3    H141369   4.440   3.241   1.054
13804TIP3    H241370   4.522   3.360   1.100
13805TIP3   OH241371   3.057   7.329   6.719
13805TIP3    H141372   3.100   7.395   6.664
13805TIP3    H241373   2.969   7.323   6.682
13806TIP3   OH241374   7.751   5.692   0.086
13806TIP3    H141375   7.757   5.668  -0.007
13806TIP3    H241376   7.703   5.775   0.086
13807TIP3   OH241377   7.949   3.443   4.170
13807TIP3    H141378   7.987   3.370   4.218
13807TIP3    H241379   7.957   3.518   4.229
13808TIP3   OH241380   5.562   6.976   5.516
13808TIP3    H141381   5.596   6.889   5.494
13808TIP3    H241382   5.512   7.002   5.438
13809TIP3   OH241383   5.680   3.843   1.071
13809TIP3    H141384   5.625   3.888   1.135
13809TIP3    H241385   5.752   3.904   1.054
13810TIP3   OH241386   4.096   7.773   1.481
13810TIP3    H141387   4.020   7.734   1.525
13810TIP3    H241388   4.104   7.861   1.519
13811TIP3   OH241389   0.507   4.034   3.834
13811TIP3    H141390   0.565   4.054   3.761
13811TIP3    H241391   0.543   4.083   3.908
13812TIP3   OH241392   1.163   0.278   0.121
13812TIP3    H141393   1.161   0.261   0.215
13812TIP3    H241394   1.072   0.299   0.098
13813TIP3   OH241395   1.561   3.540   4.804
13813TIP3    H141396   1.601   3.562   4.888
13813TIP3    H241397   1.504   3.465   4.823
13814TIP3   OH241398   0.010   2.867   6.213
13814TIP3    H141399  -0.007   2.873   6.119
13814TIP3    H241400   0.096   2.826   6.220
13815TIP3   OH241401   3.092   5.439   2.710
13815TIP3    H141402   3.137   5.358   2.735
13815TIP3    H241403   3.130   5.506   2.767
13816TIP3   OH241404   3.346   4.632   3.147
13816TIP3    H141405   3.318   4.555   3.098
13816TIP3    H241406   3.441   4.627   3.147
13817TIP3   OH241407   3.565   1.801   3.191
13817TIP3    H141408   3.594   1.873   3.247
13817TIP3    H241409   3.492   1.762   3.238
13818TIP3   OH241410   7.714   5.400   3.371
13818TIP3    H141411   7.743   5.380   3.282
13818TIP3    H241412   7.626   5.362   3.376
13819TIP3   OH241413   2.513   7.320   2.055
13819TIP3    H141414   2.543   7.373   1.981
13819TIP3    H241415   2.443   7.266   2.018
13820TIP3   OH241416   6.546   5.326   4.698
13820TIP3    H141417   6.620   5.264   4.693
13820TIP3    H241418   6.514   5.316   4.787
13821TIP3   OH241419   3.047   1.022   5.455
13821TIP3    H141420   3.127   0.970   5.444
13821TIP3    H241421   3.021   1.009   5.546
13822TIP3   OH241422   5.535   1.714   2.216
13822TIP3    H141423   5.472   1.645   2.196
13822TIP3    H241424   5.561   1.698   2.306
13823TIP3   OH241425   4.878   0.361   6.360
13823TIP3    H141426   4.874   0.315   6.276
13823TIP3    H241427   4.964   0.337   6.396
13824TIP3   OH241428   6.054   0.782   2.073
13824TIP3    H141429   6.088   0.839   2.004
13824TIP3    H241430   6.044   0.840   2.149
13825TIP3   OH241431   7.176   6.633   3.849
13825TIP3    H141432   7.265   6.635   3.882
13825TIP3    H241433   7.122   6.667   3.921
13826TIP3   OH241434   2.338   6.547   1.629
13826TIP3    H141435   2.372   6.551   1.718
13826TIP3    H241436   2.410   6.579   1.574
13827TIP3   OH241437   7.938   7.493   0.836
13827TIP3    H141438   7.887   7.419   0.870
13827TIP3    H241439   8.005   7.509   0.902
13828TIP3   OH241440   5.205   4.390   0.423
13828TIP3    H141441   5.261   4.320   0.391
13828TIP3    H241442   5.178   4.437   0.344
13829TIP3   OH241443   0.027   7.608   2.349
13829TIP3    H141444   0.049   7.694   2.313
13829TIP3    H241445   0.066   7.546   2.288
13830TIP3   OH241446   6.432   0.936   4.951
13830TIP3    H141447   6.423   0.940   5.046
13830TIP3    H241448   6.370   0.869   4.923
13831TIP3   OH241449   8.065   2.155   5.604
13831TIP3    H141450   8.006   2.084   5.630
13831TIP3    H241451   8.047   2.224   5.667
13832TIP3   OH241452   4.804   0.057   5.428
13832TIP3    H141453   4.841   0.034   5.342
13832TIP3    H241454   4.784  -0.027   5.469
13833TIP3   OH241455   8.104   4.555   5.393
13833TIP3    H141456   8.154   4.488   5.439
13833TIP3    H241457   8.155   4.576   5.316
13834TIP3   OH241458   5.701   2.042   6.633
13834TIP3    H141459   5.727   1.967   6.687
13834TIP3    H241460   5.780   2.063   6.582
13835TIP3   OH241461   5.614   0.179   3.633
13835TIP3    H141462   5.631   0.272   3.623
13835TIP3    H241463   5.621   0.143   3.545
13836TIP3   OH241464   6.131   5.349   4.004
13836TIP3    H141465   6.127   5.257   3.980
13836TIP3    H241466   6.098   5.396   3.927
13837TIP3   OH241467   1.118   4.966   1.576
13837TIP3    H141468   1.066   4.892   1.545
13837TIP3    H241469   1.107   5.033   1.508
13838TIP3   OH241470   4.172   7.168   5.883
13838TIP3    H141471   4.124   7.191   5.804
13838TIP3    H241472   4.147   7.235   5.946
13839TIP3   OH241473   3.945   5.957   1.142
13839TIP3    H141474   3.906   5.998   1.219
13839TIP3    H241475   3.872   5.910   1.101
13840TIP3   OH241476   7.870   2.331   5.175
13840TIP3    H141477   7.961   2.316   5.201
13840TIP3    H241478   7.873   2.410   5.121
13841TIP3   OH241479   1.018   0.837   1.537
13841TIP3    H141480   0.968   0.768   1.494
13841TIP3    H241481   0.963   0.915   1.531
13842TIP3   OH241482   4.292   4.954   3.056
13842TIP3    H141483   4.240   4.903   3.118
13842TIP3    H241484   4.356   5.000   3.110
13843TIP3   OH241485   2.464   6.573   6.273
13843TIP3    H141486   2.410   6.652   6.269
13843TIP3    H241487   2.407   6.503   6.240
13844TIP3   OH241488   8.088   6.096   3.281
13844TIP3    H141489   8.079   6.000   3.281
13844TIP3    H241490   8.092   6.120   3.189
13845TIP3   OH241491   2.313   4.079   2.631
13845TIP3    H141492   2.404   4.107   2.619
13845TIP3    H241493   2.293   4.029   2.551
13846TIP3   OH241494   1.390   2.205   1.129
13846TIP3    H141495   1.432   2.187   1.045
13846TIP3    H241496   1.308   2.154   1.125
13847TIP3   OH241497   4.920   0.442   1.680
13847TIP3    H141498   4.936   0.371   1.617
13847TIP3    H241499   4.993   0.503   1.666
13848TIP3   OH241500   0.439   5.974   5.329
13848TIP3    H141501   0.462   5.906   5.392
13848TIP3    H241502   0.523   6.013   5.302
13849TIP3   OH241503   8.101   5.910   5.905
13849TIP3    H141504   8.044   5.946   5.973
13849TIP3    H241505   8.112   5.818   5.929
13850TIP3   OH241506   6.166   0.627   3.677
13850TIP3    H141507   6.163   0.642   3.583
13850TIP3    H241508   6.143   0.535   3.688
13851TIP3   OH241509   2.707   1.083   5.919
13851TIP3    H141510   2.796   1.071   5.888
13851TIP3    H241511   2.652   1.070   5.842
13852TIP3   OH241512   7.929   1.895   3.652
13852TIP3    H141513   7.970   1.875   3.567
13852TIP3    H241514   7.863   1.826   3.663
13853TIP3   OH241515   0.164   6.313   4.197
13853TIP3    H141516   0.151   6.379   4.129
13853TIP3    H241517   0.157   6.362   4.279
13854TIP3   OH241518   6.562   4.283   1.746
13854TIP3    H141519   6.634   4.261   1.686
13854TIP3    H241520   6.484   4.284   1.690
13855TIP3   OH241521   6.928   1.210   3.179
13855TIP3    H141522   6.920   1.278   3.246
13855TIP3    H241523   6.969   1.137   3.223
13856TIP3   OH241524   2.896   1.416   4.485
13856TIP3    H141525   2.863   1.362   4.557
13856TIP3    H241526   2.874   1.366   4.406
13857TIP3   OH241527   2.043   4.851   3.770
13857TIP3    H141528   2.111   4.840   3.703
13857TIP3    H241529   2.091   4.866   3.851
13858TIP3   OH241530   0.451   3.492   1.029
13858TIP3    H141531   0.516   3.422   1.035
13858TIP3    H241532   0.422   3.506   1.119
13859TIP3   OH241533   6.471   2.250   4.966
13859TIP3    H141534   6.498   2.236   4.875
13859TIP3    H241535   6.467   2.163   5.004
13860TIP3   OH241536   2.371   3.446   0.930
13860TIP3    H141537   2.464   3.433   0.910
13860TIP3    H241538   2.365   3.538   0.959
13861TIP3   OH241539   0.416   1.694   0.164
13861TIP3    H141540   0.385   1.633   0.232
13861TIP3    H241541   0.450   1.637   0.095
13862TIP3   OH241542   1.299   5.047   4.128
13862TIP3    H141543   1.214   5.011   4.153
13862TIP3    H241544   1.280   5.137   4.102
13863TIP3   OH241545   7.716   2.102   3.426
13863TIP3    H141546   7.656   2.037   3.461
13863TIP3    H241547   7.663   2.182   3.418
13864TIP3   OH241548   7.899   4.619   2.624
13864TIP3    H141549   7.823   4.644   2.678
13864TIP3    H241550   7.869   4.541   2.576
13865TIP3   OH241551   3.439   4.865   4.149
13865TIP3    H141552   3.443   4.935   4.085
13865TIP3    H241553   3.468   4.787   4.101
13866TIP3   OH241554   1.610   6.088   3.900
13866TIP3    H141555   1.566   6.172   3.885
13866TIP3    H241556   1.569   6.053   3.979
13867TIP3   OH241557   2.573   3.679   1.898
13867TIP3    H141558   2.654   3.693   1.947
13867TIP3    H241559   2.519   3.625   1.956
13868TIP3   OH241560   0.907   6.404   1.418
13868TIP3    H141561   0.820   6.385   1.452
13868TIP3    H241562   0.961   6.417   1.496
13869TIP3   OH241563   7.122   1.563   4.415
13869TIP3    H141564   7.162   1.569   4.328
13869TIP3    H241565   7.046   1.621   4.411
13870TIP3   OH241566   6.060   1.055   4.581
13870TIP3    H141567   6.055   1.149   4.597
13870TIP3    H241568   6.136   1.045   4.524
13871TIP3   OH241569   3.440   2.513   1.649
13871TIP3    H141570   3.516   2.571   1.646
13871TIP3    H241571   3.374   2.562   1.700
13872TIP3   OH241572   7.371   2.462   0.653
13872TIP3    H141573   7.385   2.436   0.562
13872TIP3    H241574   7.301   2.527   0.649
13873TIP3   OH241575   1.786   5.196   2.834
13873TIP3    H141576   1.719   5.236   2.779
13873TIP3    H241577   1.741   5.182   2.918
13874TIP3   OH241578   4.152   4.053   0.992
13874TIP3    H141579   4.183   3.969   0.957
13874TIP3    H241580   4.206   4.118   0.947
13875TIP3   OH241581   6.880   0.817   3.450
13875TIP3    H141582   6.941   0.745   3.438
13875TIP3    H241583   6.907   0.859   3.532
13876TIP3   OH241584   4.645   5.265   3.597
13876TIP3    H141585   4.653   5.190   3.657
13876TIP3    H241586   4.636   5.341   3.655
13877TIP3   OH241587   4.396   7.319   5.529
13877TIP3    H141588   4.455   7.248   5.501
13877TIP3    H241589   4.308   7.280   5.523
13878TIP3   OH241590   7.567   3.225   1.126
13878TIP3    H141591   7.508   3.294   1.097
13878TIP3    H241592   7.619   3.264   1.195
13879TIP3   OH241593   5.557   6.936   1.904
13879TIP3    H141594   5.533   6.904   1.991
13879TIP3    H241595   5.528   6.867   1.844
13880TIP3   OH241596   2.182   0.869   1.560
13880TIP3    H141597   2.207   0.785   1.599
13880TIP3    H241598   2.120   0.846   1.491
13881TIP3   OH241599   4.327   1.909   5.741
13881TIP3    H141600   4.313   1.911   5.836
13881TIP3    H241601   4.238   1.901   5.705
13882TIP3   OH241602   7.189   6.258   4.607
13882TIP3    H141603   7.261   6.278   4.666
13882TIP3    H241604   7.213   6.299   4.524
13883TIP3   OH241605   5.599   2.611   6.251
13883TIP3    H141606   5.606   2.627   6.345
13883TIP3    H241607   5.689   2.614   6.219
13884TIP3   OH241608   7.999   2.842   0.123
13884TIP3    H141609   8.035   2.882   0.043
13884TIP3    H241610   7.919   2.891   0.140
13885TIP3   OH241611   4.886   7.804   5.381
13885TIP3    H141612   4.861   7.794   5.473
13885TIP3    H241613   4.804   7.822   5.335
13886TIP3   OH241614   1.583   1.137   1.974
13886TIP3    H141615   1.520   1.134   2.046
13886TIP3    H241616   1.625   1.051   1.976
13887TIP3   OH241617   0.110   2.062   1.427
13887TIP3    H141618   0.160   2.039   1.349
13887TIP3    H241619   0.054   1.986   1.443
13888TIP3   OH241620   2.896   3.371   0.078
13888TIP3    H141621   2.808   3.378   0.040
13888TIP3    H241622   2.881   3.361   0.172
13889TIP3   OH241623   7.949   2.460   3.695
13889TIP3    H141624   7.858   2.472   3.666
13889TIP3    H241625   7.967   2.538   3.747
13890TIP3   OH241626   6.118   3.693   3.984
13890TIP3    H141627   6.041   3.648   4.016
13890TIP3    H241628   6.184   3.679   4.052
13891TIP3   OH241629   4.056   2.608   1.524
13891TIP3    H141630   4.144   2.642   1.508
13891TIP3    H241631   4.061   2.516   1.495
13892TIP3   OH241632   1.588   2.700   5.957
13892TIP3    H141633   1.566   2.789   5.987
13892TIP3    H241634   1.549   2.695   5.870
13893TIP3   OH241635   8.165   6.348   2.767
13893TIP3    H141636   8.179   6.418   2.831
13893TIP3    H241637   8.071   6.330   2.772
13894TIP3   OH241638   0.621   1.225   1.080
13894TIP3    H141639   0.599   1.132   1.076
13894TIP3    H241640   0.714   1.229   1.061
13895TIP3   OH241641   1.353   4.340   6.422
13895TIP3    H141642   1.379   4.259   6.379
13895TIP3    H241643   1.356   4.406   6.353
13896TIP3   OH241644   2.445   6.788   0.472
13896TIP3    H141645   2.360   6.823   0.444
13896TIP3    H241646   2.429   6.694   0.484
13897TIP3   OH241647   0.126   6.759   0.584
13897TIP3    H141648   0.177   6.746   0.503
13897TIP3    H241649   0.154   6.845   0.616
13898TIP3   OH241650   8.247   1.978   3.146
13898TIP3    H141651   8.239   1.956   3.239
13898TIP3    H241652   8.302   1.910   3.109
13899TIP3   OH241653   7.142   6.524   3.219
13899TIP3    H141654   7.114   6.538   3.128
13899TIP3    H241655   7.074   6.566   3.271
13900TIP3   OH241656   0.351   0.770   1.246
13900TIP3    H141657   0.372   0.678   1.259
13900TIP3    H241658   0.274   0.770   1.189
13901TIP3   OH241659   8.185   7.680   4.553
13901TIP3    H141660   8.166   7.587   4.548
13901TIP3    H241661   8.121   7.721   4.494
13902TIP3   OH241662   2.893   5.569   3.397
13902TIP3    H141663   2.988   5.563   3.387
13902TIP3    H241664   2.866   5.634   3.332
13903TIP3   OH241665   4.873   2.801   3.726
13903TIP3    H141666   4.806   2.849   3.677
13903TIP3    H241667   4.954   2.848   3.706
13904TIP3   OH241668   4.590   2.214   4.104
13904TIP3    H141669   4.684   2.196   4.102
13904TIP3    H241670   4.574   2.268   4.026
13905TIP3   OH241671   1.605   7.037   1.236
13905TIP3    H141672   1.591   7.123   1.196
13905TIP3    H241673   1.521   6.992   1.226
13906TIP3   OH241674   0.000   1.643   0.401
13906TIP3    H141675   0.047   1.714   0.445
13906TIP3    H241676   0.034   1.563   0.441
13907TIP3   OH241677   1.852   2.991   6.570
13907TIP3    H141678   1.832   2.897   6.571
13907TIP3    H241679   1.858   3.015   6.663
13908TIP3   OH241680   3.824   2.821   4.865
13908TIP3    H141681   3.822   2.766   4.787
13908TIP3    H241682   3.824   2.911   4.831
13909TIP3   OH241683   6.718   5.805   2.380
13909TIP3    H141684   6.692   5.797   2.472
13909TIP3    H241685   6.678   5.887   2.351
13910TIP3   OH241686   1.550   3.333   2.052
13910TIP3    H141687   1.486   3.309   1.985
13910TIP3    H241688   1.513   3.299   2.134
13911TIP3   OH241689   1.254   3.856   2.999
13911TIP3    H141690   1.162   3.833   3.007
13911TIP3    H241691   1.264   3.882   2.907
13912TIP3   OH241692   3.201   7.748   3.741
13912TIP3    H141693   3.156   7.669   3.712
13912TIP3    H241694   3.221   7.797   3.661
13913TIP3   OH241695   7.707   3.797   1.441
13913TIP3    H141696   7.741   3.848   1.514
13913TIP3    H241697   7.716   3.854   1.365
13914TIP3   OH241698   7.705   5.523   2.909
13914TIP3    H141699   7.620   5.567   2.898
13914TIP3    H241700   7.761   5.562   2.841
13915TIP3   OH241701   2.991   5.393   1.660
13915TIP3    H141702   2.981   5.329   1.730
13915TIP3    H241703   2.911   5.445   1.664
13916TIP3   OH241704   3.197   0.310   1.020
13916TIP3    H141705   3.152   0.308   1.105
13916TIP3    H241706   3.221   0.219   1.004
13917TIP3   OH241707   2.280   5.499   0.477
13917TIP3    H141708   2.272   5.594   0.491
13917TIP3    H241709   2.298   5.463   0.563
13918TIP3   OH241710   5.638   5.101   1.308
13918TIP3    H141711   5.545   5.093   1.289
13918TIP3    H241712   5.650   5.194   1.328
13919TIP3   OH241713   0.665   7.572   5.899
13919TIP3    H141714   0.689   7.581   5.807
13919TIP3    H241715   0.592   7.634   5.910
13920TIP3   OH241716   0.542   3.509   0.109
13920TIP3    H141717   0.488   3.469   0.042
13920TIP3    H241718   0.545   3.443   0.179
13921TIP3   OH241719   0.310   5.791   0.856
13921TIP3    H141720   0.261   5.725   0.905
13921TIP3    H241721   0.398   5.787   0.891
13922TIP3   OH241722   0.832   3.977   2.296
13922TIP3    H141723   0.851   4.023   2.378
13922TIP3    H241724   0.857   4.038   2.228
13923TIP3   OH241725   1.460   6.906   2.562
13923TIP3    H141726   1.379   6.863   2.590
13923TIP3    H241727   1.495   6.947   2.641
13924TIP3   OH241728   3.975   3.733   3.011
13924TIP3    H141729   4.019   3.659   2.969
13924TIP3    H241730   4.010   3.810   2.966
13925TIP3   OH241731   3.476   7.812   2.034
13925TIP3    H141732   3.481   7.759   2.113
13925TIP3    H241733   3.382   7.822   2.018
13926TIP3   OH241734   2.417   2.313   2.032
13926TIP3    H141735   2.504   2.301   1.995
13926TIP3    H241736   2.423   2.397   2.079
13927TIP3   OH241737   1.082   5.605   4.119
13927TIP3    H141738   0.989   5.609   4.096
13927TIP3    H241739   1.127   5.604   4.035
13928TIP3   OH241740   7.775   6.557   5.630
13928TIP3    H141741   7.781   6.652   5.629
13928TIP3    H241742   7.681   6.539   5.626
13929TIP3   OH241743   7.368   2.881   1.058
13929TIP3    H141744   7.452   2.926   1.069
13929TIP3    H241745   7.329   2.880   1.145
13930TIP3   OH241746   7.615   7.252   3.225
13930TIP3    H141747   7.543   7.189   3.220
13930TIP3    H241748   7.691   7.204   3.192
13931TIP3   OH241749   1.734   6.452   3.767
13931TIP3    H141750   1.722   6.541   3.734
13931TIP3    H241751   1.646   6.423   3.792
13932TIP3   OH241752   1.105   2.424   4.241
13932TIP3    H141753   1.121   2.482   4.166
13932TIP3    H241754   1.072   2.482   4.310
13933TIP3   OH241755   2.599   7.416   5.410
13933TIP3    H141756   2.659   7.358   5.363
13933TIP3    H241757   2.649   7.495   5.427
13934TIP3   OH241758   2.515   7.220   3.546
13934TIP3    H141759   2.435   7.242   3.498
13934TIP3    H241760   2.582   7.209   3.479
13935TIP3   OH241761   8.237   3.373   1.323
13935TIP3    H141762   8.298   3.365   1.250
13935TIP3    H241763   8.192   3.456   1.307
13936TIP3   OH241764   7.143   1.678   6.469
13936TIP3    H141765   7.091   1.757   6.456
13936TIP3    H241766   7.198   1.671   6.391
13937TIP3   OH241767   7.974   0.288   5.903
13937TIP3    H141768   8.048   0.346   5.885
13937TIP3    H241769   8.014   0.206   5.931
13938TIP3   OH241770   4.942   5.584   4.769
13938TIP3    H141771   4.868   5.632   4.731
13938TIP3    H241772   4.907   5.496   4.784
13939TIP3   OH241773   3.396   1.416   3.771
13939TIP3    H141774   3.482   1.446   3.802
13939TIP3    H241775   3.395   1.437   3.678
13940TIP3   OH241776   5.974   0.198   4.600
13940TIP3    H141777   5.998   0.156   4.518
13940TIP3    H241778   6.004   0.138   4.668
13941TIP3   OH241779   3.882   0.796   2.840
13941TIP3    H141780   3.911   0.715   2.881
13941TIP3    H241781   3.961   0.849   2.832
13942TIP3   OH241782   3.352   6.160   5.363
13942TIP3    H141783   3.327   6.252   5.368
13942TIP3    H241784   3.376   6.136   5.452
13943TIP3   OH241785   2.435   6.118   3.166
13943TIP3    H141786   2.344   6.111   3.195
13943TIP3    H241787   2.432   6.181   3.093
13944TIP3   OH241788   3.681   6.119   4.998
13944TIP3    H141789   3.766   6.148   5.032
13944TIP3    H241790   3.644   6.197   4.956
13945TIP3   OH241791   0.434   2.522   2.865
13945TIP3    H141792   0.503   2.491   2.923
13945TIP3    H241793   0.357   2.470   2.888
13946TIP3   OH241794   2.421   7.553   0.542
13946TIP3    H141795   2.365   7.629   0.527
13946TIP3    H241796   2.495   7.565   0.482
13947TIP3   OH241797   7.024   1.368   1.836
13947TIP3    H141798   6.985   1.321   1.909
13947TIP3    H241799   6.970   1.447   1.827
13948TIP3   OH241800   2.803   4.472   1.827
13948TIP3    H141801   2.833   4.413   1.757
13948TIP3    H241802   2.883   4.514   1.858
13949TIP3   OH241803   4.997   1.103   2.855
13949TIP3    H141804   5.082   1.084   2.895
13949TIP3    H241805   4.941   1.030   2.883
13950TIP3   OH241806   4.222   2.706   2.703
13950TIP3    H141807   4.245   2.641   2.770
13950TIP3    H241808   4.262   2.788   2.735
13951TIP3   OH241809   4.501   1.969   5.396
13951TIP3    H141810   4.506   2.064   5.407
13951TIP3    H241811   4.407   1.950   5.403
13952TIP3   OH241812   5.712   0.677   0.115
13952TIP3    H141813   5.635   0.620   0.127
13952TIP3    H241814   5.690   0.731   0.039
13953TIP3   OH241815   8.232   6.382   3.208
13953TIP3    H141816   8.184   6.300   3.192
13953TIP3    H241817   8.206   6.409   3.296
13954TIP3   OH241818   5.157   3.803   5.471
13954TIP3    H141819   5.234   3.822   5.418
13954TIP3    H241820   5.184   3.822   5.561
13955TIP3   OH241821   3.285   3.955   5.005
13955TIP3    H141822   3.264   4.048   5.000
13955TIP3    H241823   3.362   3.950   5.063
13956TIP3   OH241824   7.184   0.414   3.206
13956TIP3    H141825   7.168   0.321   3.223
13956TIP3    H241826   7.278   0.425   3.217
13957TIP3   OH241827   5.717   0.242   1.303
13957TIP3    H141828   5.763   0.326   1.296
13957TIP3    H241829   5.717   0.208   1.213
13958TIP3   OH241830   6.440   2.877   1.767
13958TIP3    H141831   6.445   2.926   1.850
13958TIP3    H241832   6.520   2.824   1.767
13959TIP3   OH241833   2.310   1.215   0.339
13959TIP3    H141834   2.279   1.145   0.281
13959TIP3    H241835   2.252   1.288   0.322
13960TIP3   OH241836   1.308   1.009   2.744
13960TIP3    H141837   1.267   0.969   2.667
13960TIP3    H241838   1.340   0.935   2.795
13961TIP3   OH241839   7.795   0.146   0.983
13961TIP3    H141840   7.753   0.075   1.032
13961TIP3    H241841   7.798   0.219   1.044
13962TIP3   OH241842   7.345   3.984   6.523
13962TIP3    H141843   7.281   3.980   6.594
13962TIP3    H241844   7.345   3.896   6.486
13963TIP3   OH241845   2.911   4.764   2.354
13963TIP3    H141846   2.927   4.841   2.409
13963TIP3    H241847   2.825   4.780   2.314
13964TIP3   OH241848   0.650   0.118   2.483
13964TIP3    H141849   0.575   0.059   2.490
13964TIP3    H241850   0.695   0.092   2.403
13965TIP3   OH241851   1.408   3.641   1.370
13965TIP3    H141852   1.356   3.633   1.290
13965TIP3    H241853   1.400   3.555   1.412
13966TIP3   OH241854   6.522   4.848   4.908
13966TIP3    H141855   6.532   4.757   4.880
13966TIP3    H241856   6.610   4.885   4.900
13967TIP3   OH241857   4.645   0.945   2.986
13967TIP3    H141858   4.638   0.984   3.073
13967TIP3    H241859   4.634   1.018   2.925
13968TIP3   OH241860   6.010   4.066   5.948
13968TIP3    H141861   6.036   4.136   6.009
13968TIP3    H241862   6.092   4.032   5.913
13969TIP3   OH241863   6.040   1.446   0.238
13969TIP3    H141864   5.985   1.394   0.297
13969TIP3    H241865   6.099   1.495   0.296
13970TIP3   OH241866   6.857   4.025   0.501
13970TIP3    H141867   6.825   4.075   0.425
13970TIP3    H241868   6.952   4.031   0.495
13971TIP3   OH241869   1.438   5.730   6.013
13971TIP3    H141870   1.525   5.692   6.025
13971TIP3    H241871   1.390   5.665   5.961
13972TIP3   OH241872   5.891   7.655   4.733
13972TIP3    H141873   5.802   7.657   4.769
13972TIP3    H241874   5.940   7.598   4.793
13973TIP3   OH241875   1.394   1.356   2.400
13973TIP3    H141876   1.412   1.325   2.489
13973TIP3    H241877   1.299   1.352   2.392
13974TIP3   OH241878   3.772   1.551   1.551
13974TIP3    H141879   3.812   1.529   1.635
13974TIP3    H241880   3.845   1.556   1.490
13975TIP3   OH241881   2.832   1.047   4.035
13975TIP3    H141882   2.807   0.979   3.973
13975TIP3    H241883   2.919   1.076   4.006
13976TIP3   OH241884   0.145   7.023   6.727
13976TIP3    H141885   0.151   7.052   6.818
13976TIP3    H241886   0.080   7.081   6.688
13977TIP3   OH241887   2.863   6.362   2.969
13977TIP3    H141888   2.898   6.413   2.896
13977TIP3    H241889   2.860   6.424   3.042
13978TIP3   OH241890   0.926   5.484   6.263
13978TIP3    H141891   0.847   5.539   6.261
13978TIP3    H241892   0.918   5.434   6.344
13979TIP3   OH241893   5.081   3.989   0.682
13979TIP3    H141894   5.127   4.013   0.601
13979TIP3    H241895   5.075   4.070   0.731
13980TIP3   OH241896   1.746   6.087   2.346
13980TIP3    H141897   1.767   6.019   2.283
13980TIP3    H241898   1.829   6.130   2.364
13981TIP3   OH241899   5.153   4.716   2.962
13981TIP3    H141900   5.126   4.719   2.870
13981TIP3    H241901   5.248   4.700   2.959
13982TIP3   OH241902   2.188   5.101   0.451
13982TIP3    H141903   2.145   5.180   0.483
13982TIP3    H241904   2.127   5.065   0.386
13983TIP3   OH241905   1.777   5.288   4.554
13983TIP3    H141906   1.688   5.320   4.563
13983TIP3    H241907   1.795   5.293   4.460
13984TIP3   OH241908   7.611   4.166   0.394
13984TIP3    H141909   7.616   4.210   0.479
13984TIP3    H241910   7.700   4.169   0.360
13985TIP3   OH241911   2.250   3.342   3.384
13985TIP3    H141912   2.287   3.290   3.313
13985TIP3    H241913   2.203   3.413   3.340
13986TIP3   OH241914   0.869   3.595   4.660
13986TIP3    H141915   0.958   3.609   4.628
13986TIP3    H241916   0.816   3.583   4.581
13987TIP3   OH241917   6.962   2.751   1.148
13987TIP3    H141918   6.903   2.747   1.224
13987TIP3    H241919   6.954   2.841   1.117
13988TIP3   OH241920   2.351   1.802   0.273
13988TIP3    H141921   2.316   1.737   0.333
13988TIP3    H241922   2.370   1.754   0.193
13989TIP3   OH241923   1.481   4.069   5.621
13989TIP3    H141924   1.430   4.061   5.702
13989TIP3    H241925   1.420   4.045   5.551
13990TIP3   OH241926   5.960   0.483   5.369
13990TIP3    H141927   6.051   0.514   5.366
13990TIP3    H241928   5.946   0.443   5.283
13991TIP3   OH241929   0.495   3.768   6.094
13991TIP3    H141930   0.538   3.694   6.138
13991TIP3    H241931   0.449   3.813   6.165
13992TIP3   OH241932   6.232   7.611   5.082
13992TIP3    H141933   6.139   7.611   5.104
13992TIP3    H241934   6.273   7.663   5.152
13993TIP3   OH241935   0.499   5.866   1.770
13993TIP3    H141936   0.561   5.938   1.780
13993TIP3    H241937   0.502   5.844   1.676
13994TIP3   OH241938   8.202   2.776   5.708
13994TIP3    H141939   8.292   2.797   5.683
13994TIP3    H241940   8.148   2.825   5.646
13995TIP3   OH241941   5.506   5.696   1.956
13995TIP3    H141942   5.569   5.671   2.024
13995TIP3    H241943   5.560   5.737   1.888
13996TIP3   OH241944   7.045   6.148   0.965
13996TIP3    H141945   7.087   6.117   0.885
13996TIP3    H241946   6.956   6.112   0.961
13997TIP3   OH241947   6.982   0.646   2.840
13997TIP3    H141948   6.982   0.574   2.903
13997TIP3    H241949   6.939   0.611   2.762
13998TIP3   OH241950   3.168   6.155   4.132
13998TIP3    H141951   3.204   6.202   4.207
13998TIP3    H241952   3.199   6.066   4.142
13999TIP3   OH241953   1.220   5.066   2.188
13999TIP3    H141954   1.138   5.045   2.142
13999TIP3    H241955   1.271   5.117   2.125
14000TIP3   OH241956   4.740   4.029   1.240
14000TIP3    H141957   4.743   3.999   1.330
14000TIP3    H241958   4.754   3.950   1.187
14001TIP3   OH241959   6.473   4.149   6.290
14001TIP3    H141960   6.477   4.242   6.267
14001TIP3    H241961   6.409   4.144   6.361
14002TIP3   OH241962   1.744   3.809   3.574
14002TIP3    H141963   1.713   3.893   3.608
14002TIP3    H241964   1.800   3.774   3.644
14003TIP3   OH241965   2.209   0.484   1.499
14003TIP3    H141966   2.164   0.522   1.424
14003TIP3    H241967   2.206   0.389   1.484
14004TIP3   OH241968   8.140   5.614   5.527
14004TIP3    H141969   8.218   5.572   5.564
14004TIP3    H241970   8.066   5.573   5.572
14005TIP3   OH241971   4.610   4.126   4.366
14005TIP3    H141972   4.670   4.193   4.331
14005TIP3    H241973   4.616   4.054   4.303
14006TIP3   OH241974   5.050   0.529   4.601
14006TIP3    H141975   5.059   0.478   4.521
14006TIP3    H241976   5.137   0.565   4.616
14007TIP3   OH241977   4.605   2.960   6.657
14007TIP3    H141978   4.563   2.875   6.660
14007TIP3    H241979   4.533   3.022   6.641
14008TIP3   OH241980   8.038   1.581   4.736
14008TIP3    H141981   8.059   1.636   4.811
14008TIP3    H241982   7.976   1.516   4.769
14009TIP3   OH241983   8.064   3.251   1.086
14009TIP3    H141984   8.128   3.203   1.033
14009TIP3    H241985   8.117   3.297   1.151
14010TIP3   OH241986   6.814   0.170   2.259
14010TIP3    H141987   6.879   0.106   2.230
14010TIP3    H241988   6.779   0.133   2.339
14011TIP3   OH241989   2.410   5.272   2.137
14011TIP3    H141990   2.492   5.245   2.096
14011TIP3    H241991   2.397   5.362   2.106
14012TIP3   OH241992   6.283   6.215   6.256
14012TIP3    H141993   6.308   6.149   6.321
14012TIP3    H241994   6.366   6.246   6.221
14013TIP3   OH241995   3.424   0.580   6.162
14013TIP3    H141996   3.482   0.531   6.220
14013TIP3    H241997   3.423   0.668   6.198
14014TIP3   OH241998   4.835   0.603   3.033
14014TIP3    H141999   4.893   0.527   3.040
14014TIP3    H242000   4.785   0.603   3.114
14015TIP3   OH242001   5.807   3.492   5.574
14015TIP3    H142002   5.734   3.446   5.533
14015TIP3    H242003   5.779   3.505   5.665
14016TIP3   OH242004   3.839   6.400   6.084
14016TIP3    H142005   3.828   6.491   6.059
14016TIP3    H242006   3.895   6.363   6.015
14017TIP3   OH242007   1.274   6.684   5.393
14017TIP3    H142008   1.253   6.688   5.487
14017TIP3    H242009   1.306   6.772   5.373
14018TIP3   OH242010   3.804   6.930   4.610
14018TIP3    H142011   3.784   6.914   4.518
14018TIP3    H242012   3.876   6.992   4.609
14019TIP3   OH242013   2.256   2.352   0.405
14019TIP3    H142014   2.255   2.379   0.497
14019TIP3    H242015   2.275   2.432   0.357
14020TIP3   OH242016   3.232   5.746   4.398
14020TIP3    H142017   3.293   5.819   4.405
14020TIP3    H242018   3.246   5.695   4.478
14021TIP3   OH242019   5.821   2.241   1.938
14021TIP3    H142020   5.830   2.334   1.915
14021TIP3    H242021   5.909   2.213   1.960
14022TIP3   OH242022   1.135   1.418   2.193
14022TIP3    H142023   1.167   1.478   2.261
14022TIP3    H242024   1.073   1.361   2.239
14023TIP3   OH242025   6.057   0.998   5.616
14023TIP3    H142026   5.983   1.060   5.612
14023TIP3    H242027   6.024   0.919   5.574
14024TIP3   OH242028   2.719   0.672   5.756
14024TIP3    H142029   2.674   0.623   5.825
14024TIP3    H242030   2.802   0.697   5.795
14025TIP3   OH242031   2.512   0.785   4.538
14025TIP3    H142032   2.529   0.724   4.467
14025TIP3    H242033   2.455   0.851   4.500
14026TIP3   OH242034   6.594   5.811   1.291
14026TIP3    H142035   6.635   5.800   1.205
14026TIP3    H242036   6.576   5.721   1.321
14027TIP3   OH242037   5.059   0.787   0.163
14027TIP3    H142038   5.067   0.730   0.087
14027TIP3    H242039   5.064   0.727   0.238
14028TIP3   OH242040   2.088   0.227   2.225
14028TIP3    H142041   2.166   0.244   2.278
14028TIP3    H242042   2.028   0.181   2.284
14029TIP3   OH242043   3.628   3.722   1.738
14029TIP3    H142044   3.683   3.798   1.757
14029TIP3    H242045   3.644   3.663   1.812
14030TIP3   OH242046   3.280   2.341   0.323
14030TIP3    H142047   3.274   2.248   0.344
14030TIP3    H242048   3.326   2.380   0.398
14031TIP3   OH242049   6.354   0.843   1.779
14031TIP3    H142050   6.412   0.768   1.786
14031TIP3    H242051   6.401   0.906   1.725
14032TIP3   OH242052   6.050   5.652   0.936
14032TIP3    H142053   6.121   5.652   1.001
14032TIP3    H242054   6.023   5.743   0.931
14033TIP3   OH242055   7.203   0.371   4.654
14033TIP3    H142056   7.294   0.379   4.626
14033TIP3    H242057   7.189   0.277   4.663
14034TIP3   OH242058   5.128   2.193   0.963
14034TIP3    H142059   5.207   2.151   0.999
14034TIP3    H242060   5.083   2.228   1.040
14035TIP3   OH242061   1.552   6.671   4.259
14035TIP3    H142062   1.631   6.717   4.289
14035TIP3    H242063   1.489   6.740   4.242
14036TIP3   OH242064   2.310   1.580   1.488
14036TIP3    H142065   2.383   1.628   1.527
14036TIP3    H242066   2.303   1.615   1.399
14037TIP3   OH242067   6.914   6.277   4.699
14037TIP3    H142068   7.009   6.281   4.685
14037TIP3    H242069   6.898   6.187   4.726
14038TIP3   OH242070   5.430   4.576   0.264
14038TIP3    H142071   5.431   4.496   0.212
14038TIP3    H242072   5.348   4.572   0.314
14039TIP3   OH242073   3.414   1.598   5.237
14039TIP3    H142074   3.413   1.630   5.146
14039TIP3    H242075   3.497   1.550   5.244
14040TIP3   OH242076   1.125   2.169   5.261
14040TIP3    H142077   1.093   2.144   5.348
14040TIP3    H242078   1.082   2.108   5.201
14041TIP3   OH242079   7.305   4.358   4.791
14041TIP3    H142080   7.394   4.333   4.769
14041TIP3    H242081   7.250   4.310   4.729
14042TIP3   OH242082   5.252   1.552   5.228
14042TIP3    H142083   5.240   1.480   5.290
14042TIP3    H242084   5.314   1.611   5.272
14043TIP3   OH242085   1.091   1.842   3.247
14043TIP3    H142086   1.108   1.903   3.175
14043TIP3    H242087   1.010   1.798   3.221
14044TIP3   OH242088   6.253   1.134   6.380
14044TIP3    H142089   6.242   1.104   6.470
14044TIP3    H242090   6.344   1.114   6.359
14045TIP3   OH242091   4.986   2.970   3.221
14045TIP3    H142092   4.982   2.877   3.199
14045TIP3    H242093   4.907   2.985   3.272
14046TIP3   OH242094   3.267   3.087   6.034
14046TIP3    H142095   3.253   2.996   6.058
14046TIP3    H242096   3.179   3.124   6.028
14047TIP3   OH242097   1.865   0.499   4.749
14047TIP3    H142098   1.775   0.472   4.732
14047TIP3    H242099   1.885   0.464   4.836
14048TIP3   OH242100   4.034   5.944   3.453
14048TIP3    H142101   3.983   5.863   3.447
14048TIP3    H242102   3.968   6.013   3.465
14049TIP3   OH242103   5.701   0.790   1.763
14049TIP3    H142104   5.653   0.753   1.689
14049TIP3    H242105   5.742   0.869   1.728
14050TIP3   OH242106   0.925   5.120   3.409
14050TIP3    H142107   0.936   5.212   3.431
14050TIP3    H242108   0.906   5.077   3.492
14051TIP3   OH242109   0.005   3.517   3.427
14051TIP3    H142110   0.043   3.605   3.434
14051TIP3    H242111  -0.005   3.502   3.333
14052TIP3   OH242112   0.244   5.834   3.502
14052TIP3    H142113   0.159   5.804   3.472
14052TIP3    H242114   0.290   5.860   3.422
14053TIP3   OH242115   0.046   4.489   2.324
14053TIP3    H142116   0.037   4.551   2.252
14053TIP3    H242117   0.125   4.439   2.303
14054TIP3   OH242118   0.064   3.251   2.194
14054TIP3    H142119   0.127   3.180   2.204
14054TIP3    H242120   0.117   3.331   2.200
14055TIP3   OH242121   4.628   4.075   5.752
14055TIP3    H142122   4.678   3.994   5.759
14055TIP3    H242123   4.577   4.079   5.833
14056TIP3   OH242124   2.014   0.997   5.720
14056TIP3    H142125   2.060   0.948   5.652
14056TIP3    H242126   1.971   1.068   5.673
14057TIP3   OH242127   6.468   3.367   1.798
14057TIP3    H142128   6.475   3.439   1.860
14057TIP3    H242129   6.389   3.320   1.827
14058TIP3   OH242130   5.266   3.630   4.466
14058TIP3    H142131   5.246   3.715   4.427
14058TIP3    H242132   5.181   3.593   4.488
14059TIP3   OH242133   0.900   6.626   2.033
14059TIP3    H142134   0.853   6.661   1.957
14059TIP3    H242135   0.953   6.554   1.998
14060TIP3   OH242136   5.495   4.395   4.391
14060TIP3    H142137   5.547   4.358   4.319
14060TIP3    H242138   5.512   4.336   4.465
14061TIP3   OH242139   1.887   6.415   4.831
14061TIP3    H142140   1.841   6.335   4.857
14061TIP3    H242141   1.955   6.385   4.771
14062TIP3   OH242142   6.916   4.067   4.622
14062TIP3    H142143   6.882   4.032   4.705
14062TIP3    H242144   6.838   4.100   4.577
14063TIP3   OH242145   2.079   4.404   2.895
14063TIP3    H142146   2.160   4.453   2.878
14063TIP3    H242147   2.036   4.398   2.810
14064TIP3   OH242148   7.214   2.055   1.643
14064TIP3    H142149   7.240   2.130   1.588
14064TIP3    H242150   7.296   2.009   1.661
14065TIP3   OH242151   6.731   1.801   6.296
14065TIP3    H142152   6.663   1.765   6.240
14065TIP3    H242153   6.684   1.840   6.370
14066TIP3   OH242154   4.706   1.998   1.754
14066TIP3    H142155   4.659   2.006   1.837
14066TIP3    H242156   4.731   2.088   1.731
14067TIP3   OH242157   0.161   0.150   1.917
14067TIP3    H142158   0.212   0.212   1.864
14067TIP3    H242159   0.222   0.121   1.985
14068TIP3   OH242160   5.342   0.975   5.122
14068TIP3    H142161   5.413   1.039   5.113
14068TIP3    H242162   5.305   0.968   5.034
14069TIP3   OH242163   3.116   3.910   6.401
14069TIP3    H142164   3.121   3.816   6.414
14069TIP3    H242165   3.056   3.921   6.328
14070TIP3   OH242166   0.966   1.208   2.225
14070TIP3    H142167   0.998   1.126   2.187
14070TIP3    H242168   0.916   1.181   2.303
14071TIP3   OH242169   2.419   6.988   4.931
14071TIP3    H142170   2.478   6.962   4.860
14071TIP3    H242171   2.339   6.937   4.916
14072TIP3   OH242172   2.311   1.352   1.877
14072TIP3    H142173   2.228   1.378   1.916
14072TIP3    H242174   2.357   1.435   1.861
14073TIP3   OH242175   2.093   7.243   5.542
14073TIP3    H142176   2.151   7.202   5.478
14073TIP3    H242177   2.149   7.306   5.588
14074TIP3   OH242178   6.226   2.885   5.486
14074TIP3    H142179   6.245   2.922   5.399
14074TIP3    H242180   6.182   2.956   5.532
14075TIP3   OH242181   5.522   7.343   5.126
14075TIP3    H142182   5.581   7.366   5.199
14075TIP3    H242183   5.571   7.367   5.047
14076TIP3   OH242184   1.560   4.814   3.287
14076TIP3    H142185   1.582   4.786   3.198
14076TIP3    H242186   1.638   4.861   3.318
14077TIP3   OH242187   1.225   5.308   6.782
14077TIP3    H142188   1.139   5.271   6.801
14077TIP3    H242189   1.239   5.289   6.690
14078TIP3   OH242190   1.816   7.294   5.010
14078TIP3    H142191   1.866   7.327   5.084
14078TIP3    H242192   1.728   7.280   5.044
14079TIP3   OH242193   4.751   4.919   1.383
14079TIP3    H142194   4.736   4.998   1.434
14079TIP3    H242195   4.846   4.914   1.373
14080TIP3   OH242196   7.847   3.572   2.702
14080TIP3    H142197   7.788   3.504   2.668
14080TIP3    H242198   7.854   3.635   2.631
14081TIP3   OH242199   3.534   4.301   5.541
14081TIP3    H142200   3.525   4.277   5.633
14081TIP3    H242201   3.549   4.395   5.542
14082TIP3   OH242202   1.036   6.891   4.819
14082TIP3    H142203   0.959   6.903   4.763
14082TIP3    H242204   1.084   6.974   4.813
14083TIP3   OH242205   1.503   6.288   0.752
14083TIP3    H142206   1.466   6.336   0.825
14083TIP3    H242207   1.491   6.346   0.676
14084TIP3   OH242208   3.989   0.093   4.816
14084TIP3    H142209   4.044   0.166   4.844
14084TIP3    H242210   3.972   0.044   4.896
14085TIP3   OH242211   7.294   0.457   2.281
14085TIP3    H142212   7.316   0.422   2.367
14085TIP3    H242213   7.287   0.380   2.224
14086TIP3   OH242214   5.266   0.727   2.172
14086TIP3    H142215   5.293   0.752   2.084
14086TIP3    H242216   5.209   0.651   2.159
14087TIP3   OH242217   1.545   2.365   3.731
14087TIP3    H142218   1.475   2.316   3.774
14087TIP3    H242219   1.575   2.427   3.798
14088TIP3   OH242220   1.194   1.018   5.533
14088TIP3    H142221   1.228   1.043   5.619
14088TIP3    H242222   1.106   0.987   5.550
14089TIP3   OH242223   6.706   6.747   4.998
14089TIP3    H142224   6.664   6.664   4.976
14089TIP3    H242225   6.634   6.810   5.003
14090TIP3   OH242226   0.976   6.172   1.730
14090TIP3    H142227   0.918   6.134   1.797
14090TIP3    H242228   0.942   6.138   1.648
14091TIP3   OH242229   2.580   3.419   6.474
14091TIP3    H142230   2.595   3.334   6.516
14091TIP3    H242231   2.668   3.451   6.453
14092TIP3   OH242232   1.726   3.487   3.509
14092TIP3    H142233   1.727   3.394   3.486
14092TIP3    H242234   1.817   3.508   3.528
14093TIP3   OH242235   5.098   2.628   1.144
14093TIP3    H142236   5.071   2.664   1.060
14093TIP3    H242237   5.193   2.624   1.140
14094TIP3   OH242238   0.407   6.640   5.382
14094TIP3    H142239   0.459   6.719   5.398
14094TIP3    H242240   0.443   6.574   5.442
14095TIP3   OH242241   1.606   1.220   0.216
14095TIP3    H142242   1.625   1.312   0.197
14095TIP3    H242243   1.547   1.222   0.291
14096TIP3   OH242244   7.435   4.489   1.613
14096TIP3    H142245   7.444   4.510   1.521
14096TIP3    H242246   7.484   4.407   1.625
14097TIP3   OH242247   7.902   2.242   2.654
14097TIP3    H142248   7.873   2.186   2.726
14097TIP3    H242249   7.822   2.286   2.625
14098TIP3   OH242250   6.620   2.529   2.244
14098TIP3    H142251   6.531   2.557   2.221
14098TIP3    H242252   6.607   2.451   2.299
14099TIP3   OH242253   0.895   4.039   5.319
14099TIP3    H142254   0.814   3.994   5.345
14099TIP3    H242255   0.911   4.103   5.388
14100TIP3   OH242256   0.126   2.060   5.201
14100TIP3    H142257   0.048   2.101   5.240
14100TIP3    H242258   0.135   1.977   5.249
14101TIP3   OH242259   7.224   6.170   2.389
14101TIP3    H142260   7.222   6.259   2.353
14101TIP3    H242261   7.218   6.113   2.312
14102TIP3   OH242262   1.308   4.802   3.618
14102TIP3    H142263   1.244   4.821   3.686
14102TIP3    H242264   1.389   4.786   3.665
14103TIP3   OH242265   0.063   7.689   5.706
14103TIP3    H142266   0.056   7.609   5.653
14103TIP3    H242267   0.069   7.760   5.642
14104TIP3   OH242268   3.494   5.667   5.975
14104TIP3    H142269   3.527   5.585   6.013
14104TIP3    H242270   3.457   5.640   5.890
14105TIP3   OH242271   0.861   5.787   1.084
14105TIP3    H142272   0.800   5.738   1.140
14105TIP3    H242273   0.947   5.769   1.123
14106TIP3   OH242274   6.106   2.897   2.404
14106TIP3    H142275   6.101   2.802   2.415
14106TIP3    H242276   6.091   2.911   2.311
14107TIP3   OH242277   7.077   0.790   3.219
14107TIP3    H142278   7.131   0.756   3.148
14107TIP3    H242279   7.068   0.884   3.201
14108TIP3   OH242280   3.467   0.705   4.550
14108TIP3    H142281   3.508   0.752   4.477
14108TIP3    H242282   3.539   0.688   4.611
14109TIP3   OH242283   5.369   0.354   5.333
14109TIP3    H142284   5.286   0.341   5.288
14109TIP3    H242285   5.364   0.443   5.368
14110TIP3   OH242286   1.681   0.333   1.052
14110TIP3    H142287   1.701   0.330   0.959
14110TIP3    H242288   1.588   0.354   1.056
14111TIP3   OH242289   7.010   0.312   5.531
14111TIP3    H142290   7.050   0.261   5.601
14111TIP3    H242291   6.917   0.292   5.536
14112TIP3   OH242292   4.658   7.484   3.029
14112TIP3    H142293   4.695   7.459   2.945
14112TIP3    H242294   4.723   7.543   3.068
14113TIP3   OH242295   1.399   3.628   6.704
14113TIP3    H142296   1.344   3.580   6.766
14113TIP3    H242297   1.481   3.578   6.702
14114TIP3   OH242298   2.047   6.244   2.102
14114TIP3    H142299   2.093   6.183   2.044
14114TIP3    H242300   2.075   6.331   2.071
14115TIP3   OH242301   4.439   3.702   0.303
14115TIP3    H142302   4.446   3.790   0.267
14115TIP3    H242303   4.449   3.644   0.227
14116TIP3   OH242304   7.972   0.728   1.374
14116TIP3    H142305   8.042   0.791   1.390
14116TIP3    H242306   7.929   0.718   1.459
14117TIP3   OH242307   2.793   2.128   1.289
14117TIP3    H142308   2.827   2.091   1.370
14117TIP3    H242309   2.732   2.196   1.317
14118TIP3   OH242310   2.284   7.121   3.788
14118TIP3    H142311   2.339   7.199   3.792
14118TIP3    H242312   2.197   7.153   3.767
14119TIP3   OH242313   5.308   0.726   4.065
14119TIP3    H142314   5.219   0.722   4.099
14119TIP3    H242315   5.330   0.819   4.069
14120TIP3   OH242316   6.614   1.654   2.360
14120TIP3    H142317   6.587   1.746   2.362
14120TIP3    H242318   6.677   1.647   2.432
14121TIP3   OH242319   6.907   5.107   0.051
14121TIP3    H142320   6.879   5.146   0.134
14121TIP3    H242321   6.956   5.177   0.007
14122TIP3   OH242322   4.549   6.929   3.996
14122TIP3    H142323   4.502   6.961   3.918
14122TIP3    H242324   4.640   6.925   3.969
14123TIP3   OH242325   0.214   1.166   6.009
14123TIP3    H142326   0.211   1.114   6.089
14123TIP3    H242327   0.285   1.127   5.958
14124TIP3   OH242328   3.379   5.177   0.542
14124TIP3    H142329   3.462   5.182   0.494
14124TIP3    H242330   3.369   5.083   0.562
14125TIP3   OH242331   3.547   6.763   1.963
14125TIP3    H142332   3.491   6.836   1.936
14125TIP3    H242333   3.619   6.763   1.900
14126TIP3   OH242334   4.782   6.259   5.408
14126TIP3    H142335   4.822   6.205   5.476
14126TIP3    H242336   4.724   6.199   5.361
14127TIP3   OH242337   2.255   6.482   3.349
14127TIP3    H142338   2.272   6.478   3.255
14127TIP3    H242339   2.307   6.411   3.386
14128TIP3   OH242340   2.681   2.759   4.883
14128TIP3    H142341   2.654   2.668   4.895
14128TIP3    H242342   2.605   2.811   4.910
14129TIP3   OH242343   5.476   6.171   6.188
14129TIP3    H142344   5.550   6.232   6.180
14129TIP3    H242345   5.516   6.084   6.179
14130TIP3   OH242346   5.544   2.536   6.732
14130TIP3    H142347   5.637   2.538   6.753
14130TIP3    H242348   5.539   2.486   6.650
14131TIP3   OH242349   6.415   7.731   2.376
14131TIP3    H142350   6.462   7.649   2.364
14131TIP3    H242351   6.478   7.788   2.420
14132TIP3   OH242352   4.824   3.143   0.477
14132TIP3    H142353   4.801   3.147   0.384
14132TIP3    H242354   4.792   3.226   0.513
14133TIP3   OH242355   4.381   4.881   2.700
14133TIP3    H142356   4.383   4.860   2.606
14133TIP3    H242357   4.388   4.976   2.704
14134TIP3   OH242358   4.793   7.332   4.235
14134TIP3    H142359   4.771   7.418   4.199
14134TIP3    H242360   4.786   7.272   4.161
14135TIP3   OH242361   5.920   1.846   4.604
14135TIP3    H142362   5.956   1.907   4.668
14135TIP3    H242363   5.878   1.902   4.539
14136TIP3   OH242364   3.812   6.910   6.693
14136TIP3    H142365   3.774   6.829   6.727
14136TIP3    H242366   3.869   6.882   6.621
14137TIP3   OH242367   2.491   1.830   1.110
14137TIP3    H142368   2.429   1.757   1.113
14137TIP3    H242369   2.527   1.828   1.022
14138TIP3   OH242370   7.028   4.564   5.759
14138TIP3    H142371   6.945   4.561   5.807
14138TIP3    H242372   7.024   4.489   5.700
14139TIP3   OH242373   7.950   4.234   3.033
14139TIP3    H142374   7.899   4.268   2.959
14139TIP3    H242375   7.924   4.142   3.039
14140TIP3   OH242376   3.126   6.910   0.417
14140TIP3    H142377   3.031   6.913   0.405
14140TIP3    H242378   3.160   6.977   0.357
14141TIP3   OH242379   2.133   5.480   3.442
14141TIP3    H142380   2.183   5.403   3.468
14141TIP3    H242381   2.055   5.445   3.399
14142TIP3   OH242382   2.579   5.580   3.970
14142TIP3    H142383   2.549   5.671   3.963
14142TIP3    H242384   2.501   5.527   3.959
14143TIP3   OH242385   2.023   4.497   4.251
14143TIP3    H142386   2.037   4.412   4.210
14143TIP3    H242387   2.110   4.536   4.255
14144TIP3   OH242388   4.210   2.337   6.035
14144TIP3    H142389   4.126   2.379   6.022
14144TIP3    H242390   4.274   2.408   6.030
14145TIP3   OH242391   5.914   1.328   0.458
14145TIP3    H142392   5.828   1.318   0.499
14145TIP3    H242393   5.976   1.312   0.530
14146TIP3   OH242394   7.631   1.644   0.692
14146TIP3    H142395   7.558   1.679   0.641
14146TIP3    H242396   7.659   1.717   0.747
14147TIP3   OH242397   6.332   4.147   3.806
14147TIP3    H142398   6.355   4.146   3.899
14147TIP3    H242399   6.370   4.066   3.772
14148TIP3   OH242400   0.551   3.508   3.597
14148TIP3    H142401   0.609   3.579   3.570
14148TIP3    H242402   0.533   3.525   3.689
14149TIP3   OH242403   2.154   3.690   0.384
14149TIP3    H142404   2.188   3.610   0.424
14149TIP3    H242405   2.083   3.718   0.442
14150TIP3   OH242406   6.617   2.500   4.161
14150TIP3    H142407   6.694   2.529   4.112
14150TIP3    H242408   6.543   2.532   4.110
14151TIP3   OH242409   0.557   2.567   3.887
14151TIP3    H142410   0.560   2.583   3.793
14151TIP3    H242411   0.466   2.546   3.905
14152TIP3   OH242412   1.356   5.516   0.915
14152TIP3    H142413   1.306   5.532   0.995
14152TIP3    H242414   1.301   5.459   0.863
14153TIP3   OH242415   2.927   4.514   4.309
14153TIP3    H142416   3.008   4.557   4.337
14153TIP3    H242417   2.929   4.519   4.213
14154TIP3   OH242418   0.361   0.056   6.174
14154TIP3    H142419   0.391  -0.034   6.174
14154TIP3    H242420   0.361   0.081   6.267
14155TIP3   OH242421   5.696   5.491   4.641
14155TIP3    H142422   5.626   5.534   4.691
14155TIP3    H242423   5.674   5.398   4.643
14156TIP3   OH242424   3.563   7.524   0.066
14156TIP3    H142425   3.618   7.561   0.135
14156TIP3    H242426   3.528   7.444   0.104
14157TIP3   OH242427   5.667   2.737   2.319
14157TIP3    H142428   5.654   2.786   2.400
14157TIP3    H242429   5.658   2.645   2.344
14158TIP3   OH242430   5.736   7.678   0.919
14158TIP3    H142431   5.823   7.670   0.957
14158TIP3    H242432   5.676   7.671   0.994
14159TIP3   OH242433   4.195   3.446   0.500
14159TIP3    H142434   4.279   3.426   0.460
14159TIP3    H242435   4.209   3.436   0.594
14160TIP3   OH242436   4.187   0.544   0.216
14160TIP3    H142437   4.193   0.542   0.120
14160TIP3    H242438   4.275   0.566   0.245
14161TIP3   OH242439   2.153   3.475   2.944
14161TIP3    H142440   2.100   3.554   2.945
14161TIP3    H242441   2.166   3.456   2.851
14162TIP3   OH242442   4.577   5.505   4.968
14162TIP3    H142443   4.638   5.432   4.982
14162TIP3    H242444   4.625   5.582   4.998
14163TIP3   OH242445   7.526   2.520   5.465
14163TIP3    H142446   7.541   2.608   5.500
14163TIP3    H242447   7.471   2.533   5.388
14164TIP3   OH242448   6.562   3.116   1.283
14164TIP3    H142449   6.548   3.195   1.335
14164TIP3    H242450   6.545   3.043   1.343
14165TIP3   OH242451   0.846   7.040   1.505
14165TIP3    H142452   0.790   7.005   1.575
14165TIP3    H242453   0.914   7.088   1.552
14166TIP3   OH242454   5.679   7.629   6.628
14166TIP3    H142455   5.731   7.582   6.694
14166TIP3    H242456   5.651   7.709   6.672
14167TIP3   OH242457   7.642   2.218   5.045
14167TIP3    H142458   7.721   2.240   5.094
14167TIP3    H242459   7.659   2.247   4.956
14168TIP3   OH242460   7.314   2.337   5.950
14168TIP3    H142461   7.249   2.405   5.968
14168TIP3    H242462   7.346   2.358   5.862
14169TIP3   OH242463   7.177   7.522   2.702
14169TIP3    H142464   7.218   7.545   2.785
14169TIP3    H242465   7.198   7.595   2.643
14170TIP3   OH242466   4.129   7.476   2.328
14170TIP3    H142467   4.176   7.404   2.369
14170TIP3    H242468   4.051   7.436   2.290
14171TIP3   OH242469   7.929   0.029   2.000
14171TIP3    H142470   7.836   0.040   1.980
14171TIP3    H242471   7.973   0.097   1.949
14172TIP3   OH242472   1.503   7.285   1.175
14172TIP3    H142473   1.470   7.350   1.112
14172TIP3    H242474   1.494   7.327   1.260
14173TIP3   OH242475   6.282   3.438   2.533
14173TIP3    H142476   6.374   3.464   2.524
14173TIP3    H242477   6.266   3.381   2.459
14174TIP3   OH242478   0.846   7.764   5.477
14174TIP3    H142479   0.781   7.809   5.532
14174TIP3    H242480   0.916   7.740   5.538
14175TIP3   OH242481   4.347   1.927   1.019
14175TIP3    H142482   4.266   1.912   0.971
14175TIP3    H242483   4.323   1.916   1.111
14176TIP3   OH242484   4.914   1.585   3.160
14176TIP3    H142485   4.940   1.665   3.206
14176TIP3    H242486   4.848   1.545   3.217
14177TIP3   OH242487   8.152   5.657   3.787
14177TIP3    H142488   8.065   5.692   3.806
14177TIP3    H242489   8.186   5.716   3.719
14178TIP3   OH242490   5.975   2.034   4.213
14178TIP3    H142491   6.052   1.977   4.210
14178TIP3    H242492   5.939   2.022   4.301
14179TIP3   OH242493   4.385   3.691   6.544
14179TIP3    H142494   4.387   3.751   6.618
14179TIP3    H242495   4.474   3.691   6.511
14180TIP3   OH242496   0.414   3.531   4.738
14180TIP3    H142497   0.378   3.579   4.813
14180TIP3    H242498   0.462   3.597   4.689
14181TIP3   OH242499   3.448   3.923   0.030
14181TIP3    H142500   3.392   3.865  -0.020
14181TIP3    H242501   3.491   3.866   0.094
14182TIP3   OH242502   0.486   2.374   6.355
14182TIP3    H142503   0.533   2.416   6.283
14182TIP3    H242504   0.554   2.351   6.418
14183TIP3   OH242505   2.160   0.317   3.113
14183TIP3    H142506   2.178   0.342   3.203
14183TIP3    H242507   2.246   0.295   3.076
14184TIP3   OH242508   4.206   3.022   4.972
14184TIP3    H142509   4.127   3.073   4.992
14184TIP3    H242510   4.221   3.037   4.878
14185TIP3   OH242511   3.159   0.918   1.900
14185TIP3    H142512   3.100   0.988   1.873
14185TIP3    H242513   3.203   0.890   1.820
14186TIP3   OH242514   2.152   2.905   0.917
14186TIP3    H142515   2.240   2.910   0.879
14186TIP3    H242516   2.166   2.876   1.007
14187TIP3   OH242517   2.304   6.489   5.200
14187TIP3    H142518   2.312   6.576   5.240
14187TIP3    H242519   2.331   6.502   5.110
14188TIP3   OH242520   5.701   2.483   1.763
14188TIP3    H142521   5.717   2.453   1.673
14188TIP3    H242522   5.767   2.551   1.778
14189TIP3   OH242523   7.862   7.146   3.389
14189TIP3    H142524   7.819   7.110   3.312
14189TIP3    H242525   7.955   7.152   3.365
14190TIP3   OH242526   1.850   0.607   3.909
14190TIP3    H142527   1.841   0.656   3.828
14190TIP3    H242528   1.944   0.602   3.924
14191TIP3   OH242529   2.370   4.689   1.484
14191TIP3    H142530   2.283   4.649   1.488
14191TIP3    H242531   2.355   4.782   1.496
14192TIP3   OH242532   4.692   5.973   3.549
14192TIP3    H142533   4.751   5.936   3.615
14192TIP3    H242534   4.667   6.058   3.584
14193TIP3   OH242535   1.137   6.350   5.475
14193TIP3    H142536   1.212   6.364   5.417
14193TIP3    H242537   1.079   6.292   5.426
14194TIP3   OH242538   8.004   2.244   2.395
14194TIP3    H142539   7.952   2.299   2.336
14194TIP3    H242540   7.964   2.257   2.481
14195TIP3   OH242541   5.289   4.339   5.235
14195TIP3    H142542   5.292   4.430   5.204
14195TIP3    H242543   5.291   4.287   5.155
14196TIP3   OH242544   0.094   0.980   1.821
14196TIP3    H142545   0.162   0.916   1.802
14196TIP3    H242546   0.016   0.948   1.775
14197TIP3   OH242547   4.076   7.606   1.762
14197TIP3    H142548   4.053   7.691   1.801
14197TIP3    H242549   4.005   7.588   1.701
14198TIP3   OH242550   6.347   5.457   2.532
14198TIP3    H142551   6.423   5.409   2.498
14198TIP3    H242552   6.297   5.480   2.454
14199TIP3   OH242553   7.461   2.787   5.255
14199TIP3    H142554   7.385   2.741   5.290
14199TIP3    H242555   7.436   2.811   5.166
14200TIP3   OH242556   5.449   0.860   1.559
14200TIP3    H142557   5.383   0.879   1.493
14200TIP3    H242558   5.451   0.938   1.615
14201TIP3   OH242559   0.529   3.595   6.522
14201TIP3    H142560   0.514   3.586   6.616
14201TIP3    H242561   0.474   3.528   6.482
14202TIP3   OH242562   3.998   4.459   0.146
14202TIP3    H142563   3.981   4.486   0.056
14202TIP3    H242564   3.913   4.429   0.179
14203TIP3   OH242565   7.928   3.181   4.269
14203TIP3    H142566   7.856   3.118   4.271
14203TIP3    H242567   7.910   3.241   4.341
14204TIP3   OH242568   0.479   2.204   5.804
14204TIP3    H142569   0.384   2.199   5.814
14204TIP3    H242570   0.510   2.232   5.890
14205TIP3   OH242571   7.117   0.123   4.735
14205TIP3    H142572   7.054   0.060   4.771
14205TIP3    H242573   7.195   0.114   4.790
14206TIP3   OH242574   3.166   6.745   4.735
14206TIP3    H142575   3.130   6.713   4.818
14206TIP3    H242576   3.093   6.790   4.693
14207TIP3   OH242577   1.242   4.007   3.779
14207TIP3    H142578   1.196   3.933   3.738
14207TIP3    H242579   1.320   4.019   3.726
14208TIP3   OH242580   6.490   5.967   5.557
14208TIP3    H142581   6.543   5.890   5.580
14208TIP3    H242582   6.515   5.986   5.466
14209TIP3   OH242583   2.060   5.220   4.160
14209TIP3    H142584   2.014   5.163   4.222
14209TIP3    H242585   2.052   5.176   4.076
14210TIP3   OH242586   7.200   0.194   5.718
14210TIP3    H142587   7.221   0.114   5.766
14210TIP3    H242588   7.276   0.209   5.662
14211TIP3   OH242589   3.728   2.257   3.632
14211TIP3    H142590   3.757   2.295   3.715
14211TIP3    H242591   3.739   2.163   3.644
14212TIP3   OH242592   2.773   2.092   5.022
14212TIP3    H142593   2.714   2.116   4.951
14212TIP3    H242594   2.754   2.155   5.092
14213TIP3   OH242595   2.700   7.724   3.439
14213TIP3    H142596   2.792   7.742   3.423
14213TIP3    H242597   2.655   7.805   3.413
14214TIP3   OH242598   6.616   5.715   2.946
14214TIP3    H142599   6.603   5.655   2.873
14214TIP3    H242600   6.533   5.762   2.953
14215TIP3   OH242601   0.394   4.493   2.343
14215TIP3    H142602   0.364   4.402   2.345
14215TIP3    H242603   0.484   4.489   2.373
14216TIP3   OH242604   7.712   2.418   6.058
14216TIP3    H142605   7.638   2.376   6.104
14216TIP3    H242606   7.717   2.505   6.097
14217TIP3   OH242607   1.696   3.316   3.936
14217TIP3    H142608   1.780   3.301   3.980
14217TIP3    H242609   1.638   3.348   4.006
14218TIP3   OH242610   7.856   6.845   6.070
14218TIP3    H142611   7.938   6.865   6.115
14218TIP3    H242612   7.881   6.791   5.996
14219TIP3   OH242613   5.828   6.397   1.183
14219TIP3    H142614   5.789   6.391   1.270
14219TIP3    H242615   5.920   6.415   1.199
14220TIP3   OH242616   4.978   6.661   0.158
14220TIP3    H142617   5.063   6.699   0.179
14220TIP3    H242618   4.979   6.649   0.064
14221TIP3   OH242619   2.850   1.367   3.549
14221TIP3    H142620   2.926   1.326   3.590
14221TIP3    H242621   2.888   1.431   3.488
14222TIP3   OH242622   5.527   6.758   1.692
14222TIP3    H142623   5.596   6.819   1.668
14222TIP3    H242624   5.446   6.801   1.665
14223TIP3   OH242625   3.733   1.456   0.266
14223TIP3    H142626   3.782   1.446   0.348
14223TIP3    H242627   3.796   1.434   0.198
14224TIP3   OH242628   1.643   5.475   0.893
14224TIP3    H142629   1.552   5.502   0.906
14224TIP3    H242630   1.692   5.522   0.960
14225TIP3   OH242631   2.819   3.829   5.708
14225TIP3    H142632   2.814   3.869   5.621
14225TIP3    H242633   2.821   3.904   5.768
14226TIP3   OH242634   5.175   3.117   2.712
14226TIP3    H142635   5.160   3.178   2.640
14226TIP3    H242636   5.096   3.063   2.715
14227TIP3   OH242637   5.920   2.313   1.616
14227TIP3    H142638   5.845   2.262   1.648
14227TIP3    H242639   5.997   2.266   1.648
14228TIP3   OH242640   1.156   2.817   3.398
14228TIP3    H142641   1.061   2.807   3.398
14228TIP3    H242642   1.187   2.748   3.457
14229TIP3   OH242643   3.784   3.864   1.463
14229TIP3    H142644   3.714   3.851   1.399
14229TIP3    H242645   3.766   3.798   1.531
14230TIP3   OH242646   2.562   1.197   4.525
14230TIP3    H142647   2.510   1.141   4.467
14230TIP3    H242648   2.498   1.239   4.582
14231TIP3   OH242649   2.139   5.816   1.247
14231TIP3    H142650   2.130   5.874   1.323
14231TIP3    H242651   2.169   5.873   1.176
14232TIP3   OH242652   1.956   2.810   0.197
14232TIP3    H142653   1.984   2.739   0.255
14232TIP3    H242654   1.934   2.765   0.115
14233TIP3   OH242655   4.290   4.325   5.024
14233TIP3    H142656   4.277   4.230   5.030
14233TIP3    H242657   4.296   4.353   5.116
14234TIP3   OH242658   5.846   2.905   3.520
14234TIP3    H142659   5.790   2.861   3.583
14234TIP3    H242660   5.923   2.848   3.514
14235TIP3   OH242661   3.081   7.345   3.391
14235TIP3    H142662   3.145   7.286   3.352
14235TIP3    H242663   3.040   7.294   3.461
14236TIP3   OH242664   8.129   1.288   5.656
14236TIP3    H142665   8.156   1.279   5.747
14236TIP3    H242666   8.035   1.307   5.662
14237TIP3   OH242667   1.873   3.452   5.906
14237TIP3    H142668   1.827   3.507   5.842
14237TIP3    H242669   1.844   3.363   5.886
14238TIP3   OH242670   3.199   2.003   0.746
14238TIP3    H142671   3.249   2.063   0.801
14238TIP3    H242672   3.108   2.025   0.764
14239TIP3   OH242673   6.935   2.842   3.847
14239TIP3    H142674   7.011   2.884   3.808
14239TIP3    H242675   6.970   2.767   3.894
14240TIP3   OH242676   8.030   1.102   2.120
14240TIP3    H142677   7.948   1.139   2.153
14240TIP3    H242678   8.086   1.178   2.102
14241TIP3   OH242679   2.744   2.534   1.494
14241TIP3    H142680   2.818   2.562   1.441
14241TIP3    H242681   2.779   2.466   1.552
14242TIP3   OH242682   1.667   7.563   5.664
14242TIP3    H142683   1.728   7.495   5.693
14242TIP3    H242684   1.602   7.569   5.734
14243TIP3   OH242685   0.608   5.503   4.340
14243TIP3    H142686   0.552   5.545   4.407
14243TIP3    H242687   0.558   5.426   4.313
14244TIP3   OH242688   3.679   5.705   2.771
14244TIP3    H142689   3.657   5.662   2.854
14244TIP3    H242690   3.773   5.717   2.774
14245TIP3   OH242691   4.976   2.103   4.640
14245TIP3    H142692   4.900   2.062   4.680
14245TIP3    H242693   5.036   2.118   4.713
14246TIP3   OH242694   0.325   5.126   1.615
14246TIP3    H142695   0.389   5.067   1.655
14246TIP3    H242696   0.372   5.164   1.541
14247TIP3   OH242697   4.588   6.799   1.737
14247TIP3    H142698   4.632   6.720   1.708
14247TIP3    H242699   4.511   6.806   1.681
14248TIP3   OH242700   6.022   4.556   3.579
14248TIP3    H142701   6.000   4.468   3.549
14248TIP3    H242702   6.026   4.609   3.499
14249TIP3   OH242703   6.110   2.369   4.347
14249TIP3    H142704   6.116   2.276   4.323
14249TIP3    H242705   6.022   2.380   4.381
14250TIP3   OH242706   7.740   3.419   6.803
14250TIP3    H142707   7.680   3.448   6.734
14250TIP3    H242708   7.806   3.367   6.757
14251TIP3   OH242709   6.851   7.226   2.972
14251TIP3    H142710   6.844   7.141   2.928
14251TIP3    H242711   6.766   7.238   3.014
14252TIP3   OH242712   2.340   2.063   1.868
14252TIP3    H142713   2.312   1.995   1.929
14252TIP3    H242714   2.334   2.144   1.919
14253TIP3   OH242715   5.409   3.612   5.024
14253TIP3    H142716   5.344   3.624   5.093
14253TIP3    H242717   5.477   3.677   5.043
14254TIP3   OH242718   7.665   2.906   3.064
14254TIP3    H142719   7.592   2.956   3.030
14254TIP3    H242720   7.687   2.948   3.147
14255TIP3   OH242721   6.233   0.252   5.069
14255TIP3    H142722   6.186   0.175   5.037
14255TIP3    H242723   6.267   0.225   5.154
14256TIP3   OH242724   0.594   7.000   6.706
14256TIP3    H142725   0.682   7.004   6.742
14256TIP3    H242726   0.606   6.967   6.617
14257TIP3   OH242727   4.228   0.717   6.113
14257TIP3    H142728   4.159   0.781   6.127
14257TIP3    H242729   4.309   0.760   6.142
14258TIP3   OH242730   4.805   4.092   2.037
14258TIP3    H142731   4.873   4.114   1.974
14258TIP3    H242732   4.840   4.118   2.122
14259TIP3   OH242733   5.162   6.365   5.874
14259TIP3    H142734   5.101   6.354   5.947
14259TIP3    H242735   5.240   6.317   5.901
14260TIP3   OH242736   7.406   5.007   0.837
14260TIP3    H142737   7.393   4.994   0.931
14260TIP3    H242738   7.489   5.054   0.830
14261TIP3   OH242739   6.454   6.514   5.647
14261TIP3    H142740   6.445   6.579   5.717
14261TIP3    H242741   6.544   6.526   5.616
14262TIP3   OH242742   0.440   7.776   5.415
14262TIP3    H142743   0.518   7.787   5.361
14262TIP3    H242744   0.403   7.864   5.419
14263TIP3   OH242745   5.302   0.188   2.514
14263TIP3    H142746   5.370   0.227   2.459
14263TIP3    H242747   5.347   0.164   2.595
14264TIP3   OH242748   2.622   5.621   0.682
14264TIP3    H142749   2.716   5.600   0.688
14264TIP3    H242750   2.579   5.557   0.738
14265TIP3   OH242751   1.273   5.271   4.925
14265TIP3    H142752   1.277   5.229   4.839
14265TIP3    H242753   1.345   5.233   4.975
14266TIP3   OH242754   5.004   7.522   2.931
14266TIP3    H142755   5.050   7.513   3.015
14266TIP3    H242756   5.072   7.540   2.867
14267TIP3   OH242757   6.816   1.676   0.391
14267TIP3    H142758   6.832   1.588   0.358
14267TIP3    H242759   6.769   1.663   0.473
14268TIP3   OH242760   7.054   1.483   4.849
14268TIP3    H142761   7.056   1.542   4.925
14268TIP3    H242762   7.109   1.526   4.783
14269TIP3   OH242763   4.061   4.515   6.422
14269TIP3    H142764   3.987   4.523   6.362
14269TIP3    H242765   4.134   4.555   6.376
14270TIP3   OH242766   4.574   0.205   2.934
14270TIP3    H142767   4.667   0.202   2.911
14270TIP3    H242768   4.562   0.290   2.975
14271TIP3   OH242769   4.330   2.076   2.686
14271TIP3    H142770   4.347   2.170   2.691
14271TIP3    H242771   4.289   2.063   2.601
14272TIP3   OH242772   2.123   6.821   1.820
14272TIP3    H142773   2.217   6.835   1.814
14272TIP3    H242774   2.107   6.801   1.912
14273TIP3   OH242775   4.292   5.203   1.426
14273TIP3    H142776   4.358   5.141   1.459
14273TIP3    H242777   4.333   5.289   1.435
14274TIP3   OH242778   2.020   2.471   6.384
14274TIP3    H142779   2.107   2.448   6.416
14274TIP3    H242780   1.966   2.394   6.403
14275TIP3   OH242781   4.908   3.444   5.201
14275TIP3    H142782   4.960   3.495   5.140
14275TIP3    H242783   4.915   3.354   5.170
14276TIP3   OH242784   5.353   1.782   6.487
14276TIP3    H142785   5.281   1.759   6.545
14276TIP3    H242786   5.428   1.793   6.545
14277TIP3   OH242787   0.484   4.032   5.747
14277TIP3    H142788   0.552   3.972   5.717
14277TIP3    H242789   0.467   4.088   5.672
14278TIP3   OH242790   4.935   1.799   3.353
14278TIP3    H142791   5.001   1.769   3.416
14278TIP3    H242792   4.953   1.893   3.342
14279TIP3   OH242793   6.521   2.117   6.388
14279TIP3    H142794   6.535   2.128   6.294
14279TIP3    H242795   6.608   2.106   6.424
14280TIP3   OH242796   3.259   0.655   2.470
14280TIP3    H142797   3.265   0.562   2.491
14280TIP3    H242798   3.251   0.658   2.374
14281TIP3   OH242799   0.789   0.066   0.174
14281TIP3    H142800   0.694   0.074   0.173
14281TIP3    H242801   0.806  -0.027   0.162
14282TIP3   OH242802   0.616   5.644   0.064
14282TIP3    H142803   0.660   5.703   0.126
14282TIP3    H242804   0.608   5.696  -0.016
14283TIP3   OH242805   6.288   4.389   1.411
14283TIP3    H142806   6.266   4.477   1.442
14283TIP3    H242807   6.206   4.353   1.379
14284TIP3   OH242808   6.557   7.480   1.727
14284TIP3    H142809   6.614   7.556   1.733
14284TIP3    H242810   6.612   7.406   1.754
14285TIP3   OH242811   1.420   2.363   2.963
14285TIP3    H142812   1.339   2.386   2.918
14285TIP3    H242813   1.397   2.362   3.056
14286TIP3   OH242814   6.171   0.325   2.359
14286TIP3    H142815   6.208   0.325   2.271
14286TIP3    H242816   6.153   0.417   2.377
14287TIP3   OH242817   5.800   1.236   6.170
14287TIP3    H142818   5.803   1.323   6.129
14287TIP3    H242819   5.773   1.254   6.260
14288TIP3   OH242820   5.477   7.449   0.260
14288TIP3    H142821   5.451   7.358   0.274
14288TIP3    H242822   5.449   7.468   0.170
14289TIP3   OH242823   7.311   1.810   1.889
14289TIP3    H142824   7.352   1.848   1.810
14289TIP3    H242825   7.285   1.722   1.862
14290TIP3   OH242826   1.778   2.900   4.637
14290TIP3    H142827   1.711   2.841   4.603
14290TIP3    H242828   1.826   2.928   4.559
14291TIP3   OH242829   6.420   4.362   2.959
14291TIP3    H142830   6.418   4.432   3.024
14291TIP3    H242831   6.367   4.395   2.887
14292TIP3   OH242832   1.246   4.014   5.467
14292TIP3    H142833   1.189   4.065   5.525
14292TIP3    H242834   1.208   3.927   5.467
14293TIP3   OH242835   5.497   3.594   1.210
14293TIP3    H142836   5.481   3.512   1.163
14293TIP3    H242837   5.579   3.578   1.258
14294TIP3   OH242838   1.823   1.494   4.408
14294TIP3    H142839   1.843   1.437   4.334
14294TIP3    H242840   1.894   1.479   4.471
14295TIP3   OH242841   5.120   3.623   5.059
14295TIP3    H142842   5.074   3.707   5.065
14295TIP3    H242843   5.125   3.606   4.965
14296TIP3   OH242844   2.202   4.406   3.415
14296TIP3    H142845   2.202   4.495   3.451
14296TIP3    H242846   2.275   4.362   3.460
14297TIP3   OH242847   2.194   6.884   0.359
14297TIP3    H142848   2.120   6.844   0.404
14297TIP3    H242849   2.227   6.815   0.301
14298TIP3   OH242850   6.897   1.621   3.771
14298TIP3    H142851   6.941   1.696   3.810
14298TIP3    H242852   6.914   1.548   3.831
14299TIP3   OH242853   5.524   2.468   0.540
14299TIP3    H142854   5.458   2.498   0.477
14299TIP3    H242855   5.608   2.487   0.498
14300TIP3   OH242856   5.471   7.061   4.965
14300TIP3    H142857   5.419   7.125   5.013
14300TIP3    H242858   5.500   7.107   4.887
14301TIP3   OH242859   3.380   5.244   0.156
14301TIP3    H142860   3.326   5.291   0.219
14301TIP3    H242861   3.391   5.157   0.195
14302TIP3   OH242862   2.260   0.255   6.500
14302TIP3    H142863   2.219   0.292   6.422
14302TIP3    H242864   2.275   0.329   6.558
14303TIP3   OH242865   0.583   1.418   1.268
14303TIP3    H142866   0.591   1.350   1.201
14303TIP3    H242867   0.666   1.465   1.265
14304TIP3   OH242868   2.381   1.684   3.855
14304TIP3    H142869   2.374   1.593   3.883
14304TIP3    H242870   2.406   1.732   3.934
14305TIP3   OH242871   7.386   3.723   3.506
14305TIP3    H142872   7.303   3.712   3.553
14305TIP3    H242873   7.452   3.731   3.574
14306TIP3   OH242874   5.895   2.400   0.881
14306TIP3    H142875   5.829   2.372   0.818
14306TIP3    H242876   5.847   2.458   0.941
14307TIP3   OH242877   0.771   1.497   4.313
14307TIP3    H142878   0.851   1.546   4.331
14307TIP3    H242879   0.779   1.417   4.365
14308TIP3   OH242880   7.085   1.963   1.410
14308TIP3    H142881   7.114   1.872   1.412
14308TIP3    H242882   7.141   2.007   1.474
14309TIP3   OH242883   0.069   0.997   6.495
14309TIP3    H142884  -0.004   1.030   6.547
14309TIP3    H242885   0.142   0.991   6.556
14310TIP3   OH242886   3.160   7.523   4.810
14310TIP3    H142887   3.203   7.511   4.725
14310TIP3    H242888   3.067   7.527   4.788
14311TIP3   OH242889   1.437   7.546   4.241
14311TIP3    H142890   1.424   7.565   4.149
14311TIP3    H242891   1.357   7.501   4.268
14312TIP3   OH242892   2.924   5.384   0.127
14312TIP3    H142893   3.007   5.428   0.146
14312TIP3    H242894   2.858   5.436   0.171
14313TIP3   OH242895   7.704   6.751   2.169
14313TIP3    H142896   7.664   6.711   2.092
14313TIP3    H242897   7.782   6.699   2.185
14314TIP3   OH242898   4.547   6.600   0.557
14314TIP3    H142899   4.511   6.559   0.636
14314TIP3    H242900   4.534   6.694   0.571
14315TIP3   OH242901   6.865   0.446   0.513
14315TIP3    H142902   6.931   0.505   0.550
14315TIP3    H242903   6.901   0.420   0.428
14316TIP3   OH242904   3.619   2.197   0.188
14316TIP3    H142905   3.612   2.260   0.259
14316TIP3    H242906   3.588   2.245   0.111
14317TIP3   OH242907   2.033   5.676   0.344
14317TIP3    H142908   2.114   5.716   0.376
14317TIP3    H242909   2.061   5.625   0.267
14318TIP3   OH242910   4.178   1.308   3.647
14318TIP3    H142911   4.167   1.373   3.716
14318TIP3    H242912   4.221   1.234   3.691
14319TIP3   OH242913  -0.010   5.998   5.169
14319TIP3    H142914   0.048   5.924   5.189
14319TIP3    H242915  -0.033   5.986   5.076
14320TIP3   OH242916   5.604   5.215   6.078
14320TIP3    H142917   5.636   5.157   6.147
14320TIP3    H242918   5.630   5.172   5.996
14321TIP3   OH242919   7.685   2.263   0.813
14321TIP3    H142920   7.680   2.275   0.718
14321TIP3    H242921   7.601   2.224   0.836
14322TIP3   OH242922   7.238   3.648   2.920
14322TIP3    H142923   7.288   3.624   2.842
14322TIP3    H242924   7.296   3.705   2.969
14323TIP3   OH242925   4.505   4.424   4.531
14323TIP3    H142926   4.459   4.422   4.615
14323TIP3    H242927   4.595   4.399   4.552
14324TIP3   OH242928   0.734   3.475   4.430
14324TIP3    H142929   0.649   3.431   4.434
14324TIP3    H242930   0.782   3.428   4.362
14325TIP3   OH242931   6.525   6.555   4.448
14325TIP3    H142932   6.554   6.464   4.456
14325TIP3    H242933   6.512   6.568   4.354
14326TIP3   OH242934   7.199   7.704   6.695
14326TIP3    H142935   7.131   7.770   6.682
14326TIP3    H242936   7.277   7.754   6.717
14327TIP3   OH242937   0.482   6.591   4.012
14327TIP3    H142938   0.558   6.545   3.977
14327TIP3    H242939   0.442   6.633   3.935
14328TIP3   OH242940   5.913   5.017   3.724
14328TIP3    H142941   5.983   4.972   3.772
14328TIP3    H242942   5.834   4.999   3.775
14329TIP3   OH242943   3.492   5.854   6.731
14329TIP3    H142944   3.552   5.843   6.658
14329TIP3    H242945   3.405   5.844   6.693
14330TIP3   OH242946   5.200   0.546   0.910
14330TIP3    H142947   5.157   0.536   0.995
14330TIP3    H242948   5.254   0.624   0.919
14331TIP3   OH242949   4.546   4.999   3.412
14331TIP3    H142950   4.467   5.013   3.464
14331TIP3    H242951   4.519   5.021   3.322
14332TIP3   OH242952   2.491   0.800   0.875
14332TIP3    H142953   2.402   0.804   0.841
14332TIP3    H242954   2.501   0.710   0.906
14333TIP3   OH242955   0.514   6.799   2.354
14333TIP3    H142956   0.583   6.744   2.316
14333TIP3    H242957   0.467   6.741   2.414
14334TIP3   OH242958   5.066   2.162   3.911
14334TIP3    H142959   5.108   2.244   3.935
14334TIP3    H242960   5.137   2.097   3.914
14335TIP3   OH242961   7.002   4.379   5.534
14335TIP3    H142962   7.046   4.367   5.450
14335TIP3    H242963   6.932   4.314   5.534
14336TIP3   OH242964   7.242   4.468   5.892
14336TIP3    H142965   7.173   4.523   5.856
14336TIP3    H242966   7.228   4.471   5.987
14337TIP3   OH242967   1.553   2.260   3.312
14337TIP3    H142968   1.481   2.205   3.282
14337TIP3    H242969   1.624   2.198   3.329
14338TIP3   OH242970   6.583   7.563   5.372
14338TIP3    H142971   6.551   7.472   5.373
14338TIP3    H242972   6.648   7.564   5.302
14339TIP3   OH242973   1.866   0.242   1.961
14339TIP3    H142974   1.798   0.260   2.025
14339TIP3    H242975   1.875   0.147   1.961
14340TIP3   OH242976   2.731   7.359   2.783
14340TIP3    H142977   2.719   7.369   2.688
14340TIP3    H242978   2.677   7.428   2.821
14341TIP3   OH242979   7.748   5.556   2.507
14341TIP3    H142980   7.835   5.533   2.542
14341TIP3    H242981   7.693   5.480   2.529
14342TIP3   OH242982   5.614   5.259   2.867
14342TIP3    H142983   5.592   5.169   2.842
14342TIP3    H242984   5.536   5.310   2.845
14343TIP3   OH242985   5.771   2.818   1.909
14343TIP3    H142986   5.778   2.879   1.836
14343TIP3    H242987   5.751   2.872   1.985
14344TIP3   OH242988   0.530   5.389   3.921
14344TIP3    H142989   0.438   5.365   3.926
14344TIP3    H242990   0.536   5.445   3.844
14345TIP3   OH242991   6.000   7.612   4.481
14345TIP3    H142992   5.978   7.525   4.450
14345TIP3    H242993   5.930   7.635   4.542
14346TIP3   OH242994   7.499   2.259   6.620
14346TIP3    H142995   7.489   2.293   6.709
14346TIP3    H242996   7.411   2.268   6.582
14347TIP3   OH242997   6.219   5.322   3.076
14347TIP3    H142998   6.193   5.258   3.142
14347TIP3    H242999   6.314   5.309   3.067
14348TIP3   OH243000   1.622   3.140   1.092
14348TIP3    H143001   1.709   3.102   1.078
14348TIP3    H243002   1.602   3.184   1.009
14349TIP3   OH243003   4.964   3.474   6.149
14349TIP3    H143004   4.962   3.554   6.201
14349TIP3    H243005   5.046   3.430   6.174
14350TIP3   OH243006   0.918   5.259   6.436
14350TIP3    H143007   0.881   5.232   6.352
14350TIP3    H243008   0.842   5.285   6.488
14351TIP3   OH243009   2.690   1.021   1.754
14351TIP3    H143010   2.612   1.070   1.779
14351TIP3    H243011   2.661   0.963   1.684
14352TIP3   OH243012   6.916   0.268   6.560
14352TIP3    H143013   6.869   0.211   6.498
14352TIP3    H243014   6.995   0.294   6.514
14353TIP3   OH243015   0.674   3.067   0.424
14353TIP3    H143016   0.592   3.065   0.375
14353TIP3    H243017   0.676   2.983   0.470
14354TIP3   OH243018   8.004   5.440   4.878
14354TIP3    H143019   7.982   5.464   4.968
14354TIP3    H243020   8.011   5.344   4.880
14355TIP3   OH243021   4.438   5.418   5.306
14355TIP3    H143022   4.526   5.453   5.310
14355TIP3    H243023   4.395   5.467   5.237
14356TIP3   OH243024   7.449   7.124   5.064
14356TIP3    H143025   7.461   7.100   4.973
14356TIP3    H243026   7.444   7.040   5.110
14357TIP3   OH243027   4.371   7.584   0.238
14357TIP3    H143028   4.354   7.654   0.175
14357TIP3    H243029   4.443   7.534   0.201
14358TIP3   OH243030   4.582   2.033   2.917
14358TIP3    H143031   4.609   2.121   2.943
14358TIP3    H243032   4.486   2.036   2.920
14359TIP3   OH243033   1.546   4.049   6.756
14359TIP3    H143034   1.499   4.039   6.838
14359TIP3    H243035   1.512   3.979   6.700
14360TIP3   OH243036   3.989   2.412   6.471
14360TIP3    H143037   4.010   2.503   6.491
14360TIP3    H243038   3.908   2.395   6.518
14361TIP3   OH243039   1.868   1.525   4.836
14361TIP3    H143040   1.801   1.563   4.780
14361TIP3    H243041   1.819   1.482   4.907
14362TIP3   OH243042   2.779   5.394   5.195
14362TIP3    H143043   2.751   5.388   5.104
14362TIP3    H243044   2.810   5.306   5.217
14363TIP3   OH243045   1.566   0.506   5.939
14363TIP3    H143046   1.536   0.415   5.936
14363TIP3    H243047   1.585   0.528   5.847
14364TIP3   OH243048   1.287   0.824   5.350
14364TIP3    H143049   1.227   0.863   5.413
14364TIP3    H243050   1.314   0.897   5.295
14365TIP3   OH243051   2.549   4.027   6.145
14365TIP3    H143052   2.540   3.947   6.093
14365TIP3    H243053   2.476   4.082   6.117
14366TIP3   OH243054   0.831   2.701   5.469
14366TIP3    H143055   0.818   2.730   5.559
14366TIP3    H243056   0.750   2.654   5.447
14367TIP3   OH243057   3.066   2.122   4.885
14367TIP3    H143058   3.150   2.152   4.849
14367TIP3    H243059   3.012   2.105   4.807
14368TIP3   OH243060   5.097   0.948   3.786
14368TIP3    H143061   5.178   0.925   3.741
14368TIP3    H243062   5.119   1.028   3.835
14369TIP3   OH243063   4.566   3.820   2.650
14369TIP3    H143064   4.474   3.799   2.664
14369TIP3    H243065   4.572   3.839   2.557
14370TIP3   OH243066   3.037   2.712   1.634
14370TIP3    H143067   3.006   2.766   1.561
14370TIP3    H243068   3.060   2.628   1.594
14371TIP3   OH243069   6.043   7.065   3.864
14371TIP3    H143070   6.065   6.978   3.833
14371TIP3    H243071   5.986   7.051   3.939
14372TIP3   OH243072   5.622   7.003   4.101
14372TIP3    H143073   5.584   7.024   4.186
14372TIP3    H243074   5.557   6.945   4.060
14373TIP3   OH243075   1.877   3.633   4.037
14373TIP3    H143076   1.908   3.545   4.018
14373TIP3    H243077   1.912   3.652   4.124
14374TIP3   OH243078   5.908   0.085   2.515
14374TIP3    H143079   5.821   0.082   2.476
14374TIP3    H243080   5.967   0.089   2.440
14375TIP3   OH243081   0.336   3.412   3.249
14375TIP3    H143082   0.338   3.401   3.344
14375TIP3    H243083   0.282   3.490   3.235
14376TIP3   OH243084   1.077   4.754   6.579
14376TIP3    H143085   1.102   4.667   6.612
14376TIP3    H243086   0.989   4.741   6.542
14377TIP3   OH243087   3.922   0.474   6.328
14377TIP3    H143088   4.014   0.448   6.337
14377TIP3    H243089   3.924   0.569   6.338
14378TIP3   OH243090   3.255   3.435   2.652
14378TIP3    H143091   3.175   3.416   2.604
14378TIP3    H243092   3.227   3.448   2.743
14379TIP3   OH243093   6.497   3.944   0.252
14379TIP3    H143094   6.492   3.849   0.263
14379TIP3    H243095   6.590   3.964   0.263
14380TIP3   OH243096   5.153   4.491   0.179
14380TIP3    H143097   5.205   4.499   0.099
14380TIP3    H243098   5.109   4.576   0.187
14381TIP3   OH243099   0.180   3.224   0.700
14381TIP3    H143100   0.098   3.262   0.670
14381TIP3    H243101   0.243   3.296   0.694
14382TIP3   OH243102   3.097   6.900   1.740
14382TIP3    H143103   3.125   6.969   1.680
14382TIP3    H243104   3.162   6.831   1.730
14383TIP3   OH243105   0.247   6.843   5.945
14383TIP3    H143106   0.269   6.853   5.853
14383TIP3    H243107   0.200   6.924   5.967
14384TIP3   OH243108   2.342   1.189   2.234
14384TIP3    H143109   2.285   1.141   2.174
14384TIP3    H243110   2.402   1.123   2.269
14385TIP3   OH243111   3.763   4.345   5.984
14385TIP3    H143112   3.671   4.368   5.971
14385TIP3    H243113   3.791   4.310   5.899
14386TIP3   OH243114   6.391   6.283   3.906
14386TIP3    H143115   6.466   6.233   3.874
14386TIP3    H243116   6.315   6.241   3.865
14387TIP3   OH243117   0.211   5.704   3.170
14387TIP3    H143118   0.125   5.730   3.202
14387TIP3    H243119   0.220   5.612   3.196
14388TIP3   OH243120   2.094   6.114   1.834
14388TIP3    H143121   2.180   6.134   1.871
14388TIP3    H243122   2.106   6.030   1.789
14389TIP3   OH243123   7.116   2.379   2.685
14389TIP3    H143124   7.034   2.350   2.726
14389TIP3    H243125   7.161   2.428   2.754
14390TIP3   OH243126   1.030   7.375   4.019
14390TIP3    H143127   0.960   7.357   3.957
14390TIP3    H243128   1.066   7.460   3.991
14391TIP3   OH243129   6.860   6.510   1.745
14391TIP3    H143130   6.934   6.453   1.725
14391TIP3    H243131   6.862   6.577   1.677
14392TIP3   OH243132   4.755   5.411   1.709
14392TIP3    H143133   4.686   5.449   1.763
14392TIP3    H243134   4.833   5.413   1.764
14393TIP3   OH243135   3.095   6.651   4.440
14393TIP3    H143136   3.068   6.579   4.496
14393TIP3    H243137   3.185   6.631   4.416
14394TIP3   OH243138   3.449   4.526   4.836
14394TIP3    H143139   3.380   4.584   4.804
14394TIP3    H243140   3.433   4.443   4.791
14395TIP3   OH243141   3.885   4.446   5.489
14395TIP3    H143142   3.808   4.503   5.491
14395TIP3    H243143   3.891   4.418   5.398
14396TIP3   OH243144   1.089   1.330   2.487
14396TIP3    H143145   1.052   1.418   2.489
14396TIP3    H243146   1.022   1.276   2.445
14397TIP3   OH243147   3.308   4.932   1.226
14397TIP3    H143148   3.333   5.009   1.175
14397TIP3    H243149   3.214   4.942   1.240
14398TIP3   OH243150   6.041   6.817   6.789
14398TIP3    H143151   6.131   6.796   6.765
14398TIP3    H243152   5.995   6.824   6.706
14399TIP3   OH243153   7.512   4.162   2.695
14399TIP3    H143154   7.473   4.208   2.621
14399TIP3    H243155   7.558   4.230   2.745
14400TIP3   OH243156   2.474   1.510   5.049
14400TIP3    H143157   2.552   1.491   4.998
14400TIP3    H243158   2.506   1.524   5.138
14401TIP3   OH243159   3.133   2.952   0.298
14401TIP3    H143160   3.072   3.001   0.243
14401TIP3    H243161   3.218   2.961   0.254
14402TIP3   OH243162   6.468   0.096   0.088
14402TIP3    H143163   6.388   0.104   0.140
14402TIP3    H243164   6.445   0.034   0.019
14403TIP3   OH243165   3.324   6.445   6.010
14403TIP3    H143166   3.349   6.439   6.102
14403TIP3    H243167   3.317   6.539   5.992
14404TIP3   OH243168   4.897   4.115   3.287
14404TIP3    H143169   4.910   4.062   3.208
14404TIP3    H243170   4.867   4.053   3.352
14405TIP3   OH243171   4.825   7.033   2.774
14405TIP3    H143172   4.896   6.969   2.781
14405TIP3    H243173   4.858   7.111   2.818
14406TIP3   OH243174   5.829   5.549   5.129
14406TIP3    H143175   5.918   5.568   5.159
14406TIP3    H243176   5.827   5.453   5.121
14407TIP3   OH243177   7.411   3.388   5.034
14407TIP3    H143178   7.388   3.299   5.009
14407TIP3    H243179   7.383   3.397   5.125
14408TIP3   OH243180   4.215   5.995   1.236
14408TIP3    H143181   4.126   5.985   1.201
14408TIP3    H243182   4.273   5.982   1.161
14409TIP3   OH243183   0.772   2.077   1.049
14409TIP3    H143184   0.786   2.096   1.141
14409TIP3    H243185   0.681   2.046   1.045
14410TIP3   OH243186   3.271   5.726   3.554
14410TIP3    H143187   3.264   5.822   3.549
14410TIP3    H243188   3.252   5.696   3.465
14411TIP3   OH243189   2.006   0.324   6.756
14411TIP3    H143190   2.019   0.377   6.678
14411TIP3    H243191   2.059   0.367   6.823
14412TIP3   OH243192   6.138   6.902   0.033
14412TIP3    H143193   6.139   6.807   0.048
14412TIP3    H243194   6.193   6.913  -0.045
14413TIP3   OH243195   8.164   0.644   2.245
14413TIP3    H143196   8.183   0.719   2.188
14413TIP3    H243197   8.196   0.568   2.196
14414TIP3   OH243198   7.048   0.937   3.631
14414TIP3    H143199   7.144   0.935   3.636
14414TIP3    H243200   7.019   0.885   3.706
14415TIP3   OH243201   5.936   6.043   2.833
14415TIP3    H143202   5.979   6.083   2.908
14415TIP3    H243203   5.918   5.953   2.861
14416TIP3   OH243204   0.035   3.879   0.145
14416TIP3    H143205  -0.018   3.815   0.098
14416TIP3    H243206   0.015   3.864   0.238
14417TIP3   OH243207   7.688   6.392   2.471
14417TIP3    H143208   7.696   6.297   2.464
14417TIP3    H243209   7.761   6.426   2.419
14418TIP3   OH243210   5.351   0.586   1.431
14418TIP3    H143211   5.380   0.668   1.392
14418TIP3    H243212   5.377   0.519   1.367
14419TIP3   OH243213   6.227   5.440   5.780
14419TIP3    H143214   6.209   5.528   5.748
14419TIP3    H243215   6.253   5.452   5.872
14420TIP3   OH243216   4.308   5.303   0.914
14420TIP3    H143217   4.353   5.230   0.956
14420TIP3    H243218   4.215   5.282   0.922
14421TIP3   OH243219   6.189   5.901   3.281
14421TIP3    H143220   6.231   5.815   3.291
14421TIP3    H243221   6.102   5.889   3.318
14422TIP3   OH243222   4.008   7.276   6.677
14422TIP3    H143223   4.003   7.194   6.627
14422TIP3    H243224   4.018   7.344   6.610
14423TIP3   OH243225   0.239   3.579   4.033
14423TIP3    H143226   0.157   3.602   4.076
14423TIP3    H243227   0.294   3.657   4.044
14424TIP3   OH243228   6.034   2.946   3.235
14424TIP3    H143229   5.987   2.965   3.154
14424TIP3    H243230   6.111   2.896   3.208
14425TIP3   OH243231   0.802   3.664   0.177
14425TIP3    H143232   0.715   3.626   0.163
14425TIP3    H243233   0.788   3.732   0.243
14426TIP3   OH243234   7.189   2.638   1.228
14426TIP3    H143235   7.111   2.690   1.209
14426TIP3    H243236   7.243   2.695   1.283
14427TIP3   OH243237   2.015   2.359   3.069
14427TIP3    H143238   2.062   2.402   2.998
14427TIP3    H243239   1.996   2.429   3.131
14428TIP3   OH243240   7.964   2.073   0.460
14428TIP3    H143241   8.043   2.076   0.514
14428TIP3    H243242   7.991   2.112   0.377
14429TIP3   OH243243   0.025   5.223   3.069
14429TIP3    H143244   0.024   5.137   3.027
14429TIP3    H243245  -0.023   5.210   3.151
14430TIP3   OH243246   1.896   2.212   1.356
14430TIP3    H143247   1.832   2.142   1.347
14430TIP3    H243248   1.981   2.169   1.348
14431TIP3   OH243249   4.570   0.998   0.105
14431TIP3    H143250   4.577   1.016   0.198
14431TIP3    H243251   4.573   1.084   0.063
14432TIP3   OH243252   4.244   3.669   6.192
14432TIP3    H143253   4.205   3.596   6.240
14432TIP3    H243254   4.181   3.740   6.200
14433TIP3   OH243255   8.130   7.256   6.168
14433TIP3    H143256   8.151   7.182   6.111
14433TIP3    H243257   8.035   7.254   6.176
14434TIP3   OH243258   1.387   7.690   3.733
14434TIP3    H143259   1.396   7.629   3.660
14434TIP3    H243260   1.397   7.776   3.694
14435TIP3   OH243261   0.847   0.270   0.366
14435TIP3    H143262   0.792   0.327   0.312
14435TIP3    H243263   0.837   0.184   0.327
14436TIP3   OH243264   3.966   6.749   0.402
14436TIP3    H143265   3.970   6.658   0.430
14436TIP3    H243266   4.057   6.772   0.381
14437TIP3   OH243267   2.500   0.469   4.756
14437TIP3    H143268   2.425   0.439   4.808
14437TIP3    H243269   2.465   0.479   4.667
14438TIP3   OH243270   3.973   1.221   6.570
14438TIP3    H143271   4.037   1.192   6.505
14438TIP3    H243272   4.026   1.242   6.647
14439TIP3   OH243273   0.063   7.682   2.851
14439TIP3    H143274   0.153   7.670   2.882
14439TIP3    H243275   0.018   7.723   2.925
14440TIP3   OH243276   2.019   0.545   6.591
14440TIP3    H143277   1.976   0.620   6.632
14440TIP3    H243278   1.987   0.546   6.500
14441TIP3   OH243279   0.194   4.813   3.179
14441TIP3    H143280   0.139   4.851   3.110
14441TIP3    H243281   0.282   4.844   3.159
14442TIP3   OH243282   4.944   6.792   5.713
14442TIP3    H143283   4.914   6.868   5.762
14442TIP3    H243284   5.024   6.821   5.670
14443TIP3   OH243285   7.104   6.406   5.438
14443TIP3    H143286   7.093   6.478   5.500
14443TIP3    H243287   7.027   6.413   5.381
14444TIP3   OH243288   6.410   6.380   0.284
14444TIP3    H143289   6.430   6.472   0.269
14444TIP3    H243290   6.460   6.333   0.217
14445TIP3   OH243291   2.000   1.144   3.440
14445TIP3    H143292   2.079   1.198   3.435
14445TIP3    H243293   1.947   1.186   3.508
14446TIP3   OH243294   2.008   3.776   4.886
14446TIP3    H143295   2.065   3.699   4.894
14446TIP3    H243296   1.980   3.794   4.975
14447TIP3   OH243297   0.818   5.687   5.027
14447TIP3    H143298   0.816   5.703   4.933
14447TIP3    H243299   0.734   5.718   5.059
14448TIP3   OH243300   6.407   1.069   6.137
14448TIP3    H143301   6.468   1.079   6.211
14448TIP3    H243302   6.449   1.006   6.079
14449TIP3   OH243303   2.135   6.653   1.291
14449TIP3    H143304   2.112   6.677   1.381
14449TIP3    H243305   2.138   6.736   1.244
14450TIP3   OH243306   5.690   2.588   0.966
14450TIP3    H143307   5.671   2.600   1.059
14450TIP3    H243308   5.631   2.518   0.939
14451TIP3   OH243309   3.362   2.975   2.780
14451TIP3    H143310   3.284   3.015   2.742
14451TIP3    H243311   3.382   3.029   2.857
14452TIP3   OH243312   1.790   4.881   4.979
14452TIP3    H143313   1.867   4.825   4.968
14452TIP3    H243314   1.747   4.847   5.057
14453TIP3   OH243315   3.797   3.512   4.518
14453TIP3    H143316   3.854   3.482   4.589
14453TIP3    H243317   3.801   3.607   4.522
14454TIP3   OH243318   3.031   7.046   6.723
14454TIP3    H143319   2.938   7.029   6.740
14454TIP3    H243320   3.038   7.141   6.719
14455TIP3   OH243321   2.421   6.191   1.479
14455TIP3    H143322   2.448   6.137   1.405
14455TIP3    H243323   2.379   6.267   1.440
14456TIP3   OH243324   5.044   0.210   6.720
14456TIP3    H143325   5.043   0.122   6.682
14456TIP3    H243326   5.129   0.217   6.763
14457TIP3   OH243327   2.369   3.474   3.125
14457TIP3    H143328   2.353   3.380   3.120
14457TIP3    H243329   2.287   3.515   3.097
14458TIP3   OH243330   2.567   2.600   3.897
14458TIP3    H143331   2.632   2.543   3.937
14458TIP3    H243332   2.618   2.657   3.838
14459TIP3   OH243333   8.203   6.677   2.091
14459TIP3    H143334   8.227   6.761   2.130
14459TIP3    H243335   8.232   6.612   2.155
14460TIP3   OH243336   0.141   0.607   5.076
14460TIP3    H143337   0.060   0.601   5.127
14460TIP3    H243338   0.203   0.648   5.135
14461TIP3   OH243339   7.182   0.772   1.343
14461TIP3    H143340   7.096   0.813   1.335
14461TIP3    H243341   7.227   0.825   1.410
14462TIP3   OH243342   2.713   3.211   4.959
14462TIP3    H143343   2.736   3.157   5.034
14462TIP3    H243344   2.796   3.250   4.930
14463TIP3   OH243345   3.048   4.169   4.816
14463TIP3    H143346   3.020   4.104   4.880
14463TIP3    H243347   3.012   4.138   4.733
14464TIP3   OH243348   6.111   4.841   0.286
14464TIP3    H143349   6.192   4.885   0.261
14464TIP3    H243350   6.065   4.903   0.342
14465TIP3   OH243351   2.079   4.725   1.986
14465TIP3    H143352   2.153   4.664   1.990
14465TIP3    H243353   2.085   4.776   2.066
14466TIP3   OH243354   1.108   0.912   5.801
14466TIP3    H143355   1.185   0.915   5.858
14466TIP3    H243356   1.099   1.002   5.769
14467TIP3   OH243357   3.587   2.059   2.079
14467TIP3    H143358   3.676   2.037   2.052
14467TIP3    H243359   3.536   2.059   1.998
14468TIP3   OH243360   2.683   0.735   3.894
14468TIP3    H143361   2.668   0.740   3.988
14468TIP3    H243362   2.620   0.670   3.863
14469TIP3   OH243363   1.506   6.162   5.227
14469TIP3    H143364   1.445   6.149   5.154
14469TIP3    H243365   1.587   6.119   5.199
14470TIP3   OH243366   6.840   6.418   4.390
14470TIP3    H143367   6.860   6.354   4.322
14470TIP3    H243368   6.760   6.385   4.432
14471TIP3   OH243369   2.355   4.716   5.972
14471TIP3    H143370   2.441   4.711   6.014
14471TIP3    H243371   2.323   4.804   5.993
14472TIP3   OH243372   6.081   0.748   5.379
14472TIP3    H143373   6.155   0.779   5.431
14472TIP3    H243374   6.119   0.721   5.295
14473TIP3   OH243375   5.983   4.403   0.645
14473TIP3    H143376   6.048   4.360   0.701
14473TIP3    H243377   6.018   4.491   0.632
14474TIP3   OH243378   3.309   6.053   5.128
14474TIP3    H143379   3.232   6.067   5.072
14474TIP3    H243380   3.294   6.110   5.203
14475TIP3   OH243381   2.110   3.826   1.921
14475TIP3    H143382   2.029   3.871   1.898
14475TIP3    H243383   2.081   3.748   1.969
14476TIP3   OH243384   7.672   0.767   6.039
14476TIP3    H143385   7.763   0.788   6.017
14476TIP3    H243386   7.668   0.671   6.036
14477TIP3   OH243387   8.179   3.881   0.435
14477TIP3    H143388   8.128   3.962   0.441
14477TIP3    H243389   8.151   3.829   0.511
14478TIP3   OH243390   5.035   6.167   6.416
14478TIP3    H143391   5.124   6.201   6.407
14478TIP3    H243392   5.045   6.085   6.464
14479TIP3   OH243393   0.892   3.503   2.447
14479TIP3    H143394   0.916   3.589   2.482
14479TIP3    H243395   0.808   3.483   2.488
14480TIP3   OH243396   1.079   2.720   5.161
14480TIP3    H143397   1.010   2.655   5.147
14480TIP3    H243398   1.038   2.787   5.217
14481TIP3   OH243399   1.198   6.373   0.995
14481TIP3    H143400   1.256   6.350   1.068
14481TIP3    H243401   1.244   6.443   0.949
14482TIP3   OH243402   6.100   0.273   6.436
14482TIP3    H143403   6.093   0.182   6.406
14482TIP3    H243404   6.132   0.321   6.360
14483TIP3   OH243405   1.831   3.656   0.525
14483TIP3    H143406   1.879   3.736   0.547
14483TIP3    H243407   1.786   3.632   0.606
14484TIP3   OH243408   3.862   3.510   0.773
14484TIP3    H143409   3.799   3.443   0.800
14484TIP3    H243410   3.827   3.591   0.810
14485TIP3   OH243411   1.266   6.937   3.456
14485TIP3    H143412   1.181   6.915   3.494
14485TIP3    H243413   1.324   6.867   3.486
14486TIP3   OH243414   7.569   7.532   5.977
14486TIP3    H143415   7.626   7.504   5.906
14486TIP3    H243416   7.576   7.627   5.978
14487TIP3   OH243417   1.869   4.472   3.629
14487TIP3    H143418   1.811   4.476   3.705
14487TIP3    H243419   1.830   4.532   3.566
14488TIP3   OH243420   2.942   7.416   0.034
14488TIP3    H143421   2.933   7.511   0.028
14488TIP3    H243422   2.860   7.381  -0.002
14489TIP3   OH243423   4.406   1.082   4.125
14489TIP3    H143424   4.340   1.060   4.191
14489TIP3    H243425   4.482   1.030   4.149
14490TIP3   OH243426   3.078   0.824   3.618
14490TIP3    H143427   3.089   0.882   3.543
14490TIP3    H243428   3.146   0.757   3.607
14491TIP3   OH243429   7.715   0.859   4.334
14491TIP3    H143430   7.778   0.821   4.273
14491TIP3    H243431   7.674   0.930   4.285
14492TIP3   OH243432   4.519   0.901   1.396
14492TIP3    H143433   4.541   0.965   1.464
14492TIP3    H243434   4.435   0.866   1.423
14493TIP3   OH243435   0.692   3.266   2.855
14493TIP3    H143436   0.776   3.241   2.817
14493TIP3    H243437   0.627   3.239   2.790
14494TIP3   OH243438   7.593   6.402   3.993
14494TIP3    H143439   7.682   6.372   3.972
14494TIP3    H243440   7.539   6.324   3.985
14495TIP3   OH243441   1.668   0.794   2.023
14495TIP3    H143442   1.653   0.773   2.115
14495TIP3    H243443   1.673   0.709   1.979
14496TIP3   OH243444   1.176   5.781   2.282
14496TIP3    H143445   1.204   5.695   2.251
14496TIP3    H243446   1.246   5.811   2.340
14497TIP3   OH243447   2.529   4.039   3.316
14497TIP3    H143448   2.456   4.100   3.327
14497TIP3    H243449   2.518   3.975   3.386
14498TIP3   OH243450   0.728   0.651   1.142
14498TIP3    H143451   0.730   0.704   1.062
14498TIP3    H243452   0.634   0.637   1.158
14499TIP3   OH243453   2.928   0.878   1.534
14499TIP3    H143454   2.893   0.851   1.449
14499TIP3    H243455   3.023   0.873   1.524
14500TIP3   OH243456   5.291   2.480   5.782
14500TIP3    H143457   5.342   2.526   5.848
14500TIP3    H243458   5.215   2.536   5.767
14501TIP3   OH243459   2.194   6.490   1.908
14501TIP3    H143460   2.283   6.523   1.897
14501TIP3    H243461   2.164   6.471   1.819
14502TIP3   OH243462   0.692   4.100   3.394
14502TIP3    H143463   0.601   4.073   3.405
14502TIP3    H243464   0.688   4.177   3.337
14503TIP3   OH243465   5.840   0.245   1.820
14503TIP3    H143466   5.850   0.309   1.749
14503TIP3    H243467   5.775   0.182   1.787
14504TIP3   OH243468   2.866   5.824   6.570
14504TIP3    H143469   2.921   5.753   6.603
14504TIP3    H243470   2.831   5.790   6.487
14505TIP3   OH243471   3.786   4.085   3.952
14505TIP3    H143472   3.877   4.075   3.979
14505TIP3    H243473   3.789   4.082   3.856
14506TIP3   OH243474   8.115   0.529   6.482
14506TIP3    H143475   8.045   0.593   6.492
14506TIP3    H243476   8.143   0.539   6.391
14507TIP3   OH243477   0.444   3.113   6.102
14507TIP3    H143478   0.521   3.129   6.048
14507TIP3    H243479   0.390   3.054   6.049
14508TIP3   OH243480   2.644   2.233   2.218
14508TIP3    H143481   2.556   2.270   2.207
14508TIP3    H243482   2.684   2.243   2.132
14509TIP3   OH243483   5.786   4.407   5.690
14509TIP3    H143484   5.854   4.471   5.669
14509TIP3    H243485   5.833   4.324   5.699
14510TIP3   OH243486   3.530   4.204   3.742
14510TIP3    H143487   3.559   4.293   3.761
14510TIP3    H243488   3.603   4.164   3.695
14511TIP3   OH243489   1.592   4.258   3.903
14511TIP3    H143490   1.642   4.266   3.984
14511TIP3    H243491   1.500   4.269   3.930
14512TIP3   OH243492   4.010   1.608   0.744
14512TIP3    H143493   3.940   1.655   0.788
14512TIP3    H243494   3.993   1.621   0.651
14513TIP3   OH243495   2.703   6.080   5.273
14513TIP3    H143496   2.755   6.047   5.200
14513TIP3    H243497   2.680   6.170   5.248
14514TIP3   OH243498   5.952   7.607   1.125
14514TIP3    H143499   6.044   7.580   1.126
14514TIP3    H243500   5.903   7.527   1.142
14515TIP3   OH243501   5.533   4.803   3.324
14515TIP3    H143502   5.460   4.835   3.378
14515TIP3    H243503   5.513   4.711   3.309
14516TIP3   OH243504   1.531   4.782   5.460
14516TIP3    H143505   1.544   4.861   5.513
14516TIP3    H243506   1.531   4.710   5.523
14517TIP3   OH243507   1.158   6.609   4.462
14517TIP3    H143508   1.106   6.556   4.401
14517TIP3    H243509   1.119   6.696   4.458
14518TIP3   OH243510   3.305   4.209   6.745
14518TIP3    H143511   3.213   4.195   6.768
14518TIP3    H243512   3.334   4.124   6.712
14519TIP3   OH243513   3.137   6.671   0.135
14519TIP3    H143514   3.228   6.697   0.148
14519TIP3    H243515   3.088   6.754   0.141
14520TIP3   OH243516   3.108   0.649   1.856
14520TIP3    H143517   3.136   0.719   1.915
14520TIP3    H243518   3.025   0.680   1.819
14521TIP3   OH243519   6.391   2.037   3.096
14521TIP3    H143520   6.470   2.011   3.049
14521TIP3    H243521   6.420   2.105   3.157
14522TIP3   OH243522   2.099   4.113   5.484
14522TIP3    H143523   2.105   4.202   5.520
14522TIP3    H243524   2.017   4.114   5.434
14523TIP3   OH243525   1.333   0.251   2.230
14523TIP3    H143526   1.378   0.297   2.159
14523TIP3    H243527   1.330   0.160   2.202
14524TIP3   OH243528   5.403   1.581   0.371
14524TIP3    H143529   5.351   1.540   0.441
14524TIP3    H243530   5.378   1.673   0.374
14525TIP3   OH243531   7.833   0.854   2.569
14525TIP3    H143532   7.812   0.776   2.518
14525TIP3    H243533   7.802   0.927   2.515
14526TIP3   OH243534   3.782   2.079   4.502
14526TIP3    H143535   3.822   2.112   4.421
14526TIP3    H243536   3.713   2.142   4.522
14527TIP3   OH243537   4.276   4.948   0.868
14527TIP3    H143538   4.223   4.887   0.818
14527TIP3    H243539   4.227   4.963   0.949
14528TIP3   OH243540   7.456   0.287   0.835
14528TIP3    H143541   7.387   0.352   0.855
14528TIP3    H243542   7.461   0.234   0.914
14529TIP3   OH243543   1.555   2.838   0.284
14529TIP3    H143544   1.566   2.903   0.353
14529TIP3    H243545   1.589   2.757   0.322
14530TIP3   OH243546   5.132   1.116   0.474
14530TIP3    H143547   5.209   1.119   0.416
14530TIP3    H243548   5.066   1.070   0.422
14531TIP3   OH243549   3.023   4.240   1.303
14531TIP3    H143550   2.958   4.310   1.313
14531TIP3    H243551   3.087   4.275   1.242
14532TIP3   OH243552   0.285   1.936   0.199
14532TIP3    H143553   0.305   1.998   0.130
14532TIP3    H243554   0.304   1.850   0.161
14533TIP3   OH243555   0.085   7.101   1.635
14533TIP3    H143556   0.113   7.188   1.664
14533TIP3    H243557   0.136   7.084   1.556
14534TIP3   OH243558   1.460   3.499   2.751
14534TIP3    H143559   1.371   3.469   2.732
14534TIP3    H243560   1.515   3.422   2.735
14535TIP3   OH243561   3.391   6.380   3.194
14535TIP3    H143562   3.429   6.454   3.147
14535TIP3    H243563   3.351   6.418   3.272
14536TIP3   OH243564   3.359   2.863   5.866
14536TIP3    H143565   3.275   2.825   5.894
14536TIP3    H243566   3.338   2.954   5.846
14537TIP3   OH243567   0.801   0.235   1.978
14537TIP3    H143568   0.742   0.180   2.030
14537TIP3    H243569   0.776   0.217   1.888
14538TIP3   OH243570   7.652   2.265   3.028
14538TIP3    H143571   7.580   2.325   3.048
14538TIP3    H243572   7.613   2.178   3.037
14539TIP3   OH243573   2.084   6.857   1.094
14539TIP3    H143574   2.072   6.939   1.142
14539TIP3    H243575   1.995   6.832   1.068
14540TIP3   OH243576   3.492   5.746   1.677
14540TIP3    H143577   3.443   5.823   1.650
14540TIP3    H243578   3.444   5.672   1.641
14541TIP3   OH243579   0.524   4.401   0.572
14541TIP3    H143580   0.467   4.442   0.508
14541TIP3    H243581   0.507   4.307   0.563
14542TIP3   OH243582   1.048   3.983   6.532
14542TIP3    H143583   1.085   3.915   6.477
14542TIP3    H243584   0.973   3.942   6.575
14543TIP3   OH243585   6.435   5.637   0.715
14543TIP3    H143586   6.506   5.592   0.759
14543TIP3    H243587   6.428   5.721   0.760
14544TIP3   OH243588   8.041   0.275   6.585
14544TIP3    H143589   8.126   0.248   6.620
14544TIP3    H243590   8.051   0.368   6.567
14545TIP3   OH243591   1.403   7.646   1.212
14545TIP3    H143592   1.464   7.714   1.183
14545TIP3    H243593   1.399   7.585   1.137
14546TIP3   OH243594   1.308   4.336   3.894
14546TIP3    H143595   1.295   4.423   3.931
14546TIP3    H243596   1.305   4.350   3.799
14547TIP3   OH243597   4.172   4.269   6.103
14547TIP3    H143598   4.259   4.306   6.121
14547TIP3    H243599   4.116   4.345   6.089
14548TIP3   OH243600   7.370   5.813   0.729
14548TIP3    H143601   7.384   5.827   0.635
14548TIP3    H243602   7.319   5.732   0.733
14549TIP3   OH243603   2.804   6.522   3.479
14549TIP3    H143604   2.777   6.434   3.505
14549TIP3    H243605   2.899   6.514   3.465
14550TIP3   OH243606   5.817   2.080   1.084
14550TIP3    H143607   5.912   2.075   1.075
14550TIP3    H243608   5.790   1.990   1.106
14551TIP3   OH243609   3.327   3.206   3.282
14551TIP3    H143610   3.407   3.154   3.292
14551TIP3    H243611   3.322   3.258   3.362
14552TIP3   OH243612   4.877   6.993   5.863
14552TIP3    H143613   4.913   7.031   5.943
14552TIP3    H243614   4.797   7.043   5.846
14553TIP3   OH243615   6.663   0.077   4.526
14553TIP3    H143616   6.716   0.153   4.502
14553TIP3    H243617   6.573   0.111   4.529
14554TIP3   OH243618   2.981   4.850   6.545
14554TIP3    H143619   2.923   4.926   6.549
14554TIP3    H243620   2.968   4.813   6.458
14555TIP3   OH243621   6.666   2.566   5.074
14555TIP3    H143622   6.650   2.480   5.113
14555TIP3    H243623   6.591   2.619   5.102
14556TIP3   OH243624   7.377   1.917   0.848
14556TIP3    H143625   7.405   1.967   0.772
14556TIP3    H243626   7.409   1.968   0.923
14557TIP3   OH243627   0.581   5.478   4.661
14557TIP3    H143628   0.573   5.447   4.751
14557TIP3    H243629   0.654   5.429   4.624
14558TIP3   OH243630   4.949   5.796   5.865
14558TIP3    H143631   4.916   5.867   5.810
14558TIP3    H243632   5.037   5.825   5.890
14559TIP3   OH243633   8.244   3.072   6.426
14559TIP3    H143634   8.274   3.098   6.339
14559TIP3    H243635   8.215   2.982   6.414
14560TIP3   OH243636   0.822   5.833   3.860
14560TIP3    H143637   0.837   5.868   3.772
14560TIP3    H243638   0.809   5.739   3.847
14561TIP3   OH243639   3.421   6.271   1.224
14561TIP3    H143640   3.450   6.326   1.151
14561TIP3    H243641   3.346   6.223   1.190
14562TIP3   OH243642   6.153   4.711   0.051
14562TIP3    H143643   6.098   4.763   0.110
14562TIP3    H243644   6.243   4.736   0.073
14563TIP3   OH243645   7.245   2.587   6.673
14563TIP3    H143646   7.220   2.680   6.666
14563TIP3    H243647   7.340   2.589   6.685
14564TIP3   OH243648   3.341   4.934   3.399
14564TIP3    H143649   3.253   4.898   3.397
14564TIP3    H243650   3.374   4.921   3.310
14565TIP3   OH243651   8.086   3.114   3.728
14565TIP3    H143652   8.128   3.186   3.682
14565TIP3    H243653   8.075   3.147   3.818
14566TIP3   OH243654   5.457   1.906   1.886
14566TIP3    H143655   5.493   1.822   1.861
14566TIP3    H243656   5.519   1.941   1.950
14567TIP3   OH243657   6.220   6.143   3.748
14567TIP3    H143658   6.262   6.099   3.674
14567TIP3    H243659   6.126   6.137   3.730
14568TIP3   OH243660   0.914   3.859   3.567
14568TIP3    H143661   0.916   3.947   3.530
14568TIP3    H243662   1.006   3.833   3.572
14569TIP3   OH243663   8.308   5.535   6.715
14569TIP3    H143664   8.230   5.486   6.740
14569TIP3    H243665   8.280   5.587   6.639
14570TIP3   OH243666   7.100   6.309   6.456
14570TIP3    H143667   7.045   6.386   6.448
14570TIP3    H243668   7.162   6.330   6.526
14571TIP3   OH243669   0.457   5.473   6.549
14571TIP3    H143670   0.386   5.409   6.545
14571TIP3    H243671   0.441   5.521   6.630
14572TIP3   OH243672   5.945   2.341   2.329
14572TIP3    H143673   6.006   2.367   2.397
14572TIP3    H243674   5.982   2.376   2.248
14573TIP3   OH243675   7.603   7.819   0.746
14573TIP3    H143676   7.608   7.801   0.840
14573TIP3    H243677   7.689   7.795   0.712
14574TIP3   OH243678   7.891   5.596   3.140
14574TIP3    H143679   7.875   5.502   3.154
14574TIP3    H243680   7.803   5.634   3.135
14575TIP3   OH243681   5.753   2.273   0.283
14575TIP3    H143682   5.689   2.252   0.351
14575TIP3    H243683   5.737   2.365   0.262
14576TIP3   OH243684   2.342   4.065   5.315
14576TIP3    H143685   2.251   4.065   5.343
14576TIP3    H243686   2.377   4.149   5.347
14577TIP3   OH243687   2.001   3.802   1.527
14577TIP3    H143688   1.952   3.724   1.553
14577TIP3    H243689   1.937   3.856   1.481
14578TIP3   OH243690   3.044   7.518   3.713
14578TIP3    H143691   3.050   7.457   3.787
14578TIP3    H243692   3.017   7.463   3.640
14579TIP3   OH243693   1.115   5.841   4.606
14579TIP3    H143694   1.180   5.791   4.556
14579TIP3    H243695   1.042   5.854   4.544
14580TIP3   OH243696   3.364   5.084   0.926
14580TIP3    H143697   3.298   5.045   0.868
14580TIP3    H243698   3.444   5.084   0.874
14581TIP3   OH243699   5.059   6.699   5.140
14581TIP3    H143700   4.984   6.757   5.152
14581TIP3    H243701   5.134   6.749   5.171
14582TIP3   OH243702   3.457   0.862   0.251
14582TIP3    H143703   3.434   0.871   0.343
14582TIP3    H243704   3.379   0.892   0.204
14583TIP3   OH243705   6.803   5.200   3.358
14583TIP3    H143706   6.712   5.229   3.364
14583TIP3    H243707   6.805   5.143   3.282
14584TIP3   OH243708   3.406   3.280   2.960
14584TIP3    H143709   3.484   3.263   3.013
14584TIP3    H243710   3.348   3.206   2.978
14585TIP3   OH243711   2.944   3.379   6.298
14585TIP3    H143712   2.909   3.401   6.211
14585TIP3    H243713   3.021   3.435   6.307
14586TIP3   OH243714   4.585   5.806   2.711
14586TIP3    H143715   4.556   5.778   2.624
14586TIP3    H243716   4.668   5.761   2.725
14587TIP3   OH243717   2.347   2.809   6.447
14587TIP3    H143718   2.414   2.831   6.382
14587TIP3    H243719   2.382   2.842   6.530
14588TIP3   OH243720   0.353   3.156   4.497
14588TIP3    H143721   0.379   3.077   4.544
14588TIP3    H243722   0.293   3.126   4.429
14589TIP3   OH243723   4.041   5.228   0.928
14589TIP3    H143724   3.963   5.275   0.960
14589TIP3    H243725   4.036   5.236   0.833
14590TIP3   OH243726   5.322   6.208   2.832
14590TIP3    H143727   5.304   6.264   2.907
14590TIP3    H243728   5.248   6.221   2.773
14591TIP3   OH243729   3.167   6.953   6.223
14591TIP3    H143730   3.203   6.865   6.208
14591TIP3    H243731   3.172   6.964   6.318
14592TIP3   OH243732   0.391   7.582   0.023
14592TIP3    H143733   0.300   7.598  -0.002
14592TIP3    H243734   0.429   7.670   0.030
14593TIP3   OH243735   3.277   1.630   0.822
14593TIP3    H143736   3.312   1.715   0.796
14593TIP3    H243737   3.251   1.589   0.740
14594TIP3   OH243738   3.855   7.365   6.174
14594TIP3    H143739   3.935   7.333   6.132
14594TIP3    H243740   3.877   7.455   6.200
14595TIP3   OH243741   6.967   6.490   2.416
14595TIP3    H143742   6.941   6.571   2.373
14595TIP3    H243743   6.922   6.421   2.366
14596TIP3   OH243744   3.469   4.841   6.128
14596TIP3    H143745   3.538   4.774   6.130
14596TIP3    H243746   3.422   4.825   6.046
14597TIP3   OH243747   0.605   7.494   0.703
14597TIP3    H143748   0.649   7.409   0.703
14597TIP3    H243749   0.579   7.508   0.612
14598TIP3   OH243750   8.210   1.534   1.672
14598TIP3    H143751   8.155   1.516   1.596
14598TIP3    H243752   8.300   1.520   1.640
14599TIP3   OH243753   3.028   4.573   2.531
14599TIP3    H143754   2.978   4.582   2.612
14599TIP3    H243755   2.977   4.621   2.466
14600TIP3   OH243756   5.481   5.239   2.211
14600TIP3    H143757   5.439   5.237   2.297
14600TIP3    H243758   5.408   5.240   2.149
14601TIP3   OH243759   6.935   5.998   1.712
14601TIP3    H143760   6.862   5.940   1.733
14601TIP3    H243761   6.893   6.076   1.675
14602TIP3   OH243762   0.448   1.185   6.728
14602TIP3    H143763   0.478   1.276   6.728
14602TIP3    H243764   0.514   1.138   6.779
14603TIP3   OH243765   7.779   2.996   4.050
14603TIP3    H143766   7.800   2.913   4.007
14603TIP3    H243767   7.769   2.973   4.142
14604TIP3   OH243768   1.365   0.691   5.665
14604TIP3    H143769   1.302   0.656   5.601
14604TIP3    H243770   1.440   0.631   5.660
14605TIP3   OH243771   2.538   4.174   4.545
14605TIP3    H143772   2.497   4.212   4.623
14605TIP3    H243773   2.596   4.106   4.580
14606TIP3   OH243774   2.911   2.796   3.403
14606TIP3    H143775   2.940   2.739   3.474
14606TIP3    H243776   2.952   2.760   3.324
14607TIP3   OH243777   3.350   4.717   0.356
14607TIP3    H143778   3.421   4.782   0.360
14607TIP3    H243779   3.272   4.764   0.383
14608TIP3   OH243780   7.590   5.128   0.272
14608TIP3    H143781   7.591   5.081   0.188
14608TIP3    H243782   7.540   5.208   0.254
14609TIP3   OH243783   6.757   4.100   3.408
14609TIP3    H143784   6.674   4.149   3.406
14609TIP3    H243785   6.793   4.110   3.320
14610TIP3   OH243786   7.203   0.540   5.673
14610TIP3    H143787   7.280   0.560   5.620
14610TIP3    H243788   7.180   0.450   5.650
14611TIP3   OH243789   7.406   1.822   4.193
14611TIP3    H143790   7.498   1.800   4.180
14611TIP3    H243791   7.373   1.841   4.105
14612TIP3   OH243792   5.620   3.527   0.232
14612TIP3    H143793   5.664   3.531   0.147
14612TIP3    H243794   5.685   3.489   0.291
14613TIP3   OH243795   1.563   5.525   3.218
14613TIP3    H143796   1.469   5.542   3.220
14613TIP3    H243797   1.584   5.522   3.124
14614TIP3   OH243798   1.895   5.003   1.334
14614TIP3    H143799   1.942   5.081   1.305
14614TIP3    H243800   1.934   4.932   1.284
14615TIP3   OH243801   5.890   5.225   6.752
14615TIP3    H143802   5.851   5.177   6.679
14615TIP3    H243803   5.981   5.195   6.754
14616TIP3   OH243804   6.097   2.186   5.007
14616TIP3    H143805   6.165   2.221   4.950
14616TIP3    H243806   6.073   2.260   5.063
14617TIP3   OH243807   2.190   0.222   5.387
14617TIP3    H143808   2.265   0.204   5.445
14617TIP3    H243809   2.114   0.198   5.439
14618TIP3   OH243810   4.628   5.149   5.513
14618TIP3    H143811   4.684   5.077   5.482
14618TIP3    H243812   4.598   5.192   5.433
14619TIP3   OH243813   2.501   4.532   3.630
14619TIP3    H143814   2.559   4.580   3.689
14619TIP3    H243815   2.524   4.440   3.642
14620TIP3   OH243816   5.172   5.023   1.054
14620TIP3    H143817   5.108   4.967   1.098
14620TIP3    H243818   5.119   5.090   1.011
14621TIP3   OH243819   3.150   0.301   5.100
14621TIP3    H143820   3.121   0.393   5.096
14621TIP3    H243821   3.143   0.270   5.010
14622TIP3   OH243822   1.407   1.427   4.176
14622TIP3    H143823   1.323   1.415   4.133
14622TIP3    H243824   1.448   1.340   4.173
14623TIP3   OH243825   6.729   7.083   1.318
14623TIP3    H143826   6.690   7.113   1.236
14623TIP3    H243827   6.711   6.988   1.319
14624TIP3   OH243828   2.184   2.094   3.794
14624TIP3    H143829   2.172   2.189   3.792
14624TIP3    H243830   2.135   2.065   3.871
14625TIP3   OH243831   7.573   3.892   4.366
14625TIP3    H143832   7.510   3.946   4.412
14625TIP3    H243833   7.568   3.922   4.275
14626TIP3   OH243834   2.797   4.704   0.787
14626TIP3    H143835   2.716   4.714   0.837
14626TIP3    H243836   2.843   4.632   0.830
14627TIP3   OH243837   7.339   1.087   1.882
14627TIP3    H143838   7.256   1.046   1.907
14627TIP3    H243839   7.351   1.158   1.945
14628TIP3   OH243840   4.803   4.418   4.615
14628TIP3    H143841   4.879   4.388   4.566
14628TIP3    H243842   4.796   4.356   4.688
14629TIP3   OH243843   4.850   3.844   6.523
14629TIP3    H143844   4.786   3.914   6.508
14629TIP3    H243845   4.908   3.878   6.591
14630TIP3   OH243846   3.740   7.676   0.232
14630TIP3    H143847   3.817   7.679   0.289
14630TIP3    H243848   3.765   7.725   0.154
14631TIP3   OH243849   1.032   7.346   6.671
14631TIP3    H143850   0.965   7.290   6.632
14631TIP3    H243851   1.108   7.289   6.680
14632TIP3   OH243852   4.641   4.155   4.715
14632TIP3    H143853   4.695   4.076   4.716
14632TIP3    H243854   4.569   4.134   4.655
14633TIP3   OH243855   2.906   6.476   2.686
14633TIP3    H143856   2.986   6.520   2.656
14633TIP3    H243857   2.863   6.448   2.606
14634TIP3   OH243858   5.157   0.843   1.639
14634TIP3    H143859   5.240   0.831   1.685
14634TIP3    H243860   5.129   0.754   1.617
14635TIP3   OH243861   2.489   4.151   1.324
14635TIP3    H143862   2.404   4.109   1.312
14635TIP3    H243863   2.505   4.146   1.418
14636TIP3   OH243864   4.282   2.935   2.827
14636TIP3    H143865   4.345   2.982   2.773
14636TIP3    H243866   4.335   2.891   2.894
14637TIP3   OH243867   2.998   6.372   1.390
14637TIP3    H143868   3.058   6.389   1.463
14637TIP3    H243869   3.001   6.452   1.338
14638TIP3   OH243870   2.966   0.611   4.003
14638TIP3    H143871   2.912   0.612   4.082
14638TIP3    H243872   2.905   0.594   3.931
14639TIP3   OH243873   6.055   2.524   0.282
14639TIP3    H143874   6.041   2.434   0.312
14639TIP3    H243875   6.071   2.515   0.188
14640TIP3   OH243876   5.177   5.498   3.333
14640TIP3    H143877   5.212   5.574   3.286
14640TIP3    H243878   5.244   5.478   3.399
14641TIP3   OH243879   7.792   2.082   1.542
14641TIP3    H143880   7.730   2.021   1.502
14641TIP3    H243881   7.878   2.046   1.523
14642TIP3   OH243882   5.695   5.699   4.375
14642TIP3    H143883   5.693   5.624   4.315
14642TIP3    H243884   5.604   5.711   4.401
14643TIP3   OH243885   3.875   0.898   4.411
14643TIP3    H143886   3.887   0.848   4.330
14643TIP3    H243887   3.785   0.878   4.438
14644TIP3   OH243888   2.116   5.974   4.044
14644TIP3    H143889   2.088   5.929   4.124
14644TIP3    H243890   2.161   6.052   4.075
14645TIP3   OH243891   7.385   4.108   5.606
14645TIP3    H143892   7.477   4.080   5.600
14645TIP3    H243893   7.379   4.150   5.692
14646TIP3   OH243894   8.139   5.901   5.505
14646TIP3    H143895   8.154   5.813   5.541
14646TIP3    H243896   8.168   5.961   5.573
14647TIP3   OH243897   3.025   2.266   3.927
14647TIP3    H143898   2.980   2.189   3.962
14647TIP3    H243899   3.042   2.245   3.835
14648TIP3   OH243900   0.205   7.389   0.607
14648TIP3    H143901   0.256   7.386   0.688
14648TIP3    H243902   0.245   7.322   0.552
14649TIP3   OH243903   5.806   6.965   4.727
14649TIP3    H143904   5.891   6.925   4.712
14649TIP3    H243905   5.815   7.010   4.811
14650TIP3   OH243906   0.738   7.728   6.294
14650TIP3    H143907   0.770   7.662   6.357
14650TIP3    H243908   0.815   7.781   6.274
14651TIP3   OH243909   6.334   2.310   2.192
14651TIP3    H143910   6.374   2.346   2.272
14651TIP3    H243911   6.265   2.372   2.170
14652TIP3   OH243912   2.775   3.758   2.090
14652TIP3    H143913   2.855   3.783   2.044
14652TIP3    H243914   2.721   3.837   2.091
14653TIP3   OH243915   3.494   3.875   4.186
14653TIP3    H143916   3.435   3.832   4.124
14653TIP3    H243917   3.490   3.967   4.162
14654TIP3   OH243918   6.911   4.678   6.544
14654TIP3    H143919   7.000   4.674   6.508
14654TIP3    H243920   6.906   4.764   6.587
14655TIP3   OH243921   5.151   3.737   0.798
14655TIP3    H143922   5.107   3.795   0.737
14655TIP3    H243923   5.224   3.700   0.748
14656TIP3   OH243924   4.403   2.445   0.617
14656TIP3    H143925   4.416   2.387   0.542
14656TIP3    H243926   4.323   2.493   0.597
14657TIP3   OH243927   2.710   7.456   3.892
14657TIP3    H143928   2.743   7.463   3.802
14657TIP3    H243929   2.786   7.430   3.944
14658TIP3   OH243930   1.262   0.072   5.806
14658TIP3    H143931   1.193   0.055   5.871
14658TIP3    H243932   1.239   0.015   5.732
14659TIP3   OH243933   1.730   6.494   1.332
14659TIP3    H143934   1.761   6.529   1.248
14659TIP3    H243935   1.771   6.551   1.397
14660TIP3   OH243936   7.541   7.157   3.777
14660TIP3    H143937   7.492   7.087   3.820
14660TIP3    H243938   7.568   7.215   3.848
14661TIP3   OH243939   8.101   3.003   5.586
14661TIP3    H143940   8.151   3.073   5.545
14661TIP3    H243941   8.077   3.038   5.672
14662TIP3   OH243942   0.700   6.645   2.255
14662TIP3    H143943   0.787   6.655   2.218
14662TIP3    H243944   0.701   6.561   2.299
14663TIP3   OH243945   1.779   6.951   6.211
14663TIP3    H143946   1.690   6.975   6.186
14663TIP3    H243947   1.773   6.860   6.240
14664TIP3   OH243948   1.536   1.861   4.172
14664TIP3    H143949   1.546   1.783   4.227
14664TIP3    H243950   1.591   1.844   4.095
14665TIP3   OH243951   4.886   3.203   4.292
14665TIP3    H143952   4.912   3.170   4.378
14665TIP3    H243953   4.799   3.241   4.306
14666TIP3   OH243954   6.067   3.825   5.313
14666TIP3    H143955   6.018   3.746   5.339
14666TIP3    H243956   6.005   3.875   5.260
14667TIP3   OH243957   0.349   1.028   5.680
14667TIP3    H143958   0.392   1.026   5.765
14667TIP3    H243959   0.347   1.120   5.656
14668TIP3   OH243960   4.129   3.755   0.961
14668TIP3    H143961   4.079   3.831   0.932
14668TIP3    H243962   4.142   3.769   1.055
14669TIP3   OH243963   4.592   1.547   6.273
14669TIP3    H143964   4.676   1.593   6.266
14669TIP3    H243965   4.528   1.610   6.240
14670TIP3   OH243966   8.122   7.681   3.936
14670TIP3    H143967   8.077   7.746   3.990
14670TIP3    H243968   8.059   7.662   3.866
14671TIP3   OH243969   2.763   0.388   4.457
14671TIP3    H143970   2.847   0.416   4.494
14671TIP3    H243971   2.722   0.338   4.527
14672TIP3   OH243972   2.089   5.103   2.056
14672TIP3    H143973   2.049   5.079   1.972
14672TIP3    H243974   2.085   5.024   2.109
14673TIP3   OH243975   2.046   4.403   4.906
14673TIP3    H143976   2.113   4.442   4.851
14673TIP3    H243977   1.990   4.476   4.932
14674TIP3   OH243978   0.841   4.421   2.918
14674TIP3    H143979   0.746   4.421   2.924
14674TIP3    H243980   0.864   4.330   2.899
14675TIP3   OH243981   3.653   5.379   2.176
14675TIP3    H143982   3.624   5.378   2.085
14675TIP3    H243983   3.680   5.470   2.191
14676TIP3   OH243984   3.289   6.423   1.454
14676TIP3    H143985   3.341   6.504   1.459
14676TIP3    H243986   3.342   6.364   1.402
14677TIP3   OH243987   0.255   5.326   1.785
14677TIP3    H143988   0.270   5.240   1.747
14677TIP3    H243989   0.298   5.387   1.724
14678TIP3   OH243990   0.100   3.564   0.445
14678TIP3    H143991   0.027   3.530   0.394
14678TIP3    H243992   0.099   3.658   0.431
14679TIP3   OH243993   2.606   5.763   5.590
14679TIP3    H143994   2.525   5.748   5.541
14679TIP3    H243995   2.670   5.789   5.524
14680TIP3   OH243996   6.243   0.283   0.880
14680TIP3    H143997   6.158   0.252   0.849
14680TIP3    H243998   6.224   0.366   0.923
14681TIP3   OH243999   4.734   2.732   3.267
14681TIP3    H144000   4.746   2.813   3.316
14681TIP3    H244001   4.823   2.704   3.245
14682TIP3   OH244002   2.471   6.505   1.209
14682TIP3    H144003   2.394   6.464   1.249
14682TIP3    H244004   2.529   6.523   1.282
14683TIP3   OH244005   7.657   7.276   4.407
14683TIP3    H144006   7.716   7.202   4.419
14683TIP3    H244007   7.691   7.321   4.329
14684TIP3   OH244008   0.134   4.354   2.590
14684TIP3    H144009   0.155   4.332   2.681
14684TIP3    H244010   0.202   4.311   2.539
14685TIP3   OH244011   3.495   7.240   4.185
14685TIP3    H144012   3.422   7.246   4.247
14685TIP3    H244013   3.572   7.230   4.241
14686TIP3   OH244014   2.997   2.663   1.354
14686TIP3    H144015   3.061   2.728   1.325
14686TIP3    H244016   3.051   2.592   1.391
14687TIP3   OH244017   0.452   4.768   4.349
14687TIP3    H144018   0.394   4.790   4.276
14687TIP3    H244019   0.538   4.757   4.308
14688TIP3   OH244020   5.658   6.044   5.219
14688TIP3    H144021   5.657   6.097   5.139
14688TIP3    H244022   5.750   6.019   5.230
14689TIP3   OH244023   2.318   4.862   1.215
14689TIP3    H144024   2.321   4.769   1.195
14689TIP3    H244025   2.225   4.884   1.215
14690TIP3   OH244026   5.252   2.832   0.709
14690TIP3    H144027   5.344   2.821   0.687
14690TIP3    H244028   5.208   2.842   0.625
14691TIP3   OH244029   0.920   6.106   0.658
14691TIP3    H144030   0.984   6.086   0.726
14691TIP3    H244031   0.835   6.093   0.700
14692TIP3   OH244032   6.601   6.502   4.981
14692TIP3    H144033   6.611   6.479   4.889
14692TIP3    H244034   6.511   6.478   5.002
14693TIP3   OH244035   4.149   7.686   1.212
14693TIP3    H144036   4.153   7.644   1.298
14693TIP3    H244037   4.188   7.623   1.152
14694TIP3   OH244038   3.895   2.097   4.259
14694TIP3    H144039   3.828   2.069   4.196
14694TIP3    H244040   3.944   2.017   4.277
14695TIP3   OH244041   6.039   6.843   0.981
14695TIP3    H144042   6.029   6.915   0.919
14695TIP3    H244043   5.973   6.860   1.048
14696TIP3   OH244044   2.743   6.588   3.901
14696TIP3    H144045   2.761   6.626   3.986
14696TIP3    H244046   2.829   6.567   3.864
14697TIP3   OH244047   6.925   5.122   2.519
14697TIP3    H144048   6.839   5.109   2.480
14697TIP3    H244049   6.921   5.211   2.556
14698TIP3   OH244050   4.127   2.517   0.561
14698TIP3    H144051   4.089   2.430   0.572
14698TIP3    H244052   4.055   2.571   0.528
14699TIP3   OH244053   7.707   1.621   2.837
14699TIP3    H144054   7.640   1.659   2.780
14699TIP3    H244055   7.749   1.554   2.784
14700TIP3   OH244056   6.541   1.186   4.443
14700TIP3    H144057   6.585   1.253   4.495
14700TIP3    H244058   6.448   1.197   4.465
14701TIP3   OH244059   3.703   7.145   5.007
14701TIP3    H144060   3.687   7.074   4.946
14701TIP3    H244061   3.679   7.224   4.959
14702TIP3   OH244062   7.941   6.840   1.519
14702TIP3    H144063   8.010   6.775   1.535
14702TIP3    H244064   7.878   6.794   1.463
14703TIP3   OH244065   0.254   6.315   4.513
14703TIP3    H144066   0.163   6.313   4.544
14703TIP3    H244067   0.256   6.385   4.448
14704TIP3   OH244068   2.288   1.627   4.905
14704TIP3    H144069   2.337   1.639   4.823
14704TIP3    H244070   2.351   1.588   4.965
14705TIP3   OH244071   7.777   2.972   4.946
14705TIP3    H144072   7.716   3.006   4.881
14705TIP3    H244073   7.721   2.929   5.011
14706TIP3   OH244074   0.340   7.640   2.785
14706TIP3    H144075   0.342   7.619   2.691
14706TIP3    H244076   0.325   7.735   2.787
14707TIP3   OH244077   6.789   7.233   4.560
14707TIP3    H144078   6.881   7.231   4.587
14707TIP3    H244079   6.764   7.325   4.566
14708TIP3   OH244080   1.752   1.785   3.678
14708TIP3    H144081   1.793   1.872   3.679
14708TIP3    H244082   1.781   1.745   3.596
14709TIP3   OH244083   3.261   4.537   2.081
14709TIP3    H144084   3.205   4.460   2.071
14709TIP3    H244085   3.322   4.514   2.151
14710TIP3   OH244086   0.576   0.545   5.853
14710TIP3    H144087   0.508   0.482   5.874
14710TIP3    H244088   0.550   0.579   5.767
14711TIP3   OH244089   6.201   5.251   2.667
14711TIP3    H144090   6.232   5.324   2.613
14711TIP3    H244091   6.159   5.294   2.743
14712TIP3   OH244092   7.129   1.407   2.614
14712TIP3    H144093   7.191   1.397   2.542
14712TIP3    H244094   7.155   1.488   2.657
14713TIP3   OH244095   2.637   4.849   3.153
14713TIP3    H144096   2.705   4.839   3.086
14713TIP3    H244097   2.555   4.855   3.105
14714TIP3   OH244098   4.031   5.638   5.363
14714TIP3    H144099   4.058   5.708   5.423
14714TIP3    H244100   3.938   5.626   5.380
14715TIP3   OH244101   4.984   5.155   5.223
14715TIP3    H144102   5.059   5.185   5.275
14715TIP3    H244103   4.996   5.195   5.137
14716TIP3   OH244104   1.178   3.789   1.967
14716TIP3    H144105   1.219   3.862   2.014
14716TIP3    H244106   1.168   3.821   1.877
14717TIP3   OH244107   0.450   4.568   6.566
14717TIP3    H144108   0.411   4.481   6.556
14717TIP3    H244109   0.388   4.628   6.524
14718TIP3   OH244110   3.656   4.454   6.352
14718TIP3    H144111   3.745   4.453   6.318
14718TIP3    H244112   3.633   4.361   6.362
14719TIP3   OH244113   0.916   2.652   0.072
14719TIP3    H144114   0.940   2.571   0.117
14719TIP3    H244115   0.848   2.691   0.126
14720TIP3   OH244116   5.539   3.360   3.630
14720TIP3    H144117   5.542   3.285   3.690
14720TIP3    H244118   5.537   3.321   3.543
14721TIP3   OH244119   2.759   0.359   6.133
14721TIP3    H144120   2.791   0.298   6.200
14721TIP3    H244121   2.700   0.418   6.181
14722TIP3   OH244122   4.866   2.491   5.136
14722TIP3    H144123   4.866   2.422   5.070
14722TIP3    H244124   4.775   2.496   5.165
14723TIP3   OH244125   5.458   4.472   5.001
14723TIP3    H144126   5.419   4.495   5.086
14723TIP3    H244127   5.425   4.539   4.941
14724TIP3   OH244128   3.781   2.451   0.712
14724TIP3    H144129   3.705   2.506   0.729
14724TIP3    H244130   3.856   2.506   0.737
14725TIP3   OH244131   5.552   7.516   1.370
14725TIP3    H144132   5.635   7.492   1.412
14725TIP3    H244133   5.499   7.550   1.442
14726TIP3   OH244134   1.670   0.242   6.062
14726TIP3    H144135   1.650   0.156   6.024
14726TIP3    H244136   1.585   0.276   6.090
14727TIP3   OH244137   2.159   6.160   3.254
14727TIP3    H144138   2.166   6.078   3.304
14727TIP3    H244139   2.068   6.188   3.268
14728TIP3   OH244140   8.136   1.394   6.030
14728TIP3    H144141   8.093   1.364   6.110
14728TIP3    H244142   8.145   1.315   5.977
14729TIP3   OH244143   2.446   5.644   4.550
14729TIP3    H144144   2.448   5.686   4.636
14729TIP3    H244145   2.515   5.577   4.554
14730TIP3   OH244146   1.035   0.679   1.815
14730TIP3    H144147   1.002   0.700   1.728
14730TIP3    H244148   0.998   0.593   1.835
14731TIP3   OH244149   3.898   3.419   4.023
14731TIP3    H144150   3.957   3.418   4.099
14731TIP3    H244151   3.955   3.436   3.949
14732TIP3   OH244152   4.170   0.239   4.950
14732TIP3    H144153   4.148   0.209   5.038
14732TIP3    H244154   4.260   0.271   4.957
14733TIP3   OH244155   3.650   7.682   1.854
14733TIP3    H144156   3.604   7.748   1.906
14733TIP3    H244157   3.661   7.723   1.768
14734TIP3   OH244158   0.886   6.070   6.290
14734TIP3    H144159   0.946   6.014   6.241
14734TIP3    H244160   0.886   6.033   6.379
14735TIP3   OH244161   0.942   5.473   1.745
14735TIP3    H144162   0.998   5.508   1.676
14735TIP3    H244163   0.976   5.384   1.761
14736TIP3   OH244164   1.144   3.331   2.985
14736TIP3    H144165   1.160   3.369   2.898
14736TIP3    H244166   1.084   3.392   3.027
14737TIP3   OH244167   1.519   6.657   6.089
14737TIP3    H144168   1.522   6.751   6.071
14737TIP3    H244169   1.467   6.621   6.018
14738TIP3   OH244170   2.737   2.265   5.658
14738TIP3    H144171   2.677   2.335   5.684
14738TIP3    H244172   2.822   2.294   5.691
14739TIP3   OH244173   6.537   1.935   1.186
14739TIP3    H144174   6.584   2.007   1.145
14739TIP3    H244175   6.446   1.948   1.161
14740TIP3   OH244176   3.097   7.350   5.642
14740TIP3    H144177   3.092   7.390   5.555
14740TIP3    H244178   3.008   7.320   5.659
14741TIP3   OH244179   0.545   4.690   1.833
14741TIP3    H144180   0.576   4.705   1.922
14741TIP3    H244181   0.486   4.615   1.840
14742TIP3   OH244182   5.162   7.314   2.136
14742TIP3    H144183   5.154   7.409   2.140
14742TIP3    H244184   5.248   7.296   2.174
14743TIP3   OH244185   5.816   3.222   2.339
14743TIP3    H144186   5.881   3.287   2.311
14743TIP3    H244187   5.752   3.219   2.268
14744TIP3   OH244188   7.778   6.483   0.186
14744TIP3    H144189   7.694   6.467   0.142
14744TIP3    H244190   7.774   6.427   0.264
14745TIP3   OH244191   7.768   7.212   1.271
14745TIP3    H144192   7.701   7.189   1.335
14745TIP3    H244193   7.851   7.187   1.312
14746TIP3   OH244194   4.242   4.931   5.170
14746TIP3    H144195   4.220   5.020   5.142
14746TIP3    H244196   4.289   4.942   5.252
14747TIP3   OH244197   3.522   2.247   0.575
14747TIP3    H144198   3.581   2.182   0.613
14747TIP3    H244199   3.568   2.279   0.497
14748TIP3   OH244200   2.529   3.518   2.907
14748TIP3    H144201   2.463   3.501   2.974
14748TIP3    H244202   2.603   3.462   2.932
14749TIP3   OH244203   5.464   1.674   2.989
14749TIP3    H144204   5.557   1.676   2.967
14749TIP3    H244205   5.461   1.690   3.083
14750TIP3   OH244206   3.032   3.740   3.384
14750TIP3    H144207   2.979   3.819   3.393
14750TIP3    H244208   3.100   3.764   3.321
14751TIP3   OH244209   2.913   3.000   1.700
14751TIP3    H144210   2.824   3.032   1.681
14751TIP3    H244211   2.916   2.993   1.795
14752TIP3   OH244212   8.285   0.276   2.292
14752TIP3    H144213   8.346   0.319   2.351
14752TIP3    H244214   8.200   0.284   2.334
14753TIP3   OH244215   2.014   5.491   4.073
14753TIP3    H144216   2.087   5.553   4.074
14753TIP3    H244217   2.055   5.406   4.090
14754TIP3   OH244218   2.888   1.837   3.567
14754TIP3    H144219   2.814   1.784   3.598
14754TIP3    H244220   2.920   1.790   3.490
14755TIP3   OH244221   2.968   7.210   3.617
14755TIP3    H144222   3.038   7.158   3.575
14755TIP3    H244223   2.965   7.178   3.707
14756TIP3   OH244224   6.614   5.824   3.842
14756TIP3    H144225   6.621   5.907   3.890
14756TIP3    H244226   6.700   5.784   3.852
14757TIP3   OH244227   2.513   0.057   1.927
14757TIP3    H144228   2.487  -0.012   1.867
14757TIP3    H244229   2.430   0.088   1.965
14758TIP3   OH244230   5.704   6.075   0.865
14758TIP3    H144231   5.644   6.060   0.792
14758TIP3    H244232   5.703   5.993   0.914
14759TIP3   OH244233   4.894   4.104   3.986
14759TIP3    H144234   4.947   4.144   4.055
14759TIP3    H244235   4.957   4.063   3.928
14760TIP3   OH244236   7.631   1.316   5.094
14760TIP3    H144237   7.646   1.294   5.186
14760TIP3    H244238   7.594   1.237   5.055
14761TIP3   OH244239   5.011   4.561   3.821
14761TIP3    H144240   4.980   4.521   3.902
14761TIP3    H244241   5.029   4.487   3.763
14762TIP3   OH244242   8.065   5.969   0.065
14762TIP3    H144243   8.060   5.875   0.051
14762TIP3    H244244   8.129   5.999   0.000
14763TIP3   OH244245   0.685   4.205   3.649
14763TIP3    H144246   0.763   4.227   3.700
14763TIP3    H244247   0.720   4.180   3.563
14764TIP3   OH244248   5.096   1.572   2.814
14764TIP3    H144249   5.020   1.529   2.775
14764TIP3    H244250   5.114   1.521   2.894
14765TIP3   OH244251   3.114   7.588   3.269
14765TIP3    H144252   3.194   7.580   3.217
14765TIP3    H244253   3.117   7.515   3.330
14766TIP3   OH244254   4.547   5.906   4.206
14766TIP3    H144255   4.459   5.880   4.178
14766TIP3    H244256   4.600   5.827   4.197
14767TIP3   OH244257   3.105   5.174   4.237
14767TIP3    H144258   3.063   5.144   4.157
14767TIP3    H244259   3.046   5.146   4.307
14768TIP3   OH244260   4.982   6.103   5.145
14768TIP3    H144261   5.051   6.158   5.182
14768TIP3    H244262   4.913   6.103   5.212
14769TIP3   OH244263   2.186   0.882   3.714
14769TIP3    H144264   2.196   0.977   3.721
14769TIP3    H244265   2.105   0.870   3.665
14770TIP3   OH244266   3.619   2.314   4.569
14770TIP3    H144267   3.687   2.361   4.522
14770TIP3    H244268   3.539   2.365   4.555
14771TIP3   OH244269   4.846   1.897   2.231
14771TIP3    H144270   4.780   1.832   2.254
14771TIP3    H244271   4.876   1.932   2.315
14772TIP3   OH244272   0.737   1.302   2.713
14772TIP3    H144273   0.713   1.382   2.761
14772TIP3    H244274   0.794   1.255   2.774
14773TIP3   OH244275   1.463   6.479   1.423
14773TIP3    H144276   1.556   6.481   1.398
14773TIP3    H244277   1.458   6.533   1.502
14774TIP3   OH244278   6.157   5.133   5.790
14774TIP3    H144279   6.097   5.075   5.836
14774TIP3    H244280   6.240   5.084   5.787
14775TIP3   OH244281   7.209   6.148   1.503
14775TIP3    H144282   7.188   6.242   1.504
14775TIP3    H244283   7.209   6.123   1.595
14776TIP3   OH244284   6.124   5.818   4.779
14776TIP3    H144285   6.121   5.760   4.704
14776TIP3    H244286   6.186   5.777   4.840
14777TIP3   OH244287   0.875   4.855   4.634
14777TIP3    H144288   0.828   4.932   4.601
14777TIP3    H244289   0.935   4.891   4.700
14778TIP3   OH244290   5.225   6.035   1.856
14778TIP3    H144291   5.136   6.046   1.824
14778TIP3    H244292   5.281   6.059   1.782
14779TIP3   OH244293   8.061   6.345   0.224
14779TIP3    H144294   8.015   6.303   0.152
14779TIP3    H244295   8.035   6.295   0.302
14780TIP3   OH244296   3.800   5.529   4.939
14780TIP3    H144297   3.726   5.565   4.986
14780TIP3    H244298   3.803   5.437   4.966
14781TIP3   OH244299   1.363   5.260   6.509
14781TIP3    H144300   1.389   5.275   6.418
14781TIP3    H244301   1.374   5.166   6.523
14782TIP3   OH244302   0.708   5.455   5.466
14782TIP3    H144303   0.776   5.387   5.463
14782TIP3    H244304   0.755   5.536   5.445
14783TIP3   OH244305   5.391   2.846   0.407
14783TIP3    H144306   5.423   2.763   0.372
14783TIP3    H244307   5.314   2.823   0.459
14784TIP3   OH244308   2.479   2.753   0.103
14784TIP3    H144309   2.502   2.682   0.163
14784TIP3    H244310   2.435   2.710   0.030
14785TIP3   OH244311   5.652   0.341   0.299
14785TIP3    H144312   5.669   0.263   0.351
14785TIP3    H244313   5.730   0.395   0.309
14786TIP3   OH244314   2.521   1.682   1.702
14786TIP3    H144315   2.596   1.627   1.723
14786TIP3    H244316   2.467   1.681   1.781
14787TIP3   OH244317   6.385   5.877   2.880
14787TIP3    H144318   6.333   5.796   2.883
14787TIP3    H244319   6.321   5.947   2.895
14788TIP3   OH244320   5.854   4.866   0.601
14788TIP3    H144321   5.794   4.803   0.562
14788TIP3    H244322   5.874   4.927   0.530
14789TIP3   OH244323   7.338   2.320   0.881
14789TIP3    H144324   7.343   2.389   0.947
14789TIP3    H244325   7.343   2.366   0.797
14790TIP3   OH244326   3.067   3.298   4.609
14790TIP3    H144327   3.106   3.211   4.619
14790TIP3    H244328   3.047   3.304   4.516
14791TIP3   OH244329   5.440   6.650   1.142
14791TIP3    H144330   5.431   6.566   1.187
14791TIP3    H244331   5.442   6.627   1.049
14792TIP3   OH244332   1.749   4.571   4.196
14792TIP3    H144333   1.842   4.590   4.197
14792TIP3    H244334   1.722   4.578   4.288
14793TIP3   OH244335   6.646   2.967   2.617
14793TIP3    H144336   6.609   3.047   2.652
14793TIP3    H244337   6.698   2.995   2.542
14794TIP3   OH244338   0.169   0.381   0.595
14794TIP3    H144339   0.194   0.305   0.542
14794TIP3    H244340   0.073   0.383   0.590
14795TIP3   OH244341   1.841   2.361   3.898
14795TIP3    H144342   1.795   2.427   3.949
14795TIP3    H244343   1.798   2.278   3.921
14796TIP3   OH244344   0.488   0.320   3.293
14796TIP3    H144345   0.414   0.267   3.322
14796TIP3    H244346   0.477   0.404   3.338
14797TIP3   OH244347   4.410   3.990   3.729
14797TIP3    H144348   4.385   4.065   3.675
14797TIP3    H244349   4.327   3.945   3.748
14798TIP3   OH244350   4.904   3.782   1.939
14798TIP3    H144351   4.995   3.812   1.947
14798TIP3    H244352   4.856   3.833   2.004
14799TIP3   OH244353   3.920   1.638   4.717
14799TIP3    H144354   3.825   1.644   4.725
14799TIP3    H244355   3.935   1.616   4.625
14800TIP3   OH244356   2.950   5.736   2.732
14800TIP3    H144357   2.911   5.735   2.820
14800TIP3    H244358   2.896   5.799   2.683
14801TIP3   OH244359   3.099   6.120   4.956
14801TIP3    H144360   3.032   6.074   4.905
14801TIP3    H244361   3.052   6.192   4.998
14802TIP3   OH244362   7.273   0.471   0.925
14802TIP3    H144363   7.185   0.474   0.963
14802TIP3    H244364   7.320   0.543   0.967
14803TIP3   OH244365   1.710   6.462   5.768
14803TIP3    H144366   1.665   6.379   5.780
14803TIP3    H244367   1.702   6.480   5.674
14804TIP3   OH244368   7.368   1.697   1.076
14804TIP3    H144369   7.312   1.690   0.999
14804TIP3    H244370   7.456   1.712   1.042
14805TIP3   OH244371   0.068   5.197   0.729
14805TIP3    H144372  -0.027   5.205   0.723
14805TIP3    H244373   0.100   5.230   0.645
14806TIP3   OH244374   0.853   4.946   4.009
14806TIP3    H144375   0.816   4.862   3.983
14806TIP3    H244376   0.843   5.002   3.933
14807TIP3   OH244377   3.491   3.593   0.448
14807TIP3    H144378   3.533   3.676   0.471
14807TIP3    H244379   3.492   3.542   0.529
14808TIP3   OH244380   4.067   0.076   6.399
14808TIP3    H144381   4.117   0.100   6.477
14808TIP3    H244382   4.083   0.147   6.337
14809TIP3   OH244383   8.100   5.109   0.571
14809TIP3    H144384   8.154   5.048   0.520
14809TIP3    H244385   8.030   5.135   0.511
14810TIP3   OH244386   6.775   0.814   3.145
14810TIP3    H144387   6.865   0.783   3.141
14810TIP3    H244388   6.774   0.892   3.088
14811TIP3   OH244389   1.416   6.905   5.284
14811TIP3    H144390   1.422   6.919   5.189
14811TIP3    H244391   1.486   6.959   5.321
14812TIP3   OH244392   5.520   2.547   4.523
14812TIP3    H144393   5.428   2.542   4.552
14812TIP3    H244394   5.539   2.459   4.491
14813TIP3   OH244395   6.141   2.078   0.179
14813TIP3    H144396   6.206   2.081   0.108
14813TIP3    H244397   6.192   2.088   0.259
14814TIP3   OH244398   0.923   4.929   0.478
14814TIP3    H144399   0.949   4.998   0.539
14814TIP3    H244400   0.950   4.848   0.520
14815TIP3   OH244401   3.168   0.218   5.870
14815TIP3    H144402   3.260   0.245   5.877
14815TIP3    H244403   3.119   0.284   5.919
14816TIP3   OH244404   4.406   1.282   1.931
14816TIP3    H144405   4.340   1.348   1.953
14816TIP3    H244406   4.473   1.331   1.882
14817TIP3   OH244407   5.845   7.675   2.961
14817TIP3    H144408   5.870   7.584   2.977
14817TIP3    H244409   5.927   7.724   2.963
14818TIP3   OH244410   3.034   7.426   6.032
14818TIP3    H144411   2.984   7.503   6.057
14818TIP3    H244412   3.083   7.454   5.954
14819TIP3   OH244413   6.510   4.107   0.928
14819TIP3    H144414   6.554   4.103   1.012
14819TIP3    H244415   6.575   4.074   0.865
14820TIP3   OH244416   0.512   2.720   4.978
14820TIP3    H144417   0.558   2.761   5.052
14820TIP3    H244418   0.564   2.743   4.901
14821TIP3   OH244419   5.341   3.113   3.561
14821TIP3    H144420   5.257   3.145   3.529
14821TIP3    H244421   5.363   3.040   3.503
14822TIP3   OH244422   2.986   7.646   1.750
14822TIP3    H144423   2.957   7.736   1.766
14822TIP3    H244424   3.081   7.651   1.750
14823TIP3   OH244425   0.887   7.108   1.236
14823TIP3    H144426   0.882   7.102   1.331
14823TIP3    H244427   0.981   7.103   1.217
14824TIP3   OH244428   6.994   2.201   4.488
14824TIP3    H144429   7.011   2.114   4.453
14824TIP3    H244430   6.940   2.244   4.422
14825TIP3   OH244431   7.914   2.293   0.974
14825TIP3    H144432   7.950   2.360   0.915
14825TIP3    H244433   7.838   2.259   0.927
14826TIP3   OH244434   5.511   2.679   5.579
14826TIP3    H144435   5.554   2.742   5.637
14826TIP3    H244436   5.506   2.598   5.631
14827TIP3   OH244437   0.452   7.219   6.408
14827TIP3    H144438   0.450   7.214   6.504
14827TIP3    H244439   0.414   7.136   6.379
14828TIP3   OH244440   0.359   1.721   3.578
14828TIP3    H144441   0.348   1.627   3.565
14828TIP3    H244442   0.453   1.736   3.570
14829TIP3   OH244443   7.613   3.465   4.387
14829TIP3    H144444   7.690   3.428   4.430
14829TIP3    H244445   7.586   3.537   4.445
14830TIP3   OH244446   6.729   1.123   1.623
14830TIP3    H144447   6.775   1.087   1.699
14830TIP3    H244448   6.798   1.163   1.570
14831TIP3   OH244449   3.206   0.222   4.029
14831TIP3    H144450   3.220   0.148   3.970
14831TIP3    H244451   3.282   0.221   4.087
14832TIP3   OH244452   7.736   2.780   0.467
14832TIP3    H144453   7.808   2.738   0.420
14832TIP3    H244454   7.665   2.717   0.463
14833TIP3   OH244455   4.037   4.403   0.974
14833TIP3    H144456   4.051   4.340   1.045
14833TIP3    H244457   4.071   4.485   1.007
14834TIP3   OH244458   1.187   4.465   5.289
14834TIP3    H144459   1.189   4.455   5.384
14834TIP3    H244460   1.134   4.543   5.273
14835TIP3   OH244461   5.211   5.636   2.797
14835TIP3    H144462   5.278   5.686   2.844
14835TIP3    H244463   5.156   5.703   2.757
14836TIP3   OH244464   0.253   4.739   5.547
14836TIP3    H144465   0.198   4.757   5.472
14836TIP3    H244466   0.342   4.758   5.517
14837TIP3   OH244467   5.568   7.077   2.680
14837TIP3    H144468   5.545   7.145   2.616
14837TIP3    H244469   5.488   7.061   2.729
   8.28514   7.81130   6.76479   0.00000   0.00000  -2.76171   0.00000  -2.76171  -3.90566
