Title
44472
    1GLY      N    1   6.355   4.601   3.654
    1GLY    HT1    2   6.451   4.625   3.688
    1GLY    HT2    3   6.298   4.687   3.641
    1GLY    HT3    4   6.366   4.555   3.562
    1GLY     CA    5   6.293   4.506   3.746
    1GLY    HA1    6   6.284   4.554   3.842
    1GLY    HA2    7   6.356   4.419   3.745
    1GLY      C    8   6.154   4.464   3.703
    1GLY      O    9   6.097   4.522   3.611
    2PRO      N   10   6.082   4.360   3.765
    2PRO     CD   11   6.155   4.264   3.834
    2PRO    HD1   12   6.190   4.306   3.931
    2PRO    HD2   13   6.241   4.226   3.774
    2PRO     CA   14   5.944   4.323   3.734
    2PRO     HA   15   5.937   4.303   3.629
    2PRO     CB   16   5.920   4.199   3.822
    2PRO    HB1   17   5.861   4.122   3.768
    2PRO    HB2   18   5.865   4.225   3.915
    2PRO     CG   19   6.057   4.151   3.858
    2PRO    HG1   20   6.061   4.116   3.963
    2PRO    HG2   21   6.085   4.065   3.793
    2PRO      C   22   5.843   4.433   3.768
    2PRO      O   23   5.873   4.520   3.850
    3GLY      N   24   5.735   4.432   3.691
    3GLY     HN   25   5.719   4.360   3.623
    3GLY     CA   26   5.627   4.527   3.716
    3GLY    HA1   27   5.551   4.509   3.641
    3GLY    HA2   28   5.668   4.627   3.712
    3GLY      C   29   5.561   4.507   3.851
    3GLY      O   30   5.581   4.405   3.916
    4ASN      N   31   5.495   4.610   3.888
    4ASN     HN   32   5.487   4.692   3.833
    4ASN     CA   33   5.414   4.594   4.008
    4ASN     HA   34   5.483   4.566   4.086
    4ASN     CB   35   5.350   4.728   4.046
    4ASN    HB1   36   5.273   4.713   4.125
    4ASN    HB2   37   5.298   4.770   3.957
    4ASN     CG   38   5.451   4.828   4.099
    4ASN    OD1   39   5.561   4.792   4.139
    4ASN    ND2   40   5.414   4.956   4.098
    4ASN   HD21   41   5.480   5.021   4.133
    4ASN   HD22   42   5.319   4.980   4.080
    4ASN      C   43   5.307   4.487   3.990
    4ASN      O   44   5.256   4.468   3.880
    5PRO      N   45   5.276   4.418   4.089
    5PRO     CD   46   5.348   4.409   4.213
    5PRO    HD1   47   5.337   4.505   4.269
    5PRO    HD2   48   5.455   4.385   4.197
    5PRO     CA   49   5.161   4.327   4.079
    5PRO     HA   50   5.186   4.251   4.006
    5PRO     CB   51   5.146   4.273   4.221
    5PRO    HB1   52   5.116   4.166   4.221
    5PRO    HB2   53   5.069   4.332   4.277
    5PRO     CG   54   5.279   4.297   4.285
    5PRO    HG1   55   5.273   4.317   4.395
    5PRO    HG2   56   5.341   4.205   4.271
    5PRO      C   57   5.034   4.398   4.033
    5PRO      O   58   5.019   4.518   4.056
    6GLY      N   59   4.959   4.314   3.954
    6GLY     HN   60   4.981   4.218   3.940
    6GLY     CA   61   4.831   4.368   3.912
    6GLY    HA1   62   4.783   4.291   3.853
    6GLY    HA2   63   4.852   4.460   3.858
    6GLY      C   64   4.738   4.399   4.028
    6GLY      O   65   4.767   4.363   4.143
    7PRO      N   66   4.640   4.457   4.000
    7PRO     CD   67   4.597   4.503   3.863
    7PRO    HD1   68   4.601   4.420   3.789
    7PRO    HD2   69   4.660   4.589   3.831
    7PRO     CA   70   4.537   4.477   4.102
    7PRO     HA   71   4.580   4.522   4.190
    7PRO     CB   72   4.437   4.571   4.033
    7PRO    HB1   73   4.467   4.676   4.055
    7PRO    HB2   74   4.332   4.557   4.066
    7PRO     CG   75   4.454   4.545   3.887
    7PRO    HG1   76   4.389   4.459   3.860
    7PRO    HG2   77   4.424   4.631   3.823
    7PRO      C   78   4.469   4.347   4.144
    7PRO      O   79   4.478   4.247   4.073
    8GLY      N   80   4.409   4.359   4.262
    8GLY     HN   81   4.411   4.442   4.316
    8GLY     CA   82   4.335   4.242   4.308
    8GLY    HA1   83   4.306   4.262   4.410
    8GLY    HA2   84   4.397   4.154   4.300
    8GLY      C   85   4.208   4.217   4.230
    8GLY      O   86   4.165   4.302   4.152
    9ASN      N   87   4.152   4.103   4.251
    9ASN     HN   88   4.197   4.035   4.308
    9ASN     CA   89   4.023   4.068   4.192
    9ASN     HA   90   4.037   4.088   4.087
    9ASN     CB   91   3.994   3.919   4.213
    9ASN    HB1   92   3.890   3.892   4.184
    9ASN    HB2   93   4.005   3.895   4.321
    9ASN     CG   94   4.086   3.830   4.132
    9ASN    OD1   95   4.150   3.875   4.037
    9ASN    ND2   96   4.094   3.703   4.170
    9ASN   HD21   97   4.158   3.644   4.122
    9ASN   HD22   98   4.035   3.668   4.243
    9ASN      C   99   3.910   4.153   4.250
    9ASN      O  100   3.920   4.201   4.363
   10PRO      N  101   3.813   4.165   4.166
   10PRO     CD  102   3.801   4.124   4.042
   10PRO    HD1  103   3.800   4.013   4.038
   10PRO    HD2  104   3.884   4.164   3.979
   10PRO     CA  105   3.697   4.234   4.223
   10PRO     HA  106   3.727   4.332   4.258
   10PRO     CB  107   3.597   4.240   4.107
   10PRO    HB1  108   3.571   4.346   4.084
   10PRO    HB2  109   3.504   4.184   4.128
   10PRO     CG  110   3.670   4.177   3.992
   10PRO    HG1  111   3.609   4.094   3.948
   10PRO    HG2  112   3.688   4.252   3.912
   10PRO      C  113   3.637   4.160   4.343
   10PRO      O  114   3.658   4.039   4.357
   11GLY      N  115   3.575   4.236   4.440
   11GLY     HN  116   3.570   4.335   4.430
   11GLY     CA  117   3.509   4.175   4.554
   11GLY    HA1  118   3.473   4.254   4.618
   11GLY    HA2  119   3.583   4.112   4.602
   11GLY      C  120   3.392   4.087   4.515
   11GLY      O  121   3.355   4.080   4.397
   12PRO      N  122   3.334   4.018   4.598
   12PRO     CD  123   3.375   4.021   4.739
   12PRO    HD1  124   3.374   4.123   4.782
   12PRO    HD2  125   3.476   3.974   4.750
   12PRO     CA  126   3.215   3.936   4.574
   12PRO     HA  127   3.231   3.875   4.486
   12PRO     CB  128   3.202   3.854   4.703
   12PRO    HB1  129   3.259   3.759   4.688
   12PRO    HB2  130   3.097   3.827   4.729
   12PRO     CG  131   3.271   3.935   4.807
   12PRO    HG1  132   3.196   4.002   4.854
   12PRO    HG2  133   3.314   3.871   4.887
   12PRO      C  134   3.089   4.020   4.550
   12PRO      O  135   3.084   4.137   4.589
   13GLY      N  136   2.996   3.968   4.474
   13GLY     HN  137   3.006   3.875   4.440
   13GLY     CA  138   2.868   4.033   4.454
   13GLY    HA1  139   2.808   3.968   4.392
   13GLY    HA2  140   2.885   4.130   4.411
   13GLY      C  141   2.789   4.051   4.583
   13GLY      O  142   2.818   3.985   4.683
   14ASN      N  143   2.709   4.128   4.595
   14ASN     HN  144   2.688   4.185   4.516
   14ASN     CA  145   2.617   4.150   4.705
   14ASN     HA  146   2.680   4.161   4.792
   14ASN     CB  147   2.542   4.282   4.688
   14ASN    HB1  148   2.466   4.273   4.607
   14ASN    HB2  149   2.615   4.360   4.658
   14ASN     CG  150   2.476   4.329   4.816
   14ASN    OD1  151   2.509   4.282   4.925
   14ASN    ND2  152   2.383   4.424   4.804
   14ASN   HD21  153   2.341   4.456   4.888
   14ASN   HD22  154   2.354   4.450   4.712
   14ASN      C  155   2.518   4.034   4.720
   14ASN      O  156   2.480   3.971   4.621
   15PRO      N  157   2.519   3.968   4.855
   15PRO     CD  158   2.581   4.017   4.962
   15PRO    HD1  159   2.518   4.097   5.007
   15PRO    HD2  160   2.689   4.042   4.951
   15PRO     CA  161   2.424   3.859   4.879
   15PRO     HA  162   2.451   3.775   4.817
   15PRO     CB  163   2.437   3.834   5.029
   15PRO    HB1  164   2.459   3.726   5.049
   15PRO    HB2  165   2.344   3.861   5.083
   15PRO     CG  166   2.548   3.923   5.073
   15PRO    HG1  167   2.529   3.973   5.171
   15PRO    HG2  168   2.639   3.859   5.087
   15PRO      C  169   2.281   3.896   4.842
   15PRO    OT1  170   2.260   4.012   4.797
   15PRO    OT2  171   2.191   3.810   4.859
   16LIT    LIT  172   7.970   7.821   1.454
   17LIT    LIT  173   7.812   3.466   6.675
   18LIT    LIT  174   3.024   3.815   2.296
   19LIT    LIT  175   4.284   7.463   2.089
   20LIT    LIT  176   6.935   5.182   5.117
   21LIT    LIT  177   3.516   6.782   6.827
   22LIT    LIT  178   6.692   6.636   4.820
   23LIT    LIT  179   2.097   1.047   6.276
   24LIT    LIT  180   5.411   2.736   3.155
   25LIT    LIT  181   5.672   7.053   5.993
   26LIT    LIT  182   7.355   1.938   2.080
   27LIT    LIT  183   6.079   4.643   0.637
   28LIT    LIT  184   1.428   3.955   2.261
   29LIT    LIT  185   1.359   1.914   5.699
   30LIT    LIT  186   3.606   1.009   2.709
   31LIT    LIT  187   1.742   2.351   2.550
   32LIT    LIT  188   2.944   7.471   6.370
   33LIT    LIT  189   1.016   4.932   4.924
   34LIT    LIT  190   5.089   7.974   6.180
   35LIT    LIT  191   7.117   3.564   3.101
   36LIT    LIT  192   1.434   6.829   0.555
   37LIT    LIT  193   6.115   7.314   2.050
   38LIT    LIT  194   3.856   5.071   6.765
   39LIT    LIT  195   2.528   3.700   3.412
   40LIT    LIT  196   0.589   5.563   5.940
   41LIT    LIT  197   7.624   1.443   2.736
   42LIT    LIT  198   4.317   0.071   2.242
   43LIT    LIT  199   6.380   7.053   6.264
   44LIT    LIT  200   2.158   5.596   0.910
   45LIT    LIT  201   6.934   0.517   2.148
   46LIT    LIT  202   7.712   4.860   0.179
   47LIT    LIT  203   0.197   6.273   5.236
   48LIT    LIT  204   7.849   4.845   2.644
   49LIT    LIT  205   8.398   3.293   3.069
   50LIT    LIT  206   7.242   6.801   5.928
   51LIT    LIT  207   0.509   3.773   4.226
   52LIT    LIT  208   5.814   0.171   3.583
   53LIT    LIT  209   4.694   1.088   0.382
   54LIT    LIT  210   0.894   6.900   5.661
   55LIT    LIT  211   1.153   5.757   2.351
   56LIT    LIT  212   2.996   1.074   2.348
   57LIT    LIT  213   5.786   0.333   5.460
   58CLA    CLA  214   4.815   2.578   3.291
   59CLA    CLA  215   5.601   6.847   6.005
   60CLA    CLA  216   3.835   5.994   3.918
   61CLA    CLA  217   7.331   2.601   2.790
   62CLA    CLA  218   3.685   0.698   2.687
   63CLA    CLA  219   0.559   0.995   6.919
   64CLA    CLA  220   4.231   7.365   6.671
   65CLA    CLA  221   7.522   6.869   2.461
   66CLA    CLA  222   2.444   2.308   1.771
   67CLA    CLA  223   4.858   4.623   1.213
   68CLA    CLA  224   1.075   1.244   3.110
   69CLA    CLA  225   7.761   4.426   2.086
   70CLA    CLA  226   4.352   5.874   0.353
   71CLA    CLA  227   3.312   7.413   1.023
   72CLA    CLA  228   6.402   1.079   3.100
   73CLA    CLA  229   3.580   1.103   2.510
   74CLA    CLA  230   7.532   7.480   2.881
   75CLA    CLA  231   6.982   3.650   6.328
   76CLA    CLA  232   5.226   2.597   2.667
   77CLA    CLA  233   3.264   1.410   4.112
   78CLA    CLA  234   1.373   3.239   2.082
   79CLA    CLA  235   1.414   2.674   1.088
   80CLA    CLA  236   2.593   0.826   5.742
   81CLA    CLA  237   2.429   0.708   3.412
   82CLA    CLA  238   6.284   7.733   2.387
   83CLA    CLA  239   5.652   7.539   6.102
   84CLA    CLA  240   3.836   2.220   4.083
   85CLA    CLA  241   6.993   4.211   3.166
   86CLA    CLA  242   5.994   6.213   5.261
   87CLA    CLA  243   2.655   1.851   6.823
   88CLA    CLA  244   1.299   7.969   2.238
   89CLA    CLA  245   1.154   3.995   4.453
   90CLA    CLA  246   1.293   4.192   1.111
   91CLA    CLA  247   4.987   1.791   0.450
   92CLA    CLA  248   6.244   3.308   2.379
   93CLA    CLA  249   8.180   3.567   0.125
   94CLA    CLA  250   8.468   3.196   2.885
   95CLA    CLA  251   7.127   1.800   3.980
   96CLA    CLA  252   7.295   0.765   2.535
   97CLA    CLA  253   5.223   0.396   5.683
   98CLA    CLA  254   1.462   0.774   4.996
   99CLA    CLA  255   5.560   2.230   6.341
  100TIP3   OH2  256   3.280   0.365   2.241
  100TIP3    H1  257   3.280   0.270   2.255
  100TIP3    H2  258   3.203   0.397   2.288
  101TIP3   OH2  259   2.969   0.717   2.333
  101TIP3    H1  260   2.963   0.738   2.240
  101TIP3    H2  261   3.053   0.754   2.361
  102TIP3   OH2  262   3.277   0.054   2.254
  102TIP3    H1  263   3.184   0.074   2.251
  102TIP3    H2  264   3.299   0.026   2.165
  103TIP3   OH2  265   2.765   0.239   2.529
  103TIP3    H1  266   2.747   0.193   2.611
  103TIP3    H2  267   2.829   0.306   2.553
  104TIP3   OH2  268   3.076   0.494   2.026
  104TIP3    H1  269   3.071   0.429   1.956
  104TIP3    H2  270   3.156   0.471   2.075
  105TIP3   OH2  271   3.142   0.171   2.578
  105TIP3    H1  272   3.072   0.178   2.643
  105TIP3    H2  273   3.189   0.254   2.584
  106TIP3   OH2  274   0.358   7.853   2.413
  106TIP3    H1  275   0.418   7.779   2.405
  106TIP3    H2  276   0.390   7.918   2.350
  107TIP3   OH2  277   0.534   7.650   2.419
  107TIP3    H1  278   0.505   7.571   2.464
  107TIP3    H2  279   0.628   7.654   2.436
  108TIP3   OH2  280   2.581   0.603   2.293
  108TIP3    H1  281   2.656   0.625   2.238
  108TIP3    H2  282   2.587   0.664   2.367
  109TIP3   OH2  283   3.039   0.449   2.341
  109TIP3    H1  284   2.965   0.406   2.297
  109TIP3    H2  285   3.016   0.542   2.341
  110TIP3   OH2  286   1.408   7.839   1.486
  110TIP3    H1  287   1.447   7.826   1.572
  110TIP3    H2  288   1.364   7.756   1.466
  111TIP3   OH2  289   4.503   0.132   1.198
  111TIP3    H1  290   4.522   0.068   1.267
  111TIP3    H2  291   4.537   0.215   1.232
  112TIP3   OH2  292   4.177   0.584   1.178
  112TIP3    H1  293   4.233   0.520   1.133
  112TIP3    H2  294   4.179   0.557   1.270
  113TIP3   OH2  295   4.102   0.064   1.531
  113TIP3    H1  296   4.129  -0.023   1.501
  113TIP3    H2  297   4.184   0.107   1.556
  114TIP3   OH2  298   3.927  -0.034   1.733
  114TIP3    H1  299   3.876   0.023   1.790
  114TIP3    H2  300   3.985   0.025   1.685
  115TIP3   OH2  301   3.769   0.164   1.849
  115TIP3    H1  302   3.762   0.255   1.821
  115TIP3    H2  303   3.701   0.153   1.915
  116TIP3   OH2  304   4.602   0.367   1.322
  116TIP3    H1  305   4.518   0.361   1.369
  116TIP3    H2  306   4.601   0.453   1.281
  117TIP3   OH2  307   4.310   0.407   1.016
  117TIP3    H1  308   4.368   0.331   1.009
  117TIP3    H2  309   4.354   0.476   0.966
  118TIP3   OH2  310   4.831   0.312   1.704
  118TIP3    H1  311   4.827   0.232   1.650
  118TIP3    H2  312   4.814   0.383   1.642
  119TIP3   OH2  313   1.887   7.801   1.848
  119TIP3    H1  314   1.876   7.881   1.900
  119TIP3    H2  315   1.830   7.814   1.772
  120TIP3   OH2  316   3.887   0.215   1.431
  120TIP3    H1  317   3.823   0.147   1.453
  120TIP3    H2  318   3.971   0.180   1.460
  121TIP3   OH2  319   4.370   0.361   1.455
  121TIP3    H1  320   4.354   0.446   1.497
  121TIP3    H2  321   4.345   0.297   1.521
  122TIP3   OH2  322   3.983   0.286   2.000
  122TIP3    H1  323   3.924   0.343   2.050
  122TIP3    H2  324   3.926   0.218   1.964
  123TIP3   OH2  325   0.870   7.871   2.085
  123TIP3    H1  326   0.895   7.949   2.135
  123TIP3    H2  327   0.780   7.853   2.112
  124TIP3   OH2  328   4.089   0.246   1.100
  124TIP3    H1  329   4.165   0.303   1.101
  124TIP3    H2  330   4.018   0.299   1.136
  125TIP3   OH2  331   3.776   0.440   2.088
  125TIP3    H1  332   3.742   0.449   1.999
  125TIP3    H2  333   3.699   0.424   2.143
  126TIP3   OH2  334   5.064   0.621   1.721
  126TIP3    H1  335   5.071   0.529   1.743
  126TIP3    H2  336   4.986   0.651   1.767
  127TIP3   OH2  337   4.171   0.408   1.852
  127TIP3    H1  338   4.174   0.499   1.882
  127TIP3    H2  339   4.106   0.367   1.909
  128TIP3   OH2  340   4.218   0.477   0.733
  128TIP3    H1  341   4.134   0.435   0.750
  128TIP3    H2  342   4.283   0.411   0.753
  129TIP3   OH2  343   2.132   7.757   1.981
  129TIP3    H1  344   2.045   7.780   1.948
  129TIP3    H2  345   2.130   7.662   1.991
  130TIP3   OH2  346   3.569   0.177   2.028
  130TIP3    H1  347   3.611   0.153   2.111
  130TIP3    H2  348   3.505   0.107   2.013
  131TIP3   OH2  349   1.870   7.546   1.944
  131TIP3    H1  350   1.871   7.582   2.032
  131TIP3    H2  351   1.879   7.622   1.887
  132TIP3   OH2  352   1.571   7.761   1.707
  132TIP3    H1  353   1.643   7.712   1.670
  132TIP3    H2  354   1.557   7.724   1.794
  133TIP3   OH2  355   4.767   0.976   1.822
  133TIP3    H1  356   4.762   1.002   1.730
  133TIP3    H2  357   4.844   1.020   1.856
  134TIP3   OH2  358   3.711   0.082   2.249
  134TIP3    H1  359   3.794   0.104   2.291
  134TIP3    H2  360   3.646   0.085   2.320
  135TIP3   OH2  361   1.315   7.432   1.859
  135TIP3    H1  362   1.266   7.461   1.782
  135TIP3    H2  363   1.389   7.493   1.864
  136TIP3   OH2  364   4.802   0.110   1.532
  136TIP3    H1  365   4.844   0.159   1.461
  136TIP3    H2  366   4.711   0.101   1.503
  137TIP3   OH2  367   4.300   0.143   1.905
  137TIP3    H1  368   4.246   0.064   1.905
  137TIP3    H2  369   4.238   0.215   1.894
  138TIP3   OH2  370   4.451   0.407   1.785
  138TIP3    H1  371   4.356   0.399   1.798
  138TIP3    H2  372   4.481   0.460   1.859
  139TIP3   OH2  373   5.087   0.340   1.775
  139TIP3    H1  374   4.991   0.337   1.771
  139TIP3    H2  375   5.115   0.314   1.687
  140TIP3   OH2  376   1.732   8.004   1.445
  140TIP3    H1  377   1.658   7.965   1.492
  140TIP3    H2  378   1.794   7.932   1.432
  141TIP3   OH2  379   3.963   0.504   1.649
  141TIP3    H1  380   4.003   0.574   1.597
  141TIP3    H2  381   4.035   0.466   1.698
  142TIP3   OH2  382   4.351   0.134   1.629
  142TIP3    H1  383   4.347   0.133   1.725
  142TIP3    H2  384   4.443   0.120   1.608
  143TIP3   OH2  385   4.590   0.660   1.655
  143TIP3    H1  386   4.511   0.608   1.649
  143TIP3    H2  387   4.580   0.727   1.587
  144TIP3   OH2  388   3.428   0.378   1.804
  144TIP3    H1  389   3.471   0.295   1.825
  144TIP3    H2  390   3.446   0.434   1.880
  145TIP3   OH2  391   1.532   7.615   1.941
  145TIP3    H1  392   1.485   7.667   2.007
  145TIP3    H2  393   1.595   7.564   1.991
  146TIP3   OH2  394   4.618   0.633   1.246
  146TIP3    H1  395   4.573   0.683   1.178
  146TIP3    H2  396   4.710   0.654   1.234
  147TIP3   OH2  397   3.395   0.666   2.242
  147TIP3    H1  398   3.476   0.681   2.292
  147TIP3    H2  399   3.387   0.571   2.237
  148TIP3   OH2  400   3.853   0.646   2.261
  148TIP3    H1  401   3.938   0.636   2.304
  148TIP3    H2  402   3.847   0.572   2.202
  149TIP3   OH2  403   4.520   0.527   2.036
  149TIP3    H1  404   4.573   0.457   2.075
  149TIP3    H2  405   4.576   0.605   2.041
  150TIP3   OH2  406   3.509   0.066   2.432
  150TIP3    H1  407   3.528  -0.027   2.446
  150TIP3    H2  408   3.425   0.066   2.386
  151TIP3   OH2  409   4.612   0.175   1.800
  151TIP3    H1  410   4.691   0.225   1.777
  151TIP3    H2  411   4.542   0.240   1.803
  152TIP3   OH2  412   0.806   7.807   2.425
  152TIP3    H1  413   0.889   7.777   2.388
  152TIP3    H2  414   0.831   7.853   2.505
  153TIP3   OH2  415   1.115   7.716   2.010
  153TIP3    H1  416   1.062   7.782   2.055
  153TIP3    H2  417   1.197   7.761   1.990
  154TIP3   OH2  418   1.204   7.519   2.183
  154TIP3    H1  419   1.195   7.485   2.094
  154TIP3    H2  420   1.184   7.612   2.175
  155TIP3   OH2  421   1.311   7.857   1.861
  155TIP3    H1  422   1.348   7.794   1.798
  155TIP3    H2  423   1.226   7.880   1.824
  156TIP3   OH2  424   1.897   7.763   2.220
  156TIP3    H1  425   1.902   7.720   2.305
  156TIP3    H2  426   1.948   7.843   2.231
  157TIP3   OH2  427   4.755   0.032   1.987
  157TIP3    H1  428   4.694   0.081   1.931
  157TIP3    H2  429   4.841   0.049   1.950
  158TIP3   OH2  430   1.099   7.635   2.433
  158TIP3    H1  431   1.083   7.541   2.422
  158TIP3    H2  432   1.178   7.652   2.382
  159TIP3   OH2  433   4.872   0.729   1.229
  159TIP3    H1  434   4.891   0.764   1.315
  159TIP3    H2  435   4.925   0.781   1.169
  160TIP3   OH2  436   4.899   0.747   1.505
  160TIP3    H1  437   4.857   0.662   1.496
  160TIP3    H2  438   4.974   0.731   1.562
  161TIP3   OH2  439   4.938   0.425   2.073
  161TIP3    H1  440   4.869   0.435   2.138
  161TIP3    H2  441   4.983   0.510   2.074
  162TIP3   OH2  442   4.959   0.228   1.346
  162TIP3    H1  443   5.024   0.184   1.291
  162TIP3    H2  444   4.943   0.312   1.302
  163TIP3   OH2  445   4.767   0.500   1.513
  163TIP3    H1  446   4.700   0.547   1.562
  163TIP3    H2  447   4.720   0.455   1.443
  164TIP3   OH2  448   5.009   0.083   1.887
  164TIP3    H1  449   5.077   0.015   1.881
  164TIP3    H2  450   5.040   0.153   1.830
  165TIP3   OH2  451   2.359   7.884   1.913
  165TIP3    H1  452   2.283   7.835   1.944
  165TIP3    H2  453   2.434   7.828   1.932
  166TIP3   OH2  454   0.729   7.429   2.490
  166TIP3    H1  455   0.796   7.423   2.421
  166TIP3    H2  456   0.775   7.400   2.569
  167TIP3   OH2  457   4.464   0.590   0.889
  167TIP3    H1  458   4.536   0.541   0.850
  167TIP3    H2  459   4.505   0.668   0.927
  168TIP3   OH2  460   3.555   0.405   2.250
  168TIP3    H1  461   3.465   0.376   2.234
  168TIP3    H2  462   3.565   0.403   2.345
  169TIP3   OH2  463   3.740   0.432   1.796
  169TIP3    H1  464   3.680   0.499   1.763
  169TIP3    H2  465   3.824   0.454   1.757
  170TIP3   OH2  466   4.176   0.669   1.936
  170TIP3    H1  467   4.209   0.667   2.025
  170TIP3    H2  468   4.238   0.725   1.889
  171TIP3   OH2  469   4.358   0.829   1.801
  171TIP3    H1  470   4.428   0.784   1.755
  171TIP3    H2  471   4.402   0.887   1.862
  172TIP3   OH2  472   3.418   0.704   1.824
  172TIP3    H1  473   3.324   0.716   1.808
  172TIP3    H2  474   3.433   0.746   1.909
  173TIP3   OH2  475   3.647   0.665   1.682
  173TIP3    H1  476   3.564   0.678   1.728
  173TIP3    H2  477   3.631   0.699   1.594
  174TIP3   OH2  478   4.071   0.697   1.477
  174TIP3    H1  479   4.000   0.714   1.415
  174TIP3    H2  480   4.083   0.781   1.523
  175TIP3   OH2  481   4.338   0.630   1.526
  175TIP3    H1  482   4.246   0.652   1.514
  175TIP3    H2  483   4.386   0.704   1.490
  176TIP3   OH2  484   4.540   0.821   1.441
  176TIP3    H1  485   4.528   0.907   1.400
  176TIP3    H2  486   4.569   0.765   1.369
  177TIP3   OH2  487   3.355   0.491   1.566
  177TIP3    H1  488   3.381   0.462   1.653
  177TIP3    H2  489   3.337   0.410   1.518
  178TIP3   OH2  490   3.789   0.473   1.430
  178TIP3    H1  491   3.820   0.385   1.408
  178TIP3    H2  492   3.829   0.493   1.515
  179TIP3   OH2  493   4.819   0.707   1.819
  179TIP3    H1  494   4.744   0.677   1.768
  179TIP3    H2  495   4.807   0.801   1.827
  180TIP3   OH2  496   5.536   0.422   1.302
  180TIP3    H1  497   5.532   0.517   1.296
  180TIP3    H2  498   5.477   0.400   1.375
  181TIP3   OH2  499   5.756   0.531   1.483
  181TIP3    H1  500   5.697   0.597   1.519
  181TIP3    H2  501   5.699   0.460   1.455
  182TIP3   OH2  502   5.559   0.710   1.573
  182TIP3    H1  503   5.525   0.716   1.484
  182TIP3    H2  504   5.482   0.690   1.627
  183TIP3   OH2  505   5.157   0.246   1.535
  183TIP3    H1  506   5.084   0.225   1.478
  183TIP3    H2  507   5.186   0.161   1.568
  184TIP3   OH2  508   4.997   0.439   1.178
  184TIP3    H1  509   5.093   0.440   1.174
  184TIP3    H2  510   4.974   0.522   1.219
  185TIP3   OH2  511   5.933   0.722   1.305
  185TIP3    H1  512   5.956   0.809   1.338
  185TIP3    H2  513   5.940   0.664   1.381
  186TIP3   OH2  514   5.354   0.429   1.504
  186TIP3    H1  515   5.409   0.420   1.582
  186TIP3    H2  516   5.286   0.363   1.515
  187TIP3   OH2  517   6.545   1.240   1.331
  187TIP3    H1  518   6.525   1.247   1.237
  187TIP3    H2  519   6.635   1.272   1.339
  188TIP3   OH2  520   5.499   0.378   1.734
  188TIP3    H1  521   5.588   0.379   1.769
  188TIP3    H2  522   5.443   0.360   1.809
  189TIP3   OH2  523   5.238   0.032   1.679
  189TIP3    H1  524   5.298   0.058   1.749
  189TIP3    H2  525   5.219  -0.060   1.696
  190TIP3   OH2  526   5.724   0.794   1.150
  190TIP3    H1  527   5.754   0.849   1.078
  190TIP3    H2  528   5.801   0.781   1.205
  191TIP3   OH2  529   5.206   0.601   1.310
  191TIP3    H1  530   5.256   0.543   1.367
  191TIP3    H2  531   5.221   0.689   1.345
  192TIP3   OH2  532   5.189   0.927   1.722
  192TIP3    H1  533   5.273   0.935   1.768
  192TIP3    H2  534   5.173   0.833   1.716
  193TIP3   OH2  535   5.662   0.881   1.768
  193TIP3    H1  536   5.757   0.874   1.768
  193TIP3    H2  537   5.633   0.825   1.696
  194TIP3   OH2  538   6.265   0.820   1.515
  194TIP3    H1  539   6.267   0.736   1.561
  194TIP3    H2  540   6.355   0.852   1.517
  195TIP3   OH2  541   5.308   0.341   1.933
  195TIP3    H1  542   5.332   0.249   1.931
  195TIP3    H2  543   5.225   0.345   1.885
  196TIP3   OH2  544   5.911   0.420   1.709
  196TIP3    H1  545   5.910   0.463   1.624
  196TIP3    H2  546   5.911   0.326   1.688
  197TIP3   OH2  547   5.403   0.090   1.912
  197TIP3    H1  548   5.416  -0.004   1.902
  197TIP3    H2  549   5.453   0.114   1.991
  198TIP3   OH2  550   4.752   0.717   0.783
  198TIP3    H1  551   4.733   0.661   0.708
  198TIP3    H2  552   4.786   0.658   0.850
  199TIP3   OH2  553   4.892   0.580   0.966
  199TIP3    H1  554   4.900   0.493   1.005
  199TIP3    H2  555   4.945   0.636   1.022
  200TIP3   OH2  556   5.341   0.668   1.740
  200TIP3    H1  557   5.254   0.631   1.722
  200TIP3    H2  558   5.364   0.636   1.827
  201TIP3   OH2  559   5.518   0.698   1.287
  201TIP3    H1  560   5.465   0.768   1.252
  201TIP3    H2  561   5.605   0.712   1.249
  202TIP3   OH2  562   5.967   0.957   1.438
  202TIP3    H1  563   6.007   0.948   1.524
  202TIP3    H2  564   6.030   1.010   1.389
  203TIP3   OH2  565   6.133   1.111   1.283
  203TIP3    H1  566   6.200   1.065   1.233
  203TIP3    H2  567   6.182   1.161   1.348
  204TIP3   OH2  568   5.194   0.937   1.320
  204TIP3    H1  569   5.107   0.969   1.296
  204TIP3    H2  570   5.220   0.993   1.393
  205TIP3   OH2  571   5.429   0.926   1.172
  205TIP3    H1  572   5.343   0.940   1.212
  205TIP3    H2  573   5.420   0.960   1.083
  206TIP3   OH2  574   5.828   0.952   0.950
  206TIP3    H1  575   5.774   1.008   0.894
  206TIP3    H2  576   5.874   1.013   1.007
  207TIP3   OH2  577   5.108   0.736   1.074
  207TIP3    H1  578   5.148   0.710   1.157
  207TIP3    H2  579   5.172   0.708   1.007
  208TIP3   OH2  580   0.830   2.245   2.468
  208TIP3    H1  581   0.781   2.292   2.401
  208TIP3    H2  582   0.876   2.313   2.516
  209TIP3   OH2  583   1.024   1.724   2.749
  209TIP3    H1  584   0.995   1.692   2.835
  209TIP3    H2  585   1.057   1.812   2.766
  210TIP3   OH2  586   2.350   1.688   1.373
  210TIP3    H1  587   2.318   1.652   1.456
  210TIP3    H2  588   2.388   1.772   1.396
  211TIP3   OH2  589   1.999   2.109   1.364
  211TIP3    H1  590   2.073   2.070   1.319
  211TIP3    H2  591   2.034   2.133   1.450
  212TIP3   OH2  592   3.001   0.956   1.729
  212TIP3    H1  593   2.994   1.050   1.749
  212TIP3    H2  594   3.001   0.952   1.633
  213TIP3   OH2  595   3.036   1.185   1.897
  213TIP3    H1  596   2.966   1.237   1.857
  213TIP3    H2  597   2.992   1.133   1.964
  214TIP3   OH2  598   2.435   1.919   1.478
  214TIP3    H1  599   2.351   1.924   1.524
  214TIP3    H2  600   2.445   2.005   1.437
  215TIP3   OH2  601   2.671   1.846   1.835
  215TIP3    H1  602   2.670   1.772   1.774
  215TIP3    H2  603   2.644   1.921   1.782
  216TIP3   OH2  604   2.874   1.472   1.670
  216TIP3    H1  605   2.794   1.522   1.685
  216TIP3    H2  606   2.906   1.501   1.584
  217TIP3   OH2  607   2.567   1.360   1.977
  217TIP3    H1  608   2.563   1.442   2.027
  217TIP3    H2  609   2.481   1.352   1.936
  218TIP3   OH2  610   2.196   1.924   1.600
  218TIP3    H1  611   2.180   2.011   1.638
  218TIP3    H2  612   2.204   1.867   1.676
  219TIP3   OH2  613   1.806   1.838   2.156
  219TIP3    H1  614   1.774   1.910   2.210
  219TIP3    H2  615   1.727   1.794   2.124
  220TIP3   OH2  616   1.613   2.016   2.242
  220TIP3    H1  617   1.595   2.003   2.149
  220TIP3    H2  618   1.533   1.987   2.286
  221TIP3   OH2  619   2.911   2.184   1.880
  221TIP3    H1  620   2.910   2.089   1.891
  221TIP3    H2  621   2.830   2.213   1.923
  222TIP3   OH2  622   2.005   1.970   2.004
  222TIP3    H1  623   2.009   2.058   2.041
  222TIP3    H2  624   1.938   1.926   2.055
  223TIP3   OH2  625   2.815   1.293   2.155
  223TIP3    H1  626   2.739   1.344   2.128
  223TIP3    H2  627   2.807   1.211   2.108
  224TIP3   OH2  628   2.595   1.096   2.084
  224TIP3    H1  629   2.530   1.079   2.152
  224TIP3    H2  630   2.563   1.174   2.039
  225TIP3   OH2  631   2.280   1.313   2.315
  225TIP3    H1  632   2.261   1.239   2.373
  225TIP3    H2  633   2.372   1.332   2.330
  226TIP3   OH2  634   2.318   1.304   1.893
  226TIP3    H1  635   2.322   1.237   1.825
  226TIP3    H2  636   2.262   1.266   1.961
  227TIP3   OH2  637   2.593   2.528   1.990
  227TIP3    H1  638   2.558   2.510   1.903
  227TIP3    H2  639   2.670   2.583   1.974
  228TIP3   OH2  640   1.584   1.664   2.387
  228TIP3    H1  641   1.650   1.677   2.455
  228TIP3    H2  642   1.506   1.636   2.435
  229TIP3   OH2  643   2.661   1.636   1.663
  229TIP3    H1  644   2.674   1.680   1.579
  229TIP3    H2  645   2.570   1.606   1.660
  230TIP3   OH2  646   2.116   1.699   2.033
  230TIP3    H1  647   2.172   1.682   2.109
  230TIP3    H2  648   2.104   1.794   2.033
  231TIP3   OH2  649   2.039   1.445   2.338
  231TIP3    H1  650   1.981   1.390   2.284
  231TIP3    H2  651   2.127   1.412   2.319
  232TIP3   OH2  652   2.287   1.944   1.941
  232TIP3    H1  653   2.194   1.965   1.940
  232TIP3    H2  654   2.325   2.007   2.002
  233TIP3   OH2  655   2.924   1.890   1.914
  233TIP3    H1  656   2.828   1.890   1.911
  233TIP3    H2  657   2.950   1.863   1.826
  234TIP3   OH2  658   2.410   1.529   1.649
  234TIP3    H1  659   2.323   1.507   1.616
  234TIP3    H2  660   2.458   1.446   1.648
  235TIP3   OH2  661   1.828   2.061   1.802
  235TIP3    H1  662   1.843   2.155   1.807
  235TIP3    H2  663   1.900   2.022   1.852
  236TIP3   OH2  664   2.204   1.693   1.766
  236TIP3    H1  665   2.180   1.685   1.858
  236TIP3    H2  666   2.289   1.649   1.759
  237TIP3   OH2  667   2.206   1.164   2.102
  237TIP3    H1  668   2.230   1.228   2.170
  237TIP3    H2  669   2.256   1.085   2.125
  238TIP3   OH2  670   2.853   1.037   2.048
  238TIP3    H1  671   2.760   1.042   2.071
  238TIP3    H2  672   2.855   0.993   1.963
  239TIP3   OH2  673   2.466   2.163   1.377
  239TIP3    H1  674   2.416   2.222   1.320
  239TIP3    H2  675   2.554   2.200   1.379
  240TIP3   OH2  676   1.230   2.219   2.371
  240TIP3    H1  677   1.294   2.159   2.410
  240TIP3    H2  678   1.163   2.161   2.334
  241TIP3   OH2  679   2.345   2.097   2.166
  241TIP3    H1  680   2.342   2.027   2.231
  241TIP3    H2  681   2.423   2.148   2.189
  242TIP3   OH2  682   1.369   1.629   2.592
  242TIP3    H1  683   1.415   1.545   2.586
  242TIP3    H2  684   1.277   1.606   2.582
  243TIP3   OH2  685   1.964   1.718   2.357
  243TIP3    H1  686   1.920   1.736   2.274
  243TIP3    H2  687   1.998   1.629   2.348
  244TIP3   OH2  688   2.458   1.731   1.966
  244TIP3    H1  689   2.537   1.769   1.927
  244TIP3    H2  690   2.390   1.797   1.953
  245TIP3   OH2  691   1.499   1.388   2.579
  245TIP3    H1  692   1.536   1.300   2.566
  245TIP3    H2  693   1.524   1.411   2.669
  246TIP3   OH2  694   2.328   1.647   2.361
  246TIP3    H1  695   2.409   1.625   2.316
  246TIP3    H2  696   2.323   1.587   2.435
  247TIP3   OH2  697   2.538   1.329   2.409
  247TIP3    H1  698   2.584   1.252   2.445
  247TIP3    H2  699   2.608   1.387   2.379
  248TIP3   OH2  700   2.591   1.584   2.147
  248TIP3    H1  701   2.528   1.633   2.094
  248TIP3    H2  702   2.676   1.607   2.110
  249TIP3   OH2  703   1.827   1.134   2.595
  249TIP3    H1  704   1.757   1.129   2.660
  249TIP3    H2  705   1.812   1.059   2.538
  250TIP3   OH2  706   2.204   1.086   2.455
  250TIP3    H1  707   2.214   1.084   2.550
  250TIP3    H2  708   2.112   1.062   2.441
  251TIP3   OH2  709   2.430   1.039   2.295
  251TIP3    H1  710   2.361   1.042   2.361
  251TIP3    H2  711   2.508   1.010   2.343
  252TIP3   OH2  712   2.670   0.979   2.434
  252TIP3    H1  713   2.682   0.887   2.460
  252TIP3    H2  714   2.662   1.027   2.516
  253TIP3   OH2  715   2.246   0.815   2.641
  253TIP3    H1  716   2.222   0.738   2.589
  253TIP3    H2  717   2.163   0.862   2.654
  254TIP3   OH2  718   2.708   2.284   1.364
  254TIP3    H1  719   2.741   2.295   1.453
  254TIP3    H2  720   2.772   2.330   1.309
  255TIP3   OH2  721   2.781   2.291   1.626
  255TIP3    H1  722   2.697   2.247   1.642
  255TIP3    H2  723   2.832   2.274   1.705
  256TIP3   OH2  724   2.784   1.984   2.220
  256TIP3    H1  725   2.712   1.992   2.282
  256TIP3    H2  726   2.827   2.069   2.221
  257TIP3   OH2  727   2.766   1.756   1.442
  257TIP3    H1  728   2.834   1.693   1.417
  257TIP3    H2  729   2.785   1.834   1.391
  258TIP3   OH2  730   2.595   2.056   1.672
  258TIP3    H1  731   2.534   2.125   1.696
  258TIP3    H2  732   2.555   2.013   1.597
  259TIP3   OH2  733   2.834   1.647   2.043
  259TIP3    H1  734   2.904   1.582   2.034
  259TIP3    H2  735   2.858   1.716   1.982
  260TIP3   OH2  736   3.017   1.450   2.055
  260TIP3    H1  737   2.955   1.391   2.099
  260TIP3    H2  738   3.100   1.402   2.055
  261TIP3   OH2  739   2.758   1.071   1.583
  261TIP3    H1  740   2.828   1.125   1.547
  261TIP3    H2  741   2.712   1.129   1.644
  262TIP3   OH2  742   2.781   1.260   1.820
  262TIP3    H1  743   2.701   1.290   1.862
  262TIP3    H2  744   2.805   1.331   1.760
  263TIP3   OH2  745   3.210   0.851   2.321
  263TIP3    H1  746   3.254   0.766   2.334
  263TIP3    H2  747   3.269   0.899   2.262
  264TIP3   OH2  748   2.323   2.090   1.030
  264TIP3    H1  749   2.323   2.144   0.952
  264TIP3    H2  750   2.336   2.152   1.102
  265TIP3   OH2  751   1.372   1.960   2.417
  265TIP3    H1  752   1.386   1.881   2.365
  265TIP3    H2  753   1.389   1.933   2.507
  266TIP3   OH2  754   1.601   1.972   1.960
  266TIP3    H1  755   1.509   1.989   1.940
  266TIP3    H2  756   1.649   2.038   1.909
  267TIP3   OH2  757   2.021   2.233   2.086
  267TIP3    H1  758   2.059   2.230   2.174
  267TIP3    H2  759   2.085   2.281   2.034
  268TIP3   OH2  760   2.195   2.392   1.941
  268TIP3    H1  761   2.263   2.368   1.878
  268TIP3    H2  762   2.241   2.439   2.010
  269TIP3   OH2  763   2.984   0.746   2.065
  269TIP3    H1  764   2.913   0.744   2.001
  269TIP3    H2  765   3.027   0.661   2.056
  270TIP3   OH2  766   1.276   2.274   1.990
  270TIP3    H1  767   1.226   2.257   1.910
  270TIP3    H2  768   1.234   2.220   2.057
  271TIP3   OH2  769   1.479   2.241   1.810
  271TIP3    H1  770   1.433   2.245   1.894
  271TIP3    H2  771   1.410   2.256   1.745
  272TIP3   OH2  772   2.156   2.212   1.637
  272TIP3    H1  773   2.109   2.280   1.684
  272TIP3    H2  774   2.249   2.236   1.646
  273TIP3   OH2  775   2.735   0.717   2.490
  273TIP3    H1  776   2.744   0.683   2.579
  273TIP3    H2  777   2.822   0.707   2.452
  274TIP3   OH2  778   2.666   2.264   1.979
  274TIP3    H1  779   2.597   2.241   1.918
  274TIP3    H2  780   2.654   2.358   1.995
  275TIP3   OH2  781   3.916   1.628   0.723
  275TIP3    H1  782   3.908   1.721   0.701
  275TIP3    H2  783   3.840   1.610   0.779
  276TIP3   OH2  784   3.925   1.629   1.124
  276TIP3    H1  785   3.965   1.621   1.211
  276TIP3    H2  786   3.890   1.542   1.106
  277TIP3   OH2  787   3.232   1.526   1.490
  277TIP3    H1  788   3.258   1.456   1.551
  277TIP3    H2  789   3.305   1.587   1.490
  278TIP3   OH2  790   4.173   1.937   0.808
  278TIP3    H1  791   4.170   1.871   0.878
  278TIP3    H2  792   4.205   2.016   0.852
  279TIP3   OH2  793   3.204   1.936   1.204
  279TIP3    H1  794   3.195   1.841   1.209
  279TIP3    H2  795   3.299   1.952   1.204
  280TIP3   OH2  796   2.998   1.459   1.176
  280TIP3    H1  797   3.057   1.390   1.205
  280TIP3    H2  798   3.056   1.528   1.144
  281TIP3   OH2  799   3.827   2.399   0.821
  281TIP3    H1  800   3.867   2.330   0.768
  281TIP3    H2  801   3.820   2.362   0.909
  282TIP3   OH2  802   3.734   1.859   1.168
  282TIP3    H1  803   3.774   1.780   1.131
  282TIP3    H2  804   3.808   1.913   1.194
  283TIP3   OH2  805   4.744   1.183   1.166
  283TIP3    H1  806   4.772   1.263   1.209
  283TIP3    H2  807   4.770   1.195   1.074
  284TIP3   OH2  808   4.139   1.358   1.197
  284TIP3    H1  809   4.184   1.278   1.224
  284TIP3    H2  810   4.111   1.340   1.107
  285TIP3   OH2  811   3.482   1.009   1.186
  285TIP3    H1  812   3.461   1.071   1.116
  285TIP3    H2  813   3.422   0.936   1.172
  286TIP3   OH2  814   4.177   1.113   0.784
  286TIP3    H1  815   4.240   1.098   0.854
  286TIP3    H2  816   4.230   1.146   0.711
  287TIP3   OH2  817   3.120   1.228   1.262
  287TIP3    H1  818   3.204   1.212   1.305
  287TIP3    H2  819   3.101   1.146   1.217
  288TIP3   OH2  820   3.571   1.441   1.066
  288TIP3    H1  821   3.662   1.416   1.084
  288TIP3    H2  822   3.529   1.360   1.036
  289TIP3   OH2  823   4.816   1.389   1.342
  289TIP3    H1  824   4.735   1.435   1.320
  289TIP3    H2  825   4.845   1.428   1.424
  290TIP3   OH2  826   3.479   1.016   1.601
  290TIP3    H1  827   3.422   1.060   1.537
  290TIP3    H2  828   3.430   1.020   1.683
  291TIP3   OH2  829   3.802   1.851   0.607
  291TIP3    H1  830   3.793   1.863   0.512
  291TIP3    H2  831   3.767   1.932   0.644
  292TIP3   OH2  832   3.582   1.784   1.391
  292TIP3    H1  833   3.524   1.850   1.429
  292TIP3    H2  834   3.627   1.830   1.320
  293TIP3   OH2  835   4.374   1.127   0.963
  293TIP3    H1  836   4.371   1.073   1.042
  293TIP3    H2  837   4.432   1.200   0.987
  294TIP3   OH2  838   3.354   1.140   1.386
  294TIP3    H1  839   3.407   1.213   1.416
  294TIP3    H2  840   3.411   1.091   1.327
  295TIP3   OH2  841   3.408   1.979   1.490
  295TIP3    H1  842   3.390   2.067   1.455
  295TIP3    H2  843   3.333   1.960   1.545
  296TIP3   OH2  844   4.239   2.184   0.963
  296TIP3    H1  845   4.152   2.173   1.004
  296TIP3    H2  846   4.235   2.269   0.921
  297TIP3   OH2  847   4.538   1.075   1.329
  297TIP3    H1  848   4.453   1.107   1.300
  297TIP3    H2  849   4.600   1.109   1.264
  298TIP3   OH2  850   3.828   0.725   1.321
  298TIP3    H1  851   3.815   0.632   1.343
  298TIP3    H2  852   3.757   0.770   1.367
  299TIP3   OH2  853   3.944   2.226   0.635
  299TIP3    H1  854   3.988   2.143   0.619
  299TIP3    H2  855   4.005   2.292   0.601
  300TIP3   OH2  856   4.081   2.004   0.556
  300TIP3    H1  857   4.079   1.925   0.501
  300TIP3    H2  858   4.119   1.974   0.638
  301TIP3   OH2  859   4.468   2.092   1.310
  301TIP3    H1  860   4.459   2.016   1.253
  301TIP3    H2  861   4.453   2.167   1.253
  302TIP3   OH2  862   3.727   1.449   0.491
  302TIP3    H1  863   3.654   1.507   0.514
  302TIP3    H2  864   3.805   1.501   0.506
  303TIP3   OH2  865   4.663   1.730   1.152
  303TIP3    H1  866   4.582   1.781   1.160
  303TIP3    H2  867   4.698   1.753   1.066
  304TIP3   OH2  868   4.114   1.562   0.544
  304TIP3    H1  869   4.058   1.586   0.618
  304TIP3    H2  870   4.199   1.542   0.583
  305TIP3   OH2  871   4.343   1.609   1.460
  305TIP3    H1  872   4.346   1.687   1.515
  305TIP3    H2  873   4.260   1.617   1.412
  306TIP3   OH2  874   3.348   1.566   0.960
  306TIP3    H1  875   3.327   1.514   0.882
  306TIP3    H2  876   3.426   1.525   0.996
  307TIP3   OH2  877   3.474   1.976   1.107
  307TIP3    H1  878   3.456   1.945   1.018
  307TIP3    H2  879   3.562   1.944   1.126
  308TIP3   OH2  880   3.475   1.546   1.307
  308TIP3    H1  881   3.517   1.522   1.225
  308TIP3    H2  882   3.519   1.627   1.334
  309TIP3   OH2  883   4.001   2.175   1.090
  309TIP3    H1  884   3.991   2.257   1.140
  309TIP3    H2  885   3.986   2.106   1.154
  310TIP3   OH2  886   3.615   2.095   1.635
  310TIP3    H1  887   3.559   2.156   1.683
  310TIP3    H2  888   3.554   2.041   1.585
  311TIP3   OH2  889   3.970   1.430   0.357
  311TIP3    H1  890   4.021   1.486   0.416
  311TIP3    H2  891   4.000   1.455   0.269
  312TIP3   OH2  892   3.370   1.654   1.738
  312TIP3    H1  893   3.379   1.740   1.779
  312TIP3    H2  894   3.279   1.629   1.754
  313TIP3   OH2  895   3.697   2.104   0.651
  313TIP3    H1  896   3.778   2.155   0.654
  313TIP3    H2  897   3.637   2.158   0.598
  314TIP3   OH2  898   3.408   2.258   1.724
  314TIP3    H1  899   3.375   2.264   1.634
  314TIP3    H2  900   3.331   2.237   1.776
  315TIP3   OH2  901   7.099   6.050   6.897
  315TIP3    H1  902   7.112   6.144   6.881
  315TIP3    H2  903   7.187   6.012   6.891
  316TIP3   OH2  904   2.989   1.791   1.672
  316TIP3    H1  905   2.929   1.763   1.603
  316TIP3    H2  906   3.031   1.710   1.701
  317TIP3   OH2  907   2.848   1.987   1.304
  317TIP3    H1  908   2.944   1.993   1.302
  317TIP3    H2  909   2.821   2.062   1.356
  318TIP3   OH2  910   4.705   2.438   1.360
  318TIP3    H1  911   4.708   2.344   1.376
  318TIP3    H2  912   4.626   2.467   1.405
  319TIP3   OH2  913   3.811   2.225   1.494
  319TIP3    H1  914   3.811   2.316   1.525
  319TIP3    H2  915   3.743   2.182   1.546
  320TIP3   OH2  916   3.575   2.352   0.445
  320TIP3    H1  917   3.536   2.340   0.359
  320TIP3    H2  918   3.545   2.438   0.474
  321TIP3   OH2  919   3.026   2.217   0.832
  321TIP3    H1  920   3.067   2.204   0.917
  321TIP3    H2  921   2.973   2.139   0.818
  322TIP3   OH2  922   3.767   2.245   0.095
  322TIP3    H1  923   3.826   2.191   0.043
  322TIP3    H2  924   3.811   2.254   0.180
  323TIP3   OH2  925   3.830   2.306   0.364
  323TIP3    H1  926   3.741   2.312   0.399
  323TIP3    H2  927   3.882   2.270   0.436
  324TIP3   OH2  928   4.596   1.564   1.636
  324TIP3    H1  929   4.514   1.577   1.588
  324TIP3    H2  930   4.614   1.470   1.630
  325TIP3   OH2  931   3.193   1.974   1.656
  325TIP3    H1  932   3.242   1.964   1.737
  325TIP3    H2  933   3.119   1.915   1.664
  326TIP3   OH2  934   3.601   0.813   1.453
  326TIP3    H1  935   3.514   0.783   1.428
  326TIP3    H2  936   3.584   0.892   1.506
  327TIP3   OH2  937   4.130   0.910   1.640
  327TIP3    H1  938   4.198   0.888   1.703
  327TIP3    H2  939   4.048   0.896   1.686
  328TIP3   OH2  940   4.358   1.343   1.554
  328TIP3    H1  941   4.313   1.340   1.638
  328TIP3    H2  942   4.341   1.431   1.521
  329TIP3   OH2  943   4.047   1.485   0.111
  329TIP3    H1  944   4.014   1.472   0.022
  329TIP3    H2  945   4.125   1.539   0.100
  330TIP3   OH2  946   3.528   1.329   1.464
  330TIP3    H1  947   3.489   1.350   1.549
  330TIP3    H2  948   3.512   1.407   1.410
  331TIP3   OH2  949   3.421   1.229   0.968
  331TIP3    H1  950   3.339   1.183   0.989
  331TIP3    H2  951   3.468   1.168   0.911
  332TIP3   OH2  952   3.899   1.283   0.696
  332TIP3    H1  953   3.843   1.339   0.642
  332TIP3    H2  954   3.960   1.243   0.633
  333TIP3   OH2  955   4.076   1.560   1.788
  333TIP3    H1  956   4.052   1.490   1.849
  333TIP3    H2  957   4.167   1.581   1.809
  334TIP3   OH2  958   4.052   1.308   0.938
  334TIP3    H1  959   3.994   1.339   0.868
  334TIP3    H2  960   4.094   1.231   0.902
  335TIP3   OH2  961   3.343   1.344   1.674
  335TIP3    H1  962   3.385   1.406   1.733
  335TIP3    H2  963   3.334   1.264   1.725
  336TIP3   OH2  964   4.055   1.556   1.360
  336TIP3    H1  965   4.093   1.490   1.303
  336TIP3    H2  966   4.031   1.508   1.439
  337TIP3   OH2  967   3.742   1.017   1.042
  337TIP3    H1  968   3.674   1.016   1.109
  337TIP3    H2  969   3.824   1.018   1.090
  338TIP3   OH2  970   4.224   1.099   1.242
  338TIP3    H1  971   4.197   1.114   1.333
  338TIP3    H2  972   4.160   1.037   1.208
  339TIP3   OH2  973   4.403   2.790   1.459
  339TIP3    H1  974   4.400   2.813   1.366
  339TIP3    H2  975   4.481   2.833   1.493
  340TIP3   OH2  976   3.358   1.898   1.882
  340TIP3    H1  977   3.438   1.926   1.926
  340TIP3    H2  978   3.291   1.900   1.951
  341TIP3   OH2  979   3.823   1.351   1.133
  341TIP3    H1  980   3.900   1.318   1.087
  341TIP3    H2  981   3.828   1.311   1.220
  342TIP3   OH2  982   3.796   1.256   1.423
  342TIP3    H1  983   3.709   1.293   1.441
  342TIP3    H2  984   3.856   1.311   1.472
  343TIP3   OH2  985   3.525   1.630   0.537
  343TIP3    H1  986   3.435   1.603   0.522
  343TIP3    H2  987   3.523   1.676   0.621
  344TIP3   OH2  988   4.431   1.877   1.142
  344TIP3    H1  989   4.459   1.927   1.065
  344TIP3    H2  990   4.349   1.836   1.116
  345TIP3   OH2  991   3.924   1.955   1.520
  345TIP3    H1  992   3.969   1.942   1.603
  345TIP3    H2  993   3.892   2.045   1.524
  346TIP3   OH2  994   4.058   1.195   0.478
  346TIP3    H1  995   4.151   1.191   0.501
  346TIP3    H2  996   4.048   1.278   0.431
  347TIP3   OH2  997   3.224   1.652   1.192
  347TIP3    H1  998   3.267   1.633   1.109
  347TIP3    H2  999   3.279   1.611   1.258
  348TIP3   OH2 1000   3.654   1.785   0.345
  348TIP3    H1 1001   3.629   1.876   0.361
  348TIP3    H2 1002   3.615   1.736   0.417
  349TIP3   OH2 1003   3.109   1.584   1.809
  349TIP3    H1 1004   3.133   1.573   1.901
  349TIP3    H2 1005   3.042   1.517   1.794
  350TIP3   OH2 1006   3.838   1.697   1.823
  350TIP3    H1 1007   3.779   1.637   1.777
  350TIP3    H2 1008   3.926   1.666   1.801
  351TIP3   OH2 1009   4.086   2.215   1.417
  351TIP3    H1 1010   3.991   2.218   1.428
  351TIP3    H2 1011   4.120   2.267   1.490
  352TIP3   OH2 1012   4.484   1.296   0.325
  352TIP3    H1 1013   4.450   1.237   0.258
  352TIP3    H2 1014   4.477   1.383   0.285
  353TIP3   OH2 1015   4.718   2.148   1.398
  353TIP3    H1 1016   4.622   2.144   1.395
  353TIP3    H2 1017   4.746   2.119   1.312
  354TIP3   OH2 1018   4.204   2.110   0.223
  354TIP3    H1 1019   4.175   2.041   0.283
  354TIP3    H2 1020   4.211   2.066   0.138
  355TIP3   OH2 1021   4.196   1.740   1.056
  355TIP3    H1 1022   4.105   1.718   1.075
  355TIP3    H2 1023   4.232   1.660   1.018
  356TIP3   OH2 1024   3.325   1.968   0.810
  356TIP3    H1 1025   3.327   2.050   0.761
  356TIP3    H2 1026   3.232   1.955   0.830
  357TIP3   OH2 1027   3.462   1.735   0.772
  357TIP3    H1 1028   3.429   1.825   0.779
  357TIP3    H2 1029   3.426   1.690   0.848
  358TIP3   OH2 1030   3.600   2.310   1.287
  358TIP3    H1 1031   3.640   2.382   1.238
  358TIP3    H2 1032   3.672   2.272   1.337
  359TIP3   OH2 1033   3.247   2.207   0.667
  359TIP3    H1 1034   3.164   2.216   0.715
  359TIP3    H2 1035   3.284   2.295   0.667
  360TIP3   OH2 1036   3.980   1.940   1.252
  360TIP3    H1 1037   3.966   1.941   1.347
  360TIP3    H2 1038   4.066   1.901   1.241
  361TIP3   OH2 1039   3.969   1.849   0.127
  361TIP3    H1 1040   4.011   1.825   0.209
  361TIP3    H2 1041   3.898   1.785   0.117
  362TIP3   OH2 1042   4.227   2.474   1.295
  362TIP3    H1 1043   4.149   2.420   1.290
  362TIP3    H2 1044   4.216   2.540   1.226
  363TIP3   OH2 1045   7.132   6.331   6.882
  363TIP3    H1 1046   7.183   6.409   6.860
  363TIP3    H2 1047   7.050   6.365   6.917
  364TIP3   OH2 1048   3.311   1.087   1.814
  364TIP3    H1 1049   3.221   1.107   1.839
  364TIP3    H2 1050   3.346   1.037   1.887
  365TIP3   OH2 1051   4.123   1.768   0.358
  365TIP3    H1 1052   4.115   1.702   0.427
  365TIP3    H2 1053   4.216   1.770   0.337
  366TIP3   OH2 1054   3.040   2.166   1.440
  366TIP3    H1 1055   3.098   2.104   1.484
  366TIP3    H2 1056   3.034   2.241   1.500
  367TIP3   OH2 1057   3.294   1.822   0.393
  367TIP3    H1 1058   3.309   1.806   0.487
  367TIP3    H2 1059   3.284   1.917   0.387
  368TIP3   OH2 1060   4.155   1.150   1.500
  368TIP3    H1 1061   4.232   1.194   1.535
  368TIP3    H2 1062   4.145   1.072   1.554
  369TIP3   OH2 1063   4.007   0.947   0.644
  369TIP3    H1 1064   4.033   0.971   0.556
  369TIP3    H2 1065   4.058   1.003   0.702
  370TIP3   OH2 1066   3.541   2.025   0.377
  370TIP3    H1 1067   3.457   2.057   0.408
  370TIP3    H2 1068   3.541   2.043   0.283
  371TIP3   OH2 1069   3.709   1.087   0.755
  371TIP3    H1 1070   3.779   1.152   0.746
  371TIP3    H2 1071   3.712   1.061   0.847
  372TIP3   OH2 1072   3.995   1.399   1.573
  372TIP3    H1 1073   4.017   1.452   1.649
  372TIP3    H2 1074   4.047   1.319   1.584
  373TIP3   OH2 1075   3.929   0.843   0.892
  373TIP3    H1 1076   3.876   0.917   0.923
  373TIP3    H2 1077   3.945   0.862   0.800
  374TIP3   OH2 1078   3.273   2.090   0.418
  374TIP3    H1 1079   3.248   2.160   0.356
  374TIP3    H2 1080   3.259   2.129   0.504
  375TIP3   OH2 1081   4.626   1.300   1.558
  375TIP3    H1 1082   4.531   1.295   1.561
  375TIP3    H2 1083   4.648   1.270   1.470
  376TIP3   OH2 1084   4.282   1.494   0.945
  376TIP3    H1 1085   4.210   1.433   0.960
  376TIP3    H2 1086   4.357   1.454   0.989
  377TIP3   OH2 1087   4.254   2.455   0.886
  377TIP3    H1 1088   4.209   2.499   0.814
  377TIP3    H2 1089   4.347   2.471   0.870
  378TIP3   OH2 1090   3.331   0.745   1.480
  378TIP3    H1 1091   3.335   0.699   1.396
  378TIP3    H2 1092   3.333   0.675   1.545
  379TIP3   OH2 1093   2.891   1.981   0.783
  379TIP3    H1 1094   2.810   1.935   0.806
  379TIP3    H2 1095   2.926   1.931   0.709
  380TIP3   OH2 1096   3.029   2.485   1.870
  380TIP3    H1 1097   3.113   2.488   1.917
  380TIP3    H2 1098   3.006   2.393   1.867
  381TIP3   OH2 1099   3.502   2.440   1.913
  381TIP3    H1 1100   3.596   2.428   1.924
  381TIP3    H2 1101   3.478   2.380   1.843
  382TIP3   OH2 1102   3.494   2.024   0.100
  382TIP3    H1 1103   3.418   1.967   0.089
  382TIP3    H2 1104   3.538   2.020   0.015
  383TIP3   OH2 1105   4.146   2.349   1.649
  383TIP3    H1 1106   4.137   2.282   1.717
  383TIP3    H2 1107   4.221   2.401   1.677
  384TIP3   OH2 1108   6.770   6.073   6.900
  384TIP3    H1 1109   6.778   5.998   6.959
  384TIP3    H2 1110   6.858   6.084   6.864
  385TIP3   OH2 1111   3.154   1.888   2.068
  385TIP3    H1 1112   3.165   1.795   2.087
  385TIP3    H2 1113   3.069   1.894   2.024
  386TIP3   OH2 1114   3.760   1.973   1.844
  386TIP3    H1 1115   3.723   1.995   1.758
  386TIP3    H2 1116   3.794   1.884   1.834
  387TIP3   OH2 1117   3.736   1.666   0.101
  387TIP3    H1 1118   3.710   1.710   0.182
  387TIP3    H2 1119   3.663   1.682   0.040
  388TIP3   OH2 1120   4.251   1.988   1.446
  388TIP3    H1 1121   4.330   2.024   1.406
  388TIP3    H2 1122   4.185   2.057   1.435
  389TIP3   OH2 1123   3.285   1.602   2.054
  389TIP3    H1 1124   3.371   1.571   2.027
  389TIP3    H2 1125   3.301   1.647   2.137
  390TIP3   OH2 1126   3.601   1.499   1.703
  390TIP3    H1 1127   3.532   1.564   1.711
  390TIP3    H2 1128   3.659   1.533   1.635
  391TIP3   OH2 1129   4.126   1.905   1.846
  391TIP3    H1 1130   4.209   1.883   1.805
  391TIP3    H2 1131   4.119   1.846   1.921
  392TIP3   OH2 1132   7.102   5.584   6.906
  392TIP3    H1 1133   7.130   5.547   6.823
  392TIP3    H2 1134   7.105   5.679   6.893
  393TIP3   OH2 1135   3.729   1.295   1.839
  393TIP3    H1 1136   3.736   1.217   1.785
  393TIP3    H2 1137   3.686   1.360   1.783
  394TIP3   OH2 1138   3.739   1.083   1.647
  394TIP3    H1 1139   3.769   1.124   1.566
  394TIP3    H2 1140   3.646   1.064   1.631
  395TIP3   OH2 1141   3.757   1.613   1.517
  395TIP3    H1 1142   3.846   1.627   1.484
  395TIP3    H2 1143   3.704   1.680   1.474
  396TIP3   OH2 1144   4.341   1.581   1.897
  396TIP3    H1 1145   4.389   1.502   1.921
  396TIP3    H2 1146   4.408   1.642   1.866
  397TIP3   OH2 1147   4.384   1.837   1.628
  397TIP3    H1 1148   4.325   1.890   1.575
  397TIP3    H2 1149   4.472   1.857   1.594
  398TIP3   OH2 1150   3.599   1.406   2.065
  398TIP3    H1 1151   3.535   1.338   2.086
  398TIP3    H2 1152   3.643   1.374   1.986
  399TIP3   OH2 1153   3.866   0.841   1.713
  399TIP3    H1 1154   3.818   0.922   1.694
  399TIP3    H2 1155   3.799   0.773   1.707
  400TIP3   OH2 1156   3.991   1.346   1.935
  400TIP3    H1 1157   3.992   1.334   2.030
  400TIP3    H2 1158   3.903   1.322   1.908
  401TIP3   OH2 1159   4.229   1.292   1.786
  401TIP3    H1 1160   4.157   1.298   1.849
  401TIP3    H2 1161   4.304   1.266   1.839
  402TIP3   OH2 1162   4.456   1.235   1.934
  402TIP3    H1 1163   4.470   1.142   1.953
  402TIP3    H2 1164   4.452   1.277   2.020
  403TIP3   OH2 1165   3.450   1.183   2.130
  403TIP3    H1 1166   3.452   1.092   2.102
  403TIP3    H2 1167   3.491   1.183   2.216
  404TIP3   OH2 1168   3.966   0.854   1.968
  404TIP3    H1 1169   4.027   0.780   1.966
  404TIP3    H2 1170   3.921   0.849   1.884
  405TIP3   OH2 1171   4.028   1.072   2.126
  405TIP3    H1 1172   4.007   1.000   2.066
  405TIP3    H2 1173   3.949   1.125   2.128
  406TIP3   OH2 1174   3.240   2.281   0.222
  406TIP3    H1 1175   3.333   2.294   0.203
  406TIP3    H2 1176   3.194   2.344   0.167
  407TIP3   OH2 1177   2.643   2.280   0.859
  407TIP3    H1 1178   2.601   2.211   0.808
  407TIP3    H2 1179   2.692   2.233   0.927
  408TIP3   OH2 1180   2.765   2.150   1.064
  408TIP3    H1 1181   2.772   2.072   1.119
  408TIP3    H2 1182   2.821   2.215   1.108
  409TIP3   OH2 1183   4.507   2.544   0.852
  409TIP3    H1 1184   4.532   2.572   0.940
  409TIP3    H2 1185   4.573   2.584   0.794
  410TIP3   OH2 1186   4.535   2.558   1.133
  410TIP3    H1 1187   4.490   2.474   1.128
  410TIP3    H2 1188   4.611   2.542   1.190
  411TIP3   OH2 1189   4.579   2.241   1.705
  411TIP3    H1 1190   4.509   2.249   1.770
  411TIP3    H2 1191   4.624   2.325   1.707
  412TIP3   OH2 1192   4.397   1.748   0.323
  412TIP3    H1 1193   4.454   1.818   0.290
  412TIP3    H2 1194   4.442   1.715   0.401
  413TIP3   OH2 1195   4.528   1.624   0.528
  413TIP3    H1 1196   4.471   1.586   0.595
  413TIP3    H2 1197   4.602   1.661   0.577
  414TIP3   OH2 1198   4.581   2.009   0.952
  414TIP3    H1 1199   4.634   1.942   0.910
  414TIP3    H2 1200   4.580   2.082   0.891
  415TIP3   OH2 1201   4.407   2.312   1.152
  415TIP3    H1 1202   4.338   2.354   1.204
  415TIP3    H2 1203   4.360   2.266   1.082
  416TIP3   OH2 1204   4.440   1.521   0.178
  416TIP3    H1 1205   4.383   1.540   0.103
  416TIP3    H2 1206   4.432   1.598   0.234
  417TIP3   OH2 1207   4.331   1.167   0.118
  417TIP3    H1 1208   4.310   1.254   0.086
  417TIP3    H2 1209   4.246   1.126   0.135
  418TIP3   OH2 1210   4.337   1.478   0.678
  418TIP3    H1 1211   4.351   1.383   0.672
  418TIP3    H2 1212   4.325   1.493   0.772
  419TIP3   OH2 1213   2.969   1.566   1.431
  419TIP3    H1 1214   2.964   1.533   1.341
  419TIP3    H2 1215   3.063   1.564   1.451
  420TIP3   OH2 1216   4.632   1.903   1.528
  420TIP3    H1 1217   4.700   1.836   1.520
  420TIP3    H2 1218   4.659   1.972   1.468
  421TIP3   OH2 1219   4.810   1.699   1.541
  421TIP3    H1 1220   4.737   1.653   1.582
  421TIP3    H2 1221   4.885   1.641   1.555
  422TIP3   OH2 1222   4.328   1.193   0.558
  422TIP3    H1 1223   4.367   1.108   0.577
  422TIP3    H2 1224   4.388   1.234   0.495
  423TIP3   OH2 1225   4.497   1.369   1.063
  423TIP3    H1 1226   4.580   1.388   1.019
  423TIP3    H2 1227   4.509   1.402   1.152
  424TIP3   OH2 1228   4.566   1.512   1.293
  424TIP3    H1 1229   4.492   1.545   1.343
  424TIP3    H2 1230   4.601   1.589   1.247
  425TIP3   OH2 1231   5.015   1.100   1.847
  425TIP3    H1 1232   5.077   1.038   1.809
  425TIP3    H2 1233   4.986   1.154   1.773
  426TIP3   OH2 1234   4.440   0.953   0.614
  426TIP3    H1 1235   4.483   0.946   0.699
  426TIP3    H2 1236   4.384   0.876   0.610
  427TIP3   OH2 1237   3.159   0.949   1.454
  427TIP3    H1 1238   3.221   0.885   1.490
  427TIP3    H2 1239   3.207   1.031   1.455
  428TIP3   OH2 1240   2.969   1.220   1.498
  428TIP3    H1 1241   3.011   1.226   1.412
  428TIP3    H2 1242   2.984   1.305   1.539
  429TIP3   OH2 1243   4.883   1.239   1.653
  429TIP3    H1 1244   4.804   1.285   1.681
  429TIP3    H2 1245   4.852   1.169   1.597
  430TIP3   OH2 1246   4.093   2.409   0.506
  430TIP3    H1 1247   4.142   2.401   0.424
  430TIP3    H2 1248   4.141   2.475   0.556
  431TIP3   OH2 1249   3.157   0.769   1.839
  431TIP3    H1 1250   3.122   0.779   1.928
  431TIP3    H2 1251   3.105   0.829   1.786
  432TIP3   OH2 1252   3.189   2.213   1.889
  432TIP3    H1 1253   3.096   2.191   1.876
  432TIP3    H2 1254   3.204   2.198   1.982
  433TIP3   OH2 1255   3.373   2.250   1.434
  433TIP3    H1 1256   3.320   2.321   1.399
  433TIP3    H2 1257   3.459   2.261   1.392
  434TIP3   OH2 1258   3.813   2.492   1.574
  434TIP3    H1 1259   3.851   2.488   1.662
  434TIP3    H2 1260   3.876   2.542   1.522
  435TIP3   OH2 1261   3.994   2.645   1.437
  435TIP3    H1 1262   4.063   2.593   1.395
  435TIP3    H2 1263   4.041   2.702   1.498
  436TIP3   OH2 1264   4.786   1.004   1.534
  436TIP3    H1 1265   4.698   0.998   1.496
  436TIP3    H2 1266   4.821   0.915   1.527
  437TIP3   OH2 1267   3.037   2.507   1.460
  437TIP3    H1 1268   2.948   2.539   1.442
  437TIP3    H2 1269   3.056   2.538   1.549
  438TIP3   OH2 1270   3.277   2.482   1.321
  438TIP3    H1 1271   3.193   2.494   1.364
  438TIP3    H2 1272   3.263   2.513   1.231
  439TIP3   OH2 1273   3.705   2.511   1.118
  439TIP3    H1 1274   3.637   2.527   1.053
  439TIP3    H2 1275   3.718   2.595   1.161
  440TIP3   OH2 1276   3.975   2.446   1.168
  440TIP3    H1 1277   3.883   2.465   1.150
  440TIP3    H2 1278   4.023   2.519   1.128
  441TIP3   OH2 1279   4.178   2.637   1.080
  441TIP3    H1 1280   4.167   2.722   1.036
  441TIP3    H2 1281   4.208   2.578   1.011
  442TIP3   OH2 1282   2.958   2.293   1.205
  442TIP3    H1 1283   2.982   2.268   1.295
  442TIP3    H2 1284   3.026   2.253   1.150
  443TIP3   OH2 1285   3.155   2.168   1.068
  443TIP3    H1 1286   3.167   2.086   1.116
  443TIP3    H2 1287   3.243   2.206   1.064
  444TIP3   OH2 1288   3.421   2.259   1.074
  444TIP3    H1 1289   3.450   2.168   1.061
  444TIP3    H2 1290   3.465   2.288   1.153
  445TIP3   OH2 1291   3.989   0.929   1.166
  445TIP3    H1 1292   3.949   0.858   1.215
  445TIP3    H2 1293   4.041   0.886   1.098
  446TIP3   OH2 1294   4.511   0.805   1.066
  446TIP3    H1 1295   4.544   0.859   0.995
  446TIP3    H2 1296   4.416   0.815   1.062
  447TIP3   OH2 1297   4.589   0.922   0.837
  447TIP3    H1 1298   4.658   0.859   0.815
  447TIP3    H2 1299   4.631   1.008   0.823
  448TIP3   OH2 1300   3.684   0.677   1.089
  448TIP3    H1 1301   3.710   0.733   1.016
  448TIP3    H2 1302   3.736   0.708   1.163
  449TIP3   OH2 1303   4.236   0.807   1.034
  449TIP3    H1 1304   4.220   0.778   0.944
  449TIP3    H2 1305   4.210   0.733   1.089
  450TIP3   OH2 1306   4.269   0.740   0.637
  450TIP3    H1 1307   4.179   0.771   0.626
  450TIP3    H2 1308   4.262   0.669   0.701
  451TIP3   OH2 1309   3.512   2.288   0.173
  451TIP3    H1 1310   3.601   2.309   0.144
  451TIP3    H2 1311   3.499   2.197   0.147
  452TIP3   OH2 1312   4.236   2.375   0.271
  452TIP3    H1 1313   4.231   2.280   0.262
  452TIP3    H2 1314   4.190   2.409   0.194
  453TIP3   OH2 1315   3.437   0.897   2.073
  453TIP3    H1 1316   3.412   0.818   2.121
  453TIP3    H2 1317   3.531   0.904   2.086
  454TIP3   OH2 1318   3.693   0.883   2.153
  454TIP3    H1 1319   3.784   0.862   2.132
  454TIP3    H2 1320   3.685   0.860   2.246
  455TIP3   OH2 1321   4.528   0.965   1.968
  455TIP3    H1 1322   4.544   0.937   2.058
  455TIP3    H2 1323   4.615   0.965   1.927
  456TIP3   OH2 1324   4.458   2.521   1.456
  456TIP3    H1 1325   4.382   2.489   1.408
  456TIP3    H2 1326   4.442   2.615   1.467
  457TIP3   OH2 1327   5.695   1.915   0.255
  457TIP3    H1 1328   5.675   1.998   0.211
  457TIP3    H2 1329   5.623   1.856   0.229
  458TIP3   OH2 1330   5.737   1.895   0.606
  458TIP3    H1 1331   5.750   1.856   0.692
  458TIP3    H2 1332   5.683   1.831   0.559
  459TIP3   OH2 1333   5.025   1.789   0.974
  459TIP3    H1 1334   5.058   1.726   1.038
  459TIP3    H2 1335   5.100   1.807   0.917
  460TIP3   OH2 1336   5.977   2.202   0.290
  460TIP3    H1 1337   5.947   2.134   0.349
  460TIP3    H2 1338   6.005   2.273   0.347
  461TIP3   OH2 1339   5.001   2.198   0.691
  461TIP3    H1 1340   4.986   2.104   0.685
  461TIP3    H2 1341   5.096   2.207   0.685
  462TIP3   OH2 1342   4.696   1.399   0.477
  462TIP3    H1 1343   4.682   1.491   0.499
  462TIP3    H2 1344   4.610   1.368   0.449
  463TIP3   OH2 1345   4.771   1.689   0.647
  463TIP3    H1 1346   4.821   1.613   0.679
  463TIP3    H2 1347   4.831   1.733   0.586
  464TIP3   OH2 1348   5.624   2.656   0.310
  464TIP3    H1 1349   5.663   2.583   0.262
  464TIP3    H2 1350   5.611   2.623   0.399
  465TIP3   OH2 1351   5.524   2.125   0.654
  465TIP3    H1 1352   5.549   2.047   0.604
  465TIP3    H2 1353   5.607   2.165   0.680
  466TIP3   OH2 1354   5.945   1.625   0.689
  466TIP3    H1 1355   5.977   1.541   0.722
  466TIP3    H2 1356   5.886   1.601   0.618
  467TIP3   OH2 1357   5.262   1.301   0.676
  467TIP3    H1 1358   5.241   1.364   0.607
  467TIP3    H2 1359   5.249   1.215   0.636
  468TIP3   OH2 1360   4.906   1.474   0.759
  468TIP3    H1 1361   4.987   1.470   0.810
  468TIP3    H2 1362   4.921   1.416   0.685
  469TIP3   OH2 1363   5.361   1.702   0.580
  469TIP3    H1 1364   5.447   1.659   0.579
  469TIP3    H2 1365   5.304   1.641   0.533
  470TIP3   OH2 1366   6.587   1.620   0.855
  470TIP3    H1 1367   6.524   1.683   0.820
  470TIP3    H2 1368   6.656   1.674   0.894
  471TIP3   OH2 1369   5.268   1.265   1.091
  471TIP3    H1 1370   5.214   1.305   1.023
  471TIP3    H2 1371   5.220   1.281   1.173
  472TIP3   OH2 1372   5.628   2.128   0.084
  472TIP3    H1 1373   5.575   2.088   0.015
  472TIP3    H2 1374   5.576   2.203   0.114
  473TIP3   OH2 1375   5.384   2.043   0.880
  473TIP3    H1 1376   5.323   2.107   0.916
  473TIP3    H2 1377   5.424   2.087   0.805
  474TIP3   OH2 1378   5.135   1.392   0.890
  474TIP3    H1 1379   5.193   1.463   0.917
  474TIP3    H2 1380   5.178   1.354   0.813
  475TIP3   OH2 1381   5.206   2.237   0.979
  475TIP3    H1 1382   5.184   2.323   0.942
  475TIP3    H2 1383   5.131   2.214   1.033
  476TIP3   OH2 1384   4.577   1.930   0.226
  476TIP3    H1 1385   4.569   1.947   0.132
  476TIP3    H2 1386   4.633   2.001   0.259
  477TIP3   OH2 1387   6.038   2.443   0.454
  477TIP3    H1 1388   5.952   2.431   0.495
  477TIP3    H2 1389   6.031   2.527   0.408
  478TIP3   OH2 1390   5.739   2.469   0.140
  478TIP3    H1 1391   5.782   2.385   0.124
  478TIP3    H2 1392   5.799   2.534   0.103
  479TIP3   OH2 1393   5.876   2.253   0.041
  479TIP3    H1 1394   5.800   2.194   0.045
  479TIP3    H2 1395   5.929   2.230   0.117
  480TIP3   OH2 1396   6.267   2.349   0.796
  480TIP3    H1 1397   6.252   2.272   0.741
  480TIP3    H2 1398   6.248   2.423   0.738
  481TIP3   OH2 1399   6.459   2.001   0.659
  481TIP3    H1 1400   6.373   2.043   0.657
  481TIP3    H2 1401   6.491   2.008   0.569
  482TIP3   OH2 1402   6.131   1.873   0.949
  482TIP3    H1 1403   6.128   1.951   1.003
  482TIP3    H2 1404   6.045   1.870   0.907
  483TIP3   OH2 1405   5.268   2.236   0.591
  483TIP3    H1 1406   5.246   2.196   0.506
  483TIP3    H2 1407   5.355   2.202   0.611
  484TIP3   OH2 1408   5.266   1.797   0.816
  484TIP3    H1 1409   5.286   1.769   0.726
  484TIP3    H2 1410   5.313   1.880   0.826
  485TIP3   OH2 1411   5.800   2.432   0.577
  485TIP3    H1 1412   5.789   2.510   0.631
  485TIP3    H2 1413   5.784   2.359   0.637
  486TIP3   OH2 1414   5.411   2.351   1.123
  486TIP3    H1 1415   5.354   2.411   1.170
  486TIP3    H2 1416   5.351   2.297   1.072
  487TIP3   OH2 1417   5.174   1.905   1.241
  487TIP3    H1 1418   5.177   1.993   1.279
  487TIP3    H2 1419   5.081   1.887   1.229
  488TIP3   OH2 1420   5.488   2.358   0.130
  488TIP3    H1 1421   5.571   2.405   0.142
  488TIP3    H2 1422   5.430   2.423   0.090
  489TIP3   OH2 1423   5.205   2.515   1.211
  489TIP3    H1 1424   5.171   2.519   1.121
  489TIP3    H2 1425   5.128   2.495   1.265
  490TIP3   OH2 1426   4.784   2.050   1.156
  490TIP3    H1 1427   4.722   2.026   1.088
  490TIP3    H2 1428   4.825   1.967   1.182
  491TIP3   OH2 1429   4.641   2.244   0.790
  491TIP3    H1 1430   4.736   2.236   0.780
  491TIP3    H2 1431   4.630   2.321   0.847
  492TIP3   OH2 1432   6.503   2.697   0.849
  492TIP3    H1 1433   6.505   2.602   0.862
  492TIP3    H2 1434   6.423   2.726   0.892
  493TIP3   OH2 1435   5.606   2.481   0.981
  493TIP3    H1 1436   5.606   2.572   1.011
  493TIP3    H2 1437   5.538   2.439   1.033
  494TIP3   OH2 1438   8.209   6.628   6.870
  494TIP3    H1 1439   8.140   6.603   6.809
  494TIP3    H2 1440   8.180   6.712   6.905
  495TIP3   OH2 1441   4.811   2.454   0.321
  495TIP3    H1 1442   4.857   2.449   0.404
  495TIP3    H2 1443   4.764   2.372   0.314
  496TIP3   OH2 1444   8.439   6.508   6.779
  496TIP3    H1 1445   8.359   6.549   6.813
  496TIP3    H2 1446   8.503   6.518   6.850
  497TIP3   OH2 1447   6.394   1.824   1.131
  497TIP3    H1 1448   6.316   1.835   1.077
  497TIP3    H2 1449   6.413   1.730   1.129
  498TIP3   OH2 1450   4.989   2.233   1.143
  498TIP3    H1 1451   5.039   2.220   1.223
  498TIP3    H2 1452   4.916   2.172   1.149
  499TIP3   OH2 1453   5.375   1.055   0.941
  499TIP3    H1 1454   5.290   1.028   0.906
  499TIP3    H2 1455   5.357   1.139   0.983
  500TIP3   OH2 1456   5.919   1.159   1.114
  500TIP3    H1 1457   5.986   1.143   1.180
  500TIP3    H2 1458   5.836   1.146   1.161
  501TIP3   OH2 1459   6.159   1.602   1.039
  501TIP3    H1 1460   6.113   1.598   1.123
  501TIP3    H2 1461   6.137   1.689   1.005
  502TIP3   OH2 1462   5.328   1.575   0.956
  502TIP3    H1 1463   5.281   1.598   1.036
  502TIP3    H2 1464   5.315   1.651   0.898
  503TIP3   OH2 1465   5.209   1.480   0.477
  503TIP3    H1 1466   5.121   1.518   0.474
  503TIP3    H2 1467   5.232   1.468   0.385
  504TIP3   OH2 1468   5.872   1.818   1.276
  504TIP3    H1 1469   5.847   1.747   1.336
  504TIP3    H2 1470   5.964   1.835   1.297
  505TIP3   OH2 1471   5.822   1.552   0.459
  505TIP3    H1 1472   5.831   1.607   0.380
  505TIP3    H2 1473   5.836   1.463   0.427
  506TIP3   OH2 1474   5.141   1.602   1.159
  506TIP3    H1 1475   5.174   1.667   1.222
  506TIP3    H2 1476   5.133   1.522   1.209
  507TIP3   OH2 1477   4.726   1.138   0.763
  507TIP3    H1 1478   4.802   1.170   0.812
  507TIP3    H2 1479   4.760   1.114   0.677
  508TIP3   OH2 1480   4.753   1.199   0.290
  508TIP3    H1 1481   4.804   1.280   0.298
  508TIP3    H2 1482   4.663   1.225   0.312
  509TIP3   OH2 1483   5.866   1.818   0.859
  509TIP3    H1 1484   5.900   1.755   0.796
  509TIP3    H2 1485   5.832   1.764   0.930
  510TIP3   OH2 1486   5.508   1.303   0.539
  510TIP3    H1 1487   5.443   1.328   0.604
  510TIP3    H2 1488   5.576   1.256   0.588
  511TIP3   OH2 1489   4.946   1.310   0.544
  511TIP3    H1 1490   4.859   1.340   0.516
  511TIP3    H2 1491   4.980   1.260   0.470
  512TIP3   OH2 1492   5.965   1.355   0.725
  512TIP3    H1 1493   5.959   1.376   0.818
  512TIP3    H2 1494   5.930   1.266   0.718
  513TIP3   OH2 1495   6.200   3.045   0.947
  513TIP3    H1 1496   6.196   3.069   0.854
  513TIP3    H2 1497   6.277   3.091   0.981
  514TIP3   OH2 1498   5.152   2.158   1.367
  514TIP3    H1 1499   5.233   2.186   1.412
  514TIP3    H2 1500   5.086   2.156   1.437
  515TIP3   OH2 1501   5.620   1.610   0.642
  515TIP3    H1 1502   5.682   1.571   0.581
  515TIP3    H2 1503   5.623   1.554   0.719
  516TIP3   OH2 1504   5.594   1.505   0.912
  516TIP3    H1 1505   5.505   1.538   0.920
  516TIP3    H2 1506   5.648   1.569   0.959
  517TIP3   OH2 1507   5.289   1.929  -0.003
  517TIP3    H1 1508   5.255   1.840  -0.011
  517TIP3    H2 1509   5.293   1.944   0.092
  518TIP3   OH2 1510   6.223   2.133   0.631
  518TIP3    H1 1511   6.244   2.186   0.554
  518TIP3    H2 1512   6.137   2.096   0.612
  519TIP3   OH2 1513   5.734   2.220   1.001
  519TIP3    H1 1514   5.755   2.194   1.090
  519TIP3    H2 1515   5.688   2.304   1.011
  520TIP3   OH2 1516   8.301   6.071   6.784
  520TIP3    H1 1517   8.255   6.154   6.776
  520TIP3    H2 1518   8.241   6.014   6.833
  521TIP3   OH2 1519   4.899   1.843   1.298
  521TIP3    H1 1520   4.927   1.831   1.390
  521TIP3    H2 1521   4.836   1.773   1.283
  522TIP3   OH2 1522   5.631   1.953   1.312
  522TIP3    H1 1523   5.567   1.898   1.267
  522TIP3    H2 1524   5.716   1.919   1.285
  523TIP3   OH2 1525   5.885   2.483   0.896
  523TIP3    H1 1526   5.791   2.472   0.910
  523TIP3    H2 1527   5.916   2.529   0.974
  524TIP3   OH2 1528   6.515   2.405   0.885
  524TIP3    H1 1529   6.420   2.401   0.882
  524TIP3    H2 1530   6.543   2.374   0.799
  525TIP3   OH2 1531   5.982   2.011   0.558
  525TIP3    H1 1532   5.891   1.989   0.574
  525TIP3    H2 1533   6.021   1.932   0.521
  526TIP3   OH2 1534   5.123   2.223   0.308
  526TIP3    H1 1535   5.114   2.301   0.253
  526TIP3    H2 1536   5.033   2.192   0.321
  527TIP3   OH2 1537   4.684   1.508   0.024
  527TIP3    H1 1538   4.728   1.592   0.025
  527TIP3    H2 1539   4.611   1.518   0.085
  528TIP3   OH2 1540   5.255   1.975   0.262
  528TIP3    H1 1541   5.218   2.061   0.282
  528TIP3    H2 1542   5.217   1.917   0.327
  529TIP3   OH2 1543   5.395   2.566   0.774
  529TIP3    H1 1544   5.437   2.637   0.726
  529TIP3    H2 1545   5.466   2.525   0.824
  530TIP3   OH2 1546   5.034   2.467   0.155
  530TIP3    H1 1547   4.952   2.468   0.204
  530TIP3    H2 1548   5.067   2.556   0.161
  531TIP3   OH2 1549   5.778   2.198   0.734
  531TIP3    H1 1550   5.767   2.200   0.829
  531TIP3    H2 1551   5.854   2.142   0.719
  532TIP3   OH2 1552   6.027   2.730   0.783
  532TIP3    H1 1553   5.951   2.672   0.783
  532TIP3    H2 1554   6.009   2.793   0.713
  533TIP3   OH2 1555   5.110   1.342   1.305
  533TIP3    H1 1556   5.015   1.346   1.317
  533TIP3    H2 1557   5.142   1.290   1.379
  534TIP3   OH2 1558   4.831   2.426   0.935
  534TIP3    H1 1559   4.884   2.354   0.969
  534TIP3    H2 1560   4.853   2.501   0.989
  535TIP3   OH2 1561   7.947   6.084   6.558
  535TIP3    H1 1562   7.919   5.996   6.532
  535TIP3    H2 1563   7.936   6.087   6.653
  536TIP3   OH2 1564   7.904   6.091   6.830
  536TIP3    H1 1565   7.974   6.048   6.881
  536TIP3    H2 1566   7.913   6.184   6.852
  537TIP3   OH2 1567   4.779   1.764   0.072
  537TIP3    H1 1568   4.771   1.789   0.164
  537TIP3    H2 1569   4.830   1.835   0.032
  538TIP3   OH2 1570   5.953   1.405   0.991
  538TIP3    H1 1571   6.029   1.448   1.031
  538TIP3    H2 1572   5.940   1.326   1.043
  539TIP3   OH2 1573   8.156   6.299   6.753
  539TIP3    H1 1574   8.076   6.320   6.802
  539TIP3    H2 1575   8.155   6.359   6.679
  540TIP3   OH2 1576   5.789   1.655   1.061
  540TIP3    H1 1577   5.809   1.710   1.136
  540TIP3    H2 1578   5.840   1.575   1.074
  541TIP3   OH2 1579   7.911   6.366   6.848
  541TIP3    H1 1580   7.884   6.434   6.787
  541TIP3    H2 1581   7.891   6.402   6.935
  542TIP3   OH2 1582   6.429   1.556   1.068
  542TIP3    H1 1583   6.336   1.548   1.050
  542TIP3    H2 1584   6.470   1.560   0.981
  543TIP3   OH2 1585   6.068   1.762   0.476
  543TIP3    H1 1586   5.994   1.718   0.518
  543TIP3    H2 1587   6.144   1.733   0.525
  544TIP3   OH2 1588   7.629   6.024   6.833
  544TIP3    H1 1589   7.710   6.069   6.854
  544TIP3    H2 1590   7.656   5.948   6.781
  545TIP3   OH2 1591   6.048   2.717   0.369
  545TIP3    H1 1592   6.002   2.764   0.300
  545TIP3    H2 1593   6.141   2.736   0.354
  546TIP3   OH2 1594   5.112   0.970   0.903
  546TIP3    H1 1595   5.093   0.929   0.818
  546TIP3    H2 1596   5.103   0.899   0.967
  547TIP3   OH2 1597   4.667   2.209   0.282
  547TIP3    H1 1598   4.596   2.224   0.346
  547TIP3    H2 1599   4.631   2.241   0.199
  548TIP3   OH2 1600   4.825   2.742   1.357
  548TIP3    H1 1601   4.908   2.747   1.404
  548TIP3    H2 1602   4.805   2.648   1.355
  549TIP3   OH2 1603   5.298   2.698   1.399
  549TIP3    H1 1604   5.392   2.685   1.410
  549TIP3    H2 1605   5.273   2.637   1.330
  550TIP3   OH2 1606   5.944   2.605   1.135
  550TIP3    H1 1607   5.933   2.539   1.203
  550TIP3    H2 1608   6.016   2.660   1.165
  551TIP3   OH2 1609   4.949   2.142   1.555
  551TIP3    H1 1610   4.966   2.048   1.565
  551TIP3    H2 1611   4.864   2.146   1.511
  552TIP3   OH2 1612   7.757   5.827   6.711
  552TIP3    H1 1613   7.810   5.758   6.750
  552TIP3    H2 1614   7.777   5.823   6.618
  553TIP3   OH2 1615   5.558   2.230   1.329
  553TIP3    H1 1616   5.517   2.250   1.245
  553TIP3    H2 1617   5.588   2.139   1.320
  554TIP3   OH2 1618   6.051   2.242   0.938
  554TIP3    H1 1619   6.125   2.286   0.896
  554TIP3    H2 1620   5.977   2.301   0.923
  555TIP3   OH2 1621   5.070   1.879   1.543
  555TIP3    H1 1622   5.148   1.834   1.510
  555TIP3    H2 1623   5.097   1.912   1.629
  556TIP3   OH2 1624   7.970   5.696   6.912
  556TIP3    H1 1625   7.932   5.693   7.000
  556TIP3    H2 1626   7.983   5.604   6.889
  557TIP3   OH2 1627   5.405   1.761   1.200
  557TIP3    H1 1628   5.329   1.819   1.205
  557TIP3    H2 1629   5.456   1.795   1.126
  558TIP3   OH2 1630   5.923   2.164   1.335
  558TIP3    H1 1631   6.000   2.133   1.286
  558TIP3    H2 1632   5.915   2.102   1.407
  559TIP3   OH2 1633   5.529   1.552   1.322
  559TIP3    H1 1634   5.529   1.474   1.267
  559TIP3    H2 1635   5.487   1.619   1.269
  560TIP3   OH2 1636   5.529   1.339   1.133
  560TIP3    H1 1637   5.558   1.381   1.052
  560TIP3    H2 1638   5.437   1.317   1.117
  561TIP3   OH2 1639   5.557   1.876   1.011
  561TIP3    H1 1640   5.640   1.884   0.963
  561TIP3    H2 1641   5.498   1.937   0.966
  562TIP3   OH2 1642   6.139   1.837   1.385
  562TIP3    H1 1643   6.186   1.755   1.398
  562TIP3    H2 1644   6.204   1.897   1.349
  563TIP3   OH2 1645   6.179   2.097   1.123
  563TIP3    H1 1646   6.120   2.148   1.068
  563TIP3    H2 1647   6.266   2.114   1.087
  564TIP3   OH2 1648   5.407   1.656   1.558
  564TIP3    H1 1649   5.340   1.591   1.575
  564TIP3    H2 1650   5.440   1.634   1.471
  565TIP3   OH2 1651   5.661   1.101   1.204
  565TIP3    H1 1652   5.610   1.179   1.181
  565TIP3    H2 1653   5.600   1.028   1.191
  566TIP3   OH2 1654   5.787   1.600   1.419
  566TIP3    H1 1655   5.777   1.588   1.513
  566TIP3    H2 1656   5.701   1.579   1.382
  567TIP3   OH2 1657   6.028   1.551   1.273
  567TIP3    H1 1658   5.955   1.555   1.334
  567TIP3    H2 1659   6.103   1.524   1.327
  568TIP3   OH2 1660   6.257   1.495   1.424
  568TIP3    H1 1661   6.266   1.401   1.439
  568TIP3    H2 1662   6.255   1.534   1.511
  569TIP3   OH2 1663   5.245   1.437   1.614
  569TIP3    H1 1664   5.251   1.348   1.580
  569TIP3    H2 1665   5.282   1.431   1.703
  570TIP3   OH2 1666   5.743   1.111   1.466
  570TIP3    H1 1667   5.814   1.047   1.465
  570TIP3    H2 1668   5.708   1.110   1.377
  571TIP3   OH2 1669   5.822   1.326   1.619
  571TIP3    H1 1670   5.800   1.255   1.558
  571TIP3    H2 1671   5.747   1.385   1.616
  572TIP3   OH2 1672   7.897   6.559   6.649
  572TIP3    H1 1673   7.975   6.536   6.599
  572TIP3    H2 1674   7.846   6.614   6.590
  573TIP3   OH2 1675   7.367   5.946   6.880
  573TIP3    H1 1676   7.449   5.992   6.864
  573TIP3    H2 1677   7.383   5.856   6.852
  574TIP3   OH2 1678   4.442   2.545   0.351
  574TIP3    H1 1679   4.376   2.487   0.312
  574TIP3    H2 1680   4.486   2.491   0.416
  575TIP3   OH2 1681   4.573   2.397   0.542
  575TIP3    H1 1682   4.563   2.323   0.602
  575TIP3    H2 1683   4.627   2.460   0.591
  576TIP3   OH2 1684   6.300   2.809   0.339
  576TIP3    H1 1685   6.330   2.833   0.427
  576TIP3    H2 1686   6.378   2.815   0.285
  577TIP3   OH2 1687   6.332   2.815   0.620
  577TIP3    H1 1688   6.285   2.732   0.615
  577TIP3    H2 1689   6.409   2.796   0.675
  578TIP3   OH2 1690   6.378   2.496   1.193
  578TIP3    H1 1691   6.306   2.503   1.256
  578TIP3    H2 1692   6.420   2.582   1.194
  579TIP3   OH2 1693   6.375   2.275   0.447
  579TIP3    H1 1694   6.428   2.208   0.402
  579TIP3    H2 1695   6.372   2.347   0.385
  580TIP3   OH2 1696   6.204   2.570   0.639
  580TIP3    H1 1697   6.135   2.611   0.692
  580TIP3    H2 1698   6.156   2.524   0.569
  581TIP3   OH2 1699   4.763   1.805   0.901
  581TIP3    H1 1700   4.761   1.771   0.812
  581TIP3    H2 1701   4.856   1.808   0.924
  582TIP3   OH2 1702   6.424   2.161   1.017
  582TIP3    H1 1703   6.492   2.094   1.007
  582TIP3    H2 1704   6.448   2.229   0.954
  583TIP3   OH2 1705   6.605   1.960   1.027
  583TIP3    H1 1706   6.530   1.916   1.066
  583TIP3    H2 1707   6.678   1.900   1.041
  584TIP3   OH2 1708   6.281   1.649   0.608
  584TIP3    H1 1709   6.371   1.629   0.583
  584TIP3    H2 1710   6.288   1.687   0.695
  585TIP3   OH2 1711   6.370   1.797   0.820
  585TIP3    H1 1712   6.290   1.832   0.858
  585TIP3    H2 1713   6.406   1.870   0.769
  586TIP3   OH2 1714   4.979   1.487   1.574
  586TIP3    H1 1715   5.075   1.489   1.581
  586TIP3    H2 1716   4.953   1.405   1.616
  587TIP3   OH2 1717   6.822   1.357   1.333
  587TIP3    H1 1718   6.879   1.299   1.283
  587TIP3    H2 1719   6.782   1.414   1.267
  588TIP3   OH2 1720   4.942   1.189   0.927
  588TIP3    H1 1721   5.003   1.115   0.925
  588TIP3    H2 1722   4.999   1.266   0.916
  589TIP3   OH2 1723   4.741   1.458   0.983
  589TIP3    H1 1724   4.788   1.453   0.900
  589TIP3    H2 1725   4.771   1.539   1.024
  590TIP3   OH2 1726   6.681   1.508   1.156
  590TIP3    H1 1727   6.590   1.538   1.156
  590TIP3    H2 1728   6.682   1.432   1.098
  591TIP3   OH2 1729   4.700   1.000   0.508
  591TIP3    H1 1730   4.612   0.976   0.538
  591TIP3    H2 1731   4.686   1.068   0.443
  592TIP3   OH2 1732   0.210   6.651   6.928
  592TIP3    H1 1733   0.240   6.606   6.849
  592TIP3    H2 1734   0.263   6.731   6.933
  593TIP3   OH2 1735   4.940   1.035   1.296
  593TIP3    H1 1736   4.896   1.041   1.381
  593TIP3    H2 1737   4.881   1.079   1.235
  594TIP3   OH2 1738   4.985   2.472   1.377
  594TIP3    H1 1739   4.894   2.446   1.361
  594TIP3    H2 1740   5.000   2.453   1.469
  595TIP3   OH2 1741   5.166   2.508   0.921
  595TIP3    H1 1742   5.117   2.582   0.885
  595TIP3    H2 1743   5.253   2.516   0.881
  596TIP3   OH2 1744   5.608   2.748   1.061
  596TIP3    H1 1745   5.646   2.745   1.149
  596TIP3    H2 1746   5.671   2.799   1.010
  597TIP3   OH2 1747   5.789   2.902   0.923
  597TIP3    H1 1748   5.857   2.847   0.883
  597TIP3    H2 1749   5.837   2.958   0.984
  598TIP3   OH2 1750   4.838   2.763   0.949
  598TIP3    H1 1751   4.749   2.791   0.928
  598TIP3    H2 1752   4.858   2.805   1.032
  599TIP3   OH2 1753   5.075   2.741   0.807
  599TIP3    H1 1754   4.990   2.751   0.851
  599TIP3    H2 1755   5.058   2.770   0.717
  600TIP3   OH2 1756   5.503   2.768   0.603
  600TIP3    H1 1757   5.431   2.785   0.542
  600TIP3    H2 1758   5.515   2.851   0.649
  601TIP3   OH2 1759   5.771   2.705   0.655
  601TIP3    H1 1760   5.679   2.722   0.636
  601TIP3    H2 1761   5.817   2.779   0.616
  602TIP3   OH2 1762   5.978   2.895   0.567
  602TIP3    H1 1763   5.964   2.979   0.522
  602TIP3    H2 1764   6.005   2.835   0.498
  603TIP3   OH2 1765   4.755   2.550   0.694
  603TIP3    H1 1766   4.777   2.525   0.784
  603TIP3    H2 1767   4.824   2.510   0.641
  604TIP3   OH2 1768   4.951   2.427   0.553
  604TIP3    H1 1769   4.962   2.344   0.599
  604TIP3    H2 1770   5.040   2.462   0.547
  605TIP3   OH2 1771   5.220   2.516   0.557
  605TIP3    H1 1772   5.244   2.424   0.542
  605TIP3    H2 1773   5.264   2.540   0.638
  606TIP3   OH2 1774   4.537   2.324   0.078
  606TIP3    H1 1775   4.454   2.288   0.045
  606TIP3    H2 1776   4.531   2.418   0.062
  607TIP3   OH2 1777   5.246   1.159   1.545
  607TIP3    H1 1778   5.207   1.092   1.601
  607TIP3    H2 1779   5.338   1.162   1.571
  608TIP3   OH2 1780   5.494   1.160   1.665
  608TIP3    H1 1781   5.577   1.139   1.622
  608TIP3    H2 1782   5.483   1.092   1.731
  609TIP3   OH2 1783   7.493   6.365   6.658
  609TIP3    H1 1784   7.443   6.423   6.715
  609TIP3    H2 1785   7.530   6.299   6.716
  610TIP3   OH2 1786   6.307   1.223   1.461
  610TIP3    H1 1787   6.325   1.197   1.551
  610TIP3    H2 1788   6.392   1.226   1.419
  611TIP3   OH2 1789   6.255   2.776   0.943
  611TIP3    H1 1790   6.179   2.744   0.896
  611TIP3    H2 1791   6.238   2.870   0.954
  612TIP3   OH2 1792   6.842   2.067   0.467
  612TIP3    H1 1793   6.877   2.050   0.555
  612TIP3    H2 1794   6.883   2.150   0.441
  613TIP3   OH2 1795   6.792   2.463   0.203
  613TIP3    H1 1796   6.766   2.386   0.153
  613TIP3    H2 1797   6.884   2.446   0.226
  614TIP3   OH2 1798   7.068   2.304   0.304
  614TIP3    H1 1799   7.042   2.376   0.362
  614TIP3    H2 1800   7.159   2.286   0.329
  615TIP3   OH2 1801   6.993   2.508   0.478
  615TIP3    H1 1802   6.976   2.597   0.447
  615TIP3    H2 1803   6.920   2.490   0.538
  616TIP3   OH2 1804   7.208   2.607   0.624
  616TIP3    H1 1805   7.150   2.672   0.662
  616TIP3    H2 1806   7.150   2.553   0.569
  617TIP3   OH2 1807   6.951   2.179   0.710
  617TIP3    H1 1808   6.966   2.263   0.754
  617TIP3    H2 1809   6.865   2.150   0.742
  618TIP3   OH2 1810   7.001   2.774   0.698
  618TIP3    H1 1811   6.967   2.785   0.609
  618TIP3    H2 1812   6.924   2.753   0.750
  619TIP3   OH2 1813   6.579   2.300   0.645
  619TIP3    H1 1814   6.509   2.284   0.583
  619TIP3    H2 1815   6.613   2.213   0.667
  620TIP3   OH2 1816   6.442   2.497   0.282
  620TIP3    H1 1817   6.536   2.506   0.265
  620TIP3    H2 1818   6.420   2.574   0.335
  621TIP3   OH2 1819   7.398   2.727   0.464
  621TIP3    H1 1820   7.402   2.818   0.492
  621TIP3    H2 1821   7.332   2.687   0.520
  622TIP3   OH2 1822   6.775   2.493   0.639
  622TIP3    H1 1823   6.824   2.478   0.720
  622TIP3    H2 1824   6.703   2.429   0.642
  623TIP3   OH2 1825   6.961   1.875   0.728
  623TIP3    H1 1826   6.901   1.921   0.788
  623TIP3    H2 1827   6.920   1.790   0.715
  624TIP3   OH2 1828   6.948   2.416   0.856
  624TIP3    H1 1829   7.029   2.445   0.900
  624TIP3    H2 1830   6.883   2.413   0.926
  625TIP3   OH2 1831   7.517   2.453   0.570
  625TIP3    H1 1832   7.504   2.482   0.661
  625TIP3    H2 1833   7.497   2.531   0.517
  626TIP3   OH2 1834   6.702   2.083   0.786
  626TIP3    H1 1835   6.711   2.075   0.880
  626TIP3    H2 1836   6.625   2.029   0.764
  627TIP3   OH2 1837   7.418   2.204   0.796
  627TIP3    H1 1838   7.337   2.159   0.772
  627TIP3    H2 1839   7.478   2.185   0.724
  628TIP3   OH2 1840   7.186   2.833   0.305
  628TIP3    H1 1841   7.194   2.845   0.211
  628TIP3    H2 1842   7.270   2.796   0.333
  629TIP3   OH2 1843   6.629   2.681   0.433
  629TIP3    H1 1844   6.680   2.610   0.473
  629TIP3    H2 1845   6.655   2.759   0.482
  630TIP3   OH2 1846   6.620   2.998   0.843
  630TIP3    H1 1847   6.704   3.001   0.890
  630TIP3    H2 1848   6.597   2.905   0.841
  631TIP3   OH2 1849   7.094   2.952   0.889
  631TIP3    H1 1850   7.189   2.938   0.895
  631TIP3    H2 1851   7.067   2.894   0.817
  632TIP3   OH2 1852   6.745   2.400   1.043
  632TIP3    H1 1853   6.760   2.306   1.054
  632TIP3    H2 1854   6.660   2.406   1.000
  633TIP3   OH2 1855   7.369   2.486   0.812
  633TIP3    H1 1856   7.315   2.507   0.736
  633TIP3    H2 1857   7.383   2.391   0.805
  634TIP3   OH2 1858   6.875   2.134   1.027
  634TIP3    H1 1859   6.954   2.086   1.004
  634TIP3    H2 1860   6.894   2.170   1.114
  635TIP3   OH2 1861   7.211   2.067   0.688
  635TIP3    H1 1862   7.120   2.095   0.698
  635TIP3    H2 1863   7.206   1.990   0.630
  636TIP3   OH2 1864   7.168   1.942   1.057
  636TIP3    H1 1865   7.111   1.875   1.095
  636TIP3    H2 1866   7.192   1.907   0.971
  637TIP3   OH2 1867   7.031   1.715   1.122
  637TIP3    H1 1868   7.062   1.663   1.048
  637TIP3    H2 1869   7.074   1.676   1.198
  638TIP3   OH2 1870   6.363   2.648   0.033
  638TIP3    H1 1871   6.349   2.573   0.091
  638TIP3    H2 1872   6.426   2.703   0.078
  639TIP3   OH2 1873   6.568   2.067   0.410
  639TIP3    H1 1874   6.569   1.997   0.345
  639TIP3    H2 1875   6.660   2.080   0.432
  640TIP3   OH2 1876   6.770   1.750   1.064
  640TIP3    H1 1877   6.864   1.746   1.080
  640TIP3    H2 1878   6.735   1.670   1.103
  641TIP3   OH2 1879   6.782   2.727   0.864
  641TIP3    H1 1880   6.691   2.704   0.844
  641TIP3    H2 1881   6.791   2.712   0.958
  642TIP3   OH2 1882   6.951   2.772   0.416
  642TIP3    H1 1883   6.900   2.837   0.368
  642TIP3    H2 1884   7.040   2.784   0.386
  643TIP3   OH2 1885   7.405   3.003   0.544
  643TIP3    H1 1886   7.450   3.007   0.629
  643TIP3    H2 1887   7.463   3.051   0.484
  644TIP3   OH2 1888   7.575   3.137   0.332
  644TIP3    H1 1889   7.607   3.112   0.245
  644TIP3    H2 1890   7.584   3.232   0.334
  645TIP3   OH2 1891   6.630   3.011   0.454
  645TIP3    H1 1892   6.546   3.043   0.422
  645TIP3    H2 1893   6.646   3.062   0.534
  646TIP3   OH2 1894   6.845   3.000   0.284
  646TIP3    H1 1895   6.777   2.995   0.351
  646TIP3    H2 1896   6.815   3.066   0.223
  647TIP3   OH2 1897   6.538   2.793   0.196
  647TIP3    H1 1898   6.573   2.768   0.282
  647TIP3    H2 1899   6.611   2.777   0.136
  648TIP3   OH2 1900   6.752   2.692   0.062
  648TIP3    H1 1901   6.763   2.614   0.117
  648TIP3    H2 1902   6.837   2.703   0.020
  649TIP3   OH2 1903   0.882   2.669   2.053
  649TIP3    H1 1904   0.813   2.706   1.998
  649TIP3    H2 1905   0.905   2.740   2.113
  650TIP3   OH2 1906   0.359   3.482   1.645
  650TIP3    H1 1907   0.284   3.424   1.661
  650TIP3    H2 1908   0.341   3.520   1.559
  651TIP3   OH2 1909   0.516   3.402   1.985
  651TIP3    H1 1910   0.511   3.325   1.928
  651TIP3    H2 1911   0.507   3.476   1.926
  652TIP3   OH2 1912   0.723   3.021   1.826
  652TIP3    H1 1913   0.651   3.083   1.834
  652TIP3    H2 1914   0.745   3.021   1.732
  653TIP3   OH2 1915   0.437   2.907   2.151
  653TIP3    H1 1916   0.405   2.980   2.204
  653TIP3    H2 1917   0.363   2.881   2.097
  654TIP3   OH2 1918   0.746   3.746   2.018
  654TIP3    H1 1919   0.756   3.652   2.030
  654TIP3    H2 1920   0.664   3.768   2.063
  655TIP3   OH2 1921   8.366   3.535   2.180
  655TIP3    H1 1922   8.363   3.629   2.198
  655TIP3    H2 1923   8.275   3.507   2.185
  656TIP3   OH2 1924   0.658   2.868   2.301
  656TIP3    H1 1925   0.578   2.887   2.252
  656TIP3    H2 1926   0.662   2.772   2.304
  657TIP3   OH2 1927   0.128   2.874   2.502
  657TIP3    H1 1928   0.112   2.797   2.557
  657TIP3    H2 1929   0.223   2.886   2.505
  658TIP3   OH2 1930   0.446   4.092   2.122
  658TIP3    H1 1931   0.441   4.113   2.029
  658TIP3    H2 1932   0.522   4.140   2.154
  659TIP3   OH2 1933   0.503   3.178   1.818
  659TIP3    H1 1934   0.508   3.210   1.728
  659TIP3    H2 1935   0.450   3.099   1.812
  660TIP3   OH2 1936   0.022   3.306   2.192
  660TIP3    H1 1937   0.039   3.279   2.283
  660TIP3    H2 1938  -0.036   3.382   2.200
  661TIP3   OH2 1939   0.123   3.560   2.066
  661TIP3    H1 1940   0.036   3.549   2.103
  661TIP3    H2 1941   0.177   3.591   2.139
  662TIP3   OH2 1942   0.767   3.460   2.070
  662TIP3    H1 1943   0.671   3.451   2.065
  662TIP3    H2 1944   0.798   3.428   1.985
  663TIP3   OH2 1945   0.271   3.780   1.964
  663TIP3    H1 1946   0.200   3.716   1.962
  663TIP3    H2 1947   0.248   3.843   1.896
  664TIP3   OH2 1948   0.656   2.599   2.233
  664TIP3    H1 1949   0.571   2.557   2.224
  664TIP3    H2 1950   0.689   2.606   2.144
  665TIP3   OH2 1951   0.293   3.795   1.577
  665TIP3    H1 1952   0.246   3.809   1.495
  665TIP3    H2 1953   0.385   3.802   1.553
  666TIP3   OH2 1954   8.050   3.736   2.591
  666TIP3    H1 1955   8.144   3.734   2.609
  666TIP3    H2 1956   8.043   3.728   2.496
  667TIP3   OH2 1957   0.198   3.649   2.311
  667TIP3    H1 1958   0.184   3.582   2.378
  667TIP3    H2 1959   0.269   3.703   2.344
  668TIP3   OH2 1960   8.317   3.292   2.520
  668TIP3    H1 1961   8.292   3.263   2.432
  668TIP3    H2 1962   8.380   3.226   2.550
  669TIP3   OH2 1963   0.294   3.264   2.088
  669TIP3    H1 1964   0.355   3.335   2.070
  669TIP3    H2 1965   0.212   3.307   2.114
  670TIP3   OH2 1966   0.167   3.209   2.499
  670TIP3    H1 1967   0.246   3.176   2.456
  670TIP3    H2 1968   0.146   3.144   2.565
  671TIP3   OH2 1969   0.395   2.874   2.542
  671TIP3    H1 1970   0.440   2.797   2.579
  671TIP3    H2 1971   0.465   2.937   2.527
  672TIP3   OH2 1972   0.427   3.158   2.301
  672TIP3    H1 1973   0.369   3.190   2.231
  672TIP3    H2 1974   0.515   3.168   2.266
  673TIP3   OH2 1975   0.542   2.551   2.594
  673TIP3    H1 1976   0.545   2.456   2.608
  673TIP3    H2 1977   0.520   2.587   2.680
  674TIP3   OH2 1978   0.553   3.849   1.517
  674TIP3    H1 1979   0.582   3.880   1.602
  674TIP3    H2 1980   0.613   3.890   1.454
  675TIP3   OH2 1981   0.590   3.873   1.798
  675TIP3    H1 1982   0.538   3.792   1.797
  675TIP3    H2 1983   0.669   3.849   1.847
  676TIP3   OH2 1984   0.625   3.543   2.369
  676TIP3    H1 1985   0.555   3.550   2.434
  676TIP3    H2 1986   0.668   3.629   2.372
  677TIP3   OH2 1987   0.679   3.335   1.611
  677TIP3    H1 1988   0.735   3.266   1.576
  677TIP3    H2 1989   0.685   3.406   1.547
  678TIP3   OH2 1990   0.472   3.634   1.839
  678TIP3    H1 1991   0.396   3.672   1.883
  678TIP3    H2 1992   0.437   3.587   1.764
  679TIP3   OH2 1993   0.679   3.203   2.193
  679TIP3    H1 1994   0.748   3.137   2.185
  679TIP3    H2 1995   0.699   3.267   2.125
  680TIP3   OH2 1996   0.870   3.012   2.220
  680TIP3    H1 1997   0.791   2.967   2.250
  680TIP3    H2 1998   0.941   2.949   2.237
  681TIP3   OH2 1999   0.647   2.798   1.965
  681TIP3    H1 2000   0.573   2.824   2.019
  681TIP3    H2 2001   0.669   2.877   1.915
  682TIP3   OH2 2002   1.083   2.423   2.511
  682TIP3    H1 2003   1.135   2.353   2.473
  682TIP3    H2 2004   1.034   2.460   2.437
  683TIP3   OH2 2005   0.923   2.541   2.321
  683TIP3    H1 2006   0.844   2.581   2.356
  683TIP3    H2 2007   0.900   2.517   2.231
  684TIP3   OH2 2008   8.362   3.799   2.239
  684TIP3    H1 2009   8.399   3.798   2.328
  684TIP3    H2 2010   8.426   3.848   2.188
  685TIP3   OH2 2011   0.047   3.938   2.098
  685TIP3    H1 2012   0.121   3.889   2.062
  685TIP3    H2 2013   0.086   4.001   2.158
  686TIP3   OH2 2014   8.515   3.765   1.810
  686TIP3    H1 2015   8.428   3.779   1.848
  686TIP3    H2 2016   8.551   3.852   1.799
  687TIP3   OH2 2017   0.221   3.968   1.768
  687TIP3    H1 2018   0.207   4.050   1.719
  687TIP3    H2 2019   0.245   3.904   1.701
  688TIP3   OH2 2020   0.601   2.285   2.647
  688TIP3    H1 2021   0.601   2.252   2.737
  688TIP3    H2 2022   0.664   2.230   2.600
  689TIP3   OH2 2023   0.501   3.823   2.125
  689TIP3    H1 2024   0.427   3.789   2.075
  689TIP3    H2 2025   0.484   3.917   2.133
  690TIP3   OH2 2026   1.761   3.199   0.885
  690TIP3    H1 2027   1.750   3.288   0.850
  690TIP3    H2 2028   1.682   3.184   0.937
  691TIP3   OH2 2029   1.778   3.189   1.271
  691TIP3    H1 2030   1.811   3.171   1.360
  691TIP3    H2 2031   1.732   3.108   1.247
  692TIP3   OH2 2032   1.073   3.093   1.643
  692TIP3    H1 2033   1.092   3.028   1.710
  692TIP3    H2 2034   1.159   3.125   1.616
  693TIP3   OH2 2035   2.018   3.495   0.956
  693TIP3    H1 2036   2.003   3.427   1.021
  693TIP3    H2 2037   2.048   3.571   1.007
  694TIP3   OH2 2038   1.045   3.487   1.353
  694TIP3    H1 2039   1.041   3.392   1.362
  694TIP3    H2 2040   1.138   3.506   1.339
  695TIP3   OH2 2041   1.670   3.961   0.969
  695TIP3    H1 2042   1.711   3.890   0.920
  695TIP3    H2 2043   1.644   3.922   1.052
  696TIP3   OH2 2044   1.573   3.422   1.320
  696TIP3    H1 2045   1.601   3.347   1.269
  696TIP3    H2 2046   1.654   3.465   1.347
  697TIP3   OH2 2047   2.601   2.742   1.305
  697TIP3    H1 2048   2.620   2.822   1.354
  697TIP3    H2 2049   2.623   2.764   1.215
  698TIP3   OH2 2050   1.984   2.921   1.348
  698TIP3    H1 2051   2.025   2.838   1.371
  698TIP3    H2 2052   1.951   2.907   1.259
  699TIP3   OH2 2053   2.018   2.668   0.960
  699TIP3    H1 2054   2.100   2.657   1.009
  699TIP3    H2 2055   2.046   2.692   0.872
  700TIP3   OH2 2056   1.408   2.977   1.236
  700TIP3    H1 2057   1.500   2.956   1.251
  700TIP3    H2 2058   1.389   2.941   1.149
  701TIP3   OH2 2059   2.657   2.952   1.482
  701TIP3    H1 2060   2.574   2.990   1.455
  701TIP3    H2 2061   2.658   2.960   1.578
  702TIP3   OH2 2062   1.311   2.550   1.761
  702TIP3    H1 2063   1.257   2.593   1.696
  702TIP3    H2 2064   1.266   2.565   1.844
  703TIP3   OH2 2065   1.652   3.420   0.767
  703TIP3    H1 2066   1.601   3.407   0.686
  703TIP3    H2 2067   1.623   3.505   0.800
  704TIP3   OH2 2068   1.427   3.344   1.541
  704TIP3    H1 2069   1.367   3.409   1.577
  704TIP3    H2 2070   1.468   3.388   1.467
  705TIP3   OH2 2071   2.228   2.667   1.132
  705TIP3    H1 2072   2.194   2.649   1.220
  705TIP3    H2 2073   2.279   2.748   1.143
  706TIP3   OH2 2074   1.182   2.694   1.571
  706TIP3    H1 2075   1.210   2.774   1.616
  706TIP3    H2 2076   1.232   2.693   1.490
  707TIP3   OH2 2077   1.252   3.540   1.642
  707TIP3    H1 2078   1.230   3.624   1.602
  707TIP3    H2 2079   1.177   3.520   1.698
  708TIP3   OH2 2080   2.084   3.742   1.118
  708TIP3    H1 2081   1.998   3.731   1.158
  708TIP3    H2 2082   2.078   3.826   1.072
  709TIP3   OH2 2083   2.378   2.701   1.480
  709TIP3    H1 2084   2.292   2.676   1.447
  709TIP3    H2 2085   2.436   2.693   1.404
  710TIP3   OH2 2086   1.789   3.784   0.791
  710TIP3    H1 2087   1.832   3.700   0.773
  710TIP3    H2 2088   1.849   3.850   0.755
  711TIP3   OH2 2089   1.929   3.568   0.704
  711TIP3    H1 2090   1.929   3.493   0.645
  711TIP3    H2 2091   1.963   3.533   0.787
  712TIP3   OH2 2092   2.312   3.649   1.461
  712TIP3    H1 2093   2.299   3.572   1.405
  712TIP3    H2 2094   2.293   3.724   1.403
  713TIP3   OH2 2095   2.506   3.295   1.307
  713TIP3    H1 2096   2.422   3.341   1.313
  713TIP3    H2 2097   2.538   3.315   1.219
  714TIP3   OH2 2098   1.948   3.125   0.692
  714TIP3    H1 2099   1.891   3.149   0.765
  714TIP3    H2 2100   2.032   3.104   0.733
  715TIP3   OH2 2101   2.182   3.169   1.605
  715TIP3    H1 2102   2.180   3.251   1.654
  715TIP3    H2 2103   2.098   3.166   1.559
  716TIP3   OH2 2104   1.309   3.511   1.258
  716TIP3    H1 2105   1.299   3.500   1.163
  716TIP3    H2 2106   1.398   3.481   1.277
  717TIP3   OH2 2107   1.305   3.104   1.463
  717TIP3    H1 2108   1.340   3.069   1.381
  717TIP3    H2 2109   1.356   3.184   1.478
  718TIP3   OH2 2110   1.847   3.735   1.243
  718TIP3    H1 2111   1.829   3.814   1.295
  718TIP3    H2 2112   1.828   3.662   1.303
  719TIP3   OH2 2113   1.452   3.660   1.786
  719TIP3    H1 2114   1.391   3.715   1.835
  719TIP3    H2 2115   1.396   3.602   1.735
  720TIP3   OH2 2116   1.534   3.671   0.781
  720TIP3    H1 2117   1.617   3.716   0.798
  720TIP3    H2 2118   1.473   3.740   0.758
  721TIP3   OH2 2119   1.246   3.832   1.878
  721TIP3    H1 2120   1.221   3.834   1.786
  721TIP3    H2 2121   1.169   3.796   1.923
  722TIP3   OH2 2122   2.098   3.600   0.108
  722TIP3    H1 2123   2.115   3.693   0.093
  722TIP3    H2 2124   2.184   3.559   0.106
  723TIP3   OH2 2125   0.844   3.364   1.832
  723TIP3    H1 2126   0.780   3.341   1.764
  723TIP3    H2 2127   0.877   3.279   1.862
  724TIP3   OH2 2128   0.719   3.568   1.434
  724TIP3    H1 2129   0.815   3.571   1.442
  724TIP3    H2 2130   0.688   3.635   1.496
  725TIP3   OH2 2131   2.546   3.998   1.514
  725TIP3    H1 2132   2.547   3.902   1.522
  725TIP3    H2 2133   2.465   4.024   1.557
  726TIP3   OH2 2134   1.655   3.781   1.649
  726TIP3    H1 2135   1.651   3.873   1.675
  726TIP3    H2 2136   1.582   3.739   1.694
  727TIP3   OH2 2137   1.418   3.896   0.605
  727TIP3    H1 2138   1.384   3.883   0.517
  727TIP3    H2 2139   1.382   3.980   0.632
  728TIP3   OH2 2140   0.849   3.766   0.974
  728TIP3    H1 2141   0.890   3.745   1.059
  728TIP3    H2 2142   0.808   3.684   0.947
  729TIP3   OH2 2143   1.614   3.802   0.242
  729TIP3    H1 2144   1.673   3.747   0.189
  729TIP3    H2 2145   1.660   3.813   0.325
  730TIP3   OH2 2146   1.673   3.856   0.516
  730TIP3    H1 2147   1.583   3.865   0.549
  730TIP3    H2 2148   1.721   3.816   0.589
  731TIP3   OH2 2149   2.435   3.121   1.779
  731TIP3    H1 2150   2.352   3.134   1.732
  731TIP3    H2 2151   2.453   3.027   1.770
  732TIP3   OH2 2152   1.035   3.554   1.812
  732TIP3    H1 2153   1.089   3.539   1.890
  732TIP3    H2 2154   0.968   3.486   1.817
  733TIP3   OH2 2155   1.977   2.463   1.781
  733TIP3    H1 2156   2.042   2.442   1.848
  733TIP3    H2 2157   1.893   2.439   1.821
  734TIP3   OH2 2158   2.211   2.909   1.714
  734TIP3    H1 2159   2.155   2.901   1.791
  734TIP3    H2 2160   2.181   2.989   1.671
  735TIP3   OH2 2161   1.371   2.891   1.617
  735TIP3    H1 2162   1.352   2.923   1.705
  735TIP3    H2 2163   1.347   2.963   1.559
  736TIP3   OH2 2164   1.768   2.875   0.845
  736TIP3    H1 2165   1.685   2.919   0.828
  736TIP3    H2 2166   1.819   2.888   0.764
  737TIP3   OH2 2167   1.921   3.117   1.938
  737TIP3    H1 2168   1.894   3.048   1.998
  737TIP3    H2 2169   2.014   3.130   1.957
  738TIP3   OH2 2170   1.898   2.873   1.091
  738TIP3    H1 2171   1.845   2.905   1.017
  738TIP3    H2 2172   1.935   2.791   1.059
  739TIP3   OH2 2173   1.177   2.913   1.830
  739TIP3    H1 2174   1.231   2.963   1.892
  739TIP3    H2 2175   1.167   2.827   1.871
  740TIP3   OH2 2176   1.909   3.117   1.514
  740TIP3    H1 2177   1.942   3.051   1.454
  740TIP3    H2 2178   1.877   3.067   1.589
  741TIP3   OH2 2179   2.067   2.662   1.386
  741TIP3    H1 2180   2.045   2.675   1.478
  741TIP3    H2 2181   1.999   2.603   1.354
  742TIP3   OH2 2182   2.244   4.347   1.608
  742TIP3    H1 2183   2.238   4.369   1.515
  742TIP3    H2 2184   2.323   4.392   1.638
  743TIP3   OH2 2185   1.187   3.497   2.038
  743TIP3    H1 2186   1.257   3.431   2.039
  743TIP3    H2 2187   1.128   3.470   2.108
  744TIP3   OH2 2188   1.671   2.912   1.284
  744TIP3    H1 2189   1.744   2.876   1.234
  744TIP3    H2 2190   1.673   2.864   1.367
  745TIP3   OH2 2191   1.634   2.808   1.583
  745TIP3    H1 2192   1.547   2.847   1.592
  745TIP3    H2 2193   1.693   2.869   1.626
  746TIP3   OH2 2194   2.270   3.434   1.294
  746TIP3    H1 2195   2.294   3.485   1.217
  746TIP3    H2 2196   2.188   3.390   1.270
  747TIP3   OH2 2197   1.779   3.521   1.666
  747TIP3    H1 2198   1.788   3.489   1.756
  747TIP3    H2 2199   1.734   3.605   1.675
  748TIP3   OH2 2200   1.053   3.209   1.336
  748TIP3    H1 2201   1.105   3.181   1.262
  748TIP3    H2 2202   1.094   3.167   1.412
  749TIP3   OH2 2203   0.922   3.144   1.970
  749TIP3    H1 2204   0.959   3.104   2.049
  749TIP3    H2 2205   0.866   3.076   1.932
  750TIP3   OH2 2206   1.690   3.271   1.979
  750TIP3    H1 2207   1.612   3.218   1.962
  750TIP3    H2 2208   1.762   3.219   1.943
  751TIP3   OH2 2209   1.932   3.782   1.566
  751TIP3    H1 2210   1.837   3.771   1.575
  751TIP3    H2 2211   1.958   3.833   1.642
  752TIP3   OH2 2212   2.335   2.850   0.455
  752TIP3    H1 2213   2.263   2.799   0.416
  752TIP3    H2 2214   2.326   2.937   0.416
  753TIP3   OH2 2215   2.561   3.711   1.546
  753TIP3    H1 2216   2.466   3.703   1.543
  753TIP3    H2 2217   2.591   3.680   1.461
  754TIP3   OH2 2218   2.049   3.664   0.378
  754TIP3    H1 2219   2.011   3.597   0.435
  754TIP3    H2 2220   2.052   3.622   0.292
  755TIP3   OH2 2221   2.037   3.295   1.212
  755TIP3    H1 2222   1.945   3.272   1.227
  755TIP3    H2 2223   2.074   3.218   1.169
  756TIP3   OH2 2224   1.196   3.538   0.972
  756TIP3    H1 2225   1.176   3.627   0.941
  756TIP3    H2 2226   1.111   3.498   0.988
  757TIP3   OH2 2227   1.366   3.311   0.972
  757TIP3    H1 2228   1.329   3.399   0.960
  757TIP3    H2 2229   1.290   3.254   0.975
  758TIP3   OH2 2230   1.440   3.871   1.439
  758TIP3    H1 2231   1.473   3.942   1.384
  758TIP3    H2 2232   1.518   3.832   1.478
  759TIP3   OH2 2233   1.100   3.772   0.857
  759TIP3    H1 2234   1.008   3.782   0.882
  759TIP3    H2 2235   1.131   3.862   0.846
  760TIP3   OH2 2236   1.824   3.499   1.400
  760TIP3    H1 2237   1.814   3.500   1.495
  760TIP3    H2 2238   1.902   3.445   1.384
  761TIP3   OH2 2239   1.816   3.428   0.294
  761TIP3    H1 2240   1.868   3.399   0.370
  761TIP3    H2 2241   1.740   3.370   0.294
  762TIP3   OH2 2242   2.069   4.035   1.446
  762TIP3    H1 2243   1.992   3.978   1.443
  762TIP3    H2 2244   2.055   4.098   1.375
  763TIP3   OH2 2245   2.141   3.876   0.091
  763TIP3    H1 2246   2.195   3.947   0.057
  763TIP3    H2 2247   2.063   3.920   0.127
  764TIP3   OH2 2248   1.145   2.637   1.967
  764TIP3    H1 2249   1.050   2.643   1.975
  764TIP3    H2 2250   1.174   2.598   2.049
  765TIP3   OH2 2251   1.966   3.350   0.522
  765TIP3    H1 2252   1.942   3.272   0.571
  765TIP3    H2 2253   2.056   3.335   0.493
  766TIP3   OH2 2254   0.885   3.724   1.608
  766TIP3    H1 2255   0.936   3.659   1.657
  766TIP3    H2 2256   0.906   3.808   1.649
  767TIP3   OH2 2257   2.004   2.705   1.650
  767TIP3    H1 2258   2.086   2.739   1.684
  767TIP3    H2 2259   1.991   2.623   1.697
  768TIP3   OH2 2260   1.371   3.566   0.479
  768TIP3    H1 2261   1.359   3.585   0.572
  768TIP3    H2 2262   1.391   3.650   0.439
  769TIP3   OH2 2263   1.837   2.955   1.719
  769TIP3    H1 2264   1.856   3.007   1.797
  769TIP3    H2 2265   1.889   2.875   1.730
  770TIP3   OH2 2266   2.470   2.845   1.695
  770TIP3    H1 2267   2.378   2.862   1.716
  770TIP3    H2 2268   2.467   2.787   1.619
  771TIP3   OH2 2269   2.124   3.053   1.094
  771TIP3    H1 2270   2.048   2.996   1.105
  771TIP3    H2 2271   2.195   3.008   1.139
  772TIP3   OH2 2272   2.097   4.013   1.040
  772TIP3    H1 2273   2.050   4.058   0.970
  772TIP3    H2 2274   2.189   4.028   1.022
  773TIP3   OH2 2275   0.860   4.022   2.021
  773TIP3    H1 2276   0.942   3.982   2.049
  773TIP3    H2 2277   0.801   3.947   2.009
  774TIP3   OH2 2278   1.371   3.967   2.078
  774TIP3    H1 2279   1.451   3.967   2.026
  774TIP3    H2 2280   1.307   3.923   2.022
  775TIP3   OH2 2281   1.978   3.915   1.806
  775TIP3    H1 2282   1.974   3.843   1.869
  775TIP3    H2 2283   2.058   3.962   1.829
  776TIP3   OH2 2284   1.772   3.614   0.102
  776TIP3    H1 2285   1.792   3.558   0.177
  776TIP3    H2 2286   1.856   3.624   0.058
  777TIP3   OH2 2287   0.992   3.440   2.231
  777TIP3    H1 2288   1.008   3.350   2.260
  777TIP3    H2 2289   0.910   3.435   2.181
  778TIP3   OH2 2290   1.604   3.537   1.989
  778TIP3    H1 2291   1.552   3.545   1.909
  778TIP3    H2 2292   1.631   3.445   1.990
  779TIP3   OH2 2293   2.097   3.544   1.604
  779TIP3    H1 2294   2.171   3.585   1.558
  779TIP3    H2 2295   2.023   3.603   1.589
  780TIP3   OH2 2296   1.450   3.037   1.861
  780TIP3    H1 2297   1.419   3.098   1.928
  780TIP3    H2 2298   1.502   3.091   1.801
  781TIP3   OH2 2299   1.978   3.470   2.001
  781TIP3    H1 2300   2.040   3.429   1.941
  781TIP3    H2 2301   1.958   3.402   2.065
  782TIP3   OH2 2302   1.594   2.839   1.986
  782TIP3    H1 2303   1.580   2.764   1.930
  782TIP3    H2 2304   1.536   2.907   1.951
  783TIP3   OH2 2305   1.576   2.625   1.791
  783TIP3    H1 2306   1.600   2.679   1.716
  783TIP3    H2 2307   1.484   2.603   1.777
  784TIP3   OH2 2308   1.602   3.181   1.676
  784TIP3    H1 2309   1.685   3.189   1.629
  784TIP3    H2 2310   1.543   3.241   1.631
  785TIP3   OH2 2311   2.186   3.136   2.050
  785TIP3    H1 2312   2.229   3.051   2.057
  785TIP3    H2 2313   2.252   3.193   2.009
  786TIP3   OH2 2314   2.225   3.400   1.791
  786TIP3    H1 2315   2.166   3.450   1.734
  786TIP3    H2 2316   2.312   3.416   1.755
  787TIP3   OH2 2317   1.706   2.391   1.863
  787TIP3    H1 2318   1.668   2.477   1.843
  787TIP3    H2 2319   1.635   2.329   1.843
  788TIP3   OH2 2320   1.837   2.903   2.085
  788TIP3    H1 2321   1.820   2.895   2.179
  788TIP3    H2 2322   1.754   2.877   2.043
  789TIP3   OH2 2323   2.073   2.858   1.940
  789TIP3    H1 2324   2.000   2.859   2.001
  789TIP3    H2 2325   2.147   2.827   1.992
  790TIP3   OH2 2326   2.302   2.799   2.088
  790TIP3    H1 2327   2.314   2.705   2.099
  790TIP3    H2 2328   2.301   2.834   2.177
  791TIP3   OH2 2329   1.281   2.734   2.283
  791TIP3    H1 2330   1.297   2.642   2.261
  791TIP3    H2 2331   1.299   2.739   2.377
  792TIP3   OH2 2332   1.809   2.409   2.119
  792TIP3    H1 2333   1.875   2.340   2.113
  792TIP3    H2 2334   1.763   2.406   2.036
  793TIP3   OH2 2335   1.862   2.631   2.275
  793TIP3    H1 2336   1.846   2.562   2.210
  793TIP3    H2 2337   1.786   2.689   2.268
  794TIP3   OH2 2338   0.619   3.725   1.220
  794TIP3    H1 2339   0.655   3.666   1.287
  794TIP3    H2 2340   0.662   3.809   1.237
  795TIP3   OH2 2341   2.351   4.099   1.001
  795TIP3    H1 2342   2.377   4.133   1.087
  795TIP3    H2 2343   2.413   4.138   0.940
  796TIP3   OH2 2344   2.375   4.118   1.286
  796TIP3    H1 2345   2.328   4.036   1.277
  796TIP3    H2 2346   2.454   4.096   1.334
  797TIP3   OH2 2347   2.425   3.797   1.860
  797TIP3    H1 2348   2.351   3.806   1.919
  797TIP3    H2 2349   2.465   3.884   1.859
  798TIP3   OH2 2350   2.244   3.302   0.468
  798TIP3    H1 2351   2.304   3.370   0.438
  798TIP3    H2 2352   2.285   3.267   0.547
  799TIP3   OH2 2353   2.368   3.174   0.679
  799TIP3    H1 2354   2.300   3.135   0.735
  799TIP3    H2 2355   2.430   3.214   0.741
  800TIP3   OH2 2356   2.426   3.572   1.109
  800TIP3    H1 2357   2.474   3.503   1.064
  800TIP3    H2 2358   2.420   3.644   1.046
  801TIP3   OH2 2359   2.249   3.871   1.304
  801TIP3    H1 2360   2.178   3.912   1.353
  801TIP3    H2 2361   2.205   3.825   1.232
  802TIP3   OH2 2362   2.280   3.078   0.311
  802TIP3    H1 2363   2.219   3.093   0.238
  802TIP3    H2 2364   2.264   3.151   0.371
  803TIP3   OH2 2365   2.179   3.038   0.826
  803TIP3    H1 2366   2.171   2.944   0.811
  803TIP3    H2 2367   2.165   3.048   0.920
  804TIP3   OH2 2368   0.821   3.109   1.551
  804TIP3    H1 2369   0.840   3.051   1.477
  804TIP3    H2 2370   0.905   3.115   1.597
  805TIP3   OH2 2371   2.473   3.461   1.685
  805TIP3    H1 2372   2.540   3.393   1.675
  805TIP3    H2 2373   2.490   3.523   1.615
  806TIP3   OH2 2374   2.653   3.259   1.697
  806TIP3    H1 2375   2.577   3.212   1.730
  806TIP3    H2 2376   2.726   3.199   1.712
  807TIP3   OH2 2377   2.169   2.773   0.738
  807TIP3    H1 2378   2.206   2.692   0.774
  807TIP3    H2 2379   2.224   2.793   0.662
  808TIP3   OH2 2380   2.338   2.922   1.212
  808TIP3    H1 2381   2.420   2.945   1.169
  808TIP3    H2 2382   2.348   2.951   1.302
  809TIP3   OH2 2383   2.408   3.071   1.440
  809TIP3    H1 2384   2.331   3.100   1.489
  809TIP3    H2 2385   2.441   3.151   1.397
  810TIP3   OH2 2386   1.025   2.797   2.259
  810TIP3    H1 2387   1.120   2.792   2.249
  810TIP3    H2 2388   1.001   2.713   2.298
  811TIP3   OH2 2389   2.868   2.669   1.996
  811TIP3    H1 2390   2.925   2.602   1.958
  811TIP3    H2 2391   2.833   2.718   1.921
  812TIP3   OH2 2392   2.276   2.545   0.812
  812TIP3    H1 2393   2.334   2.503   0.876
  812TIP3    H2 2394   2.266   2.480   0.743
  813TIP3   OH2 2395   2.724   2.800   1.802
  813TIP3    H1 2396   2.637   2.835   1.819
  813TIP3    H2 2397   2.714   2.748   1.722
  814TIP3   OH2 2398   1.938   3.967   0.658
  814TIP3    H1 2399   1.981   3.954   0.573
  814TIP3    H2 2400   1.988   4.037   0.700
  815TIP3   OH2 2401   1.026   3.792   2.057
  815TIP3    H1 2402   0.941   3.761   2.024
  815TIP3    H2 2403   1.049   3.730   2.126
  816TIP3   OH2 2404   1.214   3.816   1.589
  816TIP3    H1 2405   1.162   3.886   1.548
  816TIP3    H2 2406   1.298   3.820   1.544
  817TIP3   OH2 2407   1.651   4.051   1.730
  817TIP3    H1 2408   1.695   4.049   1.815
  817TIP3    H2 2409   1.712   4.098   1.673
  818TIP3   OH2 2410   1.832   4.200   1.590
  818TIP3    H1 2411   1.895   4.151   1.538
  818TIP3    H2 2412   1.885   4.256   1.647
  819TIP3   OH2 2413   0.880   4.052   1.619
  819TIP3    H1 2414   0.797   4.085   1.583
  819TIP3    H2 2415   0.893   4.101   1.700
  820TIP3   OH2 2416   1.119   4.046   1.463
  820TIP3    H1 2417   1.033   4.059   1.503
  820TIP3    H2 2418   1.107   4.072   1.371
  821TIP3   OH2 2419   1.534   4.073   1.266
  821TIP3    H1 2420   1.459   4.088   1.208
  821TIP3    H2 2421   1.553   4.159   1.303
  822TIP3   OH2 2422   1.808   4.010   1.322
  822TIP3    H1 2423   1.716   4.025   1.300
  822TIP3    H2 2424   1.856   4.076   1.272
  823TIP3   OH2 2425   2.025   4.199   1.231
  823TIP3    H1 2426   2.008   4.281   1.185
  823TIP3    H2 2427   2.051   4.138   1.162
  824TIP3   OH2 2428   0.814   3.863   1.367
  824TIP3    H1 2429   0.839   3.838   1.456
  824TIP3    H2 2430   0.875   3.815   1.311
  825TIP3   OH2 2431   0.979   3.713   1.213
  825TIP3    H1 2432   0.997   3.633   1.263
  825TIP3    H2 2433   1.064   3.756   1.205
  826TIP3   OH2 2434   1.234   3.794   1.235
  826TIP3    H1 2435   1.287   3.716   1.217
  826TIP3    H2 2436   1.290   3.851   1.286
  827TIP3   OH2 2437   1.842   2.503   1.301
  827TIP3    H1 2438   1.787   2.452   1.360
  827TIP3    H2 2439   1.895   2.438   1.256
  828TIP3   OH2 2440   2.355   2.310   1.179
  828TIP3    H1 2441   2.404   2.374   1.127
  828TIP3    H2 2442   2.281   2.360   1.214
  829TIP3   OH2 2443   2.474   2.457   0.981
  829TIP3    H1 2444   2.543   2.404   0.940
  829TIP3    H2 2445   2.502   2.548   0.966
  830TIP3   OH2 2446   2.094   2.382   1.233
  830TIP3    H1 2447   2.064   2.426   1.153
  830TIP3    H2 2448   2.048   2.297   1.232
  831TIP3   OH2 2449   1.364   3.824   0.343
  831TIP3    H1 2450   1.448   3.824   0.297
  831TIP3    H2 2451   1.301   3.794   0.277
  832TIP3   OH2 2452   2.076   3.931   0.421
  832TIP3    H1 2453   2.073   3.836   0.413
  832TIP3    H2 2454   2.033   3.963   0.342
  833TIP3   OH2 2455   1.312   2.467   2.233
  833TIP3    H1 2456   1.274   2.397   2.286
  833TIP3    H2 2457   1.357   2.421   2.161
  834TIP3   OH2 2458   2.357   2.528   2.125
  834TIP3    H1 2459   2.372   2.494   2.214
  834TIP3    H2 2460   2.443   2.522   2.083
  835TIP3   OH2 2461   2.295   4.076   1.612
  835TIP3    H1 2462   2.222   4.044   1.558
  835TIP3    H2 2463   2.281   4.171   1.616
  836TIP3   OH2 2464   3.568   3.451   0.371
  836TIP3    H1 2465   3.542   3.541   0.354
  836TIP3    H2 2466   3.494   3.398   0.342
  837TIP3   OH2 2467   3.568   3.448   0.761
  837TIP3    H1 2468   3.604   3.429   0.848
  837TIP3    H2 2469   3.527   3.366   0.733
  838TIP3   OH2 2470   2.867   3.342   1.125
  838TIP3    H1 2471   2.895   3.273   1.185
  838TIP3    H2 2472   2.946   3.395   1.111
  839TIP3   OH2 2473   3.814   3.754   0.442
  839TIP3    H1 2474   3.798   3.688   0.508
  839TIP3    H2 2475   3.844   3.831   0.491
  840TIP3   OH2 2476   2.842   3.753   0.846
  840TIP3    H1 2477   2.831   3.658   0.847
  840TIP3    H2 2478   2.936   3.765   0.836
  841TIP3   OH2 2479   2.544   2.958   0.624
  841TIP3    H1 2480   2.506   3.043   0.646
  841TIP3    H2 2481   2.469   2.904   0.600
  842TIP3   OH2 2482   2.605   3.243   0.808
  842TIP3    H1 2483   2.653   3.167   0.840
  842TIP3    H2 2484   2.664   3.283   0.744
  843TIP3   OH2 2485   3.460   4.207   0.454
  843TIP3    H1 2486   3.505   4.140   0.403
  843TIP3    H2 2487   3.459   4.173   0.543
  844TIP3   OH2 2488   3.370   3.675   0.806
  844TIP3    H1 2489   3.406   3.598   0.762
  844TIP3    H2 2490   3.446   3.726   0.833
  845TIP3   OH2 2491   4.382   2.998   0.804
  845TIP3    H1 2492   4.411   3.077   0.850
  845TIP3    H2 2493   4.402   3.015   0.712
  846TIP3   OH2 2494   3.778   3.174   0.834
  846TIP3    H1 2495   3.822   3.092   0.858
  846TIP3    H2 2496   3.747   3.159   0.745
  847TIP3   OH2 2497   3.118   2.834   0.798
  847TIP3    H1 2498   3.101   2.908   0.740
  847TIP3    H2 2499   3.072   2.760   0.758
  848TIP3   OH2 2500   3.817   2.928   0.422
  848TIP3    H1 2501   3.883   2.912   0.489
  848TIP3    H2 2502   3.867   2.962   0.348
  849TIP3   OH2 2503   2.754   3.035   0.906
  849TIP3    H1 2504   2.833   3.020   0.958
  849TIP3    H2 2505   2.766   2.982   0.828
  850TIP3   OH2 2506   3.192   3.233   0.706
  850TIP3    H1 2507   3.285   3.213   0.717
  850TIP3    H2 2508   3.153   3.152   0.674
  851TIP3   OH2 2509   4.453   3.205   0.975
  851TIP3    H1 2510   4.370   3.249   0.956
  851TIP3    H2 2511   4.478   3.238   1.062
  852TIP3   OH2 2512   3.112   2.822   1.237
  852TIP3    H1 2513   3.055   2.857   1.168
  852TIP3    H2 2514   3.063   2.836   1.318
  853TIP3   OH2 2515   3.456   3.674   0.241
  853TIP3    H1 2516   3.416   3.660   0.156
  853TIP3    H2 2517   3.416   3.753   0.275
  854TIP3   OH2 2518   3.220   3.598   1.027
  854TIP3    H1 2519   3.162   3.664   1.065
  854TIP3    H2 2520   3.264   3.642   0.955
  855TIP3   OH2 2521   4.020   2.934   0.602
  855TIP3    H1 2522   4.001   2.891   0.686
  855TIP3    H2 2523   4.070   3.012   0.626
  856TIP3   OH2 2524   2.989   2.936   1.018
  856TIP3    H1 2525   3.047   3.007   1.045
  856TIP3    H2 2526   3.035   2.893   0.945
  857TIP3   OH2 2527   3.047   3.795   1.130
  857TIP3    H1 2528   3.027   3.879   1.090
  857TIP3    H2 2529   2.971   3.774   1.184
  858TIP3   OH2 2530   2.441   3.481   0.368
  858TIP3    H1 2531   2.402   3.502   0.284
  858TIP3    H2 2532   2.472   3.565   0.402
  859TIP3   OH2 2533   3.877   3.996   0.601
  859TIP3    H1 2534   3.791   3.987   0.641
  859TIP3    H2 2535   3.874   4.082   0.558
  860TIP3   OH2 2536   4.175   2.893   0.967
  860TIP3    H1 2537   4.089   2.923   0.937
  860TIP3    H2 2538   4.236   2.926   0.901
  861TIP3   OH2 2539   3.464   2.536   0.953
  861TIP3    H1 2540   3.452   2.442   0.969
  861TIP3    H2 2541   3.391   2.577   0.998
  862TIP3   OH2 2542   3.587   4.040   0.270
  862TIP3    H1 2543   3.630   3.956   0.255
  862TIP3    H2 2544   3.649   4.105   0.241
  863TIP3   OH2 2545   3.727   3.821   0.189
  863TIP3    H1 2546   3.681   3.745   0.156
  863TIP3    H2 2547   3.766   3.792   0.272
  864TIP3   OH2 2548   4.105   3.905   0.948
  864TIP3    H1 2549   4.095   3.829   0.890
  864TIP3    H2 2550   4.088   3.981   0.892
  865TIP3   OH2 2551   3.399   3.301   0.207
  865TIP3    H1 2552   3.322   3.354   0.190
  865TIP3    H2 2553   3.445   3.298   0.123
  866TIP3   OH2 2554   6.184   7.082   6.880
  866TIP3    H1 2555   6.251   7.145   6.906
  866TIP3    H2 2556   6.234   7.005   6.851
  867TIP3   OH2 2557   4.300   3.545   0.792
  867TIP3    H1 2558   4.218   3.595   0.800
  867TIP3    H2 2559   4.334   3.570   0.706
  868TIP3   OH2 2560   3.747   3.380   0.179
  868TIP3    H1 2561   3.692   3.405   0.253
  868TIP3    H2 2562   3.832   3.358   0.218
  869TIP3   OH2 2563   3.979   3.423   1.096
  869TIP3    H1 2564   3.981   3.504   1.147
  869TIP3    H2 2565   3.896   3.427   1.048
  870TIP3   OH2 2566   2.980   3.377   0.595
  870TIP3    H1 2567   2.942   3.322   0.527
  870TIP3    H2 2568   3.055   3.328   0.627
  871TIP3   OH2 2569   3.109   3.789   0.743
  871TIP3    H1 2570   3.089   3.759   0.654
  871TIP3    H2 2571   3.196   3.755   0.762
  872TIP3   OH2 2572   3.113   3.355   0.949
  872TIP3    H1 2573   3.146   3.328   0.863
  872TIP3    H2 2574   3.156   3.438   0.967
  873TIP3   OH2 2575   3.640   3.991   0.727
  873TIP3    H1 2576   3.628   4.071   0.778
  873TIP3    H2 2577   3.623   3.921   0.790
  874TIP3   OH2 2578   3.253   3.910   1.275
  874TIP3    H1 2579   3.194   3.972   1.320
  874TIP3    H2 2580   3.194   3.855   1.223
  875TIP3   OH2 2581   6.419   7.252   6.937
  875TIP3    H1 2582   6.474   7.308   6.992
  875TIP3    H2 2583   6.448   7.269   6.848
  876TIP3   OH2 2584   3.008   3.464   1.382
  876TIP3    H1 2585   3.014   3.551   1.420
  876TIP3    H2 2586   2.915   3.441   1.389
  877TIP3   OH2 2587   3.333   3.918   0.284
  877TIP3    H1 2588   3.412   3.971   0.291
  877TIP3    H2 2589   3.270   3.975   0.238
  878TIP3   OH2 2590   3.046   4.075   1.359
  878TIP3    H1 2591   3.016   4.080   1.269
  878TIP3    H2 2592   2.967   4.054   1.410
  879TIP3   OH2 2593   4.105   2.486   0.052
  879TIP3    H1 2594   4.024   2.504   0.100
  879TIP3    H2 2595   4.119   2.564  -0.002
  880TIP3   OH2 2596   2.848   3.223   0.387
  880TIP3    H1 2597   2.780   3.270   0.340
  880TIP3    H2 2598   2.806   3.142   0.415
  881TIP3   OH2 2599   2.625   3.608   1.307
  881TIP3    H1 2600   2.559   3.590   1.240
  881TIP3    H2 2601   2.662   3.522   1.328
  882TIP3   OH2 2602   2.482   3.801   0.941
  882TIP3    H1 2603   2.577   3.794   0.928
  882TIP3    H2 2604   2.471   3.880   0.994
  883TIP3   OH2 2605   4.339   4.254   1.000
  883TIP3    H1 2606   4.342   4.159   1.014
  883TIP3    H2 2607   4.259   4.281   1.044
  884TIP3   OH2 2608   3.449   4.039   1.133
  884TIP3    H1 2609   3.448   4.130   1.162
  884TIP3    H2 2610   3.381   3.996   1.184
  885TIP3   OH2 2611   3.205   4.165   0.085
  885TIP3    H1 2612   3.162   4.151   0.001
  885TIP3    H2 2613   3.180   4.255   0.110
  886TIP3   OH2 2614   2.650   4.013   0.471
  886TIP3    H1 2615   2.697   4.007   0.554
  886TIP3    H2 2616   2.599   3.933   0.467
  887TIP3   OH2 2617   0.596   0.020   6.711
  887TIP3    H1 2618   0.687  -0.006   6.695
  887TIP3    H2 2619   0.596   0.051   6.801
  888TIP3   OH2 2620   3.460   4.115   0.024
  888TIP3    H1 2621   3.372   4.128   0.058
  888TIP3    H2 2622   3.512   4.090   0.100
  889TIP3   OH2 2623   4.232   3.379   1.273
  889TIP3    H1 2624   4.151   3.392   1.224
  889TIP3    H2 2625   4.251   3.286   1.266
  890TIP3   OH2 2626   2.829   3.790   1.294
  890TIP3    H1 2627   2.879   3.775   1.374
  890TIP3    H2 2628   2.756   3.729   1.298
  891TIP3   OH2 2629   3.228   2.615   1.083
  891TIP3    H1 2630   3.143   2.583   1.053
  891TIP3    H2 2631   3.207   2.695   1.131
  892TIP3   OH2 2632   3.767   2.727   1.277
  892TIP3    H1 2633   3.836   2.701   1.338
  892TIP3    H2 2634   3.686   2.709   1.325
  893TIP3   OH2 2635   3.997   3.158   1.192
  893TIP3    H1 2636   3.950   3.155   1.275
  893TIP3    H2 2637   3.978   3.245   1.157
  894TIP3   OH2 2638   6.506   7.312   6.687
  894TIP3    H1 2639   6.498   7.276   6.598
  894TIP3    H2 2640   6.537   7.401   6.674
  895TIP3   OH2 2641   3.388   2.685   0.058
  895TIP3    H1 2642   3.353   2.674   0.146
  895TIP3    H2 2643   3.356   2.609   0.009
  896TIP3   OH2 2644   3.161   3.133   1.099
  896TIP3    H1 2645   3.113   3.151   1.180
  896TIP3    H2 2646   3.147   3.212   1.046
  897TIP3   OH2 2647   3.044   3.016   0.614
  897TIP3    H1 2648   2.954   2.992   0.635
  897TIP3    H2 2649   3.060   2.978   0.528
  898TIP3   OH2 2650   3.536   3.100   0.340
  898TIP3    H1 2651   3.486   3.170   0.299
  898TIP3    H2 2652   3.592   3.066   0.270
  899TIP3   OH2 2653   3.713   3.376   1.427
  899TIP3    H1 2654   3.690   3.305   1.486
  899TIP3    H2 2655   3.806   3.394   1.445
  900TIP3   OH2 2656   3.690   3.125   0.576
  900TIP3    H1 2657   3.628   3.157   0.510
  900TIP3    H2 2658   3.728   3.047   0.536
  901TIP3   OH2 2659   2.982   3.157   1.308
  901TIP3    H1 2660   3.015   3.220   1.373
  901TIP3    H2 2661   2.970   3.076   1.358
  902TIP3   OH2 2662   3.033   2.610   0.028
  902TIP3    H1 2663   3.041   2.621   0.123
  902TIP3    H2 2664   2.959   2.665   0.004
  903TIP3   OH2 2665   2.587   2.682   0.882
  903TIP3    H1 2666   2.646   2.719   0.948
  903TIP3    H2 2667   2.645   2.654   0.811
  904TIP3   OH2 2668   2.583   2.708   0.433
  904TIP3    H1 2669   2.636   2.733   0.357
  904TIP3    H2 2670   2.522   2.781   0.445
  905TIP3   OH2 2671   3.699   3.370   1.000
  905TIP3    H1 2672   3.735   3.304   0.940
  905TIP3    H2 2673   3.671   3.320   1.076
  906TIP3   OH2 2674   3.376   2.836   0.674
  906TIP3    H1 2675   3.296   2.836   0.727
  906TIP3    H2 2676   3.447   2.832   0.737
  907TIP3   OH2 2677   2.807   2.894   0.677
  907TIP3    H1 2678   2.716   2.902   0.649
  907TIP3    H2 2679   2.831   2.804   0.654
  908TIP3   OH2 2680   3.078   2.895   0.376
  908TIP3    H1 2681   3.171   2.908   0.359
  908TIP3    H2 2682   3.035   2.910   0.292
  909TIP3   OH2 2683   3.863   2.914   0.876
  909TIP3    H1 2684   3.836   2.929   0.967
  909TIP3    H2 2685   3.798   2.854   0.841
  910TIP3   OH2 2686   2.927   2.911   0.154
  910TIP3    H1 2687   2.832   2.905   0.143
  910TIP3    H2 2688   2.957   2.956   0.075
  911TIP3   OH2 2689   4.038   4.604   1.095
  911TIP3    H1 2690   4.034   4.627   1.002
  911TIP3    H2 2691   4.117   4.646   1.127
  912TIP3   OH2 2692   2.992   3.714   1.518
  912TIP3    H1 2693   3.073   3.741   1.561
  912TIP3    H2 2694   2.927   3.713   1.588
  913TIP3   OH2 2695   3.456   3.166   0.771
  913TIP3    H1 2696   3.530   3.131   0.722
  913TIP3    H2 2697   3.462   3.123   0.857
  914TIP3   OH2 2698   2.974   2.652   0.649
  914TIP3    H1 2699   2.936   2.578   0.698
  914TIP3    H2 2700   3.018   2.611   0.575
  915TIP3   OH2 2701   3.432   3.068   1.061
  915TIP3    H1 2702   3.344   3.103   1.075
  915TIP3    H2 2703   3.489   3.127   1.110
  916TIP3   OH2 2704   3.169   3.453   0.157
  916TIP3    H1 2705   3.097   3.391   0.142
  916TIP3    H2 2706   3.152   3.489   0.244
  917TIP3   OH2 2707   4.067   3.690   0.780
  917TIP3    H1 2708   4.093   3.741   0.703
  917TIP3    H2 2709   3.985   3.648   0.755
  918TIP3   OH2 2710   3.648   2.763   0.016
  918TIP3    H1 2711   3.555   2.739   0.016
  918TIP3    H2 2712   3.649   2.856   0.037
  919TIP3   OH2 2713   3.561   3.770   1.156
  919TIP3    H1 2714   3.605   3.758   1.240
  919TIP3    H2 2715   3.531   3.861   1.158
  920TIP3   OH2 2716   3.695   3.016   0.124
  920TIP3    H1 2717   3.789   3.019   0.140
  920TIP3    H2 2718   3.678   3.094   0.071
  921TIP3   OH2 2719   2.863   3.475   0.828
  921TIP3    H1 2720   2.899   3.449   0.743
  921TIP3    H2 2721   2.909   3.420   0.891
  922TIP3   OH2 2722   6.145   7.611   6.915
  922TIP3    H1 2723   6.102   7.697   6.920
  922TIP3    H2 2724   6.096   7.556   6.977
  923TIP3   OH2 2725   2.742   3.394   1.447
  923TIP3    H1 2726   2.759   3.379   1.540
  923TIP3    H2 2727   2.674   3.331   1.424
  924TIP3   OH2 2728   3.473   3.509   1.464
  924TIP3    H1 2729   3.411   3.454   1.416
  924TIP3    H2 2730   3.559   3.478   1.437
  925TIP3   OH2 2731   3.725   4.028   1.057
  925TIP3    H1 2732   3.630   4.031   1.065
  925TIP3    H2 2733   3.757   4.082   1.129
  926TIP3   OH2 2734   6.961   7.114   6.893
  926TIP3    H1 2735   6.903   7.069   6.832
  926TIP3    H2 2736   6.962   7.205   6.862
  927TIP3   OH2 2737   4.354   3.961   1.037
  927TIP3    H1 2738   4.259   3.958   1.032
  927TIP3    H2 2739   4.384   3.933   0.951
  928TIP3   OH2 2740   6.698   7.921   6.793
  928TIP3    H1 2741   6.663   7.875   6.870
  928TIP3    H2 2742   6.647   7.888   6.720
  929TIP3   OH2 2743   3.833   3.552   0.698
  929TIP3    H1 2744   3.740   3.531   0.713
  929TIP3    H2 2745   3.868   3.474   0.655
  930TIP3   OH2 2746   2.964   3.784   0.457
  930TIP3    H1 2747   2.965   3.863   0.403
  930TIP3    H2 2748   2.872   3.762   0.468
  931TIP3   OH2 2749   2.533   3.084   0.179
  931TIP3    H1 2750   2.573   3.171   0.189
  931TIP3    H2 2751   2.447   3.093   0.219
  932TIP3   OH2 2752   3.093   3.545   0.398
  932TIP3    H1 2753   3.063   3.634   0.415
  932TIP3    H2 2754   3.061   3.494   0.473
  933TIP3   OH2 2755   3.236   4.125   0.924
  933TIP3    H1 2756   3.274   4.197   0.873
  933TIP3    H2 2757   3.310   4.086   0.970
  934TIP3   OH2 2758   2.882   4.022   0.311
  934TIP3    H1 2759   2.797   4.030   0.355
  934TIP3    H2 2760   2.916   4.112   0.310
  935TIP3   OH2 2761   3.617   3.756   0.888
  935TIP3    H1 2762   3.604   3.754   0.983
  935TIP3    H2 2763   3.699   3.709   0.874
  936TIP3   OH2 2764   6.409   7.616   6.715
  936TIP3    H1 2765   6.475   7.613   6.784
  936TIP3    H2 2766   6.327   7.635   6.761
  937TIP3   OH2 2767   3.865   4.290   0.929
  937TIP3    H1 2768   3.785   4.237   0.923
  937TIP3    H2 2769   3.856   4.356   0.861
  938TIP3   OH2 2770   2.949   2.901   1.450
  938TIP3    H1 2771   2.854   2.906   1.458
  938TIP3    H2 2772   2.976   2.843   1.522
  939TIP3   OH2 2773   3.757   3.579  -0.017
  939TIP3    H1 2774   3.745   3.516   0.055
  939TIP3    H2 2775   3.852   3.583  -0.029
  940TIP3   OH2 2776   2.671   3.986   1.085
  940TIP3    H1 2777   2.724   3.912   1.116
  940TIP3    H2 2778   2.702   4.061   1.136
  941TIP3   OH2 2779   5.794   7.653   6.714
  941TIP3    H1 2780   5.809   7.566   6.676
  941TIP3    H2 2781   5.769   7.635   6.804
  942TIP3   OH2 2782   2.905   3.639   0.047
  942TIP3    H1 2783   2.980   3.616   0.102
  942TIP3    H2 2784   2.905   3.735   0.045
  943TIP3   OH2 2785   2.639   3.335   0.246
  943TIP3    H1 2786   2.574   3.378   0.303
  943TIP3    H2 2787   2.653   3.398   0.175
  944TIP3   OH2 2788   3.795   2.963   1.136
  944TIP3    H1 2789   3.872   3.006   1.171
  944TIP3    H2 2790   3.783   2.885   1.190
  945TIP3   OH2 2791   3.670   2.718   0.300
  945TIP3    H1 2792   3.662   2.735   0.206
  945TIP3    H2 2793   3.710   2.797   0.336
  946TIP3   OH2 2794   6.007   7.839   6.933
  946TIP3    H1 2795   5.923   7.868   6.968
  946TIP3    H2 2796   6.021   7.894   6.856
  947TIP3   OH2 2797   3.357   2.899   0.404
  947TIP3    H1 2798   3.419   2.969   0.384
  947TIP3    H2 2799   3.363   2.888   0.499
  948TIP3   OH2 2800   3.632   3.213   1.210
  948TIP3    H1 2801   3.654   3.266   1.287
  948TIP3    H2 2802   3.684   3.133   1.220
  949TIP3   OH2 2803   3.505   2.620   0.502
  949TIP3    H1 2804   3.500   2.693   0.564
  949TIP3    H2 2805   3.564   2.652   0.433
  950TIP3   OH2 2806   2.918   3.910   0.060
  950TIP3    H1 2807   2.891   3.977  -0.003
  950TIP3    H2 2808   2.903   3.951   0.146
  951TIP3   OH2 2809   3.034   2.638   0.307
  951TIP3    H1 2810   3.027   2.727   0.342
  951TIP3    H2 2811   3.128   2.617   0.313
  952TIP3   OH2 2812   4.264   3.115   1.192
  952TIP3    H1 2813   4.169   3.114   1.199
  952TIP3    H2 2814   4.282   3.074   1.108
  953TIP3   OH2 2815   3.920   3.307   0.579
  953TIP3    H1 2816   3.844   3.251   0.592
  953TIP3    H2 2817   3.991   3.264   0.626
  954TIP3   OH2 2818   2.637   3.540   0.053
  954TIP3    H1 2819   2.706   3.605   0.064
  954TIP3    H2 2820   2.673   3.477  -0.009
  955TIP3   OH2 2821   2.619   2.831   0.173
  955TIP3    H1 2822   2.592   2.922   0.177
  955TIP3    H2 2823   2.561   2.791   0.108
  956TIP3   OH2 2824   3.893   4.265   0.526
  956TIP3    H1 2825   3.845   4.311   0.457
  956TIP3    H2 2826   3.985   4.283   0.507
  957TIP3   OH2 2827   2.963   2.534   1.056
  957TIP3    H1 2828   2.933   2.504   0.971
  957TIP3    H2 2829   2.955   2.458   1.114
  958TIP3   OH2 2830   2.500   3.753   0.432
  958TIP3    H1 2831   2.436   3.780   0.497
  958TIP3    H2 2832   2.471   3.793   0.350
  959TIP3   OH2 2833   2.664   4.299   1.511
  959TIP3    H1 2834   2.749   4.301   1.555
  959TIP3    H2 2835   2.644   4.205   1.503
  960TIP3   OH2 2836   3.138   4.252   1.554
  960TIP3    H1 2837   3.233   4.244   1.559
  960TIP3    H2 2838   3.113   4.194   1.482
  961TIP3   OH2 2839   5.971   7.838   6.632
  961TIP3    H1 2840   5.892   7.790   6.657
  961TIP3    H2 2841   6.035   7.770   6.612
  962TIP3   OH2 2842   3.779   4.167   1.289
  962TIP3    H1 2843   3.773   4.098   1.356
  962TIP3    H2 2844   3.856   4.218   1.315
  963TIP3   OH2 2845   2.789   3.700   1.709
  963TIP3    H1 2846   2.809   3.607   1.710
  963TIP3    H2 2847   2.706   3.707   1.662
  964TIP3   OH2 2848   5.612   7.364   6.865
  964TIP3    H1 2849   5.684   7.337   6.923
  964TIP3    H2 2850   5.645   7.347   6.776
  965TIP3   OH2 2851   3.392   3.785   1.482
  965TIP3    H1 2852   3.358   3.810   1.396
  965TIP3    H2 2853   3.428   3.697   1.470
  966TIP3   OH2 2854   6.088   7.549   6.653
  966TIP3    H1 2855   6.107   7.582   6.741
  966TIP3    H2 2856   6.119   7.459   6.654
  967TIP3   OH2 2857   3.889   3.802   1.087
  967TIP3    H1 2858   3.968   3.838   1.046
  967TIP3    H2 2859   3.823   3.870   1.073
  968TIP3   OH2 2860   2.912   3.442   1.690
  968TIP3    H1 2861   2.985   3.391   1.654
  968TIP3    H2 2862   2.942   3.469   1.777
  969TIP3   OH2 2863   2.974   3.257   0.118
  969TIP3    H1 2864   2.947   3.228   0.205
  969TIP3    H2 2865   3.012   3.179   0.077
  970TIP3   OH2 2866   3.245   3.320   1.349
  970TIP3    H1 2867   3.169   3.378   1.350
  970TIP3    H2 2868   3.298   3.352   1.276
  971TIP3   OH2 2869   5.912   7.051   6.898
  971TIP3    H1 2870   5.909   7.023   6.806
  971TIP3    H2 2871   6.005   7.065   6.916
  972TIP3   OH2 2872   3.764   3.721   1.486
  972TIP3    H1 2873   3.842   3.696   1.436
  972TIP3    H2 2874   3.759   3.657   1.557
  973TIP3   OH2 2875   3.367   3.111   1.475
  973TIP3    H1 2876   3.370   3.032   1.421
  973TIP3    H2 2877   3.325   3.177   1.420
  974TIP3   OH2 2878   3.371   2.897   1.284
  974TIP3    H1 2879   3.402   2.938   1.203
  974TIP3    H2 2880   3.280   2.874   1.267
  975TIP3   OH2 2881   3.396   3.430   1.157
  975TIP3    H1 2882   3.482   3.444   1.119
  975TIP3    H2 2883   3.340   3.494   1.113
  976TIP3   OH2 2884   3.979   3.396   1.536
  976TIP3    H1 2885   4.026   3.314   1.552
  976TIP3    H2 2886   4.046   3.455   1.501
  977TIP3   OH2 2887   4.020   3.653   1.269
  977TIP3    H1 2888   3.961   3.705   1.214
  977TIP3    H2 2889   4.108   3.672   1.235
  978TIP3   OH2 2890   3.246   3.216   1.711
  978TIP3    H1 2891   3.182   3.147   1.727
  978TIP3    H2 2892   3.281   3.196   1.624
  979TIP3   OH2 2893   3.501   2.657   1.353
  979TIP3    H1 2894   3.455   2.738   1.331
  979TIP3    H2 2895   3.436   2.588   1.343
  980TIP3   OH2 2896   3.627   3.160   1.570
  980TIP3    H1 2897   3.621   3.145   1.665
  980TIP3    H2 2898   3.541   3.137   1.536
  981TIP3   OH2 2899   3.867   3.111   1.424
  981TIP3    H1 2900   3.794   3.113   1.486
  981TIP3    H2 2901   3.942   3.082   1.476
  982TIP3   OH2 2902   4.092   3.051   1.573
  982TIP3    H1 2903   4.109   2.958   1.588
  982TIP3    H2 2904   4.092   3.090   1.661
  983TIP3   OH2 2905   3.089   2.994   1.766
  983TIP3    H1 2906   3.089   2.906   1.729
  983TIP3    H2 2907   3.127   2.984   1.853
  984TIP3   OH2 2908   3.597   2.666   1.610
  984TIP3    H1 2909   3.663   2.598   1.608
  984TIP3    H2 2910   3.556   2.663   1.523
  985TIP3   OH2 2911   3.663   2.882   1.769
  985TIP3    H1 2912   3.645   2.812   1.707
  985TIP3    H2 2913   3.587   2.940   1.763
  986TIP3   OH2 2914   0.043   0.099   6.813
  986TIP3    H1 2915   0.134   0.102   6.783
  986TIP3    H2 2916  -0.007   0.141   6.743
  987TIP3   OH2 2917   2.366   3.497   0.101
  987TIP3    H1 2918   2.452   3.531   0.077
  987TIP3    H2 2919   2.356   3.417   0.050
  988TIP3   OH2 2920   2.282   4.102   0.500
  988TIP3    H1 2921   2.216   4.045   0.460
  988TIP3    H2 2922   2.326   4.046   0.564
  989TIP3   OH2 2923   2.416   3.952   0.688
  989TIP3    H1 2924   2.401   3.881   0.751
  989TIP3    H2 2925   2.469   4.016   0.737
  990TIP3   OH2 2926   4.147   4.352   0.488
  990TIP3    H1 2927   4.167   4.387   0.575
  990TIP3    H2 2928   4.202   4.404   0.428
  991TIP3   OH2 2929   4.169   4.374   0.770
  991TIP3    H1 2930   4.127   4.288   0.765
  991TIP3    H2 2931   4.248   4.359   0.822
  992TIP3   OH2 2932   4.218   4.056   1.343
  992TIP3    H1 2933   4.147   4.064   1.407
  992TIP3    H2 2934   4.262   4.140   1.345
  993TIP3   OH2 2935   6.868   7.567   6.908
  993TIP3    H1 2936   6.933   7.632   6.881
  993TIP3    H2 2937   6.907   7.525   6.985
  994TIP3   OH2 2938   4.165   3.428   0.169
  994TIP3    H1 2939   4.098   3.391   0.226
  994TIP3    H2 2940   4.228   3.468   0.228
  995TIP3   OH2 2941   4.219   3.828   0.594
  995TIP3    H1 2942   4.271   3.762   0.548
  995TIP3    H2 2943   4.215   3.902   0.533
  996TIP3   OH2 2944   4.043   4.124   0.791
  996TIP3    H1 2945   3.975   4.170   0.840
  996TIP3    H2 2946   3.997   4.081   0.719
  997TIP3   OH2 2947   6.925   7.354   6.746
  997TIP3    H1 2948   6.853   7.344   6.683
  997TIP3    H2 2949   6.898   7.428   6.800
  998TIP3   OH2 2950   6.809   7.026   6.686
  998TIP3    H1 2951   6.802   7.050   6.594
  998TIP3    H2 2952   6.777   6.937   6.691
  999TIP3   OH2 2953   3.975   3.291   0.312
  999TIP3    H1 2954   3.981   3.196   0.302
  999TIP3    H2 2955   3.960   3.304   0.406
 1000TIP3   OH2 2956   2.603   3.362   1.058
 1000TIP3    H1 2957   2.597   3.330   0.968
 1000TIP3    H2 2958   2.697   3.365   1.076
 1001TIP3   OH2 2959   4.267   3.716   1.167
 1001TIP3    H1 2960   4.336   3.650   1.157
 1001TIP3    H2 2961   4.293   3.787   1.108
 1002TIP3   OH2 2962   4.447   3.513   1.176
 1002TIP3    H1 2963   4.374   3.467   1.217
 1002TIP3    H2 2964   4.522   3.456   1.191
 1003TIP3   OH2 2965   6.745   6.761   6.711
 1003TIP3    H1 2966   6.830   6.728   6.741
 1003TIP3    H2 2967   6.681   6.719   6.768
 1004TIP3   OH2 2968   3.975   3.005   0.201
 1004TIP3    H1 2969   4.012   2.918   0.218
 1004TIP3    H2 2970   4.028   3.040   0.130
 1005TIP3   OH2 2971   4.135   3.180   0.701
 1005TIP3    H1 2972   4.217   3.201   0.657
 1005TIP3    H2 2973   4.144   3.215   0.789
 1006TIP3   OH2 2974   4.202   3.326   0.929
 1006TIP3    H1 2975   4.127   3.358   0.979
 1006TIP3    H2 2976   4.237   3.404   0.885
 1007TIP3   OH2 2977   2.826   3.054   1.745
 1007TIP3    H1 2978   2.921   3.045   1.739
 1007TIP3    H2 2979   2.795   2.970   1.779
 1008TIP3   OH2 2980   4.651   2.915   1.483
 1008TIP3    H1 2981   4.713   2.853   1.447
 1008TIP3    H2 2982   4.624   2.969   1.409
 1009TIP3   OH2 2983   4.082   2.756   0.243
 1009TIP3    H1 2984   4.130   2.743   0.324
 1009TIP3    H2 2985   4.021   2.682   0.239
 1010TIP3   OH2 2986   2.783   2.746   1.061
 1010TIP3    H1 2987   2.839   2.669   1.071
 1010TIP3    H2 2988   2.844   2.819   1.052
 1011TIP3   OH2 2989   2.583   3.015   1.131
 1011TIP3    H1 2990   2.631   3.014   1.048
 1011TIP3    H2 2991   2.609   3.097   1.173
 1012TIP3   OH2 2992   4.521   3.053   1.287
 1012TIP3    H1 2993   4.440   3.098   1.313
 1012TIP3    H2 2994   4.492   2.980   1.233
 1013TIP3   OH2 2995   7.005   6.696   6.800
 1013TIP3    H1 2996   7.052   6.649   6.732
 1013TIP3    H2 2997   7.056   6.775   6.815
 1014TIP3   OH2 2998   2.555   2.522   0.630
 1014TIP3    H1 2999   2.480   2.551   0.680
 1014TIP3    H2 3000   2.570   2.591   0.565
 1015TIP3   OH2 3001   3.741   4.221   0.146
 1015TIP3    H1 3002   3.776   4.213   0.057
 1015TIP3    H2 3003   3.778   4.303   0.180
 1016TIP3   OH2 3004   2.776   2.600   1.467
 1016TIP3    H1 3005   2.720   2.536   1.510
 1016TIP3    H2 3006   2.718   2.643   1.404
 1017TIP3   OH2 3007   2.825   4.031   1.522
 1017TIP3    H1 3008   2.734   4.004   1.506
 1017TIP3    H2 3009   2.840   4.013   1.614
 1018TIP3   OH2 3010   3.009   4.068   1.072
 1018TIP3    H1 3011   2.960   4.141   1.035
 1018TIP3    H2 3012   3.095   4.074   1.031
 1019TIP3   OH2 3013   3.449   4.306   1.213
 1019TIP3    H1 3014   3.489   4.304   1.300
 1019TIP3    H2 3015   3.512   4.355   1.159
 1020TIP3   OH2 3016   3.630   4.458   1.075
 1020TIP3    H1 3017   3.698   4.410   1.028
 1020TIP3    H2 3018   3.679   4.515   1.135
 1021TIP3   OH2 3019   4.424   2.814   1.170
 1021TIP3    H1 3020   4.335   2.807   1.136
 1021TIP3    H2 3021   4.460   2.725   1.163
 1022TIP3   OH2 3022   2.678   4.318   1.101
 1022TIP3    H1 3023   2.590   4.348   1.076
 1022TIP3    H2 3024   2.696   4.363   1.183
 1023TIP3   OH2 3025   2.916   4.297   0.957
 1023TIP3    H1 3026   2.831   4.308   1.000
 1023TIP3    H2 3027   2.902   4.327   0.868
 1024TIP3   OH2 3028   3.342   4.323   0.756
 1024TIP3    H1 3029   3.277   4.339   0.688
 1024TIP3    H2 3030   3.356   4.409   0.796
 1025TIP3   OH2 3031   3.612   4.261   0.807
 1025TIP3    H1 3032   3.520   4.280   0.789
 1025TIP3    H2 3033   3.661   4.331   0.763
 1026TIP3   OH2 3034   3.813   4.451   0.716
 1026TIP3    H1 3035   3.802   4.537   0.674
 1026TIP3    H2 3036   3.844   4.394   0.645
 1027TIP3   OH2 3037   2.595   4.108   0.844
 1027TIP3    H1 3038   2.618   4.084   0.933
 1027TIP3    H2 3039   2.663   4.068   0.790
 1028TIP3   OH2 3040   2.790   3.982   0.704
 1028TIP3    H1 3041   2.803   3.900   0.752
 1028TIP3    H2 3042   2.878   4.019   0.698
 1029TIP3   OH2 3043   3.056   4.073   0.710
 1029TIP3    H1 3044   3.085   3.984   0.694
 1029TIP3    H2 3045   3.103   4.100   0.789
 1030TIP3   OH2 3046   3.626   2.730   0.788
 1030TIP3    H1 3047   3.586   2.661   0.841
 1030TIP3    H2 3048   3.703   2.688   0.748
 1031TIP3   OH2 3049   4.148   2.612   0.691
 1031TIP3    H1 3050   4.186   2.664   0.620
 1031TIP3    H2 3051   4.055   2.633   0.689
 1032TIP3   OH2 3052   4.249   2.714   0.457
 1032TIP3    H1 3053   4.320   2.661   0.422
 1032TIP3    H2 3054   4.278   2.805   0.445
 1033TIP3   OH2 3055   2.873   2.445   0.811
 1033TIP3    H1 3056   2.786   2.409   0.794
 1033TIP3    H2 3057   2.932   2.370   0.803
 1034TIP3   OH2 3058   2.778   2.380   0.534
 1034TIP3    H1 3059   2.759   2.398   0.442
 1034TIP3    H2 3060   2.706   2.420   0.582
 1035TIP3   OH2 3061   3.327   2.471   0.687
 1035TIP3    H1 3062   3.381   2.519   0.624
 1035TIP3    H2 3063   3.347   2.511   0.772
 1036TIP3   OH2 3064   3.863   2.619   0.670
 1036TIP3    H1 3065   3.868   2.581   0.582
 1036TIP3    H2 3066   3.852   2.543   0.728
 1037TIP3   OH2 3067   3.899   2.543   0.235
 1037TIP3    H1 3068   3.813   2.585   0.241
 1037TIP3    H2 3069   3.887   2.459   0.280
 1038TIP3   OH2 3070   2.377   3.888   0.235
 1038TIP3    H1 3071   2.301   3.845   0.197
 1038TIP3    H2 3072   2.364   3.981   0.215
 1039TIP3   OH2 3073   2.800   2.501   0.269
 1039TIP3    H1 3074   2.848   2.427   0.232
 1039TIP3    H2 3075   2.869   2.565   0.291
 1040TIP3   OH2 3076   3.304   2.647   0.319
 1040TIP3    H1 3077   3.363   2.601   0.378
 1040TIP3    H2 3078   3.318   2.740   0.339
 1041TIP3   OH2 3079   0.316   0.070   6.747
 1041TIP3    H1 3080   0.408   0.088   6.728
 1041TIP3    H2 3081   0.295  -0.008   6.696
 1042TIP3   OH2 3082   1.038   0.178   6.843
 1042TIP3    H1 3083   1.033   0.085   6.823
 1042TIP3    H2 3084   1.032   0.221   6.757
 1043TIP3   OH2 3085   3.085   2.722   1.703
 1043TIP3    H1 3086   3.048   2.650   1.753
 1043TIP3    H2 3087   3.178   2.723   1.727
 1044TIP3   OH2 3088   3.336   2.718   1.819
 1044TIP3    H1 3089   3.420   2.697   1.778
 1044TIP3    H2 3090   3.323   2.649   1.884
 1045TIP3   OH2 3091   5.283   7.913   6.842
 1045TIP3    H1 3092   5.283   7.967   6.921
 1045TIP3    H2 3093   5.375   7.892   6.827
 1046TIP3   OH2 3094   4.164   2.782   1.605
 1046TIP3    H1 3095   4.178   2.752   1.695
 1046TIP3    H2 3096   4.251   2.778   1.565
 1047TIP3   OH2 3097   4.092   4.335   1.096
 1047TIP3    H1 3098   4.017   4.305   1.044
 1047TIP3    H2 3099   4.079   4.430   1.103
 1048TIP3   OH2 3100   5.359   3.699   0.247
 1048TIP3    H1 3101   5.398   3.691   0.334
 1048TIP3    H2 3102   5.314   3.615   0.234
 1049TIP3   OH2 3103   4.666   3.599   0.610
 1049TIP3    H1 3104   4.691   3.528   0.670
 1049TIP3    H2 3105   4.735   3.664   0.620
 1050TIP3   OH2 3106   4.635   4.003   0.330
 1050TIP3    H1 3107   4.625   3.908   0.336
 1050TIP3    H2 3108   4.730   4.017   0.332
 1051TIP3   OH2 3109   4.342   3.216   0.106
 1051TIP3    H1 3110   4.296   3.297   0.132
 1051TIP3    H2 3111   4.272   3.159   0.074
 1052TIP3   OH2 3112   4.402   3.500   0.293
 1052TIP3    H1 3113   4.447   3.423   0.328
 1052TIP3    H2 3114   4.470   3.551   0.251
 1053TIP3   OH2 3115   5.173   3.929   0.282
 1053TIP3    H1 3116   5.212   3.848   0.249
 1053TIP3    H2 3117   5.246   3.979   0.317
 1054TIP3   OH2 3118   6.183   3.257   0.289
 1054TIP3    H1 3119   6.200   3.329   0.349
 1054TIP3    H2 3120   6.261   3.253   0.234
 1055TIP3   OH2 3121   5.586   3.431   0.350
 1055TIP3    H1 3122   5.624   3.347   0.374
 1055TIP3    H2 3123   5.543   3.414   0.266
 1056TIP3   OH2 3124   4.918   3.087   0.290
 1056TIP3    H1 3125   4.891   3.167   0.245
 1056TIP3    H2 3126   4.869   3.017   0.247
 1057TIP3   OH2 3127   8.428   7.175   6.904
 1057TIP3    H1 3128   8.505   7.164   6.959
 1057TIP3    H2 3129   8.463   7.181   6.815
 1058TIP3   OH2 3130   4.549   3.293   0.395
 1058TIP3    H1 3131   4.628   3.278   0.446
 1058TIP3    H2 3132   4.557   3.235   0.320
 1059TIP3   OH2 3133   4.996   3.500   0.192
 1059TIP3    H1 3134   5.088   3.475   0.206
 1059TIP3    H2 3135   4.951   3.417   0.177
 1060TIP3   OH2 3136   6.245   3.460   0.462
 1060TIP3    H1 3137   6.161   3.504   0.447
 1060TIP3    H2 3138   6.270   3.488   0.550
 1061TIP3   OH2 3139   4.908   3.077   0.724
 1061TIP3    H1 3140   4.850   3.115   0.657
 1061TIP3    H2 3141   4.860   3.090   0.806
 1062TIP3   OH2 3142   5.015   3.856   0.515
 1062TIP3    H1 3143   4.955   3.919   0.555
 1062TIP3    H2 3144   5.055   3.905   0.443
 1063TIP3   OH2 3145   5.832   3.189   0.094
 1063TIP3    H1 3146   5.828   3.128   0.168
 1063TIP3    H2 3147   5.869   3.269   0.130
 1064TIP3   OH2 3148   4.784   3.193   0.505
 1064TIP3    H1 3149   4.841   3.265   0.533
 1064TIP3    H2 3150   4.835   3.146   0.438
 1065TIP3   OH2 3151   4.841   4.050   0.614
 1065TIP3    H1 3152   4.824   4.137   0.577
 1065TIP3    H2 3153   4.767   4.032   0.671
 1066TIP3   OH2 3154   7.060   7.745   6.816
 1066TIP3    H1 3155   7.001   7.770   6.745
 1066TIP3    H2 3156   7.067   7.823   6.871
 1067TIP3   OH2 3157   5.969   3.155   0.458
 1067TIP3    H1 3158   5.880   3.179   0.430
 1067TIP3    H2 3159   6.025   3.183   0.385
 1068TIP3   OH2 3160   5.258   2.790   0.439
 1068TIP3    H1 3161   5.249   2.697   0.460
 1068TIP3    H2 3162   5.186   2.832   0.485
 1069TIP3   OH2 3163   5.901   4.172   0.445
 1069TIP3    H1 3164   5.896   4.096   0.387
 1069TIP3    H2 3165   5.878   4.247   0.389
 1070TIP3   OH2 3166   6.094   3.801   0.321
 1070TIP3    H1 3167   6.022   3.860   0.303
 1070TIP3    H2 3168   6.130   3.780   0.234
 1071TIP3   OH2 3169   5.773   3.681   0.581
 1071TIP3    H1 3170   5.778   3.759   0.636
 1071TIP3    H2 3171   5.689   3.689   0.537
 1072TIP3   OH2 3172   4.773   3.616   0.089
 1072TIP3    H1 3173   4.736   3.547   0.034
 1072TIP3    H2 3174   4.852   3.578   0.126
 1073TIP3   OH2 3175   4.902   4.023   0.254
 1073TIP3    H1 3176   4.878   4.009   0.163
 1073TIP3    H2 3177   4.995   4.000   0.258
 1074TIP3   OH2 3178   4.914   3.613   0.434
 1074TIP3    H1 3179   4.951   3.592   0.348
 1074TIP3    H2 3180   4.953   3.697   0.458
 1075TIP3   OH2 3181   5.451   4.227   0.210
 1075TIP3    H1 3182   5.433   4.309   0.255
 1075TIP3    H2 3183   5.424   4.159   0.271
 1076TIP3   OH2 3184   5.052   4.158   0.759
 1076TIP3    H1 3185   4.997   4.220   0.807
 1076TIP3    H2 3186   4.991   4.105   0.708
 1077TIP3   OH2 3187   4.803   3.721   0.863
 1077TIP3    H1 3188   4.814   3.808   0.903
 1077TIP3    H2 3189   4.711   3.699   0.880
 1078TIP3   OH2 3190   4.838   4.299   0.838
 1078TIP3    H1 3191   4.798   4.327   0.756
 1078TIP3    H2 3192   4.769   4.309   0.904
 1079TIP3   OH2 3193   7.430   7.470   6.855
 1079TIP3    H1 3194   7.350   7.520   6.875
 1079TIP3    H2 3195   7.407   7.379   6.872
 1080TIP3   OH2 3196   4.420   3.862   0.796
 1080TIP3    H1 3197   4.355   3.843   0.728
 1080TIP3    H2 3198   4.458   3.777   0.817
 1081TIP3   OH2 3199   4.279   4.062   0.426
 1081TIP3    H1 3200   4.374   4.056   0.422
 1081TIP3    H2 3201   4.262   4.138   0.482
 1082TIP3   OH2 3202   6.143   4.503   0.507
 1082TIP3    H1 3203   6.147   4.408   0.518
 1082TIP3    H2 3204   6.065   4.529   0.555
 1083TIP3   OH2 3205   5.245   4.293   0.619
 1083TIP3    H1 3206   5.246   4.384   0.649
 1083TIP3    H2 3207   5.178   4.251   0.673
 1084TIP3   OH2 3208   4.426   4.248  -0.027
 1084TIP3    H1 3209   4.502   4.254   0.032
 1084TIP3    H2 3210   4.352   4.233   0.031
 1085TIP3   OH2 3211   6.029   3.635   0.760
 1085TIP3    H1 3212   5.944   3.649   0.718
 1085TIP3    H2 3213   6.046   3.542   0.751
 1086TIP3   OH2 3214   4.625   4.044   0.777
 1086TIP3    H1 3215   4.676   4.037   0.858
 1086TIP3    H2 3216   4.552   3.984   0.790
 1087TIP3   OH2 3217   5.023   2.873   0.568
 1087TIP3    H1 3218   4.938   2.840   0.538
 1087TIP3    H2 3219   5.001   2.951   0.620
 1088TIP3   OH2 3220   5.562   2.982   0.765
 1088TIP3    H1 3221   5.631   2.957   0.826
 1088TIP3    H2 3222   5.481   2.965   0.812
 1089TIP3   OH2 3223   5.794   3.418   0.682
 1089TIP3    H1 3224   5.746   3.411   0.764
 1089TIP3    H2 3225   5.770   3.504   0.647
 1090TIP3   OH2 3226   4.956   3.391   0.585
 1090TIP3    H1 3227   4.911   3.409   0.667
 1090TIP3    H2 3228   4.943   3.470   0.532
 1091TIP3   OH2 3229   4.827   3.287   0.135
 1091TIP3    H1 3230   4.736   3.267   0.157
 1091TIP3    H2 3231   4.847   3.228   0.062
 1092TIP3   OH2 3232   5.508   3.631   0.911
 1092TIP3    H1 3233   5.485   3.561   0.972
 1092TIP3    H2 3234   5.599   3.653   0.933
 1093TIP3   OH2 3235   5.492   3.386   0.098
 1093TIP3    H1 3236   5.458   3.424   0.018
 1093TIP3    H2 3237   5.530   3.302   0.071
 1094TIP3   OH2 3238   4.778   3.413   0.795
 1094TIP3    H1 3239   4.807   3.479   0.857
 1094TIP3    H2 3240   4.768   3.334   0.847
 1095TIP3   OH2 3241   4.372   2.937   0.372
 1095TIP3    H1 3242   4.444   2.967   0.427
 1095TIP3    H2 3243   4.414   2.899   0.295
 1096TIP3   OH2 3244   7.166   6.927   6.842
 1096TIP3    H1 3245   7.212   6.954   6.762
 1096TIP3    H2 3246   7.105   6.999   6.860
 1097TIP3   OH2 3247   5.487   3.635   0.492
 1097TIP3    H1 3248   5.530   3.569   0.437
 1097TIP3    H2 3249   5.459   3.587   0.570
 1098TIP3   OH2 3250   5.172   3.098   0.167
 1098TIP3    H1 3251   5.091   3.092   0.219
 1098TIP3    H2 3252   5.242   3.091   0.231
 1099TIP3   OH2 3253   4.599   3.147   0.168
 1099TIP3    H1 3254   4.508   3.156   0.139
 1099TIP3    H2 3255   4.624   3.058   0.145
 1100TIP3   OH2 3256   7.702   7.142   6.859
 1100TIP3    H1 3257   7.795   7.120   6.853
 1100TIP3    H2 3258   7.692   7.219   6.803
 1101TIP3   OH2 3259   5.662   3.165   0.361
 1101TIP3    H1 3260   5.638   3.177   0.453
 1101TIP3    H2 3261   5.595   3.106   0.326
 1102TIP3   OH2 3262   5.845   4.857   0.596
 1102TIP3    H1 3263   5.830   4.872   0.503
 1102TIP3    H2 3264   5.926   4.904   0.615
 1103TIP3   OH2 3265   4.791   3.966   1.005
 1103TIP3    H1 3266   4.871   3.999   1.046
 1103TIP3    H2 3267   4.725   3.969   1.075
 1104TIP3   OH2 3268   5.252   3.425   0.266
 1104TIP3    H1 3269   5.331   3.391   0.224
 1104TIP3    H2 3270   5.250   3.383   0.352
 1105TIP3   OH2 3271   4.773   2.906   0.144
 1105TIP3    H1 3272   4.732   2.834   0.193
 1105TIP3    H2 3273   4.835   2.863   0.086
 1106TIP3   OH2 3274   5.228   3.331   0.541
 1106TIP3    H1 3275   5.140   3.362   0.561
 1106TIP3    H2 3276   5.286   3.386   0.594
 1107TIP3   OH2 3277   5.861   3.955   0.279
 1107TIP3    H1 3278   5.829   4.002   0.201
 1107TIP3    H2 3279   5.787   3.900   0.305
 1108TIP3   OH2 3280   5.362   4.030   0.643
 1108TIP3    H1 3281   5.393   4.015   0.732
 1108TIP3    H2 3282   5.323   4.118   0.645
 1109TIP3   OH2 3283   4.650   3.720   0.320
 1109TIP3    H1 3284   4.695   3.695   0.239
 1109TIP3    H2 3285   4.699   3.676   0.389
 1110TIP3   OH2 3286   4.542   3.650   0.934
 1110TIP3    H1 3287   4.564   3.642   1.027
 1110TIP3    H2 3288   4.473   3.585   0.920
 1111TIP3   OH2 3289   5.269   3.767   0.948
 1111TIP3    H1 3290   5.207   3.705   0.907
 1111TIP3    H2 3291   5.355   3.735   0.923
 1112TIP3   OH2 3292   5.523   4.283   0.539
 1112TIP3    H1 3293   5.427   4.287   0.548
 1112TIP3    H2 3294   5.556   4.333   0.613
 1113TIP3   OH2 3295   6.151   4.221   0.533
 1113TIP3    H1 3296   6.055   4.222   0.534
 1113TIP3    H2 3297   6.173   4.187   0.446
 1114TIP3   OH2 3298   5.633   3.799   0.234
 1114TIP3    H1 3299   5.538   3.801   0.222
 1114TIP3    H2 3300   5.660   3.716   0.196
 1115TIP3   OH2 3301   4.747   4.023   0.000
 1115TIP3    H1 3302   4.796   4.103  -0.021
 1115TIP3    H2 3303   4.667   4.055   0.043
 1116TIP3   OH2 3304   7.172   7.333   6.632
 1116TIP3    H1 3305   7.176   7.415   6.583
 1116TIP3    H2 3306   7.089   7.338   6.680
 1117TIP3   OH2 3307   7.710   7.807   6.852
 1117TIP3    H1 3308   7.660   7.880   6.889
 1117TIP3    H2 3309   7.691   7.733   6.910
 1118TIP3   OH2 3310   5.036   4.373   0.414
 1118TIP3    H1 3311   5.071   4.450   0.369
 1118TIP3    H2 3312   5.108   4.342   0.468
 1119TIP3   OH2 3313   5.417   4.002   0.380
 1119TIP3    H1 3314   5.398   4.010   0.473
 1119TIP3    H2 3315   5.505   3.964   0.376
 1120TIP3   OH2 3316   5.655   4.552   0.423
 1120TIP3    H1 3317   5.582   4.491   0.426
 1120TIP3    H2 3318   5.636   4.608   0.347
 1121TIP3   OH2 3319   4.749   3.155   0.939
 1121TIP3    H1 3320   4.654   3.160   0.952
 1121TIP3    H2 3321   4.781   3.103   1.013
 1122TIP3   OH2 3322   4.470   4.240   0.573
 1122TIP3    H1 3323   4.525   4.173   0.614
 1122TIP3    H2 3324   4.491   4.321   0.618
 1123TIP3   OH2 3325   5.599   3.212   0.618
 1123TIP3    H1 3326   5.667   3.260   0.663
 1123TIP3    H2 3327   5.581   3.136   0.674
 1124TIP3   OH2 3328   7.976   7.147   6.841
 1124TIP3    H1 3329   8.015   7.230   6.812
 1124TIP3    H2 3330   7.996   7.143   6.935
 1125TIP3   OH2 3331   5.429   3.470   0.699
 1125TIP3    H1 3332   5.447   3.528   0.773
 1125TIP3    H2 3333   5.480   3.391   0.717
 1126TIP3   OH2 3334   5.314   2.886   0.005
 1126TIP3    H1 3335   5.302   2.944   0.081
 1126TIP3    H2 3336   5.379   2.931  -0.049
 1127TIP3   OH2 3337   7.641   6.896   6.719
 1127TIP3    H1 3338   7.623   6.965   6.783
 1127TIP3    H2 3339   7.728   6.864   6.741
 1128TIP3   OH2 3340   6.059   3.368   0.677
 1128TIP3    H1 3341   5.964   3.373   0.689
 1128TIP3    H2 3342   6.070   3.316   0.598
 1129TIP3   OH2 3343   5.713   3.565   0.108
 1129TIP3    H1 3344   5.636   3.510   0.123
 1129TIP3    H2 3345   5.785   3.517   0.149
 1130TIP3   OH2 3346   7.215   7.066   6.610
 1130TIP3    H1 3347   7.204   7.160   6.624
 1130TIP3    H2 3348   7.143   7.042   6.551
 1131TIP3   OH2 3349   4.761   2.788   0.539
 1131TIP3    H1 3350   4.731   2.754   0.455
 1131TIP3    H2 3351   4.752   2.714   0.599
 1132TIP3   OH2 3352   1.430  -0.016   6.913
 1132TIP3    H1 3353   1.393   0.036   6.985
 1132TIP3    H2 3354   1.479   0.048   6.861
 1133TIP3   OH2 3355   4.456   4.547   0.995
 1133TIP3    H1 3356   4.546   4.537   1.026
 1133TIP3    H2 3357   4.422   4.457   0.990
 1134TIP3   OH2 3358   5.588   4.416   0.767
 1134TIP3    H1 3359   5.576   4.351   0.837
 1134TIP3    H2 3360   5.656   4.475   0.801
 1135TIP3   OH2 3361   4.586   3.957   1.193
 1135TIP3    H1 3362   4.603   3.863   1.200
 1135TIP3    H2 3363   4.501   3.962   1.149
 1136TIP3   OH2 3364   5.194   4.042   0.967
 1136TIP3    H1 3365   5.154   4.067   0.884
 1136TIP3    H2 3366   5.223   3.952   0.954
 1137TIP3   OH2 3367   5.685   4.054   0.568
 1137TIP3    H1 3368   5.762   4.101   0.536
 1137TIP3    H2 3369   5.614   4.119   0.562
 1138TIP3   OH2 3370   4.710   3.690   1.179
 1138TIP3    H1 3371   4.789   3.645   1.151
 1138TIP3    H2 3372   4.733   3.727   1.265
 1139TIP3   OH2 3373   5.041   3.576   0.833
 1139TIP3    H1 3374   4.965   3.634   0.837
 1139TIP3    H2 3375   5.093   3.609   0.760
 1140TIP3   OH2 3376   5.556   3.974   0.970
 1140TIP3    H1 3377   5.640   3.954   0.930
 1140TIP3    H2 3378   5.549   3.914   1.045
 1141TIP3   OH2 3379   5.165   3.368   0.960
 1141TIP3    H1 3380   5.167   3.289   0.906
 1141TIP3    H2 3381   5.122   3.433   0.906
 1142TIP3   OH2 3382   5.168   3.154   0.768
 1142TIP3    H1 3383   5.196   3.194   0.686
 1142TIP3    H2 3384   5.076   3.131   0.753
 1143TIP3   OH2 3385   5.191   3.684   0.638
 1143TIP3    H1 3386   5.278   3.705   0.605
 1143TIP3    H2 3387   5.134   3.750   0.598
 1144TIP3   OH2 3388   5.774   3.652   1.021
 1144TIP3    H1 3389   5.822   3.573   1.046
 1144TIP3    H2 3390   5.841   3.713   0.991
 1145TIP3   OH2 3391   5.817   3.906   0.752
 1145TIP3    H1 3392   5.757   3.958   0.699
 1145TIP3    H2 3393   5.904   3.928   0.718
 1146TIP3   OH2 3394   5.041   3.471   1.194
 1146TIP3    H1 3395   4.975   3.405   1.212
 1146TIP3    H2 3396   5.077   3.447   1.109
 1147TIP3   OH2 3397   5.297   2.913   0.838
 1147TIP3    H1 3398   5.250   2.994   0.818
 1147TIP3    H2 3399   5.231   2.844   0.830
 1148TIP3   OH2 3400   5.425   3.415   1.057
 1148TIP3    H1 3401   5.419   3.404   1.151
 1148TIP3    H2 3402   5.338   3.394   1.024
 1149TIP3   OH2 3403   5.661   3.360   0.908
 1149TIP3    H1 3404   5.589   3.368   0.971
 1149TIP3    H2 3405   5.737   3.335   0.961
 1150TIP3   OH2 3406   5.893   3.308   1.056
 1150TIP3    H1 3407   5.906   3.214   1.073
 1150TIP3    H2 3408   5.888   3.348   1.143
 1151TIP3   OH2 3409   4.883   3.251   1.252
 1151TIP3    H1 3410   4.886   3.161   1.219
 1151TIP3    H2 3411   4.921   3.245   1.340
 1152TIP3   OH2 3412   5.394   2.924   1.095
 1152TIP3    H1 3413   5.460   2.854   1.094
 1152TIP3    H2 3414   5.353   2.919   1.009
 1153TIP3   OH2 3415   5.460   3.141   1.254
 1153TIP3    H1 3416   5.440   3.070   1.193
 1153TIP3    H2 3417   5.383   3.198   1.250
 1154TIP3   OH2 3418   1.238   0.343   6.929
 1154TIP3    H1 3419   1.170   0.290   6.888
 1154TIP3    H2 3420   1.278   0.284   6.993
 1155TIP3   OH2 3421   4.228   4.202   0.170
 1155TIP3    H1 3422   4.202   4.139   0.239
 1155TIP3    H2 3423   4.268   4.274   0.218
 1156TIP3   OH2 3424   5.974   4.630   0.316
 1156TIP3    H1 3425   5.930   4.546   0.328
 1156TIP3    H2 3426   6.051   4.625   0.373
 1157TIP3   OH2 3427   6.014   4.310   0.830
 1157TIP3    H1 3428   5.943   4.317   0.893
 1157TIP3    H2 3429   6.057   4.396   0.832
 1158TIP3   OH2 3430   5.829   4.390   0.290
 1158TIP3    H1 3431   5.762   4.433   0.344
 1158TIP3    H2 3432   5.791   4.389   0.202
 1159TIP3   OH2 3433   4.401   3.619   0.545
 1159TIP3    H1 3434   4.394   3.588   0.455
 1159TIP3    H2 3435   4.495   3.621   0.563
 1160TIP3   OH2 3436   6.063   3.972   0.653
 1160TIP3    H1 3437   6.132   3.906   0.643
 1160TIP3    H2 3438   6.090   4.043   0.594
 1161TIP3   OH2 3439   6.243   3.769   0.666
 1161TIP3    H1 3440   6.169   3.724   0.706
 1161TIP3    H2 3441   6.317   3.710   0.680
 1162TIP3   OH2 3442   5.935   3.430   0.194
 1162TIP3    H1 3443   6.010   3.454   0.141
 1162TIP3    H2 3444   5.954   3.466   0.280
 1163TIP3   OH2 3445   5.990   3.574   0.421
 1163TIP3    H1 3446   5.914   3.598   0.473
 1163TIP3    H2 3447   6.029   3.658   0.394
 1164TIP3   OH2 3448   4.618   3.302   1.214
 1164TIP3    H1 3449   4.714   3.302   1.220
 1164TIP3    H2 3450   4.591   3.219   1.254
 1165TIP3   OH2 3451   6.452   3.175   0.970
 1165TIP3    H1 3452   6.511   3.111   0.932
 1165TIP3    H2 3453   6.421   3.227   0.896
 1166TIP3   OH2 3454   4.579   2.998   0.544
 1166TIP3    H1 3455   4.637   2.923   0.556
 1166TIP3    H2 3456   4.639   3.073   0.540
 1167TIP3   OH2 3457   4.378   3.272   0.619
 1167TIP3    H1 3458   4.428   3.272   0.537
 1167TIP3    H2 3459   4.402   3.354   0.662
 1168TIP3   OH2 3460   6.317   3.310   0.776
 1168TIP3    H1 3461   6.238   3.355   0.807
 1168TIP3    H2 3462   6.283   3.239   0.721
 1169TIP3   OH2 3463   4.364   2.772   0.126
 1169TIP3    H1 3464   4.274   2.766   0.156
 1169TIP3    H2 3465   4.361   2.830   0.051
 1170TIP3   OH2 3466   4.582   2.856   0.936
 1170TIP3    H1 3467   4.535   2.852   1.019
 1170TIP3    H2 3468   4.518   2.893   0.874
 1171TIP3   OH2 3469   4.617   4.293   1.013
 1171TIP3    H1 3470   4.526   4.263   1.005
 1171TIP3    H2 3471   4.640   4.275   1.104
 1172TIP3   OH2 3472   4.799   4.318   0.547
 1172TIP3    H1 3473   4.753   4.394   0.514
 1172TIP3    H2 3474   4.889   4.328   0.514
 1173TIP3   OH2 3475   5.244   4.558   0.697
 1173TIP3    H1 3476   5.279   4.557   0.786
 1173TIP3    H2 3477   5.301   4.619   0.650
 1174TIP3   OH2 3478   5.417   4.727   0.568
 1174TIP3    H1 3479   5.479   4.667   0.527
 1174TIP3    H2 3480   5.470   4.780   0.627
 1175TIP3   OH2 3481   6.219   3.068   0.658
 1175TIP3    H1 3482   6.128   3.058   0.628
 1175TIP3    H2 3483   6.255   2.979   0.653
 1176TIP3   OH2 3484   4.473   4.570   0.591
 1176TIP3    H1 3485   4.385   4.600   0.567
 1176TIP3    H2 3486   4.497   4.623   0.666
 1177TIP3   OH2 3487   4.709   4.555   0.445
 1177TIP3    H1 3488   4.626   4.565   0.492
 1177TIP3    H2 3489   4.692   4.592   0.359
 1178TIP3   OH2 3490   5.135   4.579   0.257
 1178TIP3    H1 3491   5.055   4.588   0.205
 1178TIP3    H2 3492   5.151   4.666   0.292
 1179TIP3   OH2 3493   5.394   4.519   0.323
 1179TIP3    H1 3494   5.300   4.522   0.309
 1179TIP3    H2 3495   5.427   4.597   0.278
 1180TIP3   OH2 3496   4.392   4.359   0.329
 1180TIP3    H1 3497   4.410   4.337   0.420
 1180TIP3    H2 3498   4.464   4.320   0.280
 1181TIP3   OH2 3499   4.590   4.230   0.191
 1181TIP3    H1 3500   4.599   4.153   0.247
 1181TIP3    H2 3501   4.672   4.278   0.203
 1182TIP3   OH2 3502   4.836   4.340   0.216
 1182TIP3    H1 3503   4.880   4.297   0.142
 1182TIP3    H2 3504   4.898   4.331   0.289
 1183TIP3   OH2 3505   5.417   2.978   0.266
 1183TIP3    H1 3506   5.380   2.913   0.326
 1183TIP3    H2 3507   5.497   2.937   0.233
 1184TIP3   OH2 3508   5.941   2.891   0.187
 1184TIP3    H1 3509   5.973   2.899   0.097
 1184TIP3    H2 3510   5.845   2.892   0.178
 1185TIP3   OH2 3511   4.672   2.693   0.291
 1185TIP3    H1 3512   4.581   2.664   0.296
 1185TIP3    H2 3513   4.722   2.611   0.289
 1186TIP3   OH2 3514   7.281   6.571   6.878
 1186TIP3    H1 3515   7.326   6.624   6.813
 1186TIP3    H2 3516   7.259   6.633   6.948
 1187TIP3   OH2 3517   5.117   2.731   0.181
 1187TIP3    H1 3518   5.179   2.778   0.125
 1187TIP3    H2 3519   5.139   2.760   0.270
 1188TIP3   OH2 3520   5.661   2.870   0.153
 1188TIP3    H1 3521   5.671   2.824   0.070
 1188TIP3    H2 3522   5.651   2.799   0.218
 1189TIP3   OH2 3523   7.421   6.716   6.695
 1189TIP3    H1 3524   7.420   6.690   6.603
 1189TIP3    H2 3525   7.492   6.780   6.701
 1190TIP3   OH2 3526   7.895   6.885   6.809
 1190TIP3    H1 3527   7.963   6.833   6.851
 1190TIP3    H2 3528   7.933   6.973   6.800
 1191TIP3   OH2 3529   4.883   2.975   1.184
 1191TIP3    H1 3530   4.843   2.908   1.239
 1191TIP3    H2 3531   4.975   2.977   1.211
 1192TIP3   OH2 3532   5.132   2.972   1.304
 1192TIP3    H1 3533   5.217   2.950   1.266
 1192TIP3    H2 3534   5.117   2.907   1.372
 1193TIP3   OH2 3535   5.960   3.037   1.092
 1193TIP3    H1 3536   5.973   3.008   1.182
 1193TIP3    H2 3537   6.047   3.033   1.052
 1194TIP3   OH2 3538   5.889   4.584   0.595
 1194TIP3    H1 3539   5.810   4.558   0.548
 1194TIP3    H2 3540   5.881   4.679   0.603
 1195TIP3   OH2 3541   6.722   3.295   0.255
 1195TIP3    H1 3542   6.673   3.298   0.173
 1195TIP3    H2 3543   6.662   3.334   0.319
 1196TIP3   OH2 3544   6.613   3.967   0.387
 1196TIP3    H1 3545   6.621   4.053   0.428
 1196TIP3    H2 3546   6.519   3.957   0.370
 1197TIP3   OH2 3547   6.225   4.110   0.295
 1197TIP3    H1 3548   6.264   4.138   0.212
 1197TIP3    H2 3549   6.274   4.032   0.319
 1198TIP3   OH2 3550   6.449   4.281   0.297
 1198TIP3    H1 3551   6.521   4.293   0.359
 1198TIP3    H2 3552   6.380   4.238   0.347
 1199TIP3   OH2 3553   7.331   3.255   0.266
 1199TIP3    H1 3554   7.397   3.191   0.291
 1199TIP3    H2 3555   7.248   3.218   0.297
 1200TIP3   OH2 3556   7.303   3.903   0.399
 1200TIP3    H1 3557   7.265   3.826   0.442
 1200TIP3    H2 3558   7.398   3.887   0.402
 1201TIP3   OH2 3559   6.568   3.671   0.299
 1201TIP3    H1 3560   6.572   3.746   0.358
 1201TIP3    H2 3561   6.558   3.595   0.357
 1202TIP3   OH2 3562   6.607   4.209   0.522
 1202TIP3    H1 3563   6.681   4.252   0.566
 1202TIP3    H2 3564   6.534   4.219   0.583
 1203TIP3   OH2 3565   6.343   3.900   0.432
 1203TIP3    H1 3566   6.365   3.893   0.525
 1203TIP3    H2 3567   6.262   3.848   0.423
 1204TIP3   OH2 3568   7.059   4.025   0.448
 1204TIP3    H1 3569   6.991   3.962   0.425
 1204TIP3    H2 3570   7.141   3.982   0.426
 1205TIP3   OH2 3571   6.539   3.421   0.436
 1205TIP3    H1 3572   6.444   3.424   0.448
 1205TIP3    H2 3573   6.571   3.366   0.508
 1206TIP3   OH2 3574   6.237   4.783   0.508
 1206TIP3    H1 3575   6.326   4.803   0.537
 1206TIP3    H2 3576   6.236   4.688   0.496
 1207TIP3   OH2 3577   6.730   4.755   0.554
 1207TIP3    H1 3578   6.805   4.724   0.604
 1207TIP3    H2 3579   6.704   4.681   0.500
 1208TIP3   OH2 3580   6.382   4.210   0.689
 1208TIP3    H1 3581   6.394   4.116   0.694
 1208TIP3    H2 3582   6.298   4.222   0.645
 1209TIP3   OH2 3583   6.985   4.303   0.450
 1209TIP3    H1 3584   6.949   4.306   0.362
 1209TIP3    H2 3585   7.025   4.217   0.457
 1210TIP3   OH2 3586   6.503   3.941   0.674
 1210TIP3    H1 3587   6.584   3.900   0.642
 1210TIP3    H2 3588   6.528   3.981   0.758
 1211TIP3   OH2 3589   6.860   3.866   0.350
 1211TIP3    H1 3590   6.776   3.895   0.385
 1211TIP3    H2 3591   6.862   3.900   0.261
 1212TIP3   OH2 3592   7.289   4.229   0.487
 1212TIP3    H1 3593   7.373   4.271   0.469
 1212TIP3    H2 3594   7.306   4.170   0.561
 1213TIP3   OH2 3595   6.956   3.619   0.459
 1213TIP3    H1 3596   6.963   3.540   0.407
 1213TIP3    H2 3597   6.929   3.687   0.396
 1214TIP3   OH2 3598   6.971   3.401   0.293
 1214TIP3    H1 3599   7.007   3.433   0.210
 1214TIP3    H2 3600   6.885   3.367   0.269
 1215TIP3   OH2 3601   7.565   3.892   0.552
 1215TIP3    H1 3602   7.567   3.816   0.494
 1215TIP3    H2 3603   7.643   3.942   0.528
 1216TIP3   OH2 3604   6.837   3.729   0.682
 1216TIP3    H1 3605   6.769   3.665   0.704
 1216TIP3    H2 3606   6.873   3.698   0.599
 1217TIP3   OH2 3607   7.084   3.154   0.341
 1217TIP3    H1 3608   7.037   3.236   0.328
 1217TIP3    H2 3609   7.021   3.086   0.318
 1218TIP3   OH2 3610   7.208   3.688   0.541
 1218TIP3    H1 3611   7.207   3.672   0.635
 1218TIP3    H2 3612   7.123   3.656   0.510
 1219TIP3   OH2 3613   7.471   3.667   0.417
 1219TIP3    H1 3614   7.387   3.635   0.450
 1219TIP3    H2 3615   7.535   3.603   0.448
 1220TIP3   OH2 3616   7.679   3.541   0.556
 1220TIP3    H1 3617   7.705   3.454   0.585
 1220TIP3    H2 3618   7.678   3.594   0.635
 1221TIP3   OH2 3619   6.679   3.509   0.740
 1221TIP3    H1 3620   6.683   3.420   0.705
 1221TIP3    H2 3621   6.717   3.502   0.828
 1222TIP3   OH2 3622   7.186   3.175   0.592
 1222TIP3    H1 3623   7.252   3.105   0.587
 1222TIP3    H2 3624   7.143   3.174   0.507
 1223TIP3   OH2 3625   7.258   3.399   0.741
 1223TIP3    H1 3626   7.238   3.327   0.681
 1223TIP3    H2 3627   7.181   3.456   0.736
 1224TIP3   OH2 3628   6.414   3.557   0.698
 1224TIP3    H1 3629   6.509   3.558   0.706
 1224TIP3    H2 3630   6.388   3.475   0.740
 1225TIP3   OH2 3631   6.379   3.121   0.435
 1225TIP3    H1 3632   6.339   3.107   0.521
 1225TIP3    H2 3633   6.305   3.133   0.376
 1226TIP3   OH2 3634   6.423   4.511   0.533
 1226TIP3    H1 3635   6.335   4.498   0.496
 1226TIP3    H2 3636   6.407   4.533   0.625
 1227TIP3   OH2 3637   6.677   3.234   0.674
 1227TIP3    H1 3638   6.640   3.166   0.729
 1227TIP3    H2 3639   6.770   3.236   0.698
 1228TIP3   OH2 3640   6.928   3.230   0.789
 1228TIP3    H1 3641   7.012   3.208   0.750
 1228TIP3    H2 3642   6.914   3.164   0.857
 1229TIP3   OH2 3643   0.433   4.294   1.465
 1229TIP3    H1 3644   0.458   4.376   1.508
 1229TIP3    H2 3645   0.456   4.307   1.373
 1230TIP3   OH2 3646   8.392   4.488   1.497
 1230TIP3    H1 3647   8.408   4.396   1.518
 1230TIP3    H2 3648   8.457   4.509   1.430
 1231TIP3   OH2 3649   0.500   4.505   1.637
 1231TIP3    H1 3650   0.417   4.545   1.610
 1231TIP3    H2 3651   0.510   4.529   1.729
 1232TIP3   OH2 3652   0.055   4.246   1.257
 1232TIP3    H1 3653   0.087   4.184   1.322
 1232TIP3    H2 3654   0.092   4.330   1.283
 1233TIP3   OH2 3655   0.224   4.215   1.637
 1233TIP3    H1 3656   0.139   4.227   1.596
 1233TIP3    H2 3657   0.287   4.232   1.567
 1234TIP3   OH2 3658   0.157   5.243   1.602
 1234TIP3    H1 3659   0.168   5.155   1.566
 1234TIP3    H2 3660   0.116   5.293   1.532
 1235TIP3   OH2 3661   0.356   4.841   1.471
 1235TIP3    H1 3662   0.281   4.900   1.480
 1235TIP3    H2 3663   0.389   4.857   1.382
 1236TIP3   OH2 3664   0.047   4.730   1.766
 1236TIP3    H1 3665   0.045   4.817   1.806
 1236TIP3    H2 3666  -0.040   4.718   1.728
 1237TIP3   OH2 3667   0.413   5.534   1.678
 1237TIP3    H1 3668   0.421   5.438   1.681
 1237TIP3    H2 3669   0.322   5.551   1.703
 1238TIP3   OH2 3670   0.276   4.682   1.933
 1238TIP3    H1 3671   0.195   4.695   1.883
 1238TIP3    H2 3672   0.295   4.588   1.924
 1239TIP3   OH2 3673   8.317   4.032   1.937
 1239TIP3    H1 3674   8.379   4.000   2.003
 1239TIP3    H2 3675   8.232   3.999   1.966
 1240TIP3   OH2 3676   0.049   4.460   1.862
 1240TIP3    H1 3677  -0.001   4.456   1.943
 1240TIP3    H2 3678   0.028   4.545   1.824
 1241TIP3   OH2 3679   8.284   4.683   2.105
 1241TIP3    H1 3680   8.253   4.609   2.156
 1241TIP3    H2 3681   8.377   4.688   2.123
 1242TIP3   OH2 3682   8.297   4.676   1.678
 1242TIP3    H1 3683   8.321   4.598   1.628
 1242TIP3    H2 3684   8.242   4.643   1.749
 1243TIP3   OH2 3685   8.395   4.220   1.547
 1243TIP3    H1 3686   8.368   4.243   1.636
 1243TIP3    H2 3687   8.351   4.136   1.530
 1244TIP3   OH2 3688   8.028   4.350   1.796
 1244TIP3    H1 3689   8.007   4.424   1.739
 1244TIP3    H2 3690   8.119   4.365   1.823
 1245TIP3   OH2 3691   0.148   5.014   1.462
 1245TIP3    H1 3692   0.130   5.059   1.379
 1245TIP3    H2 3693   0.061   4.994   1.497
 1246TIP3   OH2 3694   8.053   4.791   2.197
 1246TIP3    H1 3695   7.993   4.763   2.127
 1246TIP3    H2 3696   8.140   4.772   2.162
 1247TIP3   OH2 3697   0.407   5.256   1.699
 1247TIP3    H1 3698   0.312   5.268   1.695
 1247TIP3    H2 3699   0.430   5.227   1.611
 1248TIP3   OH2 3700   8.340   4.270   1.806
 1248TIP3    H1 3701   8.422   4.305   1.840
 1248TIP3    H2 3702   8.327   4.189   1.854
 1249TIP3   OH2 3703   8.218   4.532   1.892
 1249TIP3    H1 3704   8.227   4.596   1.962
 1249TIP3    H2 3705   8.266   4.455   1.923
 1250TIP3   OH2 3706   0.313   4.416   1.851
 1250TIP3    H1 3707   0.219   4.418   1.866
 1250TIP3    H2 3708   0.324   4.365   1.771
 1251TIP3   OH2 3709   8.319   5.548   2.093
 1251TIP3    H1 3710   8.336   5.455   2.108
 1251TIP3    H2 3711   8.395   5.578   2.042
 1252TIP3   OH2 3712   8.484   5.059   1.727
 1252TIP3    H1 3713   8.531   5.142   1.718
 1252TIP3    H2 3714   8.392   5.083   1.715
 1253TIP3   OH2 3715   8.312   5.011   2.161
 1253TIP3    H1 3716   8.379   4.978   2.102
 1253TIP3    H2 3717   8.305   4.945   2.230
 1254TIP3   OH2 3718   7.892   4.140   1.898
 1254TIP3    H1 3719   7.951   4.209   1.866
 1254TIP3    H2 3720   7.820   4.187   1.939
 1255TIP3   OH2 3721   0.037   4.692   2.200
 1255TIP3    H1 3722   0.083   4.610   2.215
 1255TIP3    H2 3723   0.102   4.748   2.156
 1256TIP3   OH2 3724   0.080   4.953   1.953
 1256TIP3    H1 3725   0.023   4.995   1.888
 1256TIP3    H2 3726   0.169   4.964   1.918
 1257TIP3   OH2 3727   8.057   3.950   2.014
 1257TIP3    H1 3728   8.008   4.025   1.980
 1257TIP3    H2 3729   7.993   3.879   2.016
 1258TIP3   OH2 3730   8.183   4.464   2.239
 1258TIP3    H1 3731   8.206   4.460   2.331
 1258TIP3    H2 3732   8.097   4.422   2.233
 1259TIP3   OH2 3733   8.415   4.410   2.090
 1259TIP3    H1 3734   8.341   4.409   2.152
 1259TIP3    H2 3735   8.490   4.381   2.142
 1260TIP3   OH2 3736   0.147   4.355   2.238
 1260TIP3    H1 3737   0.158   4.261   2.252
 1260TIP3    H2 3738   0.140   4.392   2.326
 1261TIP3   OH2 3739   8.151   3.969   2.274
 1261TIP3    H1 3740   8.217   3.900   2.260
 1261TIP3    H2 3741   8.101   3.971   2.193
 1262TIP3   OH2 3742   8.223   4.182   2.421
 1262TIP3    H1 3743   8.207   4.104   2.368
 1262TIP3    H2 3744   8.139   4.227   2.424
 1263TIP3   OH2 3745   0.269   5.354   2.004
 1263TIP3    H1 3746   0.197   5.363   2.066
 1263TIP3    H2 3747   0.312   5.439   2.005
 1264TIP3   OH2 3748   0.317   5.018   1.830
 1264TIP3    H1 3749   0.383   4.949   1.822
 1264TIP3    H2 3750   0.347   5.088   1.772
 1265TIP3   OH2 3751   0.494   4.815   1.846
 1265TIP3    H1 3752   0.418   4.769   1.882
 1265TIP3    H2 3753   0.568   4.756   1.862
 1266TIP3   OH2 3754   0.178   4.467   1.373
 1266TIP3    H1 3755   0.253   4.493   1.320
 1266TIP3    H2 3756   0.192   4.507   1.458
 1267TIP3   OH2 3757   0.250   4.620   1.592
 1267TIP3    H1 3758   0.180   4.656   1.647
 1267TIP3    H2 3759   0.289   4.697   1.550
 1268TIP3   OH2 3760   0.704   4.221   2.146
 1268TIP3    H1 3761   0.762   4.155   2.109
 1268TIP3    H2 3762   0.672   4.270   2.071
 1269TIP3   OH2 3763   0.565   4.354   1.952
 1269TIP3    H1 3764   0.483   4.399   1.970
 1269TIP3    H2 3765   0.540   4.280   1.896
 1270TIP3   OH2 3766   0.468   4.118   1.836
 1270TIP3    H1 3767   0.378   4.107   1.806
 1270TIP3    H2 3768   0.508   4.031   1.827
 1271TIP3   OH2 3769   0.148   4.018   1.389
 1271TIP3    H1 3770   0.223   4.034   1.332
 1271TIP3    H2 3771   0.095   3.955   1.340
 1272TIP3   OH2 3772   0.319   4.036   1.173
 1272TIP3    H1 3773   0.294   4.009   1.084
 1272TIP3    H2 3774   0.354   4.125   1.162
 1273TIP3   OH2 3775   0.207   4.083   2.267
 1273TIP3    H1 3776   0.222   4.053   2.357
 1273TIP3    H2 3777   0.293   4.078   2.226
 1274TIP3   OH2 3778   0.148   5.564   1.733
 1274TIP3    H1 3779   0.063   5.524   1.753
 1274TIP3    H2 3780   0.134   5.657   1.746
 1275TIP3   OH2 3781   1.399   5.017   0.556
 1275TIP3    H1 3782   1.372   5.096   0.510
 1275TIP3    H2 3783   1.350   4.947   0.512
 1276TIP3   OH2 3784   1.410   5.007   0.915
 1276TIP3    H1 3785   1.444   4.977   0.999
 1276TIP3    H2 3786   1.371   4.929   0.876
 1277TIP3   OH2 3787   0.719   4.906   1.279
 1277TIP3    H1 3788   0.746   4.836   1.338
 1277TIP3    H2 3789   0.801   4.940   1.242
 1278TIP3   OH2 3790   1.665   5.308   0.596
 1278TIP3    H1 3791   1.635   5.235   0.650
 1278TIP3    H2 3792   1.672   5.382   0.657
 1279TIP3   OH2 3793   0.700   5.295   1.073
 1279TIP3    H1 3794   0.688   5.201   1.063
 1279TIP3    H2 3795   0.792   5.311   1.052
 1280TIP3   OH2 3796   0.553   4.804   0.939
 1280TIP3    H1 3797   0.572   4.729   0.996
 1280TIP3    H2 3798   0.509   4.766   0.863
 1281TIP3   OH2 3799   1.353   5.742   0.668
 1281TIP3    H1 3800   1.426   5.713   0.614
 1281TIP3    H2 3801   1.362   5.692   0.749
 1282TIP3   OH2 3802   1.222   5.230   0.955
 1282TIP3    H1 3803   1.258   5.148   0.920
 1282TIP3    H2 3804   1.300   5.281   0.978
 1283TIP3   OH2 3805   2.225   4.553   0.953
 1283TIP3    H1 3806   2.255   4.634   0.993
 1283TIP3    H2 3807   2.250   4.560   0.861
 1284TIP3   OH2 3808   1.626   4.732   0.985
 1284TIP3    H1 3809   1.666   4.649   1.009
 1284TIP3    H2 3810   1.583   4.714   0.901
 1285TIP3   OH2 3811   0.955   4.399   0.950
 1285TIP3    H1 3812   0.936   4.471   0.890
 1285TIP3    H2 3813   0.913   4.323   0.910
 1286TIP3   OH2 3814   1.643   4.469   0.581
 1286TIP3    H1 3815   1.714   4.453   0.643
 1286TIP3    H2 3816   1.680   4.530   0.517
 1287TIP3   OH2 3817   0.602   4.579   1.082
 1287TIP3    H1 3818   0.685   4.565   1.128
 1287TIP3    H2 3819   0.608   4.523   1.005
 1288TIP3   OH2 3820   1.033   4.798   0.858
 1288TIP3    H1 3821   1.125   4.776   0.870
 1288TIP3    H2 3822   0.993   4.717   0.826
 1289TIP3   OH2 3823   2.297   4.765   1.122
 1289TIP3    H1 3824   2.212   4.805   1.102
 1289TIP3    H2 3825   2.312   4.786   1.214
 1290TIP3   OH2 3826   0.956   4.378   1.413
 1290TIP3    H1 3827   0.912   4.383   1.328
 1290TIP3    H2 3828   0.891   4.408   1.476
 1291TIP3   OH2 3829   1.316   5.208   0.386
 1291TIP3    H1 3830   1.275   5.182   0.304
 1291TIP3    H2 3831   1.295   5.301   0.395
 1292TIP3   OH2 3832   1.067   5.154   1.181
 1292TIP3    H1 3833   1.005   5.216   1.220
 1292TIP3    H2 3834   1.096   5.197   1.101
 1293TIP3   OH2 3835   1.857   4.494   0.747
 1293TIP3    H1 3836   1.844   4.439   0.824
 1293TIP3    H2 3837   1.910   4.567   0.778
 1294TIP3   OH2 3838   0.841   4.482   1.180
 1294TIP3    H1 3839   0.902   4.550   1.209
 1294TIP3    H2 3840   0.883   4.443   1.103
 1295TIP3   OH2 3841   0.898   5.344   1.293
 1295TIP3    H1 3842   0.875   5.425   1.248
 1295TIP3    H2 3843   0.819   5.321   1.343
 1296TIP3   OH2 3844   1.725   5.553   0.761
 1296TIP3    H1 3845   1.639   5.542   0.801
 1296TIP3    H2 3846   1.718   5.635   0.712
 1297TIP3   OH2 3847   2.013   4.457   1.121
 1297TIP3    H1 3848   1.926   4.474   1.086
 1297TIP3    H2 3849   2.072   4.485   1.051
 1298TIP3   OH2 3850   1.529   5.638   0.486
 1298TIP3    H1 3851   1.561   5.556   0.447
 1298TIP3    H2 3852   1.525   5.699   0.412
 1299TIP3   OH2 3853   1.564   5.400   0.358
 1299TIP3    H1 3854   1.581   5.338   0.288
 1299TIP3    H2 3855   1.592   5.355   0.437
 1300TIP3   OH2 3856   1.954   5.460   1.093
 1300TIP3    H1 3857   1.934   5.379   1.046
 1300TIP3    H2 3858   1.913   5.529   1.042
 1301TIP3   OH2 3859   1.238   4.861   0.333
 1301TIP3    H1 3860   1.147   4.891   0.324
 1301TIP3    H2 3861   1.283   4.898   0.257
 1302TIP3   OH2 3862   1.147   4.593   0.194
 1302TIP3    H1 3863   1.205   4.647   0.249
 1302TIP3    H2 3864   1.205   4.555   0.129
 1303TIP3   OH2 3865   2.142   5.112   0.948
 1303TIP3    H1 3866   2.056   5.156   0.949
 1303TIP3    H2 3867   2.170   5.118   0.857
 1304TIP3   OH2 3868   1.561   4.935   0.341
 1304TIP3    H1 3869   1.538   5.016   0.387
 1304TIP3    H2 3870   1.643   4.906   0.382
 1305TIP3   OH2 3871   1.820   4.983   1.240
 1305TIP3    H1 3872   1.814   5.063   1.293
 1305TIP3    H2 3873   1.734   4.977   1.198
 1306TIP3   OH2 3874   0.808   4.922   0.754
 1306TIP3    H1 3875   0.795   4.867   0.676
 1306TIP3    H2 3876   0.889   4.890   0.793
 1307TIP3   OH2 3877   0.943   5.290   0.943
 1307TIP3    H1 3878   0.919   5.329   0.859
 1307TIP3    H2 3879   1.039   5.284   0.939
 1308TIP3   OH2 3880   0.961   4.909   1.109
 1308TIP3    H1 3881   0.983   4.883   1.019
 1308TIP3    H2 3882   0.998   4.996   1.118
 1309TIP3   OH2 3883   1.483   5.552   0.878
 1309TIP3    H1 3884   1.479   5.626   0.938
 1309TIP3    H2 3885   1.468   5.475   0.933
 1310TIP3   OH2 3886   1.096   5.469   1.428
 1310TIP3    H1 3887   1.037   5.532   1.470
 1310TIP3    H2 3888   1.038   5.413   1.376
 1311TIP3   OH2 3889   1.461   4.818   0.131
 1311TIP3    H1 3890   1.489   4.857   0.214
 1311TIP3    H2 3891   1.428   4.892   0.080
 1312TIP3   OH2 3892   0.854   5.022   1.538
 1312TIP3    H1 3893   0.856   5.110   1.576
 1312TIP3    H2 3894   0.761   4.999   1.536
 1313TIP3   OH2 3895   0.893   5.638   1.513
 1313TIP3    H1 3896   0.861   5.640   1.423
 1313TIP3    H2 3897   0.817   5.611   1.565
 1314TIP3   OH2 3898   1.950   4.043   0.197
 1314TIP3    H1 3899   1.873   4.055   0.252
 1314TIP3    H2 3900   1.960   4.125   0.150
 1315TIP3   OH2 3901   0.472   5.156   1.456
 1315TIP3    H1 3902   0.444   5.127   1.369
 1315TIP3    H2 3903   0.514   5.079   1.494
 1316TIP3   OH2 3904   2.160   5.772   1.119
 1316TIP3    H1 3905   2.181   5.697   1.176
 1316TIP3    H2 3906   2.094   5.821   1.167
 1317TIP3   OH2 3907   1.293   5.594   1.285
 1317TIP3    H1 3908   1.291   5.686   1.312
 1317TIP3    H2 3909   1.221   5.553   1.333
 1318TIP3   OH2 3910   2.070   4.937   1.419
 1318TIP3    H1 3911   1.988   4.946   1.370
 1318TIP3    H2 3912   2.092   4.844   1.413
 1319TIP3   OH2 3913   0.674   5.345   1.455
 1319TIP3    H1 3914   0.726   5.325   1.533
 1319TIP3    H2 3915   0.601   5.283   1.458
 1320TIP3   OH2 3916   1.605   4.291   1.427
 1320TIP3    H1 3917   1.670   4.255   1.487
 1320TIP3    H2 3918   1.521   4.268   1.467
 1321TIP3   OH2 3919   1.847   4.721   1.350
 1321TIP3    H1 3920   1.793   4.715   1.428
 1321TIP3    H2 3921   1.816   4.800   1.305
 1322TIP3   OH2 3922   1.217   4.281   0.218
 1322TIP3    H1 3923   1.213   4.250   0.308
 1322TIP3    H2 3924   1.195   4.205   0.164
 1323TIP3   OH2 3925   1.007   4.688   1.257
 1323TIP3    H1 3926   0.953   4.706   1.334
 1323TIP3    H2 3927   0.995   4.765   1.201
 1324TIP3   OH2 3928   0.881   4.584   0.767
 1324TIP3    H1 3929   0.791   4.560   0.789
 1324TIP3    H2 3930   0.900   4.536   0.687
 1325TIP3   OH2 3931   1.389   4.684   0.489
 1325TIP3    H1 3932   1.337   4.749   0.442
 1325TIP3    H2 3933   1.443   4.644   0.421
 1326TIP3   OH2 3934   1.557   4.938   1.586
 1326TIP3    H1 3935   1.530   4.864   1.641
 1326TIP3    H2 3936   1.651   4.946   1.601
 1327TIP3   OH2 3937   1.538   4.684   0.728
 1327TIP3    H1 3938   1.482   4.717   0.658
 1327TIP3    H2 3939   1.566   4.597   0.699
 1328TIP3   OH2 3940   0.821   4.717   1.460
 1328TIP3    H1 3941   0.855   4.776   1.527
 1328TIP3    H2 3942   0.808   4.634   1.505
 1329TIP3   OH2 3943   0.422   4.255   1.052
 1329TIP3    H1 3944   0.486   4.286   1.116
 1329TIP3    H2 3945   0.473   4.238   0.973
 1330TIP3   OH2 3946   1.554   4.929   1.151
 1330TIP3    H1 3947   1.583   4.861   1.090
 1330TIP3    H2 3948   1.518   4.881   1.225
 1331TIP3   OH2 3949   1.213   4.405   0.847
 1331TIP3    H1 3950   1.123   4.398   0.880
 1331TIP3    H2 3951   1.268   4.380   0.921
 1332TIP3   OH2 3952   0.657   4.436   0.856
 1332TIP3    H1 3953   0.590   4.448   0.789
 1332TIP3    H2 3954   0.702   4.356   0.830
 1333TIP3   OH2 3955   0.935   4.446   0.544
 1333TIP3    H1 3956   1.029   4.462   0.533
 1333TIP3    H2 3957   0.904   4.426   0.456
 1334TIP3   OH2 3958   1.706   4.473   1.034
 1334TIP3    H1 3959   1.668   4.485   1.121
 1334TIP3    H2 3960   1.643   4.418   0.987
 1335TIP3   OH2 3961   1.882   6.161   1.247
 1335TIP3    H1 3962   1.876   6.186   1.155
 1335TIP3    H2 3963   1.960   6.205   1.280
 1336TIP3   OH2 3964   0.834   5.271   1.671
 1336TIP3    H1 3965   0.913   5.304   1.713
 1336TIP3    H2 3966   0.768   5.269   1.741
 1337TIP3   OH2 3967   1.296   4.732   0.921
 1337TIP3    H1 3968   1.357   4.671   0.880
 1337TIP3    H2 3969   1.287   4.700   1.011
 1338TIP3   OH2 3970   0.823   4.214   0.803
 1338TIP3    H1 3971   0.788   4.138   0.851
 1338TIP3    H2 3972   0.883   4.176   0.740
 1339TIP3   OH2 3973   1.276   4.660   1.181
 1339TIP3    H1 3974   1.187   4.660   1.216
 1339TIP3    H2 3975   1.330   4.692   1.254
 1340TIP3   OH2 3976   1.903   5.251   0.921
 1340TIP3    H1 3977   1.903   5.295   0.836
 1340TIP3    H2 3978   1.824   5.198   0.922
 1341TIP3   OH2 3979   1.476   4.335   0.139
 1341TIP3    H1 3980   1.382   4.322   0.149
 1341TIP3    H2 3981   1.491   4.425   0.167
 1342TIP3   OH2 3982   1.427   5.342   1.299
 1342TIP3    H1 3983   1.427   5.300   1.385
 1342TIP3    H2 3984   1.374   5.421   1.311
 1343TIP3   OH2 3985   1.537   4.582   0.260
 1343TIP3    H1 3986   1.633   4.582   0.258
 1343TIP3    H2 3987   1.512   4.658   0.207
 1344TIP3   OH2 3988   0.709   5.044   0.981
 1344TIP3    H1 3989   0.743   5.013   0.897
 1344TIP3    H2 3990   0.697   4.964   1.033
 1345TIP3   OH2 3991   0.585   4.954   1.600
 1345TIP3    H1 3992   0.603   4.939   1.692
 1345TIP3    H2 3993   0.520   4.888   1.576
 1346TIP3   OH2 3994   1.312   5.069   1.613
 1346TIP3    H1 3995   1.247   5.016   1.568
 1346TIP3    H2 3996   1.396   5.033   1.586
 1347TIP3   OH2 3997   1.571   5.604   1.195
 1347TIP3    H1 3998   1.478   5.585   1.209
 1347TIP3    H2 3999   1.598   5.648   1.276
 1348TIP3   OH2 4000   1.995   4.670   0.086
 1348TIP3    H1 4001   1.929   4.623   0.036
 1348TIP3    H2 4002   1.993   4.759   0.051
 1349TIP3   OH2 4003   2.198   5.511   1.197
 1349TIP3    H1 4004   2.102   5.508   1.195
 1349TIP3    H2 4005   2.226   5.465   1.118
 1350TIP3   OH2 4006   1.673   5.111   0.857
 1350TIP3    H1 4007   1.580   5.091   0.869
 1350TIP3    H2 4008   1.708   5.033   0.815
 1351TIP3   OH2 4009   1.077   5.705   1.107
 1351TIP3    H1 4010   1.082   5.703   1.012
 1351TIP3    H2 4011   1.156   5.660   1.137
 1352TIP3   OH2 4012   1.471   5.318   1.034
 1352TIP3    H1 4013   1.455   5.321   1.128
 1352TIP3    H2 4014   1.538   5.250   1.023
 1353TIP3   OH2 4015   1.728   5.830   1.072
 1353TIP3    H1 4016   1.648   5.778   1.083
 1353TIP3    H2 4017   1.703   5.899   1.010
 1354TIP3   OH2 4018   0.780   4.471   1.605
 1354TIP3    H1 4019   0.685   4.470   1.613
 1354TIP3    H2 4020   0.809   4.406   1.668
 1355TIP3   OH2 4021   1.637   5.191   0.202
 1355TIP3    H1 4022   1.571   5.152   0.145
 1355TIP3    H2 4023   1.719   5.178   0.156
 1356TIP3   OH2 4024   0.567   5.536   1.286
 1356TIP3    H1 4025   0.565   5.454   1.238
 1356TIP3    H2 4026   0.616   5.515   1.366
 1357TIP3   OH2 4027   1.629   4.532   1.298
 1357TIP3    H1 4028   1.717   4.555   1.326
 1357TIP3    H2 4029   1.611   4.448   1.341
 1358TIP3   OH2 4030   1.529   4.243   0.394
 1358TIP3    H1 4031   1.509   4.262   0.302
 1358TIP3    H2 4032   1.547   4.328   0.433
 1359TIP3   OH2 4033   1.205   4.491   0.576
 1359TIP3    H1 4034   1.273   4.556   0.555
 1359TIP3    H2 4035   1.216   4.474   0.669
 1360TIP3   OH2 4036   1.476   4.775   1.359
 1360TIP3    H1 4037   1.502   4.818   1.441
 1360TIP3    H2 4038   1.524   4.692   1.360
 1361TIP3   OH2 4039   1.374   4.198   0.680
 1361TIP3    H1 4040   1.356   4.259   0.752
 1361TIP3    H2 4041   1.459   4.226   0.646
 1362TIP3   OH2 4042   0.894   4.145   0.464
 1362TIP3    H1 4043   0.886   4.234   0.429
 1362TIP3    H2 4044   0.988   4.128   0.464
 1363TIP3   OH2 4045   2.110   4.671   1.338
 1363TIP3    H1 4046   2.016   4.676   1.352
 1363TIP3    H2 4047   2.120   4.619   1.259
 1364TIP3   OH2 4048   1.759   4.867   0.746
 1364TIP3    H1 4049   1.683   4.812   0.765
 1364TIP3    H2 4050   1.832   4.825   0.792
 1365TIP3   OH2 4051   1.745   5.817   0.683
 1365TIP3    H1 4052   1.703   5.861   0.610
 1365TIP3    H2 4053   1.839   5.835   0.671
 1366TIP3   OH2 4054   0.770   4.094   1.216
 1366TIP3    H1 4055   0.780   4.062   1.126
 1366TIP3    H2 4056   0.800   4.021   1.270
 1367TIP3   OH2 4057   0.492   5.821   1.668
 1367TIP3    H1 4058   0.579   5.827   1.708
 1367TIP3    H2 4059   0.475   5.727   1.663
 1368TIP3   OH2 4060   0.985   5.807   1.709
 1368TIP3    H1 4061   1.080   5.797   1.703
 1368TIP3    H2 4062   0.950   5.753   1.639
 1369TIP3   OH2 4063   1.624   5.723   1.437
 1369TIP3    H1 4064   1.615   5.656   1.504
 1369TIP3    H2 4065   1.699   5.775   1.465
 1370TIP3   OH2 4066   0.632   5.257   1.861
 1370TIP3    H1 4067   0.653   5.164   1.866
 1370TIP3    H2 4068   0.549   5.261   1.815
 1371TIP3   OH2 4069   1.238   5.344   1.631
 1371TIP3    H1 4070   1.197   5.366   1.547
 1371TIP3    H2 4071   1.267   5.253   1.620
 1372TIP3   OH2 4072   1.734   5.353   1.240
 1372TIP3    H1 4073   1.804   5.407   1.202
 1372TIP3    H2 4074   1.654   5.405   1.228
 1373TIP3   OH2 4075   0.752   5.000   1.843
 1373TIP3    H1 4076   0.824   4.946   1.810
 1373TIP3    H2 4077   0.782   5.028   1.930
 1374TIP3   OH2 4078   1.088   4.882   1.508
 1374TIP3    H1 4079   1.010   4.936   1.508
 1374TIP3    H2 4080   1.139   4.913   1.433
 1375TIP3   OH2 4081   1.611   5.281   1.638
 1375TIP3    H1 4082   1.681   5.248   1.582
 1375TIP3    H2 4083   1.597   5.213   1.703
 1376TIP3   OH2 4084   1.211   4.664   1.618
 1376TIP3    H1 4085   1.213   4.589   1.558
 1376TIP3    H2 4086   1.167   4.733   1.568
 1377TIP3   OH2 4087   1.215   4.455   1.419
 1377TIP3    H1 4088   1.242   4.449   1.328
 1377TIP3    H2 4089   1.124   4.427   1.419
 1378TIP3   OH2 4090   1.240   5.000   1.321
 1378TIP3    H1 4091   1.315   4.982   1.264
 1378TIP3    H2 4092   1.183   5.056   1.269
 1379TIP3   OH2 4093   1.823   4.954   1.689
 1379TIP3    H1 4094   1.863   4.867   1.694
 1379TIP3    H2 4095   1.891   5.009   1.649
 1380TIP3   OH2 4096   1.862   5.213   1.429
 1380TIP3    H1 4097   1.803   5.262   1.371
 1380TIP3    H2 4098   1.949   5.226   1.392
 1381TIP3   OH2 4099   1.093   4.771   1.859
 1381TIP3    H1 4100   1.025   4.706   1.877
 1381TIP3    H2 4101   1.121   4.753   1.770
 1382TIP3   OH2 4102   1.343   4.222   1.509
 1382TIP3    H1 4103   1.299   4.300   1.475
 1382TIP3    H2 4104   1.286   4.150   1.483
 1383TIP3   OH2 4105   1.465   4.716   1.719
 1383TIP3    H1 4106   1.449   4.703   1.812
 1383TIP3    H2 4107   1.382   4.694   1.677
 1384TIP3   OH2 4108   1.712   4.680   1.580
 1384TIP3    H1 4109   1.636   4.672   1.638
 1384TIP3    H2 4110   1.784   4.644   1.631
 1385TIP3   OH2 4111   1.940   4.611   1.726
 1385TIP3    H1 4112   1.954   4.517   1.738
 1385TIP3    H2 4113   1.938   4.647   1.815
 1386TIP3   OH2 4114   0.929   4.555   1.914
 1386TIP3    H1 4115   0.927   4.467   1.876
 1386TIP3    H2 4116   0.964   4.541   2.003
 1387TIP3   OH2 4117   1.429   4.220   1.766
 1387TIP3    H1 4118   1.498   4.155   1.759
 1387TIP3    H2 4119   1.390   4.224   1.679
 1388TIP3   OH2 4120   1.503   4.440   1.920
 1388TIP3    H1 4121   1.484   4.370   1.857
 1388TIP3    H2 4122   1.429   4.499   1.913
 1389TIP3   OH2 4123   1.995   5.907   0.645
 1389TIP3    H1 4124   2.016   5.954   0.725
 1389TIP3    H2 4125   2.041   5.956   0.576
 1390TIP3   OH2 4126   2.011   5.943   0.928
 1390TIP3    H1 4127   1.967   5.859   0.918
 1390TIP3    H2 4128   2.083   5.925   0.989
 1391TIP3   OH2 4129   2.058   5.616   1.487
 1391TIP3    H1 4130   1.989   5.620   1.553
 1391TIP3    H2 4131   2.104   5.699   1.495
 1392TIP3   OH2 4132   1.888   5.122   0.105
 1392TIP3    H1 4133   1.957   5.181   0.074
 1392TIP3    H2 4134   1.924   5.082   0.184
 1393TIP3   OH2 4135   2.005   5.004   0.327
 1393TIP3    H1 4136   1.951   4.960   0.393
 1393TIP3    H2 4137   2.083   5.032   0.373
 1394TIP3   OH2 4138   2.071   5.420   0.723
 1394TIP3    H1 4139   2.123   5.345   0.694
 1394TIP3    H2 4140   1.997   5.422   0.662
 1395TIP3   OH2 4141   1.910   5.677   0.928
 1395TIP3    H1 4142   1.849   5.724   0.985
 1395TIP3    H2 4143   1.855   5.641   0.859
 1396TIP3   OH2 4144   7.608   0.891   6.895
 1396TIP3    H1 4145   7.530   0.860   6.849
 1396TIP3    H2 4146   7.579   0.969   6.942
 1397TIP3   OH2 4147   7.476   0.580   6.856
 1397TIP3    H1 4148   7.408   0.630   6.812
 1397TIP3    H2 4149   7.449   0.488   6.846
 1398TIP3   OH2 4150   1.768   4.791   0.477
 1398TIP3    H1 4151   1.852   4.746   0.485
 1398TIP3    H2 4152   1.749   4.823   0.565
 1399TIP3   OH2 4153   0.456   4.904   1.226
 1399TIP3    H1 4154   0.452   4.884   1.132
 1399TIP3    H2 4155   0.550   4.908   1.244
 1400TIP3   OH2 4156   2.108   5.270   1.320
 1400TIP3    H1 4157   2.174   5.201   1.315
 1400TIP3    H2 4158   2.139   5.337   1.259
 1401TIP3   OH2 4159   2.288   5.072   1.333
 1401TIP3    H1 4160   2.214   5.023   1.367
 1401TIP3    H2 4161   2.363   5.014   1.346
 1402TIP3   OH2 4162   7.417   0.313   6.858
 1402TIP3    H1 4163   7.503   0.281   6.884
 1402TIP3    H2 4164   7.355   0.259   6.907
 1403TIP3   OH2 4165   1.967   4.630   0.399
 1403TIP3    H1 4166   1.971   4.539   0.429
 1403TIP3    H2 4167   1.885   4.636   0.350
 1404TIP3   OH2 4168   1.978   4.737   0.857
 1404TIP3    H1 4169   2.058   4.759   0.809
 1404TIP3    H2 4170   1.995   4.768   0.946
 1405TIP3   OH2 4171   2.048   4.885   1.084
 1405TIP3    H1 4172   1.970   4.914   1.130
 1405TIP3    H2 4173   2.081   4.963   1.040
 1406TIP3   OH2 4174   0.663   4.609   1.893
 1406TIP3    H1 4175   0.758   4.603   1.887
 1406TIP3    H2 4176   0.636   4.523   1.925
 1407TIP3   OH2 4177   2.495   4.475   1.634
 1407TIP3    H1 4178   2.556   4.411   1.596
 1407TIP3    H2 4179   2.465   4.527   1.560
 1408TIP3   OH2 4180   1.934   4.313   0.393
 1408TIP3    H1 4181   1.979   4.298   0.476
 1408TIP3    H2 4182   1.871   4.241   0.387
 1409TIP3   OH2 4183   0.618   4.313   1.227
 1409TIP3    H1 4184   0.665   4.229   1.229
 1409TIP3    H2 4185   0.687   4.378   1.213
 1410TIP3   OH2 4186   0.417   4.576   1.286
 1410TIP3    H1 4187   0.474   4.563   1.210
 1410TIP3    H2 4188   0.442   4.661   1.321
 1411TIP3   OH2 4189   2.361   4.610   1.438
 1411TIP3    H1 4190   2.278   4.655   1.453
 1411TIP3    H2 4191   2.338   4.536   1.382
 1412TIP3   OH2 4192   2.013   4.251   0.008
 1412TIP3    H1 4193   2.078   4.188  -0.024
 1412TIP3    H2 4194   2.062   4.332   0.021
 1413TIP3   OH2 4195   0.631   4.162   1.604
 1413TIP3    H1 4196   0.578   4.155   1.684
 1413TIP3    H2 4197   0.570   4.197   1.538
 1414TIP3   OH2 4198   0.681   5.580   1.678
 1414TIP3    H1 4199   0.591   5.555   1.658
 1414TIP3    H2 4200   0.687   5.577   1.773
 1415TIP3   OH2 4201   0.852   5.612   1.232
 1415TIP3    H1 4202   0.782   5.634   1.171
 1415TIP3    H2 4203   0.931   5.650   1.192
 1416TIP3   OH2 4204   1.294   5.861   1.364
 1416TIP3    H1 4205   1.333   5.859   1.451
 1416TIP3    H2 4206   1.355   5.912   1.311
 1417TIP3   OH2 4207   1.468   6.020   1.226
 1417TIP3    H1 4208   1.531   5.967   1.177
 1417TIP3    H2 4209   1.522   6.074   1.284
 1418TIP3   OH2 4210   2.263   4.371   1.322
 1418TIP3    H1 4211   2.174   4.363   1.286
 1418TIP3    H2 4212   2.300   4.283   1.314
 1419TIP3   OH2 4213   1.211   5.896   0.893
 1419TIP3    H1 4214   1.119   5.875   0.879
 1419TIP3    H2 4215   1.210   5.972   0.950
 1420TIP3   OH2 4216   1.464   5.823   0.963
 1420TIP3    H1 4217   1.373   5.839   0.938
 1420TIP3    H2 4218   1.514   5.889   0.916
 1421TIP3   OH2 4219   1.661   6.003   0.870
 1421TIP3    H1 4220   1.654   6.089   0.829
 1421TIP3    H2 4221   1.690   5.945   0.799
 1422TIP3   OH2 4222   1.501   4.318   0.934
 1422TIP3    H1 4223   1.435   4.295   1.000
 1422TIP3    H2 4224   1.545   4.235   0.914
 1423TIP3   OH2 4225   1.997   4.178   0.851
 1423TIP3    H1 4226   2.033   4.223   0.775
 1423TIP3    H2 4227   1.902   4.184   0.841
 1424TIP3   OH2 4228   2.093   4.267   0.612
 1424TIP3    H1 4229   2.162   4.213   0.574
 1424TIP3    H2 4230   2.123   4.357   0.600
 1425TIP3   OH2 4231   0.723   4.001   0.947
 1425TIP3    H1 4232   0.635   3.964   0.938
 1425TIP3    H2 4233   0.781   3.925   0.948
 1426TIP3   OH2 4234   1.155   4.046   0.856
 1426TIP3    H1 4235   1.224   4.081   0.800
 1426TIP3    H2 4236   1.172   4.085   0.942
 1427TIP3   OH2 4237   1.728   4.168   0.809
 1427TIP3    H1 4238   1.719   4.126   0.724
 1427TIP3    H2 4239   1.706   4.099   0.872
 1428TIP3   OH2 4240   1.755   4.089   0.388
 1428TIP3    H1 4241   1.670   4.132   0.385
 1428TIP3    H2 4242   1.740   4.007   0.434
 1429TIP3   OH2 4243   1.170   4.207   0.484
 1429TIP3    H1 4244   1.247   4.174   0.531
 1429TIP3    H2 4245   1.153   4.293   0.522
 1430TIP3   OH2 4246   0.926   4.282   1.854
 1430TIP3    H1 4247   0.886   4.210   1.904
 1430TIP3    H2 4248   1.019   4.279   1.878
 1431TIP3   OH2 4249   1.187   4.269   1.966
 1431TIP3    H1 4250   1.256   4.274   1.901
 1431TIP3    H2 4251   1.209   4.194   2.020
 1432TIP3   OH2 4252   2.006   4.341   1.755
 1432TIP3    H1 4253   2.022   4.310   1.844
 1432TIP3    H2 4254   2.092   4.336   1.712
 1433TIP3   OH2 4255   1.944   5.893   1.238
 1433TIP3    H1 4256   1.865   5.862   1.193
 1433TIP3    H2 4257   1.927   5.987   1.252
 1434TIP3   OH2 4258   3.205   5.292   0.096
 1434TIP3    H1 4259   3.173   5.369   0.050
 1434TIP3    H2 4260   3.158   5.219   0.058
 1435TIP3   OH2 4261   3.185   5.278   0.410
 1435TIP3    H1 4262   3.230   5.235   0.483
 1435TIP3    H2 4263   3.179   5.211   0.342
 1436TIP3   OH2 4264   2.496   5.163   0.774
 1436TIP3    H1 4265   2.526   5.092   0.830
 1436TIP3    H2 4266   2.576   5.197   0.734
 1437TIP3   OH2 4267   3.459   5.564   0.066
 1437TIP3    H1 4268   3.433   5.490   0.121
 1437TIP3    H2 4269   3.486   5.632   0.128
 1438TIP3   OH2 4270   2.484   5.565   0.478
 1438TIP3    H1 4271   2.473   5.470   0.481
 1438TIP3    H2 4272   2.579   5.577   0.467
 1439TIP3   OH2 4273   2.191   4.783   0.241
 1439TIP3    H1 4274   2.137   4.854   0.276
 1439TIP3    H2 4275   2.128   4.721   0.204
 1440TIP3   OH2 4276   2.244   5.059   0.447
 1440TIP3    H1 4277   2.287   4.980   0.479
 1440TIP3    H2 4278   2.305   5.095   0.383
 1441TIP3   OH2 4279   3.063   5.989   0.130
 1441TIP3    H1 4280   3.125   5.995   0.057
 1441TIP3    H2 4281   3.118   5.974   0.207
 1442TIP3   OH2 4282   3.006   5.491   0.445
 1442TIP3    H1 4283   3.042   5.409   0.412
 1442TIP3    H2 4284   3.083   5.543   0.468
 1443TIP3   OH2 4285   4.018   4.806   0.444
 1443TIP3    H1 4286   4.044   4.891   0.479
 1443TIP3    H2 4287   4.054   4.805   0.355
 1444TIP3   OH2 4288   3.420   4.988   0.489
 1444TIP3    H1 4289   3.472   4.909   0.509
 1444TIP3    H2 4290   3.384   4.972   0.402
 1445TIP3   OH2 4291   2.752   4.651   0.438
 1445TIP3    H1 4292   2.740   4.724   0.377
 1445TIP3    H2 4293   2.709   4.577   0.396
 1446TIP3   OH2 4294   3.442   4.712   0.078
 1446TIP3    H1 4295   3.527   4.709   0.121
 1446TIP3    H2 4296   3.444   4.794   0.028
 1447TIP3   OH2 4297   2.391   4.850   0.544
 1447TIP3    H1 4298   2.472   4.833   0.593
 1447TIP3    H2 4299   2.400   4.798   0.464
 1448TIP3   OH2 4300   2.825   5.047   0.351
 1448TIP3    H1 4301   2.918   5.029   0.361
 1448TIP3    H2 4302   2.788   4.967   0.313
 1449TIP3   OH2 4303   4.093   5.019   0.616
 1449TIP3    H1 4304   4.011   5.062   0.590
 1449TIP3    H2 4305   4.117   5.059   0.699
 1450TIP3   OH2 4306   2.748   4.636   0.873
 1450TIP3    H1 4307   2.693   4.671   0.803
 1450TIP3    H2 4308   2.698   4.652   0.953
 1451TIP3   OH2 4309   0.275   1.470   6.863
 1451TIP3    H1 4310   0.232   1.455   6.779
 1451TIP3    H2 4311   0.240   1.554   6.892
 1452TIP3   OH2 4312   2.855   5.413   0.664
 1452TIP3    H1 4313   2.799   5.481   0.701
 1452TIP3    H2 4314   2.902   5.455   0.593
 1453TIP3   OH2 4315   3.661   4.745   0.240
 1453TIP3    H1 4316   3.648   4.705   0.326
 1453TIP3    H2 4317   3.705   4.829   0.259
 1454TIP3   OH2 4318   2.625   4.750   0.656
 1454TIP3    H1 4319   2.684   4.821   0.682
 1454TIP3    H2 4320   2.668   4.708   0.582
 1455TIP3   OH2 4321   2.676   5.612   0.773
 1455TIP3    H1 4322   2.663   5.696   0.730
 1455TIP3    H2 4323   2.595   5.595   0.821
 1456TIP3   OH2 4324   7.748   1.286   6.941
 1456TIP3    H1 4325   7.713   1.302   6.854
 1456TIP3    H2 4326   7.765   1.374   6.976
 1457TIP3   OH2 4327   3.514   5.803   0.245
 1457TIP3    H1 4328   3.429   5.783   0.285
 1457TIP3    H2 4329   3.506   5.894   0.217
 1458TIP3   OH2 4330   3.810   4.706   0.605
 1458TIP3    H1 4331   3.724   4.733   0.571
 1458TIP3    H2 4332   3.872   4.739   0.540
 1459TIP3   OH2 4333   3.101   4.347   0.590
 1459TIP3    H1 4334   3.088   4.253   0.606
 1459TIP3    H2 4335   3.028   4.389   0.635
 1460TIP3   OH2 4336   3.741   5.720   0.590
 1460TIP3    H1 4337   3.739   5.643   0.533
 1460TIP3    H2 4338   3.737   5.795   0.529
 1461TIP3   OH2 4339   0.218   1.138   6.833
 1461TIP3    H1 4340   0.144   1.191   6.804
 1461TIP3    H2 4341   0.294   1.179   6.793
 1462TIP3   OH2 4342   3.937   5.360   0.436
 1462TIP3    H1 4343   3.857   5.412   0.446
 1462TIP3    H2 4344   3.968   5.380   0.348
 1463TIP3   OH2 4345   0.456   1.235   6.752
 1463TIP3    H1 4346   0.460   1.301   6.822
 1463TIP3    H2 4347   0.502   1.160   6.789
 1464TIP3   OH2 4348   3.616   5.237   0.733
 1464TIP3    H1 4349   3.618   5.318   0.783
 1464TIP3    H2 4350   3.535   5.241   0.684
 1465TIP3   OH2 4351   2.615   5.194   0.235
 1465TIP3    H1 4352   2.574   5.137   0.170
 1465TIP3    H2 4353   2.691   5.144   0.266
 1466TIP3   OH2 4354   2.746   5.600   0.382
 1466TIP3    H1 4355   2.727   5.571   0.293
 1466TIP3    H2 4356   2.833   5.565   0.400
 1467TIP3   OH2 4357   2.737   5.174   0.587
 1467TIP3    H1 4358   2.773   5.139   0.505
 1467TIP3    H2 4359   2.788   5.252   0.605
 1468TIP3   OH2 4360   3.273   5.803   0.362
 1468TIP3    H1 4361   3.264   5.883   0.413
 1468TIP3    H2 4362   3.261   5.732   0.425
 1469TIP3   OH2 4363   2.890   5.725   0.910
 1469TIP3    H1 4364   2.833   5.786   0.957
 1469TIP3    H2 4365   2.830   5.669   0.861
 1470TIP3   OH2 4366   2.649   5.284   1.022
 1470TIP3    H1 4367   2.654   5.370   1.064
 1470TIP3    H2 4368   2.556   5.261   1.025
 1471TIP3   OH2 4369   0.145   1.728   6.891
 1471TIP3    H1 4370   0.202   1.771   6.955
 1471TIP3    H2 4371   0.064   1.779   6.893
 1472TIP3   OH2 4372   2.679   5.887   0.996
 1472TIP3    H1 4373   2.651   5.895   0.905
 1472TIP3    H2 4374   2.598   5.876   1.046
 1473TIP3   OH2 4375   2.476   5.035   0.047
 1473TIP3    H1 4376   2.408   5.069  -0.012
 1473TIP3    H2 4377   2.461   4.940   0.049
 1474TIP3   OH2 4378   2.237   5.420   0.939
 1474TIP3    H1 4379   2.199   5.375   0.863
 1474TIP3    H2 4380   2.290   5.353   0.982
 1475TIP3   OH2 4381   3.978   6.065   0.628
 1475TIP3    H1 4382   3.984   5.970   0.644
 1475TIP3    H2 4383   3.900   6.092   0.675
 1476TIP3   OH2 4384   3.086   5.856   0.769
 1476TIP3    H1 4385   3.085   5.946   0.799
 1476TIP3    H2 4386   3.019   5.812   0.821
 1477TIP3   OH2 4387   2.278   5.807   0.119
 1477TIP3    H1 4388   2.354   5.814   0.176
 1477TIP3    H2 4389   2.211   5.765   0.173
 1478TIP3   OH2 4390   3.867   5.192   0.910
 1478TIP3    H1 4391   3.790   5.206   0.855
 1478TIP3    H2 4392   3.887   5.099   0.902
 1479TIP3   OH2 4393   2.448   5.606   0.954
 1479TIP3    H1 4394   2.519   5.609   1.019
 1479TIP3    H2 4395   2.426   5.513   0.947
 1480TIP3   OH2 4396   2.864   4.428   0.720
 1480TIP3    H1 4397   2.779   4.396   0.689
 1480TIP3    H2 4398   2.844   4.509   0.766
 1481TIP3   OH2 4399   3.405   4.541   0.913
 1481TIP3    H1 4400   3.474   4.515   0.974
 1481TIP3    H2 4401   3.324   4.523   0.960
 1482TIP3   OH2 4402   3.632   4.970   0.827
 1482TIP3    H1 4403   3.587   4.970   0.911
 1482TIP3    H2 4404   3.617   5.057   0.791
 1483TIP3   OH2 4405   0.183   0.500   6.645
 1483TIP3    H1 4406   0.147   0.466   6.727
 1483TIP3    H2 4407   0.155   0.437   6.579
 1484TIP3   OH2 4408   2.794   4.951   0.734
 1484TIP3    H1 4409   2.754   4.973   0.818
 1484TIP3    H2 4410   2.781   5.028   0.680
 1485TIP3   OH2 4411   2.680   4.829   0.249
 1485TIP3    H1 4412   2.590   4.804   0.271
 1485TIP3    H2 4413   2.696   4.792   0.162
 1486TIP3   OH2 4414   0.291   0.877   6.838
 1486TIP3    H1 4415   0.253   0.964   6.847
 1486TIP3    H2 4416   0.384   0.890   6.856
 1487TIP3   OH2 4417   3.351   5.192   1.066
 1487TIP3    H1 4418   3.328   5.119   1.124
 1487TIP3    H2 4419   3.444   5.207   1.082
 1488TIP3   OH2 4420   3.304   4.911   0.252
 1488TIP3    H1 4421   3.311   4.964   0.172
 1488TIP3    H2 4422   3.339   4.825   0.226
 1489TIP3   OH2 4423   2.612   4.976   0.950
 1489TIP3    H1 4424   2.671   5.028   1.006
 1489TIP3    H2 4425   2.605   4.892   0.995
 1490TIP3   OH2 4426   8.346   0.372   6.615
 1490TIP3    H1 4427   8.333   0.412   6.701
 1490TIP3    H2 4428   8.324   0.442   6.553
 1491TIP3   OH2 4429   2.219   4.483   0.531
 1491TIP3    H1 4430   2.292   4.525   0.576
 1491TIP3    H2 4431   2.251   4.467   0.442
 1492TIP3   OH2 4432   2.179   4.473   0.037
 1492TIP3    H1 4433   2.239   4.502  -0.032
 1492TIP3    H2 4434   2.125   4.549   0.055
 1493TIP3   OH2 4435   3.334   5.188   0.643
 1493TIP3    H1 4436   3.373   5.123   0.584
 1493TIP3    H2 4437   3.305   5.137   0.719
 1494TIP3   OH2 4438   3.016   4.648   0.317
 1494TIP3    H1 4439   2.939   4.650   0.374
 1494TIP3    H2 4440   3.090   4.649   0.377
 1495TIP3   OH2 4441   2.442   4.707   0.320
 1495TIP3    H1 4442   2.354   4.716   0.284
 1495TIP3    H2 4443   2.469   4.618   0.296
 1496TIP3   OH2 4444   8.373   0.701   6.949
 1496TIP3    H1 4445   8.468   0.705   6.941
 1496TIP3    H2 4446   8.341   0.735   6.865
 1497TIP3   OH2 4447   3.507   4.726   0.522
 1497TIP3    H1 4448   3.468   4.741   0.609
 1497TIP3    H2 4449   3.443   4.671   0.476
 1498TIP3   OH2 4450   8.205   0.751   6.737
 1498TIP3    H1 4451   8.127   0.695   6.729
 1498TIP3    H2 4452   8.261   0.724   6.664
 1499TIP3   OH2 4453   3.679   6.420   0.736
 1499TIP3    H1 4454   3.676   6.441   0.642
 1499TIP3    H2 4455   3.758   6.463   0.768
 1500TIP3   OH2 4456   2.629   5.535   1.154
 1500TIP3    H1 4457   2.713   5.559   1.194
 1500TIP3    H2 4458   2.569   5.528   1.228
 1501TIP3   OH2 4459   3.084   4.972   0.411
 1501TIP3    H1 4460   3.157   4.950   0.354
 1501TIP3    H2 4461   3.104   4.928   0.494
 1502TIP3   OH2 4462   2.612   4.468   0.289
 1502TIP3    H1 4463   2.577   4.393   0.337
 1502TIP3    H2 4464   2.656   4.431   0.214
 1503TIP3   OH2 4465   3.069   4.874   0.709
 1503TIP3    H1 4466   2.983   4.917   0.712
 1503TIP3    H2 4467   3.128   4.937   0.750
 1504TIP3   OH2 4468   8.492   1.258   6.747
 1504TIP3    H1 4469   8.415   1.205   6.723
 1504TIP3    H2 4470   8.465   1.305   6.826
 1505TIP3   OH2 4471   3.703   5.505   0.422
 1505TIP3    H1 4472   3.731   5.550   0.342
 1505TIP3    H2 4473   3.622   5.461   0.399
 1506TIP3   OH2 4474   3.195   5.583   0.793
 1506TIP3    H1 4475   3.246   5.570   0.873
 1506TIP3    H2 4476   3.169   5.675   0.796
 1507TIP3   OH2 4477   2.499   5.285   0.466
 1507TIP3    H1 4478   2.530   5.265   0.378
 1507TIP3    H2 4479   2.558   5.237   0.524
 1508TIP3   OH2 4480   2.367   5.240   1.090
 1508TIP3    H1 4481   2.402   5.218   1.176
 1508TIP3    H2 4482   2.315   5.163   1.065
 1509TIP3   OH2 4483   3.111   5.324   1.099
 1509TIP3    H1 4484   3.053   5.272   1.044
 1509TIP3    H2 4485   3.199   5.293   1.078
 1510TIP3   OH2 4486   3.360   5.851   0.689
 1510TIP3    H1 4487   3.265   5.848   0.701
 1510TIP3    H2 4488   3.393   5.900   0.764
 1511TIP3   OH2 4489   3.991   5.784   0.677
 1511TIP3    H1 4490   3.895   5.778   0.678
 1511TIP3    H2 4491   4.017   5.750   0.591
 1512TIP3   OH2 4492   3.467   5.372   0.344
 1512TIP3    H1 4493   3.373   5.354   0.347
 1512TIP3    H2 4494   3.505   5.293   0.305
 1513TIP3   OH2 4495   2.607   5.594   0.110
 1513TIP3    H1 4496   2.605   5.668   0.050
 1513TIP3    H2 4497   2.518   5.560   0.111
 1514TIP3   OH2 4498   7.833   0.891   6.737
 1514TIP3    H1 4499   7.879   0.973   6.758
 1514TIP3    H2 4500   7.756   0.893   6.794
 1515TIP3   OH2 4501   2.735   5.362   0.041
 1515TIP3    H1 4502   2.701   5.449   0.061
 1515TIP3    H2 4503   2.704   5.307   0.113
 1516TIP3   OH2 4504   2.873   5.937   0.561
 1516TIP3    H1 4505   2.911   6.010   0.512
 1516TIP3    H2 4506   2.947   5.899   0.608
 1517TIP3   OH2 4507   8.187   1.800   6.910
 1517TIP3    H1 4508   8.094   1.814   6.927
 1517TIP3    H2 4509   8.225   1.888   6.911
 1518TIP3   OH2 4510   3.256   5.575   0.524
 1518TIP3    H1 4511   3.244   5.567   0.618
 1518TIP3    H2 4512   3.330   5.517   0.504
 1519TIP3   OH2 4513   3.503   6.096   0.582
 1519TIP3    H1 4514   3.428   6.037   0.576
 1519TIP3    H2 4515   3.489   6.161   0.513
 1520TIP3   OH2 4516   2.588   4.718   1.088
 1520TIP3    H1 4517   2.493   4.720   1.097
 1520TIP3    H2 4518   2.618   4.660   1.158
 1521TIP3   OH2 4519   7.945   1.131   6.823
 1521TIP3    H1 4520   7.879   1.181   6.871
 1521TIP3    H2 4521   8.002   1.198   6.783
 1522TIP3   OH2 4522   3.423   4.785   0.781
 1522TIP3    H1 4523   3.508   4.823   0.805
 1522TIP3    H2 4524   3.418   4.704   0.831
 1523TIP3   OH2 4525   0.469   0.527   6.868
 1523TIP3    H1 4526   0.452   0.574   6.786
 1523TIP3    H2 4527   0.524   0.587   6.918
 1524TIP3   OH2 4528   2.976   4.698   0.043
 1524TIP3    H1 4529   3.034   4.762   0.002
 1524TIP3    H2 4530   3.000   4.700   0.135
 1525TIP3   OH2 4531   3.266   5.025   0.849
 1525TIP3    H1 4532   3.296   5.074   0.926
 1525TIP3    H2 4533   3.319   4.946   0.848
 1526TIP3   OH2 4534   3.144   4.435   0.135
 1526TIP3    H1 4535   3.139   4.507   0.197
 1526TIP3    H2 4536   3.200   4.468   0.064
 1527TIP3   OH2 4537   8.319   0.441   6.887
 1527TIP3    H1 4538   8.320   0.531   6.918
 1527TIP3    H2 4539   8.411   0.414   6.889
 1528TIP3   OH2 4540   3.901   4.929   0.831
 1528TIP3    H1 4541   3.805   4.925   0.834
 1528TIP3    H2 4542   3.925   4.898   0.744
 1529TIP3   OH2 4543   3.558   5.138   0.229
 1529TIP3    H1 4544   3.503   5.083   0.174
 1529TIP3    H2 4545   3.620   5.077   0.269
 1530TIP3   OH2 4546   7.901   0.631   6.749
 1530TIP3    H1 4547   7.890   0.726   6.745
 1530TIP3    H2 4548   7.820   0.595   6.713
 1531TIP3   OH2 4549   3.534   6.072   0.184
 1531TIP3    H1 4550   3.493   6.076   0.097
 1531TIP3    H2 4551   3.627   6.059   0.165
 1532TIP3   OH2 4552   2.598   4.348   0.690
 1532TIP3    H1 4553   2.571   4.317   0.604
 1532TIP3    H2 4554   2.590   4.272   0.748
 1533TIP3   OH2 4555   2.115   5.558   0.056
 1533TIP3    H1 4556   2.065   5.618   0.111
 1533TIP3    H2 4557   2.175   5.616   0.008
 1534TIP3   OH2 4558   2.310   6.115   1.149
 1534TIP3    H1 4559   2.389   6.134   1.199
 1534TIP3    H2 4560   2.311   6.020   1.137
 1535TIP3   OH2 4561   2.773   6.067   1.189
 1535TIP3    H1 4562   2.868   6.061   1.200
 1535TIP3    H2 4563   2.754   6.008   1.116
 1536TIP3   OH2 4564   3.414   5.981   0.927
 1536TIP3    H1 4565   3.409   5.912   0.993
 1536TIP3    H2 4566   3.493   6.030   0.951
 1537TIP3   OH2 4567   2.431   5.515   1.347
 1537TIP3    H1 4568   2.452   5.422   1.358
 1537TIP3    H2 4569   2.344   5.515   1.307
 1538TIP3   OH2 4570   3.031   5.599   1.119
 1538TIP3    H1 4571   3.001   5.623   1.031
 1538TIP3    H2 4572   3.068   5.511   1.108
 1539TIP3   OH2 4573   3.525   5.620   0.726
 1539TIP3    H1 4574   3.605   5.650   0.684
 1539TIP3    H2 4575   3.460   5.687   0.706
 1540TIP3   OH2 4576   2.551   5.255   1.324
 1540TIP3    H1 4577   2.625   5.203   1.294
 1540TIP3    H2 4578   2.577   5.284   1.412
 1541TIP3   OH2 4579   8.287   1.062   6.703
 1541TIP3    H1 4580   8.254   1.014   6.778
 1541TIP3    H2 4581   8.366   1.014   6.677
 1542TIP3   OH2 4582   2.873   5.126   0.978
 1542TIP3    H1 4583   2.804   5.193   0.985
 1542TIP3    H2 4584   2.933   5.161   0.912
 1543TIP3   OH2 4585   3.402   5.534   1.121
 1543TIP3    H1 4586   3.480   5.510   1.070
 1543TIP3    H2 4587   3.398   5.471   1.192
 1544TIP3   OH2 4588   3.003   4.924   1.112
 1544TIP3    H1 4589   3.009   4.845   1.059
 1544TIP3    H2 4590   2.962   4.989   1.055
 1545TIP3   OH2 4591   3.007   4.710   0.926
 1545TIP3    H1 4592   3.040   4.753   0.847
 1545TIP3    H2 4593   2.917   4.687   0.905
 1546TIP3   OH2 4594   3.032   5.246   0.798
 1546TIP3    H1 4595   3.119   5.250   0.759
 1546TIP3    H2 4596   2.980   5.310   0.750
 1547TIP3   OH2 4597   3.619   5.212   1.174
 1547TIP3    H1 4598   3.664   5.127   1.179
 1547TIP3    H2 4599   3.684   5.271   1.135
 1548TIP3   OH2 4600   3.658   5.469   0.908
 1548TIP3    H1 4601   3.600   5.522   0.853
 1548TIP3    H2 4602   3.746   5.487   0.874
 1549TIP3   OH2 4603   2.882   5.030   1.345
 1549TIP3    H1 4604   2.817   4.962   1.362
 1549TIP3    H2 4605   2.918   5.008   1.259
 1550TIP3   OH2 4606   3.140   4.472   0.992
 1550TIP3    H1 4607   3.093   4.553   0.969
 1550TIP3    H2 4608   3.075   4.403   0.979
 1551TIP3   OH2 4609   3.264   4.973   1.208
 1551TIP3    H1 4610   3.257   4.960   1.303
 1551TIP3    H2 4611   3.178   4.951   1.174
 1552TIP3   OH2 4612   3.507   4.932   1.064
 1552TIP3    H1 4613   3.433   4.929   1.125
 1552TIP3    H2 4614   3.581   4.901   1.115
 1553TIP3   OH2 4615   3.727   4.865   1.213
 1553TIP3    H1 4616   3.746   4.772   1.226
 1553TIP3    H2 4617   3.731   4.902   1.302
 1554TIP3   OH2 4618   2.724   4.809   1.403
 1554TIP3    H1 4619   2.728   4.721   1.366
 1554TIP3    H2 4620   2.762   4.800   1.491
 1555TIP3   OH2 4621   3.232   4.478   1.249
 1555TIP3    H1 4622   3.300   4.412   1.246
 1555TIP3    H2 4623   3.193   4.478   1.162
 1556TIP3   OH2 4624   3.298   4.695   1.409
 1556TIP3    H1 4625   3.281   4.625   1.346
 1556TIP3    H2 4626   3.223   4.754   1.401
 1557TIP3   OH2 4627   7.681   1.300   6.675
 1557TIP3    H1 4628   7.743   1.298   6.601
 1557TIP3    H2 4629   7.624   1.225   6.661
 1558TIP3   OH2 4630   1.918   5.901   0.120
 1558TIP3    H1 4631   1.835   5.941   0.148
 1558TIP3    H2 4632   1.952   5.858   0.199
 1559TIP3   OH2 4633   2.066   5.770   0.319
 1559TIP3    H1 4634   2.040   5.700   0.378
 1559TIP3    H2 4635   2.115   5.832   0.373
 1560TIP3   OH2 4636   3.798   6.191   0.405
 1560TIP3    H1 4637   3.770   6.100   0.403
 1560TIP3    H2 4638   3.886   6.189   0.443
 1561TIP3   OH2 4639   3.853   5.870   0.982
 1561TIP3    H1 4640   3.783   5.880   1.047
 1561TIP3    H2 4641   3.898   5.954   0.982
 1562TIP3   OH2 4642   3.843   5.625   0.220
 1562TIP3    H1 4643   3.894   5.564   0.166
 1562TIP3    H2 4644   3.821   5.697   0.161
 1563TIP3   OH2 4645   3.682   5.937   0.428
 1563TIP3    H1 4646   3.618   5.978   0.486
 1563TIP3    H2 4647   3.631   5.883   0.368
 1564TIP3   OH2 4648   0.850   1.082   6.904
 1564TIP3    H1 4649   0.778   1.024   6.880
 1564TIP3    H2 4650   0.825   1.115   6.991
 1565TIP3   OH2 4651   2.235   5.197   0.693
 1565TIP3    H1 4652   2.228   5.156   0.607
 1565TIP3    H2 4653   2.328   5.193   0.714
 1566TIP3   OH2 4654   3.905   5.532   0.804
 1566TIP3    H1 4655   3.974   5.465   0.796
 1566TIP3    H2 4656   3.931   5.601   0.743
 1567TIP3   OH2 4657   4.083   5.328   0.818
 1567TIP3    H1 4658   4.010   5.281   0.857
 1567TIP3    H2 4659   4.158   5.271   0.832
 1568TIP3   OH2 4660   0.789   0.786   6.728
 1568TIP3    H1 4661   0.817   0.704   6.769
 1568TIP3    H2 4662   0.866   0.843   6.734
 1569TIP3   OH2 4663   3.762   4.987   0.345
 1569TIP3    H1 4664   3.843   5.011   0.301
 1569TIP3    H2 4665   3.772   5.020   0.434
 1570TIP3   OH2 4666   3.841   5.139   0.572
 1570TIP3    H1 4667   3.763   5.174   0.615
 1570TIP3    H2 4668   3.876   5.213   0.522
 1571TIP3   OH2 4669   2.459   4.864   1.375
 1571TIP3    H1 4670   2.555   4.861   1.374
 1571TIP3    H2 4671   2.432   4.779   1.410
 1572TIP3   OH2 4672   4.281   4.725   1.120
 1572TIP3    H1 4673   4.348   4.666   1.086
 1572TIP3    H2 4674   4.259   4.782   1.046
 1573TIP3   OH2 4675   0.878   0.552   6.828
 1573TIP3    H1 4676   0.931   0.538   6.907
 1573TIP3    H2 4677   0.821   0.476   6.823
 1574TIP3   OH2 4678   2.420   4.561   0.708
 1574TIP3    H1 4679   2.475   4.482   0.711
 1574TIP3    H2 4680   2.482   4.633   0.692
 1575TIP3   OH2 4681   2.220   4.838   0.768
 1575TIP3    H1 4682   2.262   4.821   0.684
 1575TIP3    H2 4683   2.274   4.905   0.810
 1576TIP3   OH2 4684   4.157   4.869   0.922
 1576TIP3    H1 4685   4.074   4.914   0.941
 1576TIP3    H2 4686   4.132   4.794   0.869
 1577TIP3   OH2 4687   2.205   4.335   0.272
 1577TIP3    H1 4688   2.115   4.329   0.304
 1577TIP3    H2 4689   2.199   4.393   0.195
 1578TIP3   OH2 4690   2.424   4.417   1.090
 1578TIP3    H1 4691   2.373   4.409   1.171
 1578TIP3    H2 4692   2.361   4.451   1.026
 1579TIP3   OH2 4693   2.451   5.854   1.163
 1579TIP3    H1 4694   2.376   5.796   1.147
 1579TIP3    H2 4695   2.480   5.831   1.252
 1580TIP3   OH2 4696   2.647   5.881   0.707
 1580TIP3    H1 4697   2.599   5.955   0.672
 1580TIP3    H2 4698   2.734   5.887   0.666
 1581TIP3   OH2 4699   3.087   6.123   0.850
 1581TIP3    H1 4700   3.127   6.119   0.937
 1581TIP3    H2 4701   3.150   6.171   0.796
 1582TIP3   OH2 4702   3.271   6.271   0.710
 1582TIP3    H1 4703   3.341   6.219   0.671
 1582TIP3    H2 4704   3.316   6.331   0.770
 1583TIP3   OH2 4705   4.060   4.630   0.808
 1583TIP3    H1 4706   3.973   4.628   0.769
 1583TIP3    H2 4707   4.093   4.541   0.798
 1584TIP3   OH2 4708   2.305   6.122   0.722
 1584TIP3    H1 4709   2.217   6.158   0.713
 1584TIP3    H2 4710   2.339   6.161   0.803
 1585TIP3   OH2 4711   2.551   6.110   0.594
 1585TIP3    H1 4712   2.465   6.122   0.634
 1585TIP3    H2 4713   2.541   6.143   0.505
 1586TIP3   OH2 4714   2.978   6.139   0.403
 1586TIP3    H1 4715   2.929   6.152   0.322
 1586TIP3    H2 4716   2.987   6.226   0.440
 1587TIP3   OH2 4717   3.244   6.072   0.438
 1587TIP3    H1 4718   3.153   6.098   0.428
 1587TIP3    H2 4719   3.294   6.150   0.413
 1588TIP3   OH2 4720   3.449   6.259   0.372
 1588TIP3    H1 4721   3.433   6.340   0.324
 1588TIP3    H2 4722   3.487   6.199   0.308
 1589TIP3   OH2 4723   2.236   5.929   0.473
 1589TIP3    H1 4724   2.275   5.958   0.556
 1589TIP3    H2 4725   2.306   5.878   0.431
 1590TIP3   OH2 4726   2.431   5.795   0.341
 1590TIP3    H1 4727   2.446   5.712   0.386
 1590TIP3    H2 4728   2.519   5.834   0.334
 1591TIP3   OH2 4729   2.693   5.888   0.349
 1591TIP3    H1 4730   2.724   5.800   0.329
 1591TIP3    H2 4731   2.741   5.914   0.428
 1592TIP3   OH2 4732   3.266   4.546   0.428
 1592TIP3    H1 4733   3.225   4.474   0.477
 1592TIP3    H2 4734   3.342   4.507   0.386
 1593TIP3   OH2 4735   3.779   4.431   0.346
 1593TIP3    H1 4736   3.819   4.476   0.271
 1593TIP3    H2 4737   3.686   4.451   0.338
 1594TIP3   OH2 4738   3.883   4.511   0.103
 1594TIP3    H1 4739   3.950   4.459   0.060
 1594TIP3    H2 4740   3.909   4.602   0.089
 1595TIP3   OH2 4741   2.513   4.253   0.443
 1595TIP3    H1 4742   2.421   4.225   0.447
 1595TIP3    H2 4743   2.562   4.171   0.439
 1596TIP3   OH2 4744   2.287   4.127   0.090
 1596TIP3    H1 4745   2.336   4.174   0.022
 1596TIP3    H2 4746   2.272   4.193   0.158
 1597TIP3   OH2 4747   2.963   4.287   0.327
 1597TIP3    H1 4748   3.012   4.333   0.259
 1597TIP3    H2 4749   2.992   4.327   0.409
 1598TIP3   OH2 4750   3.496   4.436   0.313
 1598TIP3    H1 4751   3.503   4.411   0.221
 1598TIP3    H2 4752   3.484   4.353   0.359
 1599TIP3   OH2 4753   0.699   0.352   6.849
 1599TIP3    H1 4754   0.613   0.392   6.836
 1599TIP3    H2 4755   0.680   0.264   6.883
 1600TIP3   OH2 4756   8.099   0.261   6.846
 1600TIP3    H1 4757   8.115   0.233   6.755
 1600TIP3    H2 4758   8.169   0.324   6.864
 1601TIP3   OH2 4759   0.094   0.438   6.901
 1601TIP3    H1 4760   0.159   0.392   6.954
 1601TIP3    H2 4761   0.107   0.530   6.923
 1602TIP3   OH2 4762   2.723   4.535   1.337
 1602TIP3    H1 4763   2.685   4.465   1.390
 1602TIP3    H2 4764   2.815   4.536   1.362
 1603TIP3   OH2 4765   2.973   4.532   1.454
 1603TIP3    H1 4766   3.057   4.515   1.410
 1603TIP3    H2 4767   2.964   4.461   1.517
 1604TIP3   OH2 4768   3.801   4.596   1.242
 1604TIP3    H1 4769   3.818   4.566   1.331
 1604TIP3    H2 4770   3.887   4.594   1.199
 1605TIP3   OH2 4771   3.730   6.148   0.739
 1605TIP3    H1 4772   3.655   6.118   0.688
 1605TIP3    H2 4773   3.720   6.244   0.742
 1606TIP3   OH2 4774   4.320   5.418   0.238
 1606TIP3    H1 4775   4.341   5.351   0.304
 1606TIP3    H2 4776   4.349   5.500   0.278
 1607TIP3   OH2 4777   4.188   5.049   0.092
 1607TIP3    H1 4778   4.283   5.041   0.095
 1607TIP3    H2 4779   4.172   5.117   0.026
 1608TIP3   OH2 4780   4.545   4.891   0.374
 1608TIP3    H1 4781   4.497   4.923   0.298
 1608TIP3    H2 4782   4.488   4.911   0.448
 1609TIP3   OH2 4783   4.453   4.983   0.132
 1609TIP3    H1 4784   4.501   5.066   0.136
 1609TIP3    H2 4785   4.481   4.943   0.049
 1610TIP3   OH2 4786   4.888   4.592   0.132
 1610TIP3    H1 4787   4.860   4.506   0.164
 1610TIP3    H2 4788   4.815   4.650   0.153
 1611TIP3   OH2 4789   4.624   5.926   0.478
 1611TIP3    H1 4790   4.609   6.020   0.482
 1611TIP3    H2 4791   4.542   5.889   0.445
 1612TIP3   OH2 4792   4.433   5.546   0.481
 1612TIP3    H1 4793   4.429   5.641   0.470
 1612TIP3    H2 4794   4.350   5.523   0.522
 1613TIP3   OH2 4795   4.453   6.159   0.473
 1613TIP3    H1 4796   4.428   6.087   0.415
 1613TIP3    H2 4797   4.392   6.152   0.547
 1614TIP3   OH2 4798   4.022   5.660   0.445
 1614TIP3    H1 4799   3.978   5.638   0.363
 1614TIP3    H2 4800   4.091   5.595   0.454
 1615TIP3   OH2 4801   5.623   5.471   0.437
 1615TIP3    H1 4802   5.677   5.493   0.361
 1615TIP3    H2 4803   5.614   5.376   0.434
 1616TIP3   OH2 4804   4.653   4.697   0.218
 1616TIP3    H1 4805   4.568   4.664   0.187
 1616TIP3    H2 4806   4.630   4.773   0.271
 1617TIP3   OH2 4807   5.201   4.801   0.399
 1617TIP3    H1 4808   5.269   4.781   0.463
 1617TIP3    H2 4809   5.119   4.784   0.445
 1618TIP3   OH2 4810   5.458   5.236   0.347
 1618TIP3    H1 4811   5.404   5.214   0.423
 1618TIP3    H2 4812   5.395   5.247   0.275
 1619TIP3   OH2 4813   4.605   5.222   0.214
 1619TIP3    H1 4814   4.557   5.233   0.296
 1619TIP3    H2 4815   4.546   5.255   0.147
 1620TIP3   OH2 4816   5.145   5.448   0.552
 1620TIP3    H1 4817   5.120   5.375   0.608
 1620TIP3    H2 4818   5.238   5.460   0.568
 1621TIP3   OH2 4819   4.413   5.226   0.425
 1621TIP3    H1 4820   4.452   5.287   0.488
 1621TIP3    H2 4821   4.401   5.145   0.475
 1622TIP3   OH2 4822   4.014   4.734   0.027
 1622TIP3    H1 4823   4.080   4.764   0.090
 1622TIP3    H2 4824   4.023   4.794  -0.047
 1623TIP3   OH2 4825   4.861   5.096   0.204
 1623TIP3    H1 4826   4.780   5.145   0.192
 1623TIP3    H2 4827   4.927   5.163   0.223
 1624TIP3   OH2 4828   4.998   5.829   0.334
 1624TIP3    H1 4829   5.013   5.818   0.428
 1624TIP3    H2 4830   4.914   5.875   0.328
 1625TIP3   OH2 4831   4.185   5.462   0.567
 1625TIP3    H1 4832   4.204   5.455   0.660
 1625TIP3    H2 4833   4.109   5.405   0.553
 1626TIP3   OH2 4834   4.907   5.581   0.594
 1626TIP3    H1 4835   4.844   5.532   0.541
 1626TIP3    H2 4836   4.992   5.544   0.570
 1627TIP3   OH2 4837   4.381   4.974   0.579
 1627TIP3    H1 4838   4.286   4.975   0.589
 1627TIP3    H2 4839   4.412   4.921   0.652
 1628TIP3   OH2 4840   4.092   6.018   0.281
 1628TIP3    H1 4841   4.149   5.942   0.295
 1628TIP3    H2 4842   4.116   6.078   0.352
 1629TIP3   OH2 4843   5.205   5.057   0.292
 1629TIP3    H1 4844   5.297   5.062   0.270
 1629TIP3    H2 4845   5.194   4.968   0.328
 1630TIP3   OH2 4846   5.046   5.288   0.331
 1630TIP3    H1 4847   5.089   5.336   0.402
 1630TIP3    H2 4848   5.099   5.210   0.318
 1631TIP3   OH2 4849   4.399   4.607   0.200
 1631TIP3    H1 4850   4.365   4.578   0.115
 1631TIP3    H2 4851   4.390   4.531   0.257
 1632TIP3   OH2 4852   4.083   6.347   0.680
 1632TIP3    H1 4853   4.177   6.355   0.698
 1632TIP3    H2 4854   4.073   6.257   0.650
 1633TIP3   OH2 4855   4.575   6.324   0.672
 1633TIP3    H1 4856   4.668   6.300   0.674
 1633TIP3    H2 4857   4.540   6.279   0.595
 1634TIP3   OH2 4858   4.216   5.781   0.842
 1634TIP3    H1 4859   4.262   5.700   0.817
 1634TIP3    H2 4860   4.137   5.782   0.788
 1635TIP3   OH2 4861   4.852   5.859   0.599
 1635TIP3    H1 4862   4.774   5.874   0.545
 1635TIP3    H2 4863   4.864   5.764   0.597
 1636TIP3   OH2 4864   4.350   5.507   0.810
 1636TIP3    H1 4865   4.431   5.461   0.788
 1636TIP3    H2 4866   4.367   5.543   0.898
 1637TIP3   OH2 4867   4.653   5.384   0.492
 1637TIP3    H1 4868   4.581   5.446   0.496
 1637TIP3    H2 4869   4.712   5.420   0.425
 1638TIP3   OH2 4870   5.199   5.796   0.610
 1638TIP3    H1 4871   5.294   5.798   0.607
 1638TIP3    H2 4872   5.178   5.726   0.673
 1639TIP3   OH2 4873   4.802   5.178   0.603
 1639TIP3    H1 4874   4.806   5.098   0.552
 1639TIP3    H2 4875   4.751   5.239   0.550
 1640TIP3   OH2 4876   4.803   4.957   0.432
 1640TIP3    H1 4877   4.833   4.999   0.351
 1640TIP3    H2 4878   4.711   4.935   0.415
 1641TIP3   OH2 4879   4.819   5.511   0.322
 1641TIP3    H1 4880   4.909   5.477   0.321
 1641TIP3    H2 4881   4.821   5.583   0.259
 1642TIP3   OH2 4882   5.422   5.466   0.660
 1642TIP3    H1 4883   5.437   5.372   0.666
 1642TIP3    H2 4884   5.499   5.500   0.616
 1643TIP3   OH2 4885   4.680   5.286   0.836
 1643TIP3    H1 4886   4.614   5.219   0.852
 1643TIP3    H2 4887   4.714   5.266   0.749
 1644TIP3   OH2 4888   4.938   4.722   0.477
 1644TIP3    H1 4889   4.891   4.804   0.464
 1644TIP3    H2 4890   4.871   4.654   0.468
 1645TIP3   OH2 4891   5.056   5.235   0.695
 1645TIP3    H1 4892   5.048   5.211   0.788
 1645TIP3    H2 4893   4.972   5.212   0.657
 1646TIP3   OH2 4894   5.307   5.191   0.568
 1646TIP3    H1 4895   5.225   5.181   0.617
 1646TIP3    H2 4896   5.372   5.145   0.622
 1647TIP3   OH2 4897   5.544   5.122   0.703
 1647TIP3    H1 4898   5.550   5.028   0.718
 1647TIP3    H2 4899   5.532   5.160   0.790
 1648TIP3   OH2 4900   4.520   5.065   0.890
 1648TIP3    H1 4901   4.527   4.977   0.853
 1648TIP3    H2 4902   4.561   5.058   0.976
 1649TIP3   OH2 4903   5.030   4.738   0.736
 1649TIP3    H1 4904   5.091   4.664   0.738
 1649TIP3    H2 4905   4.991   4.734   0.649
 1650TIP3   OH2 4906   5.116   4.975   0.855
 1650TIP3    H1 4907   5.093   4.890   0.818
 1650TIP3    H2 4908   5.032   5.015   0.878
 1651TIP3   OH2 4909   4.049   5.419   0.186
 1651TIP3    H1 4910   4.047   5.420   0.090
 1651TIP3    H2 4911   4.141   5.429   0.208
 1652TIP3   OH2 4912   4.255   5.119   0.855
 1652TIP3    H1 4913   4.351   5.118   0.858
 1652TIP3    H2 4914   4.228   5.035   0.892
 1653TIP3   OH2 4915   6.096   4.989   0.607
 1653TIP3    H1 4916   6.148   4.918   0.572
 1653TIP3    H2 4917   6.096   5.056   0.539
 1654TIP3   OH2 4918   4.201   4.796   0.230
 1654TIP3    H1 4919   4.275   4.735   0.225
 1654TIP3    H2 4920   4.232   4.875   0.187
 1655TIP3   OH2 4921   4.004   5.091   0.287
 1655TIP3    H1 4922   4.064   5.066   0.217
 1655TIP3    H2 4923   4.030   5.180   0.311
 1656TIP3   OH2 4924   5.913   5.138   0.445
 1656TIP3    H1 4925   5.832   5.127   0.495
 1656TIP3    H2 4926   5.918   5.060   0.389
 1657TIP3   OH2 4927   4.218   4.665   0.572
 1657TIP3    H1 4928   4.171   4.668   0.655
 1657TIP3    H2 4929   4.160   4.707   0.509
 1658TIP3   OH2 4930   4.262   6.111   0.657
 1658TIP3    H1 4931   4.182   6.067   0.626
 1658TIP3    H2 4932   4.282   6.069   0.740
 1659TIP3   OH2 4933   5.818   4.868   0.318
 1659TIP3    H1 4934   5.739   4.835   0.276
 1659TIP3    H2 4935   5.880   4.796   0.313
 1660TIP3   OH2 4936   4.045   6.397   0.350
 1660TIP3    H1 4937   4.033   6.462   0.280
 1660TIP3    H2 4938   4.101   6.330   0.311
 1661TIP3   OH2 4939   1.467   0.488   6.920
 1661TIP3    H1 4940   1.374   0.465   6.915
 1661TIP3    H2 4941   1.513   0.410   6.890
 1662TIP3   OH2 4942   4.529   4.787   0.824
 1662TIP3    H1 4943   4.482   4.723   0.878
 1662TIP3    H2 4944   4.619   4.785   0.857
 1663TIP3   OH2 4945   4.778   4.775   0.958
 1663TIP3    H1 4946   4.853   4.766   0.900
 1663TIP3    H2 4947   4.804   4.729   1.038
 1664TIP3   OH2 4948   5.601   4.852   0.730
 1664TIP3    H1 4949   5.612   4.825   0.821
 1664TIP3    H2 4950   5.690   4.848   0.694
 1665TIP3   OH2 4951   0.385   6.034   1.814
 1665TIP3    H1 4952   0.412   5.952   1.772
 1665TIP3    H2 4953   0.290   6.026   1.824
 1666TIP3   OH2 4954   1.853   6.365   0.588
 1666TIP3    H1 4955   1.889   6.446   0.624
 1666TIP3    H2 4956   1.876   6.368   0.495
 1667TIP3   OH2 4957   1.938   6.579   0.753
 1667TIP3    H1 4958   1.874   6.636   0.712
 1667TIP3    H2 4959   1.953   6.617   0.840
 1668TIP3   OH2 4960   1.676   6.261   0.776
 1668TIP3    H1 4961   1.586   6.292   0.763
 1668TIP3    H2 4962   1.723   6.294   0.700
 1669TIP3   OH2 4963   1.711   6.748   1.067
 1669TIP3    H1 4964   1.627   6.760   1.024
 1669TIP3    H2 4965   1.730   6.655   1.060
 1670TIP3   OH2 4966   1.241   6.085   1.087
 1670TIP3    H1 4967   1.317   6.059   1.139
 1670TIP3    H2 4968   1.166   6.073   1.145
 1671TIP3   OH2 4969   1.487   6.544   0.984
 1671TIP3    H1 4970   1.448   6.507   1.063
 1671TIP3    H2 4971   1.431   6.619   0.963
 1672TIP3   OH2 4972   1.190   6.780   1.245
 1672TIP3    H1 4973   1.159   6.692   1.263
 1672TIP3    H2 4974   1.279   6.782   1.281
 1673TIP3   OH2 4975   1.354   6.282   0.934
 1673TIP3    H1 4976   1.394   6.329   1.007
 1673TIP3    H2 4977   1.314   6.205   0.974
 1674TIP3   OH2 4978   1.750   6.488   0.980
 1674TIP3    H1 4979   1.655   6.493   0.981
 1674TIP3    H2 4980   1.771   6.442   0.898
 1675TIP3   OH2 4981   1.237   7.093   1.315
 1675TIP3    H1 4982   1.323   7.123   1.286
 1675TIP3    H2 4983   1.256   7.033   1.388
 1676TIP3   OH2 4984   1.465   6.768   1.320
 1676TIP3    H1 4985   1.517   6.690   1.338
 1676TIP3    H2 4986   1.529   6.834   1.295
 1677TIP3   OH2 4987   1.510   7.024   1.052
 1677TIP3    H1 4988   1.452   7.092   1.019
 1677TIP3    H2 4989   1.593   7.039   1.007
 1678TIP3   OH2 4990   0.970   6.003   1.147
 1678TIP3    H1 4991   0.960   6.053   1.066
 1678TIP3    H2 4992   0.979   5.912   1.119
 1679TIP3   OH2 4993   1.109   6.541   1.362
 1679TIP3    H1 4994   1.137   6.549   1.454
 1679TIP3    H2 4995   1.041   6.474   1.365
 1680TIP3   OH2 4996   1.355   6.463   1.202
 1680TIP3    H1 4997   1.279   6.478   1.258
 1680TIP3    H2 4998   1.427   6.446   1.262
 1681TIP3   OH2 4999   1.572   6.421   1.360
 1681TIP3    H1 5000   1.588   6.328   1.378
 1681TIP3    H2 5001   1.569   6.461   1.446
 1682TIP3   OH2 5002   1.083   6.039   1.402
 1682TIP3    H1 5003   1.145   5.967   1.396
 1682TIP3    H2 5004   1.025   6.028   1.327
 1683TIP3   OH2 5005   1.145   6.257   1.557
 1683TIP3    H1 5006   1.131   6.182   1.500
 1683TIP3    H2 5007   1.061   6.304   1.554
 1684TIP3   OH2 5008   1.705   7.443   1.138
 1684TIP3    H1 5009   1.633   7.437   1.200
 1684TIP3    H2 5010   1.743   7.529   1.154
 1685TIP3   OH2 5011   1.777   7.099   0.935
 1685TIP3    H1 5012   1.831   7.023   0.956
 1685TIP3    H2 5013   1.794   7.117   0.842
 1686TIP3   OH2 5014   1.927   6.884   0.983
 1686TIP3    H1 5015   1.855   6.833   1.020
 1686TIP3    H2 5016   2.002   6.824   0.987
 1687TIP3   OH2 5017   2.128   6.285   1.273
 1687TIP3    H1 5018   2.192   6.224   1.236
 1687TIP3    H2 5019   2.101   6.340   1.199
 1688TIP3   OH2 5020   2.001   6.425   1.079
 1688TIP3    H1 5021   1.921   6.472   1.103
 1688TIP3    H2 5022   1.971   6.353   1.024
 1689TIP3   OH2 5023   1.899   6.193   0.960
 1689TIP3    H1 5024   1.813   6.191   0.919
 1689TIP3    H2 5025   1.933   6.104   0.950
 1690TIP3   OH2 5026   1.691   5.990   0.488
 1690TIP3    H1 5027   1.717   6.068   0.439
 1690TIP3    H2 5028   1.601   5.974   0.463
 1691TIP3   OH2 5029   1.233   6.814   1.137
 1691TIP3    H1 5030   1.243   6.779   1.226
 1691TIP3    H2 5031   1.286   6.894   1.137
 1692TIP3   OH2 5032   0.813   6.091   1.644
 1692TIP3    H1 5033   0.889   6.054   1.599
 1692TIP3    H2 5034   0.776   6.017   1.692
 1693TIP3   OH2 5035   1.643   6.152   1.392
 1693TIP3    H1 5036   1.657   6.122   1.482
 1693TIP3    H2 5037   1.730   6.150   1.352
 1694TIP3   OH2 5038   2.162   6.982   0.424
 1694TIP3    H1 5039   2.190   6.910   0.482
 1694TIP3    H2 5040   2.243   7.009   0.381
 1695TIP3   OH2 5041   2.405   6.478   0.078
 1695TIP3    H1 5042   2.343   6.528   0.025
 1695TIP3    H2 5043   2.390   6.387   0.054
 1696TIP3   OH2 5044   3.716   6.832   0.254
 1696TIP3    H1 5045   3.678   6.915   0.226
 1696TIP3    H2 5046   3.779   6.855   0.322
 1697TIP3   OH2 5047   2.386   6.443   0.518
 1697TIP3    H1 5048   2.336   6.479   0.445
 1697TIP3    H2 5049   2.334   6.464   0.595
 1698TIP3   OH2 5050   2.536   7.234   0.293
 1698TIP3    H1 5051   2.446   7.258   0.315
 1698TIP3    H2 5052   2.575   7.315   0.261
 1699TIP3   OH2 5053   2.263   6.549   0.302
 1699TIP3    H1 5054   2.299   6.635   0.324
 1699TIP3    H2 5055   2.312   6.522   0.224
 1700TIP3   OH2 5056   3.407   6.491   0.232
 1700TIP3    H1 5057   3.312   6.493   0.221
 1700TIP3    H2 5058   3.437   6.577   0.201
 1701TIP3   OH2 5059   2.740   6.171   0.225
 1701TIP3    H1 5060   2.741   6.077   0.244
 1701TIP3    H2 5061   2.666   6.206   0.274
 1702TIP3   OH2 5062   3.254   7.055   0.384
 1702TIP3    H1 5063   3.246   7.122   0.453
 1702TIP3    H2 5064   3.165   7.047   0.349
 1703TIP3   OH2 5065   2.423   6.985   0.234
 1703TIP3    H1 5066   2.429   6.966   0.141
 1703TIP3    H2 5067   2.475   7.064   0.245
 1704TIP3   OH2 5068   2.559   7.455   0.547
 1704TIP3    H1 5069   2.528   7.540   0.578
 1704TIP3    H2 5070   2.481   7.412   0.512
 1705TIP3   OH2 5071   2.295   7.104   0.667
 1705TIP3    H1 5072   2.297   7.189   0.711
 1705TIP3    H2 5073   2.202   7.087   0.652
 1706TIP3   OH2 5074   3.499   7.003   0.532
 1706TIP3    H1 5075   3.423   7.015   0.475
 1706TIP3    H2 5076   3.513   6.908   0.533
 1707TIP3   OH2 5077   2.086   7.412   0.603
 1707TIP3    H1 5078   2.164   7.404   0.658
 1707TIP3    H2 5079   2.037   7.331   0.619
 1708TIP3   OH2 5080   2.503   6.243   0.358
 1708TIP3    H1 5081   2.418   6.212   0.327
 1708TIP3    H2 5082   2.485   6.324   0.404
 1709TIP3   OH2 5083   3.043   6.359   0.552
 1709TIP3    H1 5084   3.113   6.332   0.611
 1709TIP3    H2 5085   2.963   6.339   0.600
 1710TIP3   OH2 5086   3.269   6.787   0.462
 1710TIP3    H1 5087   3.225   6.790   0.547
 1710TIP3    H2 5088   3.257   6.875   0.426
 1711TIP3   OH2 5089   2.428   6.758   0.380
 1711TIP3    H1 5090   2.387   6.786   0.462
 1711TIP3    H2 5091   2.428   6.837   0.325
 1712TIP3   OH2 5092   2.992   6.998   0.694
 1712TIP3    H1 5093   2.972   6.930   0.758
 1712TIP3    H2 5094   3.080   7.028   0.717
 1713TIP3   OH2 5095   2.261   6.786   0.606
 1713TIP3    H1 5096   2.327   6.832   0.659
 1713TIP3    H2 5097   2.254   6.700   0.647
 1714TIP3   OH2 5098   2.994   7.005   0.310
 1714TIP3    H1 5099   2.977   6.988   0.218
 1714TIP3    H2 5100   2.954   6.931   0.356
 1715TIP3   OH2 5101   2.667   6.471  -0.024
 1715TIP3    H1 5102   2.586   6.496   0.022
 1715TIP3    H2 5103   2.732   6.461   0.045
 1716TIP3   OH2 5104   3.132   6.509   0.190
 1716TIP3    H1 5105   3.107   6.562   0.266
 1716TIP3    H2 5106   3.052   6.463   0.166
 1717TIP3   OH2 5107   2.279   7.348   0.795
 1717TIP3    H1 5108   2.359   7.373   0.843
 1717TIP3    H2 5109   2.213   7.339   0.863
 1718TIP3   OH2 5110   2.828   6.768   0.127
 1718TIP3    H1 5111   2.792   6.705   0.064
 1718TIP3    H2 5112   2.804   6.733   0.213
 1719TIP3   OH2 5113   7.994   2.239   6.896
 1719TIP3    H1 5114   7.968   2.153   6.928
 1719TIP3    H2 5115   8.077   2.224   6.851
 1720TIP3   OH2 5116   2.700   6.687   0.358
 1720TIP3    H1 5117   2.611   6.724   0.361
 1720TIP3    H2 5118   2.752   6.748   0.410
 1721TIP3   OH2 5119   2.856   7.438   0.435
 1721TIP3    H1 5120   2.893   7.376   0.498
 1721TIP3    H2 5121   2.768   7.458   0.469
 1722TIP3   OH2 5122   2.001   7.055   0.746
 1722TIP3    H1 5123   2.048   7.036   0.828
 1722TIP3    H2 5124   1.989   6.969   0.705
 1723TIP3   OH2 5125   2.753   7.118   0.739
 1723TIP3    H1 5126   2.699   7.076   0.673
 1723TIP3    H2 5127   2.843   7.092   0.717
 1724TIP3   OH2 5128   2.230   6.526   0.732
 1724TIP3    H1 5129   2.136   6.531   0.746
 1724TIP3    H2 5130   2.262   6.474   0.806
 1725TIP3   OH2 5131   3.054   6.609   0.434
 1725TIP3    H1 5132   3.137   6.648   0.461
 1725TIP3    H2 5133   3.051   6.526   0.481
 1726TIP3   OH2 5134   2.891   6.828   0.494
 1726TIP3    H1 5135   2.926   6.883   0.564
 1726TIP3    H2 5136   2.949   6.752   0.492
 1727TIP3   OH2 5137   3.535   6.736   0.479
 1727TIP3    H1 5138   3.440   6.731   0.473
 1727TIP3    H2 5139   3.565   6.734   0.387
 1728TIP3   OH2 5140   2.240   6.161   0.323
 1728TIP3    H1 5141   2.213   6.127   0.237
 1728TIP3    H2 5142   2.233   6.086   0.382
 1729TIP3   OH2 5143   2.060   7.294   0.962
 1729TIP3    H1 5144   2.100   7.207   0.962
 1729TIP3    H2 5145   1.967   7.277   0.982
 1730TIP3   OH2 5146   2.680   7.377   0.777
 1730TIP3    H1 5147   2.651   7.401   0.689
 1730TIP3    H2 5148   2.718   7.290   0.767
 1731TIP3   OH2 5149   3.145   7.435   0.380
 1731TIP3    H1 5150   3.185   7.502   0.325
 1731TIP3    H2 5151   3.057   7.469   0.398
 1732TIP3   OH2 5152   2.194   7.057   0.964
 1732TIP3    H1 5153   2.274   7.017   0.932
 1732TIP3    H2 5154   2.216   7.089   1.052
 1733TIP3   OH2 5155   2.509   6.938   0.616
 1733TIP3    H1 5156   2.445   7.008   0.629
 1733TIP3    H2 5157   2.571   6.974   0.553
 1734TIP3   OH2 5158   3.042   7.336   0.750
 1734TIP3    H1 5159   3.126   7.317   0.707
 1734TIP3    H2 5160   3.046   7.287   0.832
 1735TIP3   OH2 5161   2.639   6.737   0.752
 1735TIP3    H1 5162   2.646   6.659   0.698
 1735TIP3    H2 5163   2.599   6.803   0.694
 1736TIP3   OH2 5164   2.643   6.520   0.569
 1736TIP3    H1 5165   2.673   6.565   0.489
 1736TIP3    H2 5166   2.552   6.497   0.550
 1737TIP3   OH2 5167   2.681   7.058   0.449
 1737TIP3    H1 5168   2.771   7.053   0.416
 1737TIP3    H2 5169   2.638   7.120   0.391
 1738TIP3   OH2 5170   3.254   7.026   0.811
 1738TIP3    H1 5171   3.309   6.948   0.815
 1738TIP3    H2 5172   3.310   7.093   0.773
 1739TIP3   OH2 5173   3.261   7.263   0.561
 1739TIP3    H1 5174   3.216   7.326   0.505
 1739TIP3    H2 5175   3.353   7.288   0.558
 1740TIP3   OH2 5176   2.515   6.847   0.982
 1740TIP3    H1 5177   2.452   6.777   0.999
 1740TIP3    H2 5178   2.555   6.824   0.898
 1741TIP3   OH2 5179   2.778   6.286   0.629
 1741TIP3    H1 5180   2.731   6.366   0.609
 1741TIP3    H2 5181   2.714   6.216   0.616
 1742TIP3   OH2 5182   2.905   6.785   0.844
 1742TIP3    H1 5183   2.899   6.776   0.939
 1742TIP3    H2 5184   2.817   6.764   0.813
 1743TIP3   OH2 5185   3.145   6.740   0.700
 1743TIP3    H1 5186   3.071   6.744   0.760
 1743TIP3    H2 5187   3.220   6.715   0.754
 1744TIP3   OH2 5188   3.366   6.683   0.855
 1744TIP3    H1 5189   3.383   6.589   0.867
 1744TIP3    H2 5190   3.368   6.719   0.944
 1745TIP3   OH2 5191   2.360   6.624   1.040
 1745TIP3    H1 5192   2.371   6.537   1.003
 1745TIP3    H2 5193   2.397   6.618   1.128
 1746TIP3   OH2 5194   2.867   6.292   0.888
 1746TIP3    H1 5195   2.937   6.226   0.885
 1746TIP3    H2 5196   2.831   6.292   0.799
 1747TIP3   OH2 5197   2.935   6.510   1.046
 1747TIP3    H1 5198   2.917   6.440   0.983
 1747TIP3    H2 5199   2.860   6.569   1.037
 1748TIP3   OH2 5200   3.503   7.707   0.588
 1748TIP3    H1 5201   3.443   7.689   0.660
 1748TIP3    H2 5202   3.574   7.758   0.628
 1749TIP3   OH2 5203   3.527   7.330   0.497
 1749TIP3    H1 5204   3.597   7.266   0.509
 1749TIP3    H2 5205   3.544   7.369   0.411
 1750TIP3   OH2 5206   3.725   7.143   0.526
 1750TIP3    H1 5207   3.646   7.090   0.527
 1750TIP3    H2 5208   3.794   7.085   0.494
 1751TIP3   OH2 5209   2.095   6.671   0.997
 1751TIP3    H1 5210   2.191   6.672   1.003
 1751TIP3    H2 5211   2.069   6.588   1.038
 1752TIP3   OH2 5212   3.926   6.548   0.763
 1752TIP3    H1 5213   3.985   6.478   0.732
 1752TIP3    H2 5214   3.906   6.598   0.684
 1753TIP3   OH2 5215   2.055   6.370   0.349
 1753TIP3    H1 5216   2.122   6.302   0.356
 1753TIP3    H2 5217   2.104   6.450   0.329
 1754TIP3   OH2 5218   3.793   6.686   0.563
 1754TIP3    H1 5219   3.708   6.725   0.584
 1754TIP3    H2 5220   3.772   6.607   0.514
 1755TIP3   OH2 5221   2.051   6.220   0.720
 1755TIP3    H1 5222   2.009   6.229   0.806
 1755TIP3    H2 5223   1.991   6.264   0.659
 1756TIP3   OH2 5224   3.698   6.440   0.454
 1756TIP3    H1 5225   3.607   6.427   0.426
 1756TIP3    H2 5226   3.739   6.354   0.444
 1757TIP3   OH2 5227   2.923   6.343   0.082
 1757TIP3    H1 5228   2.863   6.289   0.133
 1757TIP3    H2 5229   2.944   6.290   0.005
 1758TIP3   OH2 5230   2.147   6.044   0.092
 1758TIP3    H1 5231   2.059   6.007   0.092
 1758TIP3    H2 5232   2.205   5.967   0.083
 1759TIP3   OH2 5233   2.602   6.065   0.009
 1759TIP3    H1 5234   2.679   6.043  -0.044
 1759TIP3    H2 5235   2.637   6.118   0.081
 1760TIP3   OH2 5236   2.361   6.345   0.967
 1760TIP3    H1 5237   2.322   6.278   1.023
 1760TIP3    H2 5238   2.453   6.348   0.993
 1761TIP3   OH2 5239   2.609   6.346   1.088
 1761TIP3    H1 5240   2.695   6.332   1.047
 1761TIP3    H2 5241   2.602   6.277   1.154
 1762TIP3   OH2 5242   3.438   6.412   0.878
 1762TIP3    H1 5243   3.454   6.381   0.967
 1762TIP3    H2 5244   3.524   6.410   0.836
 1763TIP3   OH2 5245   3.884   7.560   0.477
 1763TIP3    H1 5246   3.919   7.472   0.469
 1763TIP3    H2 5247   3.799   7.557   0.432
 1764TIP3   OH2 5248   3.998   7.317   0.459
 1764TIP3    H1 5249   4.018   7.223   0.456
 1764TIP3    H2 5250   4.022   7.343   0.548
 1765TIP3   OH2 5251   4.321   7.093   0.453
 1765TIP3    H1 5252   4.256   7.035   0.493
 1765TIP3    H2 5253   4.370   7.036   0.394
 1766TIP3   OH2 5254   4.152   6.894   0.535
 1766TIP3    H1 5255   4.150   6.805   0.501
 1766TIP3    H2 5256   4.190   6.885   0.623
 1767TIP3   OH2 5257   4.729   6.765   0.522
 1767TIP3    H1 5258   4.699   6.703   0.456
 1767TIP3    H2 5259   4.656   6.826   0.533
 1768TIP3   OH2 5260   3.891   6.926   0.467
 1768TIP3    H1 5261   3.985   6.928   0.485
 1768TIP3    H2 5262   3.859   6.849   0.514
 1769TIP3   OH2 5263   3.806   6.513   0.200
 1769TIP3    H1 5264   3.793   6.478   0.288
 1769TIP3    H2 5265   3.787   6.607   0.209
 1770TIP3   OH2 5266   4.155   6.631   0.480
 1770TIP3    H1 5267   4.122   6.544   0.455
 1770TIP3    H2 5268   4.244   6.615   0.512
 1771TIP3   OH2 5269   4.409   6.605   0.593
 1771TIP3    H1 5270   4.495   6.578   0.561
 1771TIP3    H2 5271   4.386   6.538   0.658
 1772TIP3   OH2 5272   1.390   0.037   3.994
 1772TIP3    H1 5273   1.390  -0.005   4.080
 1772TIP3    H2 5274   1.417   0.127   4.011
 1773TIP3   OH2 5275   1.048   0.503   3.979
 1773TIP3    H1 5276   1.096   0.425   3.949
 1773TIP3    H2 5277   1.032   0.487   4.072
 1774TIP3   OH2 5278   7.659   7.508   4.526
 1774TIP3    H1 5279   7.585   7.564   4.502
 1774TIP3    H2 5280   7.721   7.567   4.568
 1775TIP3   OH2 5281   1.456   0.300   4.132
 1775TIP3    H1 5282   1.366   0.295   4.162
 1775TIP3    H2 5283   1.462   0.384   4.088
 1776TIP3   OH2 5284   1.684   0.208   4.478
 1776TIP3    H1 5285   1.677   0.135   4.416
 1776TIP3    H2 5286   1.668   0.286   4.425
 1777TIP3   OH2 5287   7.544   7.862   4.321
 1777TIP3    H1 5288   7.464   7.914   4.328
 1777TIP3    H2 5289   7.580   7.884   4.235
 1778TIP3   OH2 5290   1.206   0.313   4.228
 1778TIP3    H1 5291   1.197   0.396   4.275
 1778TIP3    H2 5292   1.191   0.246   4.295
 1779TIP3   OH2 5293   1.929   0.557   4.528
 1779TIP3    H1 5294   1.929   0.463   4.548
 1779TIP3    H2 5295   1.846   0.588   4.564
 1780TIP3   OH2 5296   1.050   0.371   4.627
 1780TIP3    H1 5297   1.044   0.453   4.675
 1780TIP3    H2 5298   0.978   0.317   4.662
 1781TIP3   OH2 5299   7.481   7.686   4.800
 1781TIP3    H1 5300   7.403   7.742   4.802
 1781TIP3    H2 5301   7.447   7.598   4.787
 1782TIP3   OH2 5302   1.616   0.912   4.622
 1782TIP3    H1 5303   1.627   0.928   4.528
 1782TIP3    H2 5304   1.693   0.951   4.662
 1783TIP3   OH2 5305   1.647  -0.002   4.302
 1783TIP3    H1 5306   1.684   0.050   4.231
 1783TIP3    H2 5307   1.565  -0.037   4.266
 1784TIP3   OH2 5308   1.317   0.327   4.602
 1784TIP3    H1 5309   1.223   0.347   4.599
 1784TIP3    H2 5310   1.351   0.384   4.670
 1785TIP3   OH2 5311   1.934   0.270   4.566
 1785TIP3    H1 5312   1.839   0.265   4.565
 1785TIP3    H2 5313   1.960   0.242   4.478
 1786TIP3   OH2 5314   7.092   7.866   4.215
 1786TIP3    H1 5315   7.004   7.850   4.250
 1786TIP3    H2 5316   7.104   7.799   4.148
 1787TIP3   OH2 5317   0.834   0.442   4.468
 1787TIP3    H1 5318   0.856   0.512   4.407
 1787TIP3    H2 5319   0.914   0.426   4.517
 1788TIP3   OH2 5320   1.251   0.097   4.419
 1788TIP3    H1 5321   1.219   0.140   4.498
 1788TIP3    H2 5322   1.346   0.107   4.423
 1789TIP3   OH2 5323   1.436   0.590   4.456
 1789TIP3    H1 5324   1.353   0.544   4.441
 1789TIP3    H2 5325   1.436   0.660   4.391
 1790TIP3   OH2 5326   1.472   0.564   4.054
 1790TIP3    H1 5327   1.424   0.612   3.987
 1790TIP3    H2 5328   1.564   0.585   4.036
 1791TIP3   OH2 5329   1.383   0.467   4.840
 1791TIP3    H1 5330   1.416   0.404   4.903
 1791TIP3    H2 5331   1.430   0.548   4.859
 1792TIP3   OH2 5332   1.475   0.108   4.621
 1792TIP3    H1 5333   1.558   0.135   4.582
 1792TIP3    H2 5334   1.422   0.188   4.623
 1793TIP3   OH2 5335   7.299   7.951   4.778
 1793TIP3    H1 5336   7.241   8.005   4.724
 1793TIP3    H2 5337   7.387   7.975   4.749
 1794TIP3   OH2 5338   1.724   0.656   4.018
 1794TIP3    H1 5339   1.750   0.689   4.105
 1794TIP3    H2 5340   1.786   0.697   3.958
 1795TIP3   OH2 5341   1.750   0.677   4.298
 1795TIP3    H1 5342   1.708   0.592   4.294
 1795TIP3    H2 5343   1.822   0.665   4.360
 1796TIP3   OH2 5344   1.790   0.357   4.876
 1796TIP3    H1 5345   1.715   0.366   4.935
 1796TIP3    H2 5346   1.830   0.444   4.874
 1797TIP3   OH2 5347   1.800   0.131   4.123
 1797TIP3    H1 5348   1.848   0.066   4.072
 1797TIP3    H2 5349   1.799   0.209   4.068
 1798TIP3   OH2 5350   1.621   0.428   4.324
 1798TIP3    H1 5351   1.555   0.476   4.375
 1798TIP3    H2 5352   1.572   0.388   4.252
 1799TIP3   OH2 5353   1.865   0.025   4.681
 1799TIP3    H1 5354   1.935  -0.040   4.677
 1799TIP3    H2 5355   1.899   0.100   4.632
 1800TIP3   OH2 5356   7.696   7.827   4.702
 1800TIP3    H1 5357   7.623   7.781   4.744
 1800TIP3    H2 5358   7.772   7.772   4.721
 1801TIP3   OH2 5359   7.377   7.494   4.248
 1801TIP3    H1 5360   7.453   7.519   4.196
 1801TIP3    H2 5361   7.386   7.543   4.329
 1802TIP3   OH2 5362   7.427   7.658   4.462
 1802TIP3    H1 5363   7.346   7.696   4.495
 1802TIP3    H2 5364   7.473   7.731   4.420
 1803TIP3   OH2 5365   1.282   0.542   3.668
 1803TIP3    H1 5366   1.331   0.495   3.601
 1803TIP3    H2 5367   1.349   0.580   3.726
 1804TIP3   OH2 5368   1.030   0.617   4.750
 1804TIP3    H1 5369   1.067   0.604   4.837
 1804TIP3    H2 5370   1.096   0.667   4.702
 1805TIP3   OH2 5371   1.213   0.753   4.598
 1805TIP3    H1 5372   1.285   0.702   4.560
 1805TIP3    H2 5373   1.256   0.818   4.652
 1806TIP3   OH2 5374   0.930   0.633   4.281
 1806TIP3    H1 5375   0.854   0.648   4.224
 1806TIP3    H2 5376   0.947   0.718   4.321
 1807TIP3   OH2 5377   1.193   0.566   4.331
 1807TIP3    H1 5378   1.099   0.585   4.320
 1807TIP3    H2 5379   1.237   0.644   4.296
 1808TIP3   OH2 5380   1.397   0.757   4.246
 1808TIP3    H1 5381   1.382   0.842   4.203
 1808TIP3    H2 5382   1.424   0.699   4.175
 1809TIP3   OH2 5383   1.681   0.638   4.598
 1809TIP3    H1 5384   1.596   0.608   4.566
 1809TIP3    H2 5385   1.661   0.719   4.646
 1810TIP3   OH2 5386   2.941   0.006   3.392
 1810TIP3    H1 5387   2.918   0.098   3.379
 1810TIP3    H2 5388   2.868  -0.043   3.354
 1811TIP3   OH2 5389   0.114   8.019   3.774
 1811TIP3    H1 5390   0.145   8.006   3.864
 1811TIP3    H2 5391   0.068   7.937   3.752
 1812TIP3   OH2 5392   7.908   7.918   4.141
 1812TIP3    H1 5393   7.937   7.846   4.198
 1812TIP3    H2 5394   7.977   7.984   4.149
 1813TIP3   OH2 5395   3.186   0.316   3.458
 1813TIP3    H1 5396   3.172   0.251   3.526
 1813TIP3    H2 5397   3.216   0.394   3.506
 1814TIP3   OH2 5398   2.210   0.306   3.864
 1814TIP3    H1 5399   2.194   0.212   3.869
 1814TIP3    H2 5400   2.304   0.314   3.849
 1815TIP3   OH2 5401   7.679   7.828   3.766
 1815TIP3    H1 5402   7.696   7.751   3.821
 1815TIP3    H2 5403   7.743   7.893   3.795
 1816TIP3   OH2 5404   2.854   0.781   3.477
 1816TIP3    H1 5405   2.891   0.704   3.433
 1816TIP3    H2 5406   2.807   0.745   3.552
 1817TIP3   OH2 5407   2.749   0.229   3.825
 1817TIP3    H1 5408   2.789   0.156   3.777
 1817TIP3    H2 5409   2.824   0.282   3.854
 1818TIP3   OH2 5410   0.326   7.747   3.868
 1818TIP3    H1 5411   0.344   7.657   3.896
 1818TIP3    H2 5412   0.287   7.737   3.781
 1819TIP3   OH2 5413   8.126   7.354   3.787
 1819TIP3    H1 5414   8.107   7.444   3.762
 1819TIP3    H2 5415   8.060   7.302   3.741
 1820TIP3   OH2 5416   0.319   7.525   3.490
 1820TIP3    H1 5417   0.378   7.481   3.551
 1820TIP3    H2 5418   0.369   7.532   3.408
 1821TIP3   OH2 5419   7.765   7.608   3.915
 1821TIP3    H1 5420   7.853   7.618   3.951
 1821TIP3    H2 5421   7.773   7.534   3.854
 1822TIP3   OH2 5422   8.231   7.801   3.711
 1822TIP3    H1 5423   8.324   7.788   3.732
 1822TIP3    H2 5424   8.196   7.712   3.706
 1823TIP3   OH2 5425   0.953   7.761   4.024
 1823TIP3    H1 5426   0.881   7.811   3.985
 1823TIP3    H2 5427   1.016   7.827   4.052
 1824TIP3   OH2 5428   2.836   0.237   3.256
 1824TIP3    H1 5429   2.790   0.222   3.173
 1824TIP3    H2 5430   2.797   0.317   3.291
 1825TIP3   OH2 5431   2.593   0.155   4.045
 1825TIP3    H1 5432   2.535   0.222   4.083
 1825TIP3    H2 5433   2.634   0.199   3.971
 1826TIP3   OH2 5434   8.024   7.576   3.981
 1826TIP3    H1 5435   8.086   7.630   4.029
 1826TIP3    H2 5436   8.049   7.486   4.002
 1827TIP3   OH2 5437   2.422   0.352   4.146
 1827TIP3    H1 5438   2.404   0.437   4.106
 1827TIP3    H2 5439   2.346   0.333   4.200
 1828TIP3   OH2 5440   3.253   0.555   3.614
 1828TIP3    H1 5441   3.168   0.545   3.658
 1828TIP3    H2 5442   3.248   0.642   3.574
 1829TIP3   OH2 5443   2.963   0.595   3.292
 1829TIP3    H1 5444   3.012   0.514   3.275
 1829TIP3    H2 5445   3.018   0.664   3.255
 1830TIP3   OH2 5446   3.107   0.375   3.203
 1830TIP3    H1 5447   3.043   0.306   3.187
 1830TIP3    H2 5448   3.147   0.352   3.286
 1831TIP3   OH2 5449   3.481   0.464   3.965
 1831TIP3    H1 5450   3.468   0.389   3.907
 1831TIP3    H2 5451   3.461   0.541   3.911
 1832TIP3   OH2 5452   8.445   7.872   3.217
 1832TIP3    H1 5453   8.365   7.920   3.195
 1832TIP3    H2 5454   8.487   7.856   3.133
 1833TIP3   OH2 5455   3.677   0.110   3.810
 1833TIP3    H1 5456   3.594   0.157   3.816
 1833TIP3    H2 5457   3.710   0.130   3.723
 1834TIP3   OH2 5458   0.293   7.968   3.198
 1834TIP3    H1 5459   0.236   7.986   3.273
 1834TIP3    H2 5460   0.377   7.944   3.237
 1835TIP3   OH2 5461   3.351  -0.016   4.113
 1835TIP3    H1 5462   3.352   0.063   4.166
 1835TIP3    H2 5463   3.267  -0.013   4.067
 1836TIP3   OH2 5464   8.025   7.950   3.609
 1836TIP3    H1 5465   8.007   7.908   3.524
 1836TIP3    H2 5466   8.101   7.903   3.643
 1837TIP3   OH2 5467   2.467   0.305   3.773
 1837TIP3    H1 5468   2.462   0.322   3.679
 1837TIP3    H2 5469   2.561   0.303   3.792
 1838TIP3   OH2 5470   8.160   7.926   3.965
 1838TIP3    H1 5471   8.193   7.907   3.878
 1838TIP3    H2 5472   8.198   8.011   3.988
 1839TIP3   OH2 5473   3.019   0.547   3.745
 1839TIP3    H1 5474   3.002   0.631   3.787
 1839TIP3    H2 5475   2.998   0.482   3.811
 1840TIP3   OH2 5476   2.627   0.465   4.293
 1840TIP3    H1 5477   2.570   0.529   4.337
 1840TIP3    H2 5478   2.568   0.413   4.239
 1841TIP3   OH2 5479   0.146   7.820   3.021
 1841TIP3    H1 5480   0.199   7.879   3.075
 1841TIP3    H2 5481   0.170   7.843   2.931
 1842TIP3   OH2 5482   2.372   0.033   4.387
 1842TIP3    H1 5483   2.384   0.116   4.431
 1842TIP3    H2 5484   2.282   0.007   4.407
 1843TIP3   OH2 5485   2.705   0.479   3.289
 1843TIP3    H1 5486   2.782   0.532   3.309
 1843TIP3    H2 5487   2.632   0.541   3.294
 1844TIP3   OH2 5488   2.421   0.632   4.377
 1844TIP3    H1 5489   2.389   0.638   4.287
 1844TIP3    H2 5490   2.344   0.610   4.429
 1845TIP3   OH2 5491   3.278   0.405   2.618
 1845TIP3    H1 5492   3.279   0.499   2.602
 1845TIP3    H2 5493   3.369   0.377   2.606
 1846TIP3   OH2 5494   1.999   0.165   4.327
 1846TIP3    H1 5495   1.936   0.147   4.257
 1846TIP3    H2 5496   2.038   0.080   4.346
 1847TIP3   OH2 5497   1.860   0.357   3.964
 1847TIP3    H1 5498   1.955   0.361   3.950
 1847TIP3    H2 5499   1.839   0.437   4.011
 1848TIP3   OH2 5500   3.722   0.813   4.021
 1848TIP3    H1 5501   3.720   0.718   4.031
 1848TIP3    H2 5502   3.640   0.842   4.061
 1849TIP3   OH2 5503   2.829   0.595   4.156
 1849TIP3    H1 5504   2.828   0.687   4.183
 1849TIP3    H2 5505   2.756   0.555   4.202
 1850TIP3   OH2 5506   2.596   0.732   3.093
 1850TIP3    H1 5507   2.535   0.732   3.020
 1850TIP3    H2 5508   2.558   0.792   3.158
 1851TIP3   OH2 5509   2.015   0.590   3.490
 1851TIP3    H1 5510   2.083   0.588   3.558
 1851TIP3    H2 5511   1.979   0.501   3.489
 1852TIP3   OH2 5512   2.790   0.627   2.742
 1852TIP3    H1 5513   2.847   0.558   2.710
 1852TIP3    H2 5514   2.817   0.640   2.833
 1853TIP3   OH2 5515   2.842   0.671   3.008
 1853TIP3    H1 5516   2.754   0.687   3.043
 1853TIP3    H2 5517   2.892   0.640   3.083
 1854TIP3   OH2 5518   0.772   7.938   4.293
 1854TIP3    H1 5519   0.697   7.982   4.252
 1854TIP3    H2 5520   0.758   7.845   4.276
 1855TIP3   OH2 5521   2.205   0.347   4.309
 1855TIP3    H1 5522   2.253   0.338   4.391
 1855TIP3    H2 5523   2.129   0.289   4.319
 1856TIP3   OH2 5524   0.550   7.742   4.235
 1856TIP3    H1 5525   0.515   7.773   4.319
 1856TIP3    H2 5526   0.530   7.813   4.173
 1857TIP3   OH2 5527   0.210   7.879   2.756
 1857TIP3    H1 5528   0.204   7.856   2.663
 1857TIP3    H2 5529   0.291   7.930   2.763
 1858TIP3   OH2 5530   8.217   7.713   4.129
 1858TIP3    H1 5531   8.162   7.730   4.206
 1858TIP3    H2 5532   8.206   7.791   4.075
 1859TIP3   OH2 5533   8.079   7.568   3.620
 1859TIP3    H1 5534   7.989   7.597   3.607
 1859TIP3    H2 5535   8.117   7.567   3.532
 1860TIP3   OH2 5536   0.076   7.670   3.349
 1860TIP3    H1 5537   0.034   7.744   3.307
 1860TIP3    H2 5538   0.135   7.635   3.282
 1861TIP3   OH2 5539   0.262   7.974   4.426
 1861TIP3    H1 5540   0.236   7.897   4.476
 1861TIP3    H2 5541   0.354   7.988   4.449
 1862TIP3   OH2 5542   0.211   7.740   3.616
 1862TIP3    H1 5543   0.161   7.793   3.554
 1862TIP3    H2 5544   0.235   7.661   3.567
 1863TIP3   OH2 5545   8.023   7.737   4.327
 1863TIP3    H1 5546   8.040   7.805   4.392
 1863TIP3    H2 5547   8.005   7.658   4.378
 1864TIP3   OH2 5548   0.237   7.949   4.017
 1864TIP3    H1 5549   0.277   7.884   3.960
 1864TIP3    H2 5550   0.211   7.901   4.095
 1865TIP3   OH2 5551   3.444   1.155   4.099
 1865TIP3    H1 5552   3.389   1.190   4.029
 1865TIP3    H2 5553   3.432   1.216   4.172
 1866TIP3   OH2 5554   2.369   0.271   4.535
 1866TIP3    H1 5555   2.449   0.301   4.579
 1866TIP3    H2 5556   2.302   0.271   4.603
 1867TIP3   OH2 5557  -0.017   7.739   3.790
 1867TIP3    H1 5558   0.067   7.717   3.751
 1867TIP3    H2 5559  -0.011   7.705   3.880
 1868TIP3   OH2 5560   8.492   7.665   4.053
 1868TIP3    H1 5561   8.403   7.667   4.089
 1868TIP3    H2 5562   8.545   7.711   4.118
 1869TIP3   OH2 5563   2.536   0.006   3.179
 1869TIP3    H1 5564   2.441   0.007   3.171
 1869TIP3    H2 5565   2.553   0.043   3.266
 1870TIP3   OH2 5566   3.442   0.248   3.797
 1870TIP3    H1 5567   3.467   0.301   3.721
 1870TIP3    H2 5568   3.359   0.208   3.773
 1871TIP3   OH2 5569   2.938   0.332   4.173
 1871TIP3    H1 5570   2.971   0.320   4.262
 1871TIP3    H2 5571   2.903   0.421   4.172
 1872TIP3   OH2 5572   0.233   7.587   3.139
 1872TIP3    H1 5573   0.328   7.601   3.147
 1872TIP3    H2 5574   0.203   7.662   3.088
 1873TIP3   OH2 5575   7.880   8.007   3.845
 1873TIP3    H1 5576   7.931   8.006   3.763
 1873TIP3    H2 5577   7.944   7.983   3.912
 1874TIP3   OH2 5578   2.679   0.158   2.986
 1874TIP3    H1 5579   2.637   0.244   2.993
 1874TIP3    H2 5580   2.632   0.103   3.049
 1875TIP3   OH2 5581   7.787   7.965   4.464
 1875TIP3    H1 5582   7.811   7.957   4.556
 1875TIP3    H2 5583   7.714   7.903   4.453
 1876TIP3   OH2 5584   2.845   0.071   4.484
 1876TIP3    H1 5585   2.783   0.020   4.433
 1876TIP3    H2 5586   2.931   0.045   4.450
 1877TIP3   OH2 5587   3.101   0.582   4.074
 1877TIP3    H1 5588   3.006   0.587   4.084
 1877TIP3    H2 5589   3.135   0.637   4.144
 1878TIP3   OH2 5590   0.676   7.675   2.961
 1878TIP3    H1 5591   0.626   7.620   2.901
 1878TIP3    H2 5592   0.664   7.764   2.927
 1879TIP3   OH2 5593   3.730   0.519   4.054
 1879TIP3    H1 5594   3.635   0.518   4.048
 1879TIP3    H2 5595   3.759   0.492   3.967
 1880TIP3   OH2 5596   3.199   0.486   2.881
 1880TIP3    H1 5597   3.185   0.424   2.953
 1880TIP3    H2 5598   3.228   0.432   2.807
 1881TIP3   OH2 5599   3.208   0.113   3.714
 1881TIP3    H1 5600   3.116   0.092   3.730
 1881TIP3    H2 5601   3.243   0.036   3.669
 1882TIP3   OH2 5602   2.342   0.348   3.468
 1882TIP3    H1 5603   2.363   0.441   3.454
 1882TIP3    H2 5604   2.246   0.345   3.474
 1883TIP3   OH2 5605   2.470   0.110   3.416
 1883TIP3    H1 5606   2.437   0.199   3.426
 1883TIP3    H2 5607   2.445   0.067   3.498
 1884TIP3   OH2 5608   2.618   0.674   3.965
 1884TIP3    H1 5609   2.637   0.737   3.896
 1884TIP3    H2 5610   2.703   0.652   4.003
 1885TIP3   OH2 5611   2.994   0.313   3.908
 1885TIP3    H1 5612   2.979   0.315   4.002
 1885TIP3    H2 5613   3.080   0.272   3.898
 1886TIP3   OH2 5614   2.965   0.207   2.791
 1886TIP3    H1 5615   3.030   0.182   2.857
 1886TIP3    H2 5616   2.881   0.192   2.834
 1887TIP3   OH2 5617   3.242   0.842   3.943
 1887TIP3    H1 5618   3.160   0.792   3.937
 1887TIP3    H2 5619   3.232   0.912   3.879
 1888TIP3   OH2 5620   3.278   0.678   2.577
 1888TIP3    H1 5621   3.363   0.721   2.570
 1888TIP3    H2 5622   3.223   0.740   2.623
 1889TIP3   OH2 5623   3.137   0.128   2.986
 1889TIP3    H1 5624   3.120   0.078   3.066
 1889TIP3    H2 5625   3.232   0.137   2.982
 1890TIP3   OH2 5626   2.047   0.544   4.100
 1890TIP3    H1 5627   2.104   0.477   4.137
 1890TIP3    H2 5628   2.067   0.624   4.148
 1891TIP3   OH2 5629   2.294   0.206   3.035
 1891TIP3    H1 5630   2.302   0.183   3.127
 1891TIP3    H2 5631   2.287   0.302   3.034
 1892TIP3   OH2 5632   2.544   0.392   2.999
 1892TIP3    H1 5633   2.472   0.409   3.059
 1892TIP3    H2 5634   2.574   0.478   2.972
 1893TIP3   OH2 5635   8.385   7.486   3.401
 1893TIP3    H1 5636   8.448   7.557   3.389
 1893TIP3    H2 5637   8.425   7.428   3.465
 1894TIP3   OH2 5638   0.184   7.790   4.230
 1894TIP3    H1 5639   0.179   7.858   4.297
 1894TIP3    H2 5640   0.232   7.718   4.272
 1895TIP3   OH2 5641   2.287   0.475   3.076
 1895TIP3    H1 5642   2.262   0.536   3.007
 1895TIP3    H2 5643   2.266   0.521   3.158
 1896TIP3   OH2 5644   0.463   7.882   3.597
 1896TIP3    H1 5645   0.383   7.834   3.622
 1896TIP3    H2 5646   0.533   7.837   3.644
 1897TIP3   OH2 5647   3.267   0.826   3.539
 1897TIP3    H1 5648   3.221   0.868   3.466
 1897TIP3    H2 5649   3.360   0.843   3.522
 1898TIP3   OH2 5650   1.911   0.338   3.462
 1898TIP3    H1 5651   1.816   0.336   3.470
 1898TIP3    H2 5652   1.929   0.305   3.374
 1899TIP3   OH2 5653   2.038   0.858   4.524
 1899TIP3    H1 5654   2.122   0.862   4.570
 1899TIP3    H2 5655   2.015   0.765   4.523
 1900TIP3   OH2 5656   2.514   0.812   4.569
 1900TIP3    H1 5657   2.609   0.803   4.574
 1900TIP3    H2 5658   2.487   0.753   4.499
 1901TIP3   OH2 5659   2.489   0.401   2.716
 1901TIP3    H1 5660   2.483   0.356   2.800
 1901TIP3    H2 5661   2.527   0.336   2.657
 1902TIP3   OH2 5662   3.158   0.722   4.302
 1902TIP3    H1 5663   3.151   0.658   4.372
 1902TIP3    H2 5664   3.228   0.781   4.330
 1903TIP3   OH2 5665   2.942   0.430   2.612
 1903TIP3    H1 5666   2.981   0.379   2.682
 1903TIP3    H2 5667   3.011   0.439   2.547
 1904TIP3   OH2 5668   2.167   0.263   4.722
 1904TIP3    H1 5669   2.177   0.169   4.737
 1904TIP3    H2 5670   2.080   0.272   4.682
 1905TIP3   OH2 5671   2.773   0.348   4.497
 1905TIP3    H1 5672   2.732   0.371   4.414
 1905TIP3    H2 5673   2.800   0.257   4.486
 1906TIP3   OH2 5674   2.644   0.098   2.724
 1906TIP3    H1 5675   2.653   0.121   2.817
 1906TIP3    H2 5676   2.636   0.002   2.725
 1907TIP3   OH2 5677   3.264   0.359   4.103
 1907TIP3    H1 5678   3.341   0.399   4.061
 1907TIP3    H2 5679   3.195   0.425   4.093
 1908TIP3   OH2 5680   7.961   8.005   4.707
 1908TIP3    H1 5681   8.046   7.965   4.685
 1908TIP3    H2 5682   7.975   8.044   4.794
 1909TIP3   OH2 5683   8.285   7.925   4.363
 1909TIP3    H1 5684   8.204   7.975   4.358
 1909TIP3    H2 5685   8.333   7.951   4.284
 1910TIP3   OH2 5686   3.137   0.282   4.503
 1910TIP3    H1 5687   3.209   0.250   4.449
 1910TIP3    H2 5688   3.127   0.214   4.570
 1911TIP3   OH2 5689   0.447   7.964   2.639
 1911TIP3    H1 5690   0.420   7.917   2.561
 1911TIP3    H2 5691   0.415   8.053   2.626
 1912TIP3   OH2 5692   8.373   7.704   4.485
 1912TIP3    H1 5693   8.324   7.644   4.429
 1912TIP3    H2 5694   8.350   7.791   4.452
 1913TIP3   OH2 5695   2.781  -0.003   4.165
 1913TIP3    H1 5696   2.865   0.013   4.123
 1913TIP3    H2 5697   2.721   0.059   4.124
 1914TIP3   OH2 5698   0.513   7.972   4.533
 1914TIP3    H1 5699   0.545   7.918   4.605
 1914TIP3    H2 5700   0.585   8.031   4.512
 1915TIP3   OH2 5701   3.396   0.211   4.283
 1915TIP3    H1 5702   3.334   0.262   4.231
 1915TIP3    H2 5703   3.482   0.235   4.248
 1916TIP3   OH2 5704   8.254   7.826   4.718
 1916TIP3    H1 5705   8.211   7.751   4.758
 1916TIP3    H2 5706   8.313   7.787   4.653
 1917TIP3   OH2 5707   0.150   7.750   4.525
 1917TIP3    H1 5708   0.174   7.722   4.613
 1917TIP3    H2 5709   0.055   7.744   4.522
 1918TIP3   OH2 5710   2.258   0.658   2.872
 1918TIP3    H1 5711   2.353   0.656   2.866
 1918TIP3    H2 5712   2.231   0.724   2.808
 1919TIP3   OH2 5713   1.653   0.647   3.502
 1919TIP3    H1 5714   1.577   0.590   3.489
 1919TIP3    H2 5715   1.702   0.606   3.573
 1920TIP3   OH2 5716   1.773   0.526   3.713
 1920TIP3    H1 5717   1.779   0.446   3.765
 1920TIP3    H2 5718   1.834   0.587   3.754
 1921TIP3   OH2 5719   3.522   0.913   3.505
 1921TIP3    H1 5720   3.536   0.940   3.596
 1921TIP3    H2 5721   3.581   0.969   3.454
 1922TIP3   OH2 5722   3.544   0.930   3.781
 1922TIP3    H1 5723   3.504   0.843   3.783
 1922TIP3    H2 5724   3.616   0.924   3.844
 1923TIP3   OH2 5725   3.597   0.610   4.363
 1923TIP3    H1 5726   3.522   0.619   4.423
 1923TIP3    H2 5727   3.635   0.698   4.359
 1924TIP3   OH2 5728   3.415   0.126   2.973
 1924TIP3    H1 5729   3.478   0.192   2.944
 1924TIP3    H2 5730   3.454   0.090   3.053
 1925TIP3   OH2 5731   0.702   8.010   3.179
 1925TIP3    H1 5732   0.637   7.973   3.239
 1925TIP3    H2 5733   0.768   8.049   3.236
 1926TIP3   OH2 5734   3.595   0.387   3.611
 1926TIP3    H1 5735   3.645   0.321   3.564
 1926TIP3    H2 5736   3.589   0.461   3.551
 1927TIP3   OH2 5737   3.419   0.681   3.808
 1927TIP3    H1 5738   3.353   0.728   3.859
 1927TIP3    H2 5739   3.370   0.640   3.737
 1928TIP3   OH2 5740   0.631   7.911   2.829
 1928TIP3    H1 5741   0.571   7.926   2.756
 1928TIP3    H2 5742   0.615   7.984   2.889
 1929TIP3   OH2 5743   0.504   7.570   2.770
 1929TIP3    H1 5744   0.494   7.659   2.736
 1929TIP3    H2 5745   0.414   7.540   2.785
 1930TIP3   OH2 5746   0.516   7.876   3.327
 1930TIP3    H1 5747   0.514   7.783   3.304
 1930TIP3    H2 5748   0.503   7.878   3.422
 1931TIP3   OH2 5749   7.645   7.929   4.072
 1931TIP3    H1 5750   7.642   7.918   3.977
 1931TIP3    H2 5751   7.738   7.932   4.093
 1932TIP3   OH2 5752   3.641   0.276   4.182
 1932TIP3    H1 5753   3.712   0.212   4.171
 1932TIP3    H2 5754   3.663   0.346   4.122
 1933TIP3   OH2 5755   3.819   0.070   4.197
 1933TIP3    H1 5756   3.746   0.021   4.235
 1933TIP3    H2 5757   3.896   0.015   4.216
 1934TIP3   OH2 5758   0.509   7.620   3.189
 1934TIP3    H1 5759   0.536   7.544   3.241
 1934TIP3    H2 5760   0.574   7.625   3.119
 1935TIP3   OH2 5761   0.673   7.758   3.725
 1935TIP3    H1 5762   0.755   7.779   3.680
 1935TIP3    H2 5763   0.684   7.794   3.813
 1936TIP3   OH2 5764   0.736   7.910   3.948
 1936TIP3    H1 5765   0.660   7.943   3.996
 1936TIP3    H2 5766   0.771   7.987   3.902
 1937TIP3   OH2 5767   7.860   7.615   4.737
 1937TIP3    H1 5768   7.955   7.615   4.751
 1937TIP3    H2 5769   7.829   7.536   4.782
 1938TIP3   OH2 5770   7.617   7.590   4.152
 1938TIP3    H1 5771   7.664   7.600   4.069
 1938TIP3    H2 5772   7.639   7.670   4.201
 1939TIP3   OH2 5773   3.100   0.781   3.155
 1939TIP3    H1 5774   3.158   0.778   3.079
 1939TIP3    H2 5775   3.140   0.845   3.213
 1940TIP3   OH2 5776   2.204   0.583   4.544
 1940TIP3    H1 5777   2.111   0.564   4.525
 1940TIP3    H2 5778   2.211   0.572   4.639
 1941TIP3   OH2 5779   2.382   0.621   4.089
 1941TIP3    H1 5780   2.335   0.695   4.052
 1941TIP3    H2 5781   2.470   0.627   4.050
 1942TIP3   OH2 5782   2.823   0.863   4.229
 1942TIP3    H1 5783   2.863   0.865   4.316
 1942TIP3    H2 5784   2.884   0.913   4.174
 1943TIP3   OH2 5785   3.000   1.012   4.084
 1943TIP3    H1 5786   3.068   0.962   4.039
 1943TIP3    H2 5787   3.048   1.066   4.146
 1944TIP3   OH2 5788   2.049   0.873   4.119
 1944TIP3    H1 5789   1.963   0.905   4.094
 1944TIP3    H2 5790   2.070   0.919   4.200
 1945TIP3   OH2 5791   2.292   0.853   3.980
 1945TIP3    H1 5792   2.206   0.863   4.021
 1945TIP3    H2 5793   2.281   0.890   3.892
 1946TIP3   OH2 5794   2.718   0.878   3.769
 1946TIP3    H1 5795   2.641   0.887   3.713
 1946TIP3    H2 5796   2.728   0.964   3.810
 1947TIP3   OH2 5797   2.987   0.817   3.822
 1947TIP3    H1 5798   2.895   0.834   3.804
 1947TIP3    H2 5799   3.034   0.891   3.784
 1948TIP3   OH2 5800   3.189   1.011   3.735
 1948TIP3    H1 5801   3.179   1.096   3.693
 1948TIP3    H2 5802   3.219   0.952   3.665
 1949TIP3   OH2 5803   1.969   0.664   3.856
 1949TIP3    H1 5804   1.994   0.642   3.946
 1949TIP3    H2 5805   2.038   0.626   3.801
 1950TIP3   OH2 5806   2.169   0.542   3.717
 1950TIP3    H1 5807   2.187   0.464   3.769
 1950TIP3    H2 5808   2.255   0.578   3.697
 1951TIP3   OH2 5809   1.719   0.449   3.235
 1951TIP3    H1 5810   1.625   0.449   3.256
 1951TIP3    H2 5811   1.750   0.535   3.264
 1952TIP3   OH2 5812   2.525   0.650   2.824
 1952TIP3    H1 5813   2.614   0.676   2.801
 1952TIP3    H2 5814   2.509   0.570   2.774
 1953TIP3   OH2 5815   3.250   0.749   2.921
 1953TIP3    H1 5816   3.240   0.654   2.917
 1953TIP3    H2 5817   3.203   0.781   2.843
 1954TIP3   OH2 5818   3.472   0.886   4.113
 1954TIP3    H1 5819   3.392   0.861   4.067
 1954TIP3    H2 5820   3.470   0.982   4.114
 1955TIP3   OH2 5821   4.738   0.264   2.880
 1955TIP3    H1 5822   4.713   0.355   2.864
 1955TIP3    H2 5823   4.669   0.213   2.838
 1956TIP3   OH2 5824   4.740   0.266   3.263
 1956TIP3    H1 5825   4.771   0.243   3.350
 1956TIP3    H2 5826   4.698   0.186   3.231
 1957TIP3   OH2 5827   4.037   0.160   3.627
 1957TIP3    H1 5828   4.067   0.089   3.683
 1957TIP3    H2 5829   4.114   0.215   3.615
 1958TIP3   OH2 5830   4.983   0.571   2.945
 1958TIP3    H1 5831   4.968   0.503   3.010
 1958TIP3    H2 5832   5.014   0.647   2.996
 1959TIP3   OH2 5833   4.012   0.566   3.346
 1959TIP3    H1 5834   4.001   0.471   3.349
 1959TIP3    H2 5835   4.106   0.579   3.342
 1960TIP3   OH2 5836   0.868   7.794   3.144
 1960TIP3    H1 5837   0.822   7.876   3.161
 1960TIP3    H2 5838   0.805   7.742   3.093
 1961TIP3   OH2 5839   3.768   0.068   3.303
 1961TIP3    H1 5840   3.807  -0.013   3.336
 1961TIP3    H2 5841   3.839   0.111   3.255
 1962TIP3   OH2 5842   4.633   1.027   2.959
 1962TIP3    H1 5843   4.677   0.958   2.910
 1962TIP3    H2 5844   4.625   0.993   3.048
 1963TIP3   OH2 5845   4.540   0.490   3.309
 1963TIP3    H1 5846   4.577   0.413   3.265
 1963TIP3    H2 5847   4.616   0.541   3.336
 1964TIP3   OH2 5848   2.121   8.003   3.354
 1964TIP3    H1 5849   2.138   7.913   3.381
 1964TIP3    H2 5850   2.084   7.996   3.267
 1965TIP3   OH2 5851   1.431   7.629   3.285
 1965TIP3    H1 5852   1.414   7.714   3.245
 1965TIP3    H2 5853   1.364   7.571   3.249
 1966TIP3   OH2 5854   2.117   7.782   2.974
 1966TIP3    H1 5855   2.172   7.735   3.037
 1966TIP3    H2 5856   2.164   7.774   2.891
 1967TIP3   OH2 5857   1.066   7.865   3.401
 1967TIP3    H1 5858   1.153   7.872   3.441
 1967TIP3    H2 5859   1.079   7.806   3.327
 1968TIP3   OH2 5860   4.359   0.051   3.210
 1968TIP3    H1 5861   4.451   0.030   3.225
 1968TIP3    H2 5862   4.319  -0.032   3.184
 1969TIP3   OH2 5863   5.591   0.001   3.511
 1969TIP3    H1 5864   5.519   0.051   3.473
 1969TIP3    H2 5865   5.651   0.067   3.545
 1970TIP3   OH2 5866   4.630   0.488   2.748
 1970TIP3    H1 5867   4.586   0.466   2.667
 1970TIP3    H2 5868   4.589   0.570   2.776
 1971TIP3   OH2 5869   4.392   0.413   3.532
 1971TIP3    H1 5870   4.332   0.478   3.569
 1971TIP3    H2 5871   4.433   0.458   3.458
 1972TIP3   OH2 5872   1.320   7.835   3.475
 1972TIP3    H1 5873   1.389   7.877   3.527
 1972TIP3    H2 5874   1.352   7.746   3.460
 1973TIP3   OH2 5875   4.219   0.609   3.632
 1973TIP3    H1 5876   4.199   0.695   3.595
 1973TIP3    H2 5877   4.143   0.587   3.685
 1974TIP3   OH2 5878   3.614   0.300   2.867
 1974TIP3    H1 5879   3.569   0.339   2.792
 1974TIP3    H2 5880   3.642   0.376   2.919
 1975TIP3   OH2 5881   5.048   0.813   3.106
 1975TIP3    H1 5882   4.962   0.803   3.146
 1975TIP3    H2 5883   5.044   0.898   3.062
 1976TIP3   OH2 5884   4.755   0.854   2.778
 1976TIP3    H1 5885   4.801   0.771   2.762
 1976TIP3    H2 5886   4.813   0.921   2.742
 1977TIP3   OH2 5887   4.899   0.637   2.692
 1977TIP3    H1 5888   4.852   0.561   2.660
 1977TIP3    H2 5889   4.937   0.609   2.775
 1978TIP3   OH2 5890   5.276   0.721   3.452
 1978TIP3    H1 5891   5.265   0.645   3.394
 1978TIP3    H2 5892   5.258   0.797   3.395
 1979TIP3   OH2 5893   4.575   0.123   2.707
 1979TIP3    H1 5894   4.494   0.172   2.690
 1979TIP3    H2 5895   4.608   0.100   2.620
 1980TIP3   OH2 5896   1.696   7.935   2.444
 1980TIP3    H1 5897   1.784   7.961   2.470
 1980TIP3    H2 5898   1.707   7.848   2.406
 1981TIP3   OH2 5899   5.472   0.365   3.297
 1981TIP3    H1 5900   5.389   0.413   3.303
 1981TIP3    H2 5901   5.506   0.386   3.211
 1982TIP3   OH2 5902   4.918   0.207   2.682
 1982TIP3    H1 5903   4.863   0.227   2.757
 1982TIP3    H2 5904   5.003   0.184   2.721
 1983TIP3   OH2 5905   5.147   0.241   3.597
 1983TIP3    H1 5906   5.146   0.321   3.649
 1983TIP3    H2 5907   5.063   0.241   3.551
 1984TIP3   OH2 5908   4.152   0.195   3.097
 1984TIP3    H1 5909   4.113   0.138   3.031
 1984TIP3    H2 5910   4.226   0.145   3.131
 1985TIP3   OH2 5911   4.280   0.607   3.246
 1985TIP3    H1 5912   4.259   0.574   3.158
 1985TIP3    H2 5913   4.367   0.572   3.264
 1986TIP3   OH2 5914   4.287   0.167   3.458
 1986TIP3    H1 5915   4.316   0.139   3.371
 1986TIP3    H2 5916   4.330   0.251   3.472
 1987TIP3   OH2 5917   4.811   0.806   3.231
 1987TIP3    H1 5918   4.798   0.887   3.280
 1987TIP3    H2 5919   4.794   0.736   3.294
 1988TIP3   OH2 5920   4.422   0.723   3.779
 1988TIP3    H1 5921   4.365   0.785   3.824
 1988TIP3    H2 5922   4.362   0.670   3.726
 1989TIP3   OH2 5923   4.771   0.055   2.506
 1989TIP3    H1 5924   4.818   0.119   2.558
 1989TIP3    H2 5925   4.792   0.077   2.415
 1990TIP3   OH2 5926   4.170   0.288   3.880
 1990TIP3    H1 5927   4.177   0.374   3.923
 1990TIP3    H2 5928   4.078   0.264   3.891
 1991TIP3   OH2 5929   4.503   0.735   2.773
 1991TIP3    H1 5930   4.584   0.784   2.789
 1991TIP3    H2 5931   4.438   0.801   2.750
 1992TIP3   OH2 5932   4.217   0.888   3.865
 1992TIP3    H1 5933   4.183   0.895   3.776
 1992TIP3    H2 5934   4.140   0.864   3.918
 1993TIP3   OH2 5935   4.018   0.038   2.894
 1993TIP3    H1 5936   3.946   0.080   2.848
 1993TIP3    H2 5937   3.985  -0.049   2.916
 1994TIP3   OH2 5938   5.073   0.665   2.103
 1994TIP3    H1 5939   5.079   0.759   2.091
 1994TIP3    H2 5940   5.164   0.634   2.094
 1995TIP3   OH2 5941   3.795   0.423   3.811
 1995TIP3    H1 5942   3.728   0.406   3.744
 1995TIP3    H2 5943   3.834   0.337   3.828
 1996TIP3   OH2 5944   3.653   0.617   3.445
 1996TIP3    H1 5945   3.748   0.616   3.437
 1996TIP3    H2 5946   3.634   0.696   3.497
 1997TIP3   OH2 5947   5.511   1.070   3.505
 1997TIP3    H1 5948   5.512   0.975   3.516
 1997TIP3    H2 5949   5.431   1.099   3.548
 1998TIP3   OH2 5950   4.619   0.852   3.638
 1998TIP3    H1 5951   4.619   0.944   3.666
 1998TIP3    H2 5952   4.550   0.811   3.689
 1999TIP3   OH2 5953   4.384   0.983   2.585
 1999TIP3    H1 5954   4.334   0.974   2.504
 1999TIP3    H2 5955   4.357   1.068   2.620
 2000TIP3   OH2 5956   3.820   0.838   2.982
 2000TIP3    H1 5957   3.868   0.825   3.064
 2000TIP3    H2 5958   3.784   0.752   2.962
 2001TIP3   OH2 5959   4.584   0.879   2.225
 2001TIP3    H1 5960   4.644   0.815   2.189
 2001TIP3    H2 5961   4.616   0.895   2.314
 2002TIP3   OH2 5962   4.633   0.931   2.493
 2002TIP3    H1 5963   4.548   0.944   2.534
 2002TIP3    H2 5964   4.689   0.899   2.564
 2003TIP3   OH2 5965   5.399   0.179   3.780
 2003TIP3    H1 5966   5.327   0.225   3.737
 2003TIP3    H2 5967   5.382   0.086   3.763
 2004TIP3   OH2 5968   4.001   0.604   3.794
 2004TIP3    H1 5969   4.047   0.596   3.877
 2004TIP3    H2 5970   3.926   0.544   3.801
 2005TIP3   OH2 5971   5.191  -0.011   3.722
 2005TIP3    H1 5972   5.143   0.011   3.801
 2005TIP3    H2 5973   5.165   0.056   3.659
 2006TIP3   OH2 5974   4.833   0.099   2.247
 2006TIP3    H1 5975   4.790   0.077   2.164
 2006TIP3    H2 5976   4.915   0.142   2.221
 2007TIP3   OH2 5977   1.518   7.968   3.620
 2007TIP3    H1 5978   1.458   7.984   3.693
 2007TIP3    H2 5979   1.505   8.043   3.562
 2008TIP3   OH2 5980   1.382   7.844   3.123
 2008TIP3    H1 5981   1.289   7.827   3.136
 2008TIP3    H2 5982   1.399   7.816   3.033
 2009TIP3   OH2 5983   1.867   7.934   2.844
 2009TIP3    H1 5984   1.824   8.007   2.800
 2009TIP3    H2 5985   1.933   7.904   2.782
 2010TIP3   OH2 5986   4.891   0.221   3.917
 2010TIP3    H1 5987   4.865   0.143   3.965
 2010TIP3    H2 5988   4.984   0.232   3.938
 2011TIP3   OH2 5989   2.009   7.998   3.100
 2011TIP3    H1 5990   1.954   8.045   3.038
 2011TIP3    H2 5991   2.037   7.919   3.053
 2012TIP3   OH2 5992   1.320   7.994   3.811
 2012TIP3    H1 5993   1.335   8.061   3.878
 2012TIP3    H2 5994   1.302   7.914   3.861
 2013TIP3   OH2 5995   0.949   7.596   2.947
 2013TIP3    H1 5996   0.967   7.610   2.855
 2013TIP3    H2 5997   0.858   7.622   2.958
 2014TIP3   OH2 5998   4.870   0.192   3.505
 2014TIP3    H1 5999   4.907   0.126   3.447
 2014TIP3    H2 6000   4.843   0.143   3.583
 2015TIP3   OH2 6001   1.127   7.725   3.163
 2015TIP3    H1 6002   1.038   7.760   3.152
 2015TIP3    H2 6003   1.127   7.643   3.114
 2016TIP3   OH2 6004   1.419   7.743   2.873
 2016TIP3    H1 6005   1.512   7.729   2.854
 2016TIP3    H2 6006   1.376   7.738   2.788
 2017TIP3   OH2 6007   1.267   7.738   2.632
 2017TIP3    H1 6008   1.180   7.722   2.595
 2017TIP3    H2 6009   1.326   7.732   2.557
 2018TIP3   OH2 6010   5.211   1.419   3.599
 2018TIP3    H1 6011   5.206   1.443   3.507
 2018TIP3    H2 6012   5.288   1.465   3.631
 2019TIP3   OH2 6013   4.163   0.528   4.024
 2019TIP3    H1 6014   4.243   0.559   4.067
 2019TIP3    H2 6015   4.096   0.532   4.092
 2020TIP3   OH2 6016   1.781   7.995   3.276
 2020TIP3    H1 6017   1.864   7.972   3.236
 2020TIP3    H2 6018   1.787   7.962   3.366
 2021TIP3   OH2 6019   1.791   7.925   3.540
 2021TIP3    H1 6020   1.701   7.922   3.574
 2021TIP3    H2 6021   1.841   7.971   3.607
 2022TIP3   OH2 6022   4.342   0.266   2.657
 2022TIP3    H1 6023   4.270   0.205   2.643
 2022TIP3    H2 6024   4.324   0.304   2.743
 2023TIP3   OH2 6025   5.238   0.505   3.284
 2023TIP3    H1 6026   5.263   0.556   3.207
 2023TIP3    H2 6027   5.155   0.464   3.260
 2024TIP3   OH2 6028   1.928   7.670   2.482
 2024TIP3    H1 6029   1.874   7.617   2.541
 2024TIP3    H2 6030   1.973   7.731   2.540
 2025TIP3   OH2 6031   4.735   0.589   3.658
 2025TIP3    H1 6032   4.767   0.574   3.747
 2025TIP3    H2 6033   4.699   0.677   3.660
 2026TIP3   OH2 6034   2.044   7.858   2.644
 2026TIP3    H1 6035   2.139   7.867   2.655
 2026TIP3    H2 6036   2.018   7.934   2.592
 2027TIP3   OH2 6037   4.032   0.285   3.332
 2027TIP3    H1 6038   4.070   0.262   3.247
 2027TIP3    H2 6039   4.079   0.231   3.395
 2028TIP3   OH2 6040   4.485   0.415   2.465
 2028TIP3    H1 6041   4.437   0.498   2.459
 2028TIP3    H2 6042   4.434   0.363   2.527
 2029TIP3   OH2 6043   3.914   0.207   3.950
 2029TIP3    H1 6044   3.930   0.194   4.044
 2029TIP3    H2 6045   3.840   0.149   3.931
 2030TIP3   OH2 6046   4.640   0.328   3.972
 2030TIP3    H1 6047   4.577   0.278   3.921
 2030TIP3    H2 6048   4.726   0.301   3.938
 2031TIP3   OH2 6049   4.896   0.844   3.558
 2031TIP3    H1 6050   4.801   0.845   3.568
 2031TIP3    H2 6051   4.928   0.897   3.631
 2032TIP3   OH2 6052   2.471   7.937   2.447
 2032TIP3    H1 6053   2.415   7.884   2.390
 2032TIP3    H2 6054   2.459   8.027   2.417
 2033TIP3   OH2 6055   5.526   0.777   3.540
 2033TIP3    H1 6056   5.430   0.775   3.534
 2033TIP3    H2 6057   5.556   0.749   3.453
 2034TIP3   OH2 6058   5.002   0.739   2.369
 2034TIP3    H1 6059   4.984   0.672   2.435
 2034TIP3    H2 6060   5.024   0.690   2.290
 2035TIP3   OH2 6061   5.004   0.369   3.203
 2035TIP3    H1 6062   4.911   0.347   3.218
 2035TIP3    H2 6063   5.039   0.292   3.158
 2036TIP3   OH2 6064   4.134   0.597   2.956
 2036TIP3    H1 6065   4.133   0.680   2.908
 2036TIP3    H2 6066   4.042   0.572   2.963
 2037TIP3   OH2 6067   0.859   7.923   2.666
 2037TIP3    H1 6068   0.908   8.003   2.684
 2037TIP3    H2 6069   0.788   7.923   2.730
 2038TIP3   OH2 6070   4.263   0.360   2.898
 2038TIP3    H1 6071   4.233   0.449   2.916
 2038TIP3    H2 6072   4.235   0.309   2.973
 2039TIP3   OH2 6073   4.406   0.941   3.427
 2039TIP3    H1 6074   4.445   1.013   3.378
 2039TIP3    H2 6075   4.479   0.902   3.475
 2040TIP3   OH2 6076   4.056   0.832   2.818
 2040TIP3    H1 6077   3.966   0.839   2.851
 2040TIP3    H2 6078   4.089   0.922   2.819
 2041TIP3   OH2 6079   4.788   0.571   3.391
 2041TIP3    H1 6080   4.776   0.572   3.486
 2041TIP3    H2 6081   4.869   0.522   3.377
 2042TIP3   OH2 6082   4.751   0.457   2.281
 2042TIP3    H1 6083   4.819   0.435   2.345
 2042TIP3    H2 6084   4.669   0.445   2.329
 2043TIP3   OH2 6085   5.036   1.104   3.434
 2043TIP3    H1 6086   4.957   1.051   3.429
 2043TIP3    H2 6087   5.025   1.170   3.366
 2044TIP3   OH2 6088   5.103   0.943   2.091
 2044TIP3    H1 6089   5.145   1.013   2.041
 2044TIP3    H2 6090   5.023   0.982   2.125
 2045TIP3   OH2 6091   4.931   0.395   2.480
 2045TIP3    H1 6092   4.916   0.337   2.553
 2045TIP3    H2 6093   5.026   0.397   2.470
 2046TIP3   OH2 6094   3.843   0.800   3.585
 2046TIP3    H1 6095   3.899   0.734   3.625
 2046TIP3    H2 6096   3.856   0.878   3.638
 2047TIP3   OH2 6097   4.096   0.441   2.521
 2047TIP3    H1 6098   4.147   0.425   2.600
 2047TIP3    H2 6099   4.075   0.535   2.524
 2048TIP3   OH2 6100   3.810   0.148   2.748
 2048TIP3    H1 6101   3.744   0.196   2.798
 2048TIP3    H2 6102   3.853   0.214   2.695
 2049TIP3   OH2 6103   4.341   0.651   2.459
 2049TIP3    H1 6104   4.257   0.654   2.505
 2049TIP3    H2 6105   4.371   0.742   2.457
 2050TIP3   OH2 6106   1.703   7.720   2.873
 2050TIP3    H1 6107   1.753   7.802   2.863
 2050TIP3    H2 6108   1.733   7.685   2.957
 2051TIP3   OH2 6109   4.815   0.034   3.718
 2051TIP3    H1 6110   4.810   0.099   3.788
 2051TIP3    H2 6111   4.859  -0.041   3.758
 2052TIP3   OH2 6112   4.090   0.718   2.554
 2052TIP3    H1 6113   4.060   0.787   2.495
 2052TIP3    H2 6114   4.063   0.747   2.641
 2053TIP3   OH2 6115   5.093   0.126   3.084
 2053TIP3    H1 6116   5.013   0.077   3.103
 2053TIP3    H2 6117   5.161   0.079   3.132
 2054TIP3   OH2 6118   0.910   7.657   2.691
 2054TIP3    H1 6119   0.907   7.751   2.672
 2054TIP3    H2 6120   0.828   7.623   2.655
 2055TIP3   OH2 6121   5.062   1.084   3.027
 2055TIP3    H1 6122   5.016   1.127   2.955
 2055TIP3    H2 6123   5.154   1.101   3.010
 2056TIP3   OH2 6124   3.668   0.552   2.949
 2056TIP3    H1 6125   3.600   0.611   2.979
 2056TIP3    H2 6126   3.689   0.582   2.861
 2057TIP3   OH2 6127   3.834   1.108   4.003
 2057TIP3    H1 6128   3.916   1.116   4.052
 2057TIP3    H2 6129   3.811   1.015   4.011
 2058TIP3   OH2 6130   4.312   1.067   4.059
 2058TIP3    H1 6131   4.407   1.057   4.060
 2058TIP3    H2 6132   4.283   1.010   3.987
 2059TIP3   OH2 6133   4.295   0.647   2.185
 2059TIP3    H1 6134   4.299   0.628   2.279
 2059TIP3    H2 6135   4.371   0.602   2.148
 2060TIP3   OH2 6136   4.953   0.981   3.790
 2060TIP3    H1 6137   4.944   0.914   3.858
 2060TIP3    H2 6138   5.027   1.034   3.818
 2061TIP3   OH2 6139   4.732   0.689   2.091
 2061TIP3    H1 6140   4.777   0.635   2.155
 2061TIP3    H2 6141   4.788   0.688   2.014
 2062TIP3   OH2 6142   3.960   0.515   4.211
 2062TIP3    H1 6143   3.975   0.420   4.215
 2062TIP3    H2 6144   3.876   0.524   4.166
 2063TIP3   OH2 6145   3.930   0.136   2.406
 2063TIP3    H1 6146   3.984   0.136   2.485
 2063TIP3    H2 6147   3.990   0.110   2.336
 2064TIP3   OH2 6148   4.569   0.604   3.984
 2064TIP3    H1 6149   4.528   0.627   3.900
 2064TIP3    H2 6150   4.596   0.513   3.973
 2065TIP3   OH2 6151   5.061   0.618   3.591
 2065TIP3    H1 6152   5.137   0.655   3.549
 2065TIP3    H2 6153   4.991   0.682   3.578
 2066TIP3   OH2 6154   4.087   0.247   4.198
 2066TIP3    H1 6155   4.170   0.214   4.166
 2066TIP3    H2 6156   4.108   0.286   4.283
 2067TIP3   OH2 6157   4.146   0.067   2.622
 2067TIP3    H1 6158   4.119   0.041   2.710
 2067TIP3    H2 6159   4.176  -0.015   2.581
 2068TIP3   OH2 6160   4.417   0.170   3.854
 2068TIP3    H1 6161   4.334   0.217   3.848
 2068TIP3    H2 6162   4.463   0.194   3.773
 2069TIP3   OH2 6163   4.938   0.540   3.990
 2069TIP3    H1 6164   5.006   0.506   3.933
 2069TIP3    H2 6165   4.923   0.470   4.054
 2070TIP3   OH2 6166   5.063   0.194   2.128
 2070TIP3    H1 6167   5.050   0.149   2.044
 2070TIP3    H2 6168   5.032   0.283   2.113
 2071TIP3   OH2 6169   1.667   7.960   3.972
 2071TIP3    H1 6170   1.620   7.899   3.915
 2071TIP3    H2 6171   1.645   8.047   3.938
 2072TIP3   OH2 6172   4.578   0.254   3.655
 2072TIP3    H1 6173   4.661   0.264   3.608
 2072TIP3    H2 6174   4.519   0.316   3.612
 2073TIP3   OH2 6175   5.142   0.217   4.023
 2073TIP3    H1 6176   5.176   0.162   4.093
 2073TIP3    H2 6177   5.217   0.270   3.995
 2074TIP3   OH2 6178   5.193   0.469   3.773
 2074TIP3    H1 6179   5.131   0.520   3.720
 2074TIP3    H2 6180   5.279   0.492   3.737
 2075TIP3   OH2 6181   4.386   0.064   4.210
 2075TIP3    H1 6182   4.338  -0.016   4.234
 2075TIP3    H2 6183   4.446   0.036   4.141
 2076TIP3   OH2 6184   1.946   8.010   4.012
 2076TIP3    H1 6185   1.971   7.980   4.100
 2076TIP3    H2 6186   1.851   8.000   4.009
 2077TIP3   OH2 6187   4.057   0.922   2.364
 2077TIP3    H1 6188   4.152   0.924   2.351
 2077TIP3    H2 6189   4.022   0.979   2.296
 2078TIP3   OH2 6190   3.533   0.310   2.580
 2078TIP3    H1 6191   3.621   0.347   2.571
 2078TIP3    H2 6192   3.539   0.223   2.541
 2079TIP3   OH2 6193   3.453   0.918   3.007
 2079TIP3    H1 6194   3.388   0.860   2.967
 2079TIP3    H2 6195   3.496   0.864   3.074
 2080TIP3   OH2 6196   3.582   0.774   3.198
 2080TIP3    H1 6197   3.573   0.696   3.253
 2080TIP3    H2 6198   3.636   0.834   3.250
 2081TIP3   OH2 6199   5.315   1.173   2.991
 2081TIP3    H1 6200   5.339   1.204   3.079
 2081TIP3    H2 6201   5.379   1.214   2.933
 2082TIP3   OH2 6202   5.340   1.189   3.274
 2082TIP3    H1 6203   5.297   1.104   3.269
 2082TIP3    H2 6204   5.420   1.173   3.324
 2083TIP3   OH2 6205   5.390   0.868   3.850
 2083TIP3    H1 6206   5.318   0.879   3.911
 2083TIP3    H2 6207   5.433   0.954   3.849
 2084TIP3   OH2 6208   5.208   0.383   2.462
 2084TIP3    H1 6209   5.272   0.448   2.432
 2084TIP3    H2 6210   5.249   0.345   2.541
 2085TIP3   OH2 6211   5.331   0.253   2.667
 2085TIP3    H1 6212   5.265   0.216   2.725
 2085TIP3    H2 6213   5.395   0.293   2.725
 2086TIP3   OH2 6214   5.390   0.643   3.097
 2086TIP3    H1 6215   5.441   0.576   3.052
 2086TIP3    H2 6216   5.386   0.717   3.036
 2087TIP3   OH2 6217   5.214   0.940   3.295
 2087TIP3    H1 6218   5.145   0.985   3.344
 2087TIP3    H2 6219   5.168   0.897   3.222
 2088TIP3   OH2 6220   5.260   0.159   2.313
 2088TIP3    H1 6221   5.194   0.163   2.244
 2088TIP3    H2 6222   5.238   0.233   2.371
 2089TIP3   OH2 6223   2.302   7.831   2.257
 2089TIP3    H1 6224   2.271   7.900   2.197
 2089TIP3    H2 6225   2.252   7.754   2.232
 2090TIP3   OH2 6226   5.144   0.119   2.811
 2090TIP3    H1 6227   5.147   0.026   2.786
 2090TIP3    H2 6228   5.132   0.118   2.906
 2091TIP3   OH2 6229   3.773   0.176   3.561
 2091TIP3    H1 6230   3.767   0.149   3.469
 2091TIP3    H2 6231   3.867   0.179   3.579
 2092TIP3   OH2 6232   5.437   0.533   3.669
 2092TIP3    H1 6233   5.507   0.469   3.659
 2092TIP3    H2 6234   5.460   0.603   3.607
 2093TIP3   OH2 6235   5.612   0.327   3.687
 2093TIP3    H1 6236   5.540   0.275   3.723
 2093TIP3    H2 6237   5.690   0.273   3.701
 2094TIP3   OH2 6238   2.317   7.876   2.688
 2094TIP3    H1 6239   2.331   7.790   2.727
 2094TIP3    H2 6240   2.374   7.877   2.611
 2095TIP3   OH2 6241   5.305   0.001   3.213
 2095TIP3    H1 6242   5.386   0.023   3.168
 2095TIP3    H2 6243   5.315   0.037   3.301
 2096TIP3   OH2 6244   5.371   0.150   3.437
 2096TIP3    H1 6245   5.294   0.182   3.483
 2096TIP3    H2 6246   5.405   0.226   3.390
 2097TIP3   OH2 6247   1.156   7.873   4.240
 2097TIP3    H1 6248   1.243   7.848   4.210
 2097TIP3    H2 6249   1.118   7.792   4.274
 2098TIP3   OH2 6250   0.917   7.845   3.637
 2098TIP3    H1 6251   0.961   7.848   3.552
 2098TIP3    H2 6252   0.940   7.928   3.679
 2099TIP3   OH2 6253   4.896   1.040   2.643
 2099TIP3    H1 6254   4.949   1.032   2.563
 2099TIP3    H2 6255   4.942   1.105   2.696
 2100TIP3   OH2 6256   4.000   0.831   4.030
 2100TIP3    H1 6257   3.906   0.818   4.012
 2100TIP3    H2 6258   4.006   0.835   4.125
 2101TIP3   OH2 6259   4.180   0.880   3.575
 2101TIP3    H1 6260   4.127   0.952   3.541
 2101TIP3    H2 6261   4.265   0.891   3.532
 2102TIP3   OH2 6262   4.620   1.119   3.715
 2102TIP3    H1 6263   4.658   1.119   3.803
 2102TIP3    H2 6264   4.682   1.170   3.662
 2103TIP3   OH2 6265   4.800   1.274   3.579
 2103TIP3    H1 6266   4.869   1.224   3.534
 2103TIP3    H2 6267   4.848   1.331   3.639
 2104TIP3   OH2 6268   3.850   1.133   3.607
 2104TIP3    H1 6269   3.762   1.162   3.582
 2104TIP3    H2 6270   3.869   1.181   3.687
 2105TIP3   OH2 6271   4.086   1.112   3.462
 2105TIP3    H1 6272   4.002   1.123   3.507
 2105TIP3    H2 6273   4.070   1.145   3.373
 2106TIP3   OH2 6274   4.513   1.140   3.258
 2106TIP3    H1 6275   4.444   1.157   3.193
 2106TIP3    H2 6276   4.526   1.225   3.301
 2107TIP3   OH2 6277   4.782   1.076   3.309
 2107TIP3    H1 6278   4.690   1.095   3.292
 2107TIP3    H2 6279   4.830   1.149   3.269
 2108TIP3   OH2 6280   4.986   1.268   3.221
 2108TIP3    H1 6281   4.974   1.352   3.177
 2108TIP3    H2 6282   5.015   1.209   3.151
 2109TIP3   OH2 6283   3.769   0.926   3.344
 2109TIP3    H1 6284   3.787   0.901   3.435
 2109TIP3    H2 6285   3.837   0.882   3.293
 2110TIP3   OH2 6286   3.964   0.796   3.208
 2110TIP3    H1 6287   3.975   0.714   3.256
 2110TIP3    H2 6288   4.052   0.833   3.203
 2111TIP3   OH2 6289   4.229   0.890   3.212
 2111TIP3    H1 6290   4.256   0.799   3.199
 2111TIP3    H2 6291   4.272   0.917   3.293
 2112TIP3   OH2 6292   4.325   0.896   2.312
 2112TIP3    H1 6293   4.415   0.910   2.283
 2112TIP3    H2 6294   4.292   0.826   2.255
 2113TIP3   OH2 6295   5.043   1.005   2.411
 2113TIP3    H1 6296   5.034   0.910   2.403
 2113TIP3    H2 6297   4.998   1.039   2.334
 2114TIP3   OH2 6298   3.623   0.706   2.385
 2114TIP3    H1 6299   3.645   0.707   2.478
 2114TIP3    H2 6300   3.705   0.684   2.341
 2115TIP3   OH2 6301   5.262   1.149   3.601
 2115TIP3    H1 6302   5.188   1.118   3.549
 2115TIP3    H2 6303   5.249   1.244   3.607
 2116TIP3   OH2 6304   6.554   0.511   2.342
 2116TIP3    H1 6305   6.537   0.605   2.335
 2116TIP3    H2 6306   6.471   0.470   2.315
 2117TIP3   OH2 6307   6.538   0.514   2.747
 2117TIP3    H1 6308   6.570   0.505   2.837
 2117TIP3    H2 6309   6.489   0.433   2.731
 2118TIP3   OH2 6310   5.833   0.418   3.113
 2118TIP3    H1 6311   5.865   0.347   3.169
 2118TIP3    H2 6312   5.907   0.478   3.106
 2119TIP3   OH2 6313   6.780   0.828   2.433
 2119TIP3    H1 6314   6.766   0.761   2.499
 2119TIP3    H2 6315   6.812   0.904   2.482
 2120TIP3   OH2 6316   5.799   0.822   2.829
 2120TIP3    H1 6317   5.794   0.727   2.832
 2120TIP3    H2 6318   5.890   0.841   2.852
 2121TIP3   OH2 6319   5.499   0.040   2.630
 2121TIP3    H1 6320   5.450   0.120   2.647
 2121TIP3    H2 6321   5.438  -0.016   2.582
 2122TIP3   OH2 6322   5.564   0.326   2.793
 2122TIP3    H1 6323   5.603   0.245   2.825
 2122TIP3    H2 6324   5.634   0.369   2.744
 2123TIP3   OH2 6325   6.430   1.288   2.444
 2123TIP3    H1 6326   6.474   1.213   2.403
 2123TIP3    H2 6327   6.417   1.261   2.535
 2124TIP3   OH2 6328   6.337   0.746   2.793
 2124TIP3    H1 6329   6.380   0.671   2.751
 2124TIP3    H2 6330   6.408   0.801   2.824
 2125TIP3   OH2 6331   6.747   0.243   2.837
 2125TIP3    H1 6332   6.773   0.158   2.872
 2125TIP3    H2 6333   6.716   0.224   2.749
 2126TIP3   OH2 6334   3.229   7.883   2.767
 2126TIP3    H1 6335   3.211   7.971   2.734
 2126TIP3    H2 6336   3.153   7.831   2.740
 2127TIP3   OH2 6337   0.702   2.583   2.029
 2127TIP3    H1 6338   0.745   2.526   2.093
 2127TIP3    H2 6339   0.701   2.533   1.948
 2128TIP3   OH2 6340   5.694   0.107   2.888
 2128TIP3    H1 6341   5.782   0.114   2.926
 2128TIP3    H2 6342   5.706   0.047   2.814
 2129TIP3   OH2 6343   6.159   0.310   2.695
 2129TIP3    H1 6344   6.250   0.287   2.710
 2129TIP3    H2 6345   6.116   0.226   2.675
 2130TIP3   OH2 6346   7.376   0.258   2.994
 2130TIP3    H1 6347   7.304   0.312   2.962
 2130TIP3    H2 6348   7.443   0.321   3.021
 2131TIP3   OH2 6349   6.441   0.758   2.220
 2131TIP3    H1 6350   6.388   0.728   2.146
 2131TIP3    H2 6351   6.391   0.832   2.256
 2132TIP3   OH2 6352   6.187   0.670   3.021
 2132TIP3    H1 6353   6.123   0.732   3.057
 2132TIP3    H2 6354   6.231   0.720   2.952
 2133TIP3   OH2 6355   5.951   0.076   2.957
 2133TIP3    H1 6356   6.015   0.121   3.012
 2133TIP3    H2 6357   5.983  -0.014   2.952
 2134TIP3   OH2 6358   5.993   0.850   3.097
 2134TIP3    H1 6359   6.001   0.944   3.082
 2134TIP3    H2 6360   5.924   0.842   3.164
 2135TIP3   OH2 6361   5.406   0.555   2.355
 2135TIP3    H1 6362   5.367   0.582   2.272
 2135TIP3    H2 6363   5.438   0.637   2.393
 2136TIP3   OH2 6364   6.845   1.073   2.593
 2136TIP3    H1 6365   6.761   1.058   2.638
 2136TIP3    H2 6366   6.835   1.159   2.553
 2137TIP3   OH2 6367   6.554   1.109   2.261
 2137TIP3    H1 6368   6.604   1.029   2.247
 2137TIP3    H2 6369   6.610   1.179   2.227
 2138TIP3   OH2 6370   6.687   0.874   2.179
 2138TIP3    H1 6371   6.604   0.828   2.193
 2138TIP3    H2 6372   6.738   0.856   2.258
 2139TIP3   OH2 6373   7.074   0.978   2.933
 2139TIP3    H1 6374   7.060   0.904   2.874
 2139TIP3    H2 6375   7.053   1.055   2.881
 2140TIP3   OH2 6376   6.355   0.371   2.195
 2140TIP3    H1 6377   6.281   0.427   2.174
 2140TIP3    H2 6378   6.400   0.358   2.111
 2141TIP3   OH2 6379   7.257   0.615   2.793
 2141TIP3    H1 6380   7.180   0.669   2.812
 2141TIP3    H2 6381   7.284   0.641   2.705
 2142TIP3   OH2 6382   6.942   0.498   3.087
 2142TIP3    H1 6383   6.940   0.577   3.140
 2142TIP3    H2 6384   6.858   0.498   3.042
 2143TIP3   OH2 6385   5.949   0.450   2.583
 2143TIP3    H1 6386   5.914   0.393   2.514
 2143TIP3    H2 6387   6.025   0.403   2.617
 2144TIP3   OH2 6388   6.081   0.872   2.729
 2144TIP3    H1 6389   6.062   0.822   2.649
 2144TIP3    H2 6390   6.167   0.840   2.756
 2145TIP3   OH2 6391   6.086   0.425   2.944
 2145TIP3    H1 6392   6.117   0.401   2.857
 2145TIP3    H2 6393   6.126   0.510   2.962
 2146TIP3   OH2 6394   6.609   1.058   2.720
 2146TIP3    H1 6395   6.592   1.141   2.766
 2146TIP3    H2 6396   6.585   0.990   2.783
 2147TIP3   OH2 6397   6.568   0.299   2.007
 2147TIP3    H1 6398   6.635   0.353   2.049
 2147TIP3    H2 6399   6.586   0.309   1.913
 2148TIP3   OH2 6400   5.966   0.543   3.367
 2148TIP3    H1 6401   5.976   0.629   3.408
 2148TIP3    H2 6402   5.874   0.521   3.379
 2149TIP3   OH2 6403   6.302   0.988   2.268
 2149TIP3    H1 6404   6.379   1.043   2.282
 2149TIP3    H2 6405   6.236   1.047   2.232
 2150TIP3   OH2 6406   5.993   1.181   3.356
 2150TIP3    H1 6407   5.992   1.149   3.265
 2150TIP3    H2 6408   5.923   1.133   3.399
 2151TIP3   OH2 6409   5.816   0.292   2.370
 2151TIP3    H1 6410   5.746   0.340   2.327
 2151TIP3    H2 6411   5.773   0.218   2.412
 2152TIP3   OH2 6412   6.803   0.940   1.649
 2152TIP3    H1 6413   6.839   1.025   1.623
 2152TIP3    H2 6414   6.871   0.877   1.626
 2153TIP3   OH2 6415   5.591   0.679   3.299
 2153TIP3    H1 6416   5.527   0.662   3.230
 2153TIP3    H2 6417   5.630   0.594   3.317
 2154TIP3   OH2 6418   5.450   0.874   2.931
 2154TIP3    H1 6419   5.545   0.866   2.919
 2154TIP3    H2 6420   5.440   0.952   2.987
 2155TIP3   OH2 6421   7.306   1.323   2.982
 2155TIP3    H1 6422   7.308   1.228   2.995
 2155TIP3    H2 6423   7.227   1.351   3.028
 2156TIP3   OH2 6424   6.182   1.241   2.073
 2156TIP3    H1 6425   6.136   1.223   1.992
 2156TIP3    H2 6426   6.147   1.325   2.103
 2157TIP3   OH2 6427   5.618   1.085   2.462
 2157TIP3    H1 6428   5.668   1.082   2.544
 2157TIP3    H2 6429   5.562   1.008   2.466
 2158TIP3   OH2 6430   6.378   1.146   1.717
 2158TIP3    H1 6431   6.433   1.074   1.686
 2158TIP3    H2 6432   6.407   1.161   1.807
 2159TIP3   OH2 6433   6.431   1.190   1.985
 2159TIP3    H1 6434   6.343   1.200   2.022
 2159TIP3    H2 6435   6.483   1.155   2.057
 2160TIP3   OH2 6436   7.198   0.442   3.261
 2160TIP3    H1 6437   7.120   0.477   3.218
 2160TIP3    H2 6438   7.190   0.347   3.252
 2161TIP3   OH2 6439   5.796   0.863   3.285
 2161TIP3    H1 6440   5.847   0.851   3.365
 2161TIP3    H2 6441   5.723   0.802   3.294
 2162TIP3   OH2 6442   6.970   0.240   3.208
 2162TIP3    H1 6443   6.943   0.274   3.294
 2162TIP3    H2 6444   6.953   0.313   3.148
 2163TIP3   OH2 6445   6.146   0.210   3.104
 2163TIP3    H1 6446   6.089   0.227   3.179
 2163TIP3    H2 6447   6.135   0.287   3.048
 2164TIP3   OH2 6448   6.010   0.090   2.612
 2164TIP3    H1 6449   5.918   0.069   2.626
 2164TIP3    H2 6450   6.027   0.063   2.521
 2165TIP3   OH2 6451   6.499   0.180   2.320
 2165TIP3    H1 6452   6.438   0.249   2.293
 2165TIP3    H2 6453   6.573   0.188   2.260
 2166TIP3   OH2 6454   6.689   0.473   3.400
 2166TIP3    H1 6455   6.662   0.397   3.450
 2166TIP3    H2 6456   6.781   0.486   3.423
 2167TIP3   OH2 6457   6.653   0.210   2.580
 2167TIP3    H1 6458   6.592   0.249   2.517
 2167TIP3    H2 6459   6.705   0.148   2.528
 2168TIP3   OH2 6460   5.949   0.239   3.298
 2168TIP3    H1 6461   5.969   0.306   3.363
 2168TIP3    H2 6462   5.930   0.160   3.350
 2169TIP3   OH2 6463   2.741   7.856   2.430
 2169TIP3    H1 6464   2.756   7.854   2.336
 2169TIP3    H2 6465   2.650   7.884   2.440
 2170TIP3   OH2 6466   6.667   0.448   2.989
 2170TIP3    H1 6467   6.702   0.381   2.930
 2170TIP3    H2 6468   6.639   0.399   3.067
 2171TIP3   OH2 6469   2.924   7.980   2.650
 2171TIP3    H1 6470   2.836   8.017   2.637
 2171TIP3    H2 6471   2.918   7.892   2.613
 2172TIP3   OH2 6472   3.215   7.999   2.357
 2172TIP3    H1 6473   3.298   7.966   2.323
 2172TIP3    H2 6474   3.153   7.987   2.285
 2173TIP3   OH2 6475   3.022   7.969   2.133
 2173TIP3    H1 6476   2.927   7.960   2.140
 2173TIP3    H2 6477   3.035   8.042   2.072
 2174TIP3   OH2 6478   7.007   1.673   3.087
 2174TIP3    H1 6479   7.000   1.701   2.996
 2174TIP3    H2 6480   7.070   1.733   3.127
 2175TIP3   OH2 6481   5.958   0.782   3.511
 2175TIP3    H1 6482   6.040   0.814   3.550
 2175TIP3    H2 6483   5.893   0.790   3.581
 2176TIP3   OH2 6484   6.416   0.233   2.758
 2176TIP3    H1 6485   6.502   0.207   2.724
 2176TIP3    H2 6486   6.417   0.206   2.850
 2177TIP3   OH2 6487   6.419   0.170   3.023
 2177TIP3    H1 6488   6.331   0.167   3.061
 2177TIP3    H2 6489   6.472   0.214   3.090
 2178TIP3   OH2 6490   6.130   0.522   2.148
 2178TIP3    H1 6491   6.055   0.465   2.133
 2178TIP3    H2 6492   6.115   0.558   2.236
 2179TIP3   OH2 6493   7.036   0.769   2.757
 2179TIP3    H1 6494   7.075   0.779   2.671
 2179TIP3    H2 6495   6.952   0.726   2.741
 2180TIP3   OH2 6496   6.545   0.817   3.147
 2180TIP3    H1 6497   6.580   0.824   3.236
 2180TIP3    H2 6498   6.495   0.898   3.134
 2181TIP3   OH2 6499   5.826   0.539   2.819
 2181TIP3    H1 6500   5.867   0.516   2.735
 2181TIP3    H2 6501   5.875   0.489   2.884
 2182TIP3   OH2 6502   6.282   0.682   1.990
 2182TIP3    H1 6503   6.236   0.766   1.987
 2182TIP3    H2 6504   6.227   0.627   2.045
 2183TIP3   OH2 6505   5.709   0.466   3.438
 2183TIP3    H1 6506   5.729   0.453   3.531
 2183TIP3    H2 6507   5.637   0.406   3.421
 2184TIP3   OH2 6508   6.439   0.582   3.460
 2184TIP3    H1 6509   6.376   0.534   3.407
 2184TIP3    H2 6510   6.525   0.556   3.425
 2185TIP3   OH2 6511   6.700   1.106   3.041
 2185TIP3    H1 6512   6.605   1.098   3.046
 2185TIP3    H2 6513   6.724   1.157   3.118
 2186TIP3   OH2 6514   7.324   1.039   3.015
 2186TIP3    H1 6515   7.229   1.031   3.014
 2186TIP3    H2 6516   7.351   1.006   2.929
 2187TIP3   OH2 6517   6.788   1.009   1.919
 2187TIP3    H1 6518   6.784   0.946   1.992
 2187TIP3    H2 6519   6.790   0.954   1.840
 2188TIP3   OH2 6520   6.803   0.623   2.689
 2188TIP3    H1 6521   6.711   0.603   2.707
 2188TIP3    H2 6522   6.836   0.545   2.645
 2189TIP3   OH2 6523   5.926   0.850   2.432
 2189TIP3    H1 6524   5.925   0.933   2.386
 2189TIP3    H2 6525   5.838   0.841   2.469
 2190TIP3   OH2 6526   5.494   0.163   2.167
 2190TIP3    H1 6527   5.537   0.247   2.183
 2190TIP3    H2 6528   5.416   0.164   2.222
 2191TIP3   OH2 6529   6.062   0.616   2.388
 2191TIP3    H1 6530   6.027   0.705   2.401
 2191TIP3    H2 6531   6.032   0.567   2.464
 2192TIP3   OH2 6532   6.194   1.196   2.911
 2192TIP3    H1 6533   6.248   1.266   2.875
 2192TIP3    H2 6534   6.251   1.151   2.973
 2193TIP3   OH2 6535   5.846   1.095   2.297
 2193TIP3    H1 6536   5.762   1.101   2.344
 2193TIP3    H2 6537   5.881   1.184   2.299
 2194TIP3   OH2 6538   6.585   0.821   2.878
 2194TIP3    H1 6539   6.569   0.823   2.972
 2194TIP3    H2 6540   6.671   0.781   2.869
 2195TIP3   OH2 6541   6.539   0.704   1.812
 2195TIP3    H1 6542   6.552   0.757   1.890
 2195TIP3    H2 6543   6.444   0.697   1.803
 2196TIP3   OH2 6544   6.835   1.355   2.922
 2196TIP3    H1 6545   6.759   1.298   2.924
 2196TIP3    H2 6546   6.815   1.420   2.855
 2197TIP3   OH2 6547   6.889   1.192   1.576
 2197TIP3    H1 6548   6.927   1.255   1.514
 2197TIP3    H2 6549   6.814   1.239   1.614
 2198TIP3   OH2 6550   5.641   1.057   3.076
 2198TIP3    H1 6551   5.698   0.987   3.107
 2198TIP3    H2 6552   5.670   1.135   3.122
 2199TIP3   OH2 6553   5.937   0.708   1.763
 2199TIP3    H1 6554   5.930   0.624   1.718
 2199TIP3    H2 6555   5.908   0.690   1.852
 2200TIP3   OH2 6556   5.872   0.709   2.034
 2200TIP3    H1 6557   5.938   0.688   2.100
 2200TIP3    H2 6558   5.869   0.804   2.032
 2201TIP3   OH2 6559   5.604   0.410   2.237
 2201TIP3    H1 6560   5.539   0.451   2.295
 2201TIP3    H2 6561   5.616   0.473   2.167
 2202TIP3   OH2 6562   6.138   0.908   1.981
 2202TIP3    H1 6563   6.053   0.929   2.019
 2202TIP3    H2 6564   6.151   0.973   1.912
 2203TIP3   OH2 6565   6.384  -0.033   2.441
 2203TIP3    H1 6566   6.419   0.041   2.392
 2203TIP3    H2 6567   6.340   0.006   2.516
 2204TIP3   OH2 6568   6.610   0.290   3.203
 2204TIP3    H1 6569   6.606   0.358   3.271
 2204TIP3    H2 6570   6.661   0.220   3.242
 2205TIP3   OH2 6571   5.883   0.981   2.047
 2205TIP3    H1 6572   5.854   1.047   1.985
 2205TIP3    H2 6573   5.868   1.020   2.133
 2206TIP3   OH2 6574   6.886   0.380   2.565
 2206TIP3    H1 6575   6.812   0.327   2.591
 2206TIP3    H2 6576   6.961   0.341   2.610
 2207TIP3   OH2 6577   5.598   0.611   2.040
 2207TIP3    H1 6578   5.663   0.681   2.049
 2207TIP3    H2 6579   5.636   0.551   1.976
 2208TIP3   OH2 6580   2.758   7.923   2.154
 2208TIP3    H1 6581   2.715   8.009   2.157
 2208TIP3    H2 6582   2.689   7.864   2.122
 2209TIP3   OH2 6583   6.859   1.342   2.511
 2209TIP3    H1 6584   6.813   1.387   2.441
 2209TIP3    H2 6585   6.952   1.361   2.495
 2210TIP3   OH2 6586   5.462   0.817   2.421
 2210TIP3    H1 6587   5.405   0.853   2.490
 2210TIP3    H2 6588   5.434   0.862   2.341
 2211TIP3   OH2 6589   5.632   1.371   3.500
 2211TIP3    H1 6590   5.717   1.375   3.543
 2211TIP3    H2 6591   5.612   1.277   3.495
 2212TIP3   OH2 6592   6.108   1.328   3.549
 2212TIP3    H1 6593   6.203   1.312   3.543
 2212TIP3    H2 6594   6.071   1.279   3.476
 2213TIP3   OH2 6595   6.083   0.920   1.682
 2213TIP3    H1 6596   6.033   0.845   1.714
 2213TIP3    H2 6597   6.151   0.882   1.628
 2214TIP3   OH2 6598   6.754   1.238   3.276
 2214TIP3    H1 6599   6.743   1.171   3.343
 2214TIP3    H2 6600   6.824   1.294   3.308
 2215TIP3   OH2 6601   6.543   0.965   1.588
 2215TIP3    H1 6602   6.623   0.943   1.636
 2215TIP3    H2 6603   6.570   1.030   1.524
 2216TIP3   OH2 6604   5.754   0.772   3.700
 2216TIP3    H1 6605   5.772   0.678   3.701
 2216TIP3    H2 6606   5.671   0.780   3.653
 2217TIP3   OH2 6607   5.732   0.419   1.907
 2217TIP3    H1 6608   5.791   0.400   1.980
 2217TIP3    H2 6609   5.790   0.427   1.831
 2218TIP3   OH2 6610   6.354   0.855   3.463
 2218TIP3    H1 6611   6.347   0.875   3.369
 2218TIP3    H2 6612   6.391   0.767   3.466
 2219TIP3   OH2 6613   6.265   0.628   1.714
 2219TIP3    H1 6614   6.246   0.639   1.808
 2219TIP3    H2 6615   6.188   0.582   1.680
 2220TIP3   OH2 6616   6.857   0.871   3.077
 2220TIP3    H1 6617   6.930   0.916   3.033
 2220TIP3    H2 6618   6.784   0.932   3.069
 2221TIP3   OH2 6619   5.883   0.502   3.684
 2221TIP3    H1 6620   5.967   0.472   3.651
 2221TIP3    H2 6621   5.904   0.541   3.769
 2222TIP3   OH2 6622   5.936   0.324   2.120
 2222TIP3    H1 6623   5.905   0.313   2.210
 2222TIP3    H2 6624   5.999   0.254   2.107
 2223TIP3   OH2 6625   6.212   0.424   3.337
 2223TIP3    H1 6626   6.130   0.474   3.333
 2223TIP3    H2 6627   6.259   0.449   3.258
 2224TIP3   OH2 6628   6.728   0.795   3.478
 2224TIP3    H1 6629   6.797   0.764   3.420
 2224TIP3    H2 6630   6.719   0.727   3.545
 2225TIP3   OH2 6631   6.299   0.204   3.459
 2225TIP3    H1 6632   6.253   0.142   3.403
 2225TIP3    H2 6633   6.276   0.290   3.424
 2226TIP3   OH2 6634   6.374   0.510   3.139
 2226TIP3    H1 6635   6.459   0.530   3.100
 2226TIP3    H2 6636   6.313   0.572   3.099
 2227TIP3   OH2 6637   6.940   0.470   3.506
 2227TIP3    H1 6638   6.971   0.417   3.579
 2227TIP3    H2 6639   7.014   0.527   3.485
 2228TIP3   OH2 6640   6.991   0.725   3.259
 2228TIP3    H1 6641   6.929   0.776   3.206
 2228TIP3    H2 6642   7.077   0.748   3.223
 2229TIP3   OH2 6643   6.178   0.322   3.694
 2229TIP3    H1 6644   6.139   0.240   3.726
 2229TIP3    H2 6645   6.241   0.294   3.627
 2230TIP3   OH2 6646   6.577   0.250   3.500
 2230TIP3    H1 6647   6.602   0.220   3.587
 2230TIP3    H2 6648   6.482   0.243   3.498
 2231TIP3   OH2 6649   5.852   1.182   1.857
 2231TIP3    H1 6650   5.947   1.178   1.845
 2231TIP3    H2 6651   5.821   1.235   1.783
 2232TIP3   OH2 6652   5.331   0.570   2.079
 2232TIP3    H1 6653   5.422   0.594   2.064
 2232TIP3    H2 6654   5.321   0.484   2.038
 2233TIP3   OH2 6655   5.250   1.174   2.491
 2233TIP3    H1 6656   5.184   1.117   2.452
 2233TIP3    H2 6657   5.294   1.118   2.556
 2234TIP3   OH2 6658   5.387   1.021   2.678
 2234TIP3    H1 6659   5.371   0.953   2.744
 2234TIP3    H2 6660   5.438   1.087   2.725
 2235TIP3   OH2 6661   7.115   1.433   2.481
 2235TIP3    H1 6662   7.133   1.471   2.567
 2235TIP3    H2 6663   7.167   1.486   2.420
 2236TIP3   OH2 6664   7.146   1.440   2.763
 2236TIP3    H1 6665   7.094   1.360   2.750
 2236TIP3    H2 6666   7.201   1.421   2.839
 2237TIP3   OH2 6667   7.186   1.125   3.333
 2237TIP3    H1 6668   7.113   1.132   3.394
 2237TIP3    H2 6669   7.226   1.212   3.333
 2238TIP3   OH2 6670   6.975   0.691   2.027
 2238TIP3    H1 6671   6.988   0.778   1.988
 2238TIP3    H2 6672   7.063   0.654   2.034
 2239TIP3   OH2 6673   7.128   0.514   2.186
 2239TIP3    H1 6674   7.133   0.442   2.248
 2239TIP3    H2 6675   7.217   0.549   2.182
 2240TIP3   OH2 6676   7.011   1.199   2.778
 2240TIP3    H1 6677   6.944   1.242   2.831
 2240TIP3    H2 6678   6.961   1.152   2.710
 2241TIP3   OH2 6679   6.906   0.375   2.293
 2241TIP3    H1 6680   6.924   0.281   2.290
 2241TIP3    H2 6681   6.888   0.393   2.385
 2242TIP3   OH2 6682   5.569   0.433   3.049
 2242TIP3    H1 6683   5.563   0.406   2.958
 2242TIP3    H2 6684   5.663   0.437   3.066
 2243TIP3   OH2 6685   7.238   0.788   3.155
 2243TIP3    H1 6686   7.308   0.724   3.146
 2243TIP3    H2 6687   7.253   0.852   3.085
 2244TIP3   OH2 6688   7.417   0.584   3.179
 2244TIP3    H1 6689   7.340   0.539   3.212
 2244TIP3    H2 6690   7.488   0.522   3.191
 2245TIP3   OH2 6691   7.101   0.264   2.694
 2245TIP3    H1 6692   7.185   0.282   2.652
 2245TIP3    H2 6693   7.112   0.296   2.784
 2246TIP3   OH2 6694   7.157   0.403   2.926
 2246TIP3    H1 6695   7.081   0.439   2.973
 2246TIP3    H2 6696   7.193   0.478   2.878
 2247TIP3   OH2 6697   5.781   0.117   3.724
 2247TIP3    H1 6698   5.873   0.100   3.704
 2247TIP3    H2 6699   5.750   0.036   3.765
 2248TIP3   OH2 6700   5.548   0.088   3.125
 2248TIP3    H1 6701   5.591   0.090   3.039
 2248TIP3    H2 6702   5.571   0.172   3.165
 2249TIP3   OH2 6703   6.697   1.297   2.133
 2249TIP3    H1 6704   6.748   1.292   2.052
 2249TIP3    H2 6705   6.743   1.360   2.187
 2250TIP3   OH2 6706   5.789   1.086   3.522
 2250TIP3    H1 6707   5.696   1.070   3.506
 2250TIP3    H2 6708   5.797   1.085   3.617
 2251TIP3   OH2 6709   5.975   1.130   3.064
 2251TIP3    H1 6710   5.930   1.207   3.031
 2251TIP3    H2 6711   6.063   1.135   3.026
 2252TIP3   OH2 6712   6.407   1.436   3.217
 2252TIP3    H1 6713   6.433   1.369   3.280
 2252TIP3    H2 6714   6.472   1.428   3.146
 2253TIP3   OH2 6715   6.610   1.536   3.040
 2253TIP3    H1 6716   6.681   1.474   3.024
 2253TIP3    H2 6717   6.642   1.592   3.110
 2254TIP3   OH2 6718   5.643   1.387   3.088
 2254TIP3    H1 6719   5.555   1.420   3.068
 2254TIP3    H2 6720   5.666   1.430   3.170
 2255TIP3   OH2 6721   5.882   1.369   2.949
 2255TIP3    H1 6722   5.797   1.379   2.992
 2255TIP3    H2 6723   5.868   1.400   2.860
 2256TIP3   OH2 6724   6.317   1.405   2.736
 2256TIP3    H1 6725   6.238   1.418   2.683
 2256TIP3    H2 6726   6.326   1.485   2.786
 2257TIP3   OH2 6727   6.581   1.334   2.785
 2257TIP3    H1 6728   6.487   1.346   2.775
 2257TIP3    H2 6729   6.618   1.421   2.767
 2258TIP3   OH2 6730   6.797   1.529   2.710
 2258TIP3    H1 6731   6.776   1.609   2.663
 2258TIP3    H2 6732   6.813   1.464   2.641
 2259TIP3   OH2 6733   5.562   1.178   2.832
 2259TIP3    H1 6734   5.584   1.157   2.923
 2259TIP3    H2 6735   5.633   1.139   2.781
 2260TIP3   OH2 6736   5.760   1.055   2.692
 2260TIP3    H1 6737   5.770   0.972   2.739
 2260TIP3    H2 6738   5.848   1.092   2.691
 2261TIP3   OH2 6739   6.025   1.145   2.701
 2261TIP3    H1 6740   6.050   1.053   2.693
 2261TIP3    H2 6741   6.072   1.176   2.779
 2262TIP3   OH2 6742   5.346   0.960   2.222
 2262TIP3    H1 6743   5.262   0.925   2.191
 2262TIP3    H2 6744   5.342   1.054   2.203
 2263TIP3   OH2 6745   6.121   1.152   1.810
 2263TIP3    H1 6746   6.206   1.176   1.774
 2263TIP3    H2 6747   6.093   1.077   1.756
 2264TIP3   OH2 6748   6.843   1.271   1.900
 2264TIP3    H1 6749   6.829   1.177   1.908
 2264TIP3    H2 6750   6.794   1.296   1.822
 2265TIP3   OH2 6751   5.425   0.978   1.861
 2265TIP3    H1 6752   5.425   1.000   1.954
 2265TIP3    H2 6753   5.509   0.935   1.846
 2266TIP3   OH2 6754   7.065   1.406   3.078
 2266TIP3    H1 6755   6.986   1.372   3.036
 2266TIP3    H2 6756   7.046   1.499   3.093
 2267TIP3   OH2 6757   7.591   1.079   2.374
 2267TIP3    H1 6758   7.538   1.003   2.350
 2267TIP3    H2 6759   7.675   1.064   2.332
 2268TIP3   OH2 6760   7.381   0.540   2.247
 2268TIP3    H1 6761   7.379   0.581   2.334
 2268TIP3    H2 6762   7.437   0.597   2.195
 2269TIP3   OH2 6763   7.155   0.867   1.931
 2269TIP3    H1 6764   7.201   0.814   1.866
 2269TIP3    H2 6765   7.207   0.947   1.938
 2270TIP3   OH2 6766   7.395   0.936   2.771
 2270TIP3    H1 6767   7.352   0.900   2.693
 2270TIP3    H2 6768   7.431   0.860   2.816
 2271TIP3   OH2 6769   7.272   1.172   2.400
 2271TIP3    H1 6770   7.300   1.083   2.420
 2271TIP3    H2 6771   7.201   1.189   2.462
 2272TIP3   OH2 6772   7.392   1.355   1.949
 2272TIP3    H1 6773   7.458   1.356   2.018
 2272TIP3    H2 6774   7.366   1.263   1.942
 2273TIP3   OH2 6775   7.599   1.128   2.768
 2273TIP3    H1 6776   7.649   1.109   2.847
 2273TIP3    H2 6777   7.529   1.063   2.768
 2274TIP3   OH2 6778   7.761   1.085   3.001
 2274TIP3    H1 6779   7.826   1.018   3.023
 2274TIP3    H2 6780   7.689   1.070   3.062
 2275TIP3   OH2 6781   7.486   0.737   2.928
 2275TIP3    H1 6782   7.521   0.715   3.014
 2275TIP3    H2 6783   7.427   0.664   2.907
 2276TIP3   OH2 6784   7.487   1.351   2.632
 2276TIP3    H1 6785   7.516   1.282   2.572
 2276TIP3    H2 6786   7.405   1.318   2.668
 2277TIP3   OH2 6787   7.269   1.112   1.917
 2277TIP3    H1 6788   7.201   1.144   1.976
 2277TIP3    H2 6789   7.239   1.137   1.830
 2278TIP3   OH2 6790   7.434   1.613   2.968
 2278TIP3    H1 6791   7.508   1.613   3.029
 2278TIP3    H2 6792   7.393   1.527   2.980
 2279TIP3   OH2 6793   7.552   1.028   3.175
 2279TIP3    H1 6794   7.573   0.935   3.181
 2279TIP3    H2 6795   7.467   1.031   3.132
 2280TIP3   OH2 6796   7.679   0.776   3.165
 2280TIP3    H1 6797   7.725   0.692   3.157
 2280TIP3    H2 6798   7.699   0.806   3.253
 2281TIP3   OH2 6799   7.046   1.440   1.976
 2281TIP3    H1 6800   6.980   1.381   1.938
 2281TIP3    H2 6801   7.091   1.386   2.041
 2282TIP3   OH2 6802   7.167   1.291   2.169
 2282TIP3    H1 6803   7.175   1.215   2.227
 2282TIP3    H2 6804   7.223   1.357   2.210
 2283TIP3   OH2 6805   7.582   0.371   3.211
 2283TIP3    H1 6806   7.676   0.354   3.218
 2283TIP3    H2 6807   7.541   0.292   3.246
 2284TIP3   OH2 6808   7.349   0.340   2.600
 2284TIP3    H1 6809   7.408   0.338   2.525
 2284TIP3    H2 6810   7.359   0.428   2.636
 2285TIP3   OH2 6811   7.577   1.357   3.027
 2285TIP3    H1 6812   7.488   1.331   3.002
 2285TIP3    H2 6813   7.586   1.327   3.118
 2286TIP3   OH2 6814   7.358   1.464   2.312
 2286TIP3    H1 6815   7.362   1.420   2.397
 2286TIP3    H2 6816   7.422   1.418   2.259
 2287TIP3   OH2 6817   7.541   1.310   2.181
 2287TIP3    H1 6818   7.537   1.219   2.210
 2287TIP3    H2 6819   7.630   1.321   2.148
 2288TIP3   OH2 6820   7.144   1.212   1.695
 2288TIP3    H1 6821   7.059   1.174   1.673
 2288TIP3    H2 6822   7.131   1.307   1.687
 2289TIP3   OH2 6823   7.214   1.267   1.377
 2289TIP3    H1 6824   7.201   1.274   1.472
 2289TIP3    H2 6825   7.274   1.193   1.367
 2290TIP3   OH2 6826   0.783   1.581   3.560
 2290TIP3    H1 6827   0.758   1.666   3.524
 2290TIP3    H2 6828   0.700   1.534   3.572
 2291TIP3   OH2 6829   0.780   1.569   3.932
 2291TIP3    H1 6830   0.818   1.545   4.017
 2291TIP3    H2 6831   0.749   1.487   3.895
 2292TIP3   OH2 6832   0.089   1.461   4.296
 2292TIP3    H1 6833   0.124   1.396   4.357
 2292TIP3    H2 6834   0.162   1.519   4.277
 2293TIP3   OH2 6835   1.027   1.875   3.607
 2293TIP3    H1 6836   1.013   1.799   3.663
 2293TIP3    H2 6837   1.059   1.943   3.666
 2294TIP3   OH2 6838   0.061   1.865   4.014
 2294TIP3    H1 6839   0.050   1.770   4.015
 2294TIP3    H2 6840   0.155   1.878   4.003
 2295TIP3   OH2 6841   0.682   2.331   3.627
 2295TIP3    H1 6842   0.721   2.264   3.571
 2295TIP3    H2 6843   0.672   2.289   3.712
 2296TIP3   OH2 6844   0.584   1.793   3.975
 2296TIP3    H1 6845   0.620   1.715   3.933
 2296TIP3    H2 6846   0.662   1.844   3.999
 2297TIP3   OH2 6847   1.597   1.114   3.970
 2297TIP3    H1 6848   1.627   1.194   4.012
 2297TIP3    H2 6849   1.619   1.125   3.877
 2298TIP3   OH2 6850   0.993   1.291   4.003
 2298TIP3    H1 6851   1.036   1.209   4.024
 2298TIP3    H2 6852   0.959   1.278   3.914
 2299TIP3   OH2 6853   1.025   1.050   3.615
 2299TIP3    H1 6854   1.099   1.026   3.670
 2299TIP3    H2 6855   1.064   1.080   3.533
 2300TIP3   OH2 6856   0.416   1.343   3.869
 2300TIP3    H1 6857   0.510   1.348   3.886
 2300TIP3    H2 6858   0.399   1.251   3.853
 2301TIP3   OH2 6859   1.670   1.323   4.140
 2301TIP3    H1 6860   1.587   1.365   4.117
 2301TIP3    H2 6861   1.684   1.345   4.232
 2302TIP3   OH2 6862   0.353   0.931   4.395
 2302TIP3    H1 6863   0.299   0.971   4.327
 2302TIP3    H2 6864   0.298   0.929   4.472
 2303TIP3   OH2 6865   0.659   1.783   3.417
 2303TIP3    H1 6866   0.658   1.786   3.321
 2303TIP3    H2 6867   0.618   1.866   3.444
 2304TIP3   OH2 6868   0.434   1.715   4.193
 2304TIP3    H1 6869   0.377   1.781   4.232
 2304TIP3    H2 6870   0.479   1.760   4.122
 2305TIP3   OH2 6871   1.243   1.039   3.775
 2305TIP3    H1 6872   1.220   1.007   3.862
 2305TIP3    H2 6873   1.289   1.122   3.792
 2306TIP3   OH2 6874   0.204   1.041   4.200
 2306TIP3    H1 6875   0.256   1.121   4.209
 2306TIP3    H2 6876   0.221   1.011   4.111
 2307TIP3   OH2 6877   0.260   1.911   4.299
 2307TIP3    H1 6878   0.240   1.996   4.259
 2307TIP3    H2 6879   0.184   1.892   4.353
 2308TIP3   OH2 6880   1.094   2.117   3.774
 2308TIP3    H1 6881   1.007   2.104   3.812
 2308TIP3    H2 6882   1.087   2.200   3.727
 2309TIP3   OH2 6883   1.389   1.013   4.135
 2309TIP3    H1 6884   1.302   1.037   4.103
 2309TIP3    H2 6885   1.449   1.044   4.068
 2310TIP3   OH2 6886   0.701   0.671   4.126
 2310TIP3    H1 6887   0.676   0.579   4.117
 2310TIP3    H2 6888   0.621   0.715   4.155
 2311TIP3   OH2 6889   0.797   2.158   3.442
 2311TIP3    H1 6890   0.839   2.074   3.427
 2311TIP3    H2 6891   0.858   2.223   3.406
 2312TIP3   OH2 6892   0.935   1.940   3.356
 2312TIP3    H1 6893   0.941   1.865   3.298
 2312TIP3    H2 6894   0.970   1.909   3.439
 2313TIP3   OH2 6895   1.322   2.023   4.113
 2313TIP3    H1 6896   1.309   1.946   4.058
 2313TIP3    H2 6897   1.305   2.097   4.055
 2314TIP3   OH2 6898   1.516   1.668   3.962
 2314TIP3    H1 6899   1.432   1.714   3.968
 2314TIP3    H2 6900   1.547   1.686   3.874
 2315TIP3   OH2 6901   0.954   1.526   3.347
 2315TIP3    H1 6902   0.914   1.534   3.433
 2315TIP3    H2 6903   1.029   1.467   3.360
 2316TIP3   OH2 6904   1.194   1.540   4.261
 2316TIP3    H1 6905   1.193   1.621   4.312
 2316TIP3    H2 6906   1.111   1.540   4.215
 2317TIP3   OH2 6907   0.191   1.488   3.762
 2317TIP3    H1 6908   0.172   1.447   3.677
 2317TIP3    H2 6909   0.271   1.444   3.792
 2318TIP3   OH2 6910   0.325   1.904   3.908
 2318TIP3    H1 6911   0.308   1.872   3.819
 2318TIP3    H2 6912   0.412   1.872   3.930
 2319TIP3   OH2 6913   0.325   1.477   4.110
 2319TIP3    H1 6914   0.364   1.450   4.027
 2319TIP3    H2 6915   0.371   1.557   4.134
 2320TIP3   OH2 6916   0.854   2.108   3.895
 2320TIP3    H1 6917   0.844   2.186   3.950
 2320TIP3    H2 6918   0.839   2.035   3.955
 2321TIP3   OH2 6919   0.467   2.027   4.440
 2321TIP3    H1 6920   0.410   2.087   4.488
 2321TIP3    H2 6921   0.407   1.972   4.389
 2322TIP3   OH2 6922   0.240   1.592   4.535
 2322TIP3    H1 6923   0.238   1.678   4.578
 2322TIP3    H2 6924   0.151   1.558   4.544
 2323TIP3   OH2 6925   0.545   2.041   3.440
 2323TIP3    H1 6926   0.629   2.086   3.453
 2323TIP3    H2 6927   0.486   2.110   3.410
 2324TIP3   OH2 6928   0.259   2.192   4.528
 2324TIP3    H1 6929   0.229   2.197   4.438
 2324TIP3    H2 6930   0.180   2.176   4.580
 2325TIP3   OH2 6931   1.129   1.978   2.775
 2325TIP3    H1 6932   1.129   2.072   2.757
 2325TIP3    H2 6933   1.217   1.949   2.754
 2326TIP3   OH2 6934   8.365   1.713   4.467
 2326TIP3    H1 6935   8.295   1.702   4.403
 2326TIP3    H2 6936   8.379   1.625   4.503
 2327TIP3   OH2 6937   8.208   1.938   4.090
 2327TIP3    H1 6938   8.294   1.899   4.077
 2327TIP3    H2 6939   8.220   1.999   4.163
 2328TIP3   OH2 6940   1.556   2.370   4.164
 2328TIP3    H1 6941   1.559   2.275   4.177
 2328TIP3    H2 6942   1.476   2.397   4.209
 2329TIP3   OH2 6943   0.663   2.157   4.299
 2329TIP3    H1 6944   0.663   2.247   4.330
 2329TIP3    H2 6945   0.595   2.114   4.350
 2330TIP3   OH2 6946   0.430   2.281   3.259
 2330TIP3    H1 6947   0.394   2.263   3.172
 2330TIP3    H2 6948   0.397   2.368   3.280
 2331TIP3   OH2 6949   8.363   2.142   3.629
 2331TIP3    H1 6950   8.397   2.117   3.715
 2331TIP3    H2 6951   8.316   2.064   3.599
 2332TIP3   OH2 6952   0.634   2.174   2.897
 2332TIP3    H1 6953   0.694   2.110   2.859
 2332TIP3    H2 6954   0.666   2.188   2.985
 2333TIP3   OH2 6955   0.681   2.236   3.166
 2333TIP3    H1 6956   0.593   2.244   3.203
 2333TIP3    H2 6957   0.731   2.191   3.234
 2334TIP3   OH2 6958   1.446   1.498   4.437
 2334TIP3    H1 6959   1.365   1.508   4.387
 2334TIP3    H2 6960   1.467   1.404   4.431
 2335TIP3   OH2 6961   0.044   1.917   4.473
 2335TIP3    H1 6962   0.102   1.891   4.544
 2335TIP3    H2 6963  -0.023   1.848   4.469
 2336TIP3   OH2 6964   0.450   0.744   4.212
 2336TIP3    H1 6965   0.369   0.695   4.200
 2336TIP3    H2 6966   0.429   0.810   4.278
 2337TIP3   OH2 6967   1.018   0.849   4.428
 2337TIP3    H1 6968   1.083   0.817   4.490
 2337TIP3    H2 6969   0.934   0.835   4.471
 2338TIP3   OH2 6970   1.213   1.275   4.361
 2338TIP3    H1 6971   1.166   1.272   4.444
 2338TIP3    H2 6972   1.193   1.361   4.325
 2339TIP3   OH2 6973   0.374   1.253   4.256
 2339TIP3    H1 6974   0.333   1.273   4.340
 2339TIP3    H2 6975   0.360   1.332   4.203
 2340TIP3   OH2 6976   0.777   1.253   3.487
 2340TIP3    H1 6977   0.693   1.270   3.443
 2340TIP3    H2 6978   0.841   1.253   3.417
 2341TIP3   OH2 6979   0.928   1.494   4.597
 2341TIP3    H1 6980   0.903   1.423   4.655
 2341TIP3    H2 6981   1.022   1.507   4.614
 2342TIP3   OH2 6982   0.903   1.252   3.742
 2342TIP3    H1 6983   0.852   1.283   3.667
 2342TIP3    H2 6984   0.943   1.171   3.712
 2343TIP3   OH2 6985   0.203   1.285   4.471
 2343TIP3    H1 6986   0.247   1.345   4.531
 2343TIP3    H2 6987   0.189   1.206   4.521
 2344TIP3   OH2 6988   0.917   1.488   4.168
 2344TIP3    H1 6989   0.950   1.422   4.107
 2344TIP3    H2 6990   0.888   1.438   4.244
 2345TIP3   OH2 6991   0.582   0.985   3.865
 2345TIP3    H1 6992   0.525   0.915   3.896
 2345TIP3    H2 6993   0.670   0.956   3.887
 2346TIP3   OH2 6994   1.080   1.031   4.047
 2346TIP3    H1 6995   1.046   1.047   4.136
 2346TIP3    H2 6996   1.016   0.973   4.007
 2347TIP3   OH2 6997   1.255   2.721   4.263
 2347TIP3    H1 6998   1.251   2.743   4.170
 2347TIP3    H2 6999   1.333   2.765   4.296
 2348TIP3   OH2 7000   0.209   1.834   4.683
 2348TIP3    H1 7001   0.291   1.858   4.727
 2348TIP3    H2 7002   0.145   1.829   4.754
 2349TIP3   OH2 7003   0.674   1.293   3.940
 2349TIP3    H1 7004   0.735   1.249   3.880
 2349TIP3    H2 7005   0.674   1.240   4.019
 2350TIP3   OH2 7006   0.648   1.187   4.226
 2350TIP3    H1 7007   0.560   1.224   4.238
 2350TIP3    H2 7008   0.706   1.247   4.273
 2351TIP3   OH2 7009   1.281   1.808   3.948
 2351TIP3    H1 7010   1.305   1.858   3.870
 2351TIP3    H2 7011   1.200   1.763   3.924
 2352TIP3   OH2 7012   0.781   1.889   4.321
 2352TIP3    H1 7013   0.816   1.869   4.407
 2352TIP3    H2 7014   0.745   1.978   4.329
 2353TIP3   OH2 7015   0.074   1.586   3.999
 2353TIP3    H1 7016   0.100   1.559   3.911
 2353TIP3    H2 7017   0.130   1.537   4.058
 2354TIP3   OH2 7018   0.514   1.714   3.146
 2354TIP3    H1 7019   0.487   1.805   3.138
 2354TIP3    H2 7020   0.475   1.685   3.228
 2355TIP3   OH2 7021   8.499   1.479   4.622
 2355TIP3    H1 7022   8.537   1.501   4.707
 2355TIP3    H2 7023   8.404   1.481   4.638
 2356TIP3   OH2 7024   0.689   1.630   4.627
 2356TIP3    H1 7025   0.627   1.569   4.586
 2356TIP3    H2 7026   0.775   1.596   4.605
 2357TIP3   OH2 7027   0.941   2.155   4.217
 2357TIP3    H1 7028   0.846   2.148   4.229
 2357TIP3    H2 7029   0.971   2.204   4.294
 2358TIP3   OH2 7030   1.365   1.210   3.054
 2358TIP3    H1 7031   1.276   1.196   3.086
 2358TIP3    H2 7032   1.373   1.305   3.048
 2359TIP3   OH2 7033   1.571   2.082   4.201
 2359TIP3    H1 7034   1.476   2.076   4.197
 2359TIP3    H2 7035   1.600   2.051   4.115
 2360TIP3   OH2 7036   1.060   2.039   3.040
 2360TIP3    H1 7037   1.023   1.969   3.095
 2360TIP3    H2 7038   1.066   2.000   2.953
 2361TIP3   OH2 7039   1.049   1.668   3.868
 2361TIP3    H1 7040   0.956   1.648   3.881
 2361TIP3    H2 7041   1.084   1.590   3.825
 2362TIP3   OH2 7042   0.172   1.900   3.626
 2362TIP3    H1 7043   0.171   1.988   3.589
 2362TIP3    H2 7044   0.086   1.892   3.668
 2363TIP3   OH2 7045   0.337   1.673   3.607
 2363TIP3    H1 7046   0.294   1.758   3.599
 2363TIP3    H2 7047   0.278   1.621   3.662
 2364TIP3   OH2 7048   0.451   2.240   4.092
 2364TIP3    H1 7049   0.491   2.311   4.042
 2364TIP3    H2 7050   0.524   2.200   4.139
 2365TIP3   OH2 7051   0.118   2.145   3.521
 2365TIP3    H1 7052   0.024   2.151   3.540
 2365TIP3    H2 7053   0.142   2.232   3.491
 2366TIP3   OH2 7054   0.834   1.875   4.053
 2366TIP3    H1 7055   0.822   1.873   4.148
 2366TIP3    H2 7056   0.910   1.819   4.037
 2367TIP3   OH2 7057   0.821   1.797   2.952
 2367TIP3    H1 7058   0.869   1.772   3.030
 2367TIP3    H2 7059   0.740   1.746   2.956
 2368TIP3   OH2 7060   1.081   2.407   4.101
 2368TIP3    H1 7061   1.005   2.350   4.099
 2368TIP3    H2 7062   1.066   2.470   4.031
 2369TIP3   OH2 7063   1.151   2.254   2.751
 2369TIP3    H1 7064   1.190   2.329   2.705
 2369TIP3    H2 7065   1.070   2.289   2.789
 2370TIP3   OH2 7066   0.977   1.727   3.169
 2370TIP3    H1 7067   0.953   1.656   3.229
 2370TIP3    H2 7068   1.068   1.709   3.145
 2371TIP3   OH2 7069   8.384   2.097   4.255
 2371TIP3    H1 7070   8.444   2.029   4.287
 2371TIP3    H2 7071   8.410   2.176   4.302
 2372TIP3   OH2 7072   1.006   1.094   4.307
 2372TIP3    H1 7073   1.089   1.134   4.332
 2372TIP3    H2 7074   1.006   1.010   4.353
 2373TIP3   OH2 7075   0.402   1.958   3.151
 2373TIP3    H1 7076   0.348   1.970   3.229
 2373TIP3    H2 7077   0.396   2.042   3.105
 2374TIP3   OH2 7078   0.846   1.330   4.376
 2374TIP3    H1 7079   0.872   1.376   4.456
 2374TIP3    H2 7080   0.896   1.248   4.378
 2375TIP3   OH2 7081   1.481   1.233   4.356
 2375TIP3    H1 7082   1.386   1.233   4.367
 2375TIP3    H2 7083   1.495   1.183   4.275
 2376TIP3   OH2 7084   1.133   1.427   3.750
 2376TIP3    H1 7085   1.058   1.368   3.756
 2376TIP3    H2 7086   1.204   1.380   3.793
 2377TIP3   OH2 7087   1.105   2.389   3.691
 2377TIP3    H1 7088   1.060   2.434   3.620
 2377TIP3    H2 7089   1.198   2.404   3.673
 2378TIP3   OH2 7090   8.399   2.433   4.654
 2378TIP3    H1 7091   8.476   2.444   4.710
 2378TIP3    H2 7092   8.375   2.341   4.663
 2379TIP3   OH2 7093   0.357   2.371   4.718
 2379TIP3    H1 7094   0.451   2.355   4.726
 2379TIP3    H2 7095   0.329   2.313   4.647
 2380TIP3   OH2 7096   0.994   2.283   4.456
 2380TIP3    H1 7097   0.987   2.215   4.522
 2380TIP3    H2 7098   1.071   2.334   4.482
 2381TIP3   OH2 7099   0.788   1.989   2.759
 2381TIP3    H1 7100   0.806   1.920   2.824
 2381TIP3    H2 7101   0.858   1.979   2.694
 2382TIP3   OH2 7102   8.502   1.808   4.870
 2382TIP3    H1 7103   8.536   1.718   4.871
 2382TIP3    H2 7104   8.407   1.798   4.867
 2383TIP3   OH2 7105   0.612   1.905   4.647
 2383TIP3    H1 7106   0.574   1.924   4.561
 2383TIP3    H2 7107   0.645   1.815   4.639
 2384TIP3   OH2 7108   1.106   1.920   4.256
 2384TIP3    H1 7109   1.183   1.957   4.213
 2384TIP3    H2 7110   1.036   1.983   4.238
 2385TIP3   OH2 7111   0.116   1.556   4.864
 2385TIP3    H1 7112   0.180   1.485   4.850
 2385TIP3    H2 7113   0.127   1.580   4.956
 2386TIP3   OH2 7114   0.461   1.432   4.509
 2386TIP3    H1 7115   0.391   1.498   4.515
 2386TIP3    H2 7116   0.519   1.465   4.440
 2387TIP3   OH2 7117   0.982   1.839   4.651
 2387TIP3    H1 7118   1.056   1.806   4.600
 2387TIP3    H2 7119   0.972   1.775   4.722
 2388TIP3   OH2 7120   0.582   1.218   4.633
 2388TIP3    H1 7121   0.595   1.145   4.573
 2388TIP3    H2 7122   0.544   1.287   4.579
 2389TIP3   OH2 7123   0.607   1.020   4.445
 2389TIP3    H1 7124   0.631   1.061   4.362
 2389TIP3    H2 7125   0.520   0.983   4.429
 2390TIP3   OH2 7126   0.611   1.546   4.321
 2390TIP3    H1 7127   0.698   1.556   4.283
 2390TIP3    H2 7128   0.558   1.612   4.277
 2391TIP3   OH2 7129   1.196   1.511   4.704
 2391TIP3    H1 7130   1.236   1.426   4.721
 2391TIP3    H2 7131   1.265   1.563   4.664
 2392TIP3   OH2 7132   1.235   1.772   4.441
 2392TIP3    H1 7133   1.177   1.824   4.385
 2392TIP3    H2 7134   1.323   1.788   4.406
 2393TIP3   OH2 7135   0.493   1.339   4.866
 2393TIP3    H1 7136   0.403   1.322   4.894
 2393TIP3    H2 7137   0.503   1.290   4.784
 2394TIP3   OH2 7138   0.758   0.799   4.496
 2394TIP3    H1 7139   0.714   0.882   4.479
 2394TIP3    H2 7140   0.687   0.736   4.504
 2395TIP3   OH2 7141   0.839   1.279   4.737
 2395TIP3    H1 7142   0.835   1.262   4.831
 2395TIP3    H2 7143   0.753   1.253   4.704
 2396TIP3   OH2 7144   1.083   1.234   4.594
 2396TIP3    H1 7145   1.010   1.230   4.655
 2396TIP3    H2 7146   1.159   1.204   4.645
 2397TIP3   OH2 7147   1.311   1.178   4.738
 2397TIP3    H1 7148   1.325   1.083   4.745
 2397TIP3    H2 7149   1.309   1.208   4.829
 2398TIP3   OH2 7150   0.796   0.760   4.764
 2398TIP3    H1 7151   0.875   0.706   4.772
 2398TIP3    H2 7152   0.790   0.779   4.670
 2399TIP3   OH2 7153   0.880   1.000   4.910
 2399TIP3    H1 7154   0.845   0.924   4.863
 2399TIP3    H2 7155   0.804   1.057   4.924
 2400TIP3   OH2 7156   8.111   2.101   3.864
 2400TIP3    H1 7157   8.116   2.016   3.909
 2400TIP3    H2 7158   8.173   2.156   3.912
 2401TIP3   OH2 7159   1.360   2.477   3.655
 2401TIP3    H1 7160   1.384   2.502   3.744
 2401TIP3    H2 7161   1.427   2.517   3.599
 2402TIP3   OH2 7162   1.388   2.489   3.937
 2402TIP3    H1 7163   1.340   2.407   3.931
 2402TIP3    H2 7164   1.462   2.470   3.994
 2403TIP3   OH2 7165   1.433   2.173   4.510
 2403TIP3    H1 7166   1.362   2.180   4.574
 2403TIP3    H2 7167   1.476   2.258   4.512
 2404TIP3   OH2 7168   1.254   1.687   3.130
 2404TIP3    H1 7169   1.323   1.749   3.106
 2404TIP3    H2 7170   1.288   1.643   3.208
 2405TIP3   OH2 7171   1.380   1.552   3.332
 2405TIP3    H1 7172   1.312   1.507   3.383
 2405TIP3    H2 7173   1.439   1.588   3.398
 2406TIP3   OH2 7174   1.435   1.945   3.762
 2406TIP3    H1 7175   1.486   1.876   3.721
 2406TIP3    H2 7176   1.426   2.012   3.694
 2407TIP3   OH2 7177   1.260   2.245   3.957
 2407TIP3    H1 7178   1.190   2.284   4.009
 2407TIP3    H2 7179   1.214   2.198   3.886
 2408TIP3   OH2 7180   1.299   1.473   2.963
 2408TIP3    H1 7181   1.213   1.429   2.964
 2408TIP3    H2 7182   1.285   1.552   3.016
 2409TIP3   OH2 7183   1.203   1.414   3.481
 2409TIP3    H1 7184   1.196   1.320   3.462
 2409TIP3    H2 7185   1.182   1.421   3.574
 2410TIP3   OH2 7186   8.325   1.471   4.239
 2410TIP3    H1 7187   8.321   1.498   4.147
 2410TIP3    H2 7188   8.418   1.474   4.261
 2411TIP3   OH2 7189   1.484   1.833   4.335
 2411TIP3    H1 7190   1.551   1.766   4.326
 2411TIP3    H2 7191   1.507   1.899   4.269
 2412TIP3   OH2 7192   1.664   1.631   4.347
 2412TIP3    H1 7193   1.588   1.585   4.384
 2412TIP3    H2 7194   1.738   1.572   4.362
 2413TIP3   OH2 7195   1.174   1.152   3.411
 2413TIP3    H1 7196   1.234   1.077   3.412
 2413TIP3    H2 7197   1.144   1.157   3.320
 2414TIP3   OH2 7198   1.349   1.297   3.868
 2414TIP3    H1 7199   1.431   1.318   3.823
 2414TIP3    H2 7200   1.361   1.331   3.956
 2415TIP3   OH2 7201   1.420   1.444   4.097
 2415TIP3    H1 7202   1.343   1.474   4.145
 2415TIP3    H2 7203   1.454   1.522   4.053
 2416TIP3   OH2 7204   1.872   1.038   4.651
 2416TIP3    H1 7205   1.931   0.973   4.613
 2416TIP3    H2 7206   1.840   1.088   4.576
 2417TIP3   OH2 7207   1.322   0.918   3.431
 2417TIP3    H1 7208   1.339   0.874   3.515
 2417TIP3    H2 7209   1.282   0.850   3.377
 2418TIP3   OH2 7210   1.736   1.170   4.453
 2418TIP3    H1 7211   1.654   1.213   4.477
 2418TIP3    H2 7212   1.710   1.096   4.399
 2419TIP3   OH2 7213   0.945   2.342   3.310
 2419TIP3    H1 7214   0.992   2.330   3.227
 2419TIP3    H2 7215   0.999   2.406   3.358
 2420TIP3   OH2 7216   0.032   2.150   4.699
 2420TIP3    H1 7217  -0.010   2.068   4.673
 2420TIP3    H2 7218   0.052   2.137   4.792
 2421TIP3   OH2 7219   0.223   2.184   4.239
 2421TIP3    H1 7220   0.174   2.257   4.203
 2421TIP3    H2 7221   0.309   2.191   4.199
 2422TIP3   OH2 7222   0.664   2.424   4.381
 2422TIP3    H1 7223   0.704   2.421   4.468
 2422TIP3    H2 7224   0.727   2.473   4.328
 2423TIP3   OH2 7225   0.844   2.577   4.241
 2423TIP3    H1 7226   0.910   2.523   4.196
 2423TIP3    H2 7227   0.895   2.632   4.301
 2424TIP3   OH2 7228   1.641   0.932   4.336
 2424TIP3    H1 7229   1.550   0.924   4.305
 2424TIP3    H2 7230   1.676   0.843   4.329
 2425TIP3   OH2 7231   8.394   2.437   4.268
 2425TIP3    H1 7232   8.306   2.466   4.244
 2425TIP3    H2 7233   8.408   2.472   4.356
 2426TIP3   OH2 7234   0.132   2.416   4.126
 2426TIP3    H1 7235   0.047   2.427   4.169
 2426TIP3    H2 7236   0.117   2.442   4.036
 2427TIP3   OH2 7237   0.557   2.441   3.923
 2427TIP3    H1 7238   0.489   2.455   3.857
 2427TIP3    H2 7239   0.569   2.526   3.964
 2428TIP3   OH2 7240   0.827   2.381   3.976
 2428TIP3    H1 7241   0.735   2.396   3.956
 2428TIP3    H2 7242   0.873   2.451   3.930
 2429TIP3   OH2 7243   1.034   2.571   3.885
 2429TIP3    H1 7244   1.020   2.654   3.839
 2429TIP3    H2 7245   1.061   2.510   3.816
 2430TIP3   OH2 7246   8.317   2.228   4.007
 2430TIP3    H1 7247   8.327   2.201   4.098
 2430TIP3    H2 7248   8.381   2.177   3.958
 2431TIP3   OH2 7249   0.004   2.089   3.867
 2431TIP3    H1 7250   0.020   2.012   3.920
 2431TIP3    H2 7251   0.090   2.132   3.859
 2432TIP3   OH2 7252   0.273   2.192   3.877
 2432TIP3    H1 7253   0.301   2.103   3.858
 2432TIP3    H2 7254   0.319   2.215   3.958
 2433TIP3   OH2 7255   0.842   0.858   3.956
 2433TIP3    H1 7256   0.803   0.791   4.012
 2433TIP3    H2 7257   0.913   0.812   3.910
 2434TIP3   OH2 7258   1.364   0.729   3.872
 2434TIP3    H1 7259   1.409   0.776   3.802
 2434TIP3    H2 7260   1.271   0.749   3.859
 2435TIP3   OH2 7261   1.486   0.826   3.645
 2435TIP3    H1 7262   1.555   0.778   3.597
 2435TIP3    H2 7263   1.504   0.918   3.627
 2436TIP3   OH2 7264   1.077   0.734   3.839
 2436TIP3    H1 7265   1.088   0.705   3.749
 2436TIP3    H2 7266   1.069   0.653   3.889
 2437TIP3   OH2 7267   0.377   2.193   2.999
 2437TIP3    H1 7268   0.460   2.189   2.952
 2437TIP3    H2 7269   0.312   2.165   2.935
 2438TIP3   OH2 7270   1.090   2.306   3.077
 2438TIP3    H1 7271   1.086   2.211   3.072
 2438TIP3    H2 7272   1.041   2.337   3.000
 2439TIP3   OH2 7273   1.373   0.912   4.744
 2439TIP3    H1 7274   1.389   0.872   4.830
 2439TIP3    H2 7275   1.459   0.909   4.701
 2440TIP3   OH2 7276   1.309   2.452   4.262
 2440TIP3    H1 7277   1.234   2.419   4.213
 2440TIP3    H2 7278   1.293   2.546   4.271
 2441TIP3   OH2 7279   2.582   1.826   3.023
 2441TIP3    H1 7280   2.555   1.916   3.006
 2441TIP3    H2 7281   2.503   1.774   3.006
 2442TIP3   OH2 7282   2.575   1.819   3.419
 2442TIP3    H1 7283   2.616   1.804   3.505
 2442TIP3    H2 7284   2.536   1.735   3.397
 2443TIP3   OH2 7285   1.878   1.715   3.778
 2443TIP3    H1 7286   1.902   1.644   3.838
 2443TIP3    H2 7287   1.958   1.768   3.771
 2444TIP3   OH2 7288   2.823   2.129   3.098
 2444TIP3    H1 7289   2.811   2.058   3.161
 2444TIP3    H2 7290   2.856   2.202   3.150
 2445TIP3   OH2 7291   1.851   2.128   3.495
 2445TIP3    H1 7292   1.839   2.033   3.496
 2445TIP3    H2 7293   1.945   2.141   3.503
 2446TIP3   OH2 7294   1.554   1.335   3.278
 2446TIP3    H1 7295   1.504   1.416   3.291
 2446TIP3    H2 7296   1.491   1.265   3.291
 2447TIP3   OH2 7297   1.618   1.617   3.465
 2447TIP3    H1 7298   1.662   1.540   3.499
 2447TIP3    H2 7299   1.670   1.643   3.389
 2448TIP3   OH2 7300   2.475   2.586   3.110
 2448TIP3    H1 7301   2.518   2.517   3.060
 2448TIP3    H2 7302   2.468   2.551   3.199
 2449TIP3   OH2 7303   2.382   2.050   3.457
 2449TIP3    H1 7304   2.417   1.969   3.420
 2449TIP3    H2 7305   2.460   2.100   3.483
 2450TIP3   OH2 7306   3.394   1.376   3.457
 2450TIP3    H1 7307   3.423   1.453   3.507
 2450TIP3    H2 7308   3.412   1.398   3.366
 2451TIP3   OH2 7309   2.794   1.552   3.485
 2451TIP3    H1 7310   2.833   1.470   3.514
 2451TIP3    H2 7311   2.758   1.532   3.399
 2452TIP3   OH2 7312   2.127   1.210   3.452
 2452TIP3    H1 7313   2.109   1.282   3.391
 2452TIP3    H2 7314   2.083   1.134   3.413
 2453TIP3   OH2 7315   2.829   1.301   3.077
 2453TIP3    H1 7316   2.891   1.283   3.148
 2453TIP3    H2 7317   2.882   1.338   3.007
 2454TIP3   OH2 7318   1.764   1.407   3.560
 2454TIP3    H1 7319   1.843   1.391   3.611
 2454TIP3    H2 7320   1.775   1.354   3.481
 2455TIP3   OH2 7321   2.203   1.607   3.358
 2455TIP3    H1 7322   2.295   1.585   3.372
 2455TIP3    H2 7323   2.164   1.524   3.328
 2456TIP3   OH2 7324   3.470   1.587   3.616
 2456TIP3    H1 7325   3.385   1.627   3.596
 2456TIP3    H2 7326   3.470   1.579   3.712
 2457TIP3   OH2 7327   2.119   1.206   3.897
 2457TIP3    H1 7328   2.061   1.238   3.827
 2457TIP3    H2 7329   2.069   1.221   3.977
 2458TIP3   OH2 7330   2.470   2.048   2.893
 2458TIP3    H1 7331   2.426   2.027   2.810
 2458TIP3    H2 7332   2.426   2.128   2.923
 2459TIP3   OH2 7333   2.232   1.972   3.680
 2459TIP3    H1 7334   2.173   2.036   3.720
 2459TIP3    H2 7335   2.276   2.019   3.610
 2460TIP3   OH2 7336   3.030   1.308   3.256
 2460TIP3    H1 7337   3.003   1.267   3.338
 2460TIP3    H2 7338   3.079   1.385   3.283
 2461TIP3   OH2 7339   1.999   1.310   3.672
 2461TIP3    H1 7340   2.059   1.379   3.700
 2461TIP3    H2 7341   2.044   1.266   3.599
 2462TIP3   OH2 7342   2.056   2.168   3.782
 2462TIP3    H1 7343   2.036   2.255   3.748
 2462TIP3    H2 7344   1.982   2.145   3.837
 2463TIP3   OH2 7345   1.457   1.858   3.019
 2463TIP3    H1 7346   1.403   1.885   2.945
 2463TIP3    H2 7347   1.488   1.939   3.057
 2464TIP3   OH2 7348   2.887   2.373   3.256
 2464TIP3    H1 7349   2.801   2.360   3.296
 2464TIP3    H2 7350   2.881   2.459   3.214
 2465TIP3   OH2 7351   3.186   1.267   3.620
 2465TIP3    H1 7352   3.101   1.303   3.594
 2465TIP3    H2 7353   3.247   1.300   3.554
 2466TIP3   OH2 7354   2.594   2.414   2.925
 2466TIP3    H1 7355   2.640   2.331   2.913
 2466TIP3    H2 7356   2.654   2.480   2.890
 2467TIP3   OH2 7357   2.737   2.197   2.846
 2467TIP3    H1 7358   2.689   2.121   2.815
 2467TIP3    H2 7359   2.777   2.168   2.928
 2468TIP3   OH2 7360   3.107   2.282   3.596
 2468TIP3    H1 7361   3.100   2.203   3.542
 2468TIP3    H2 7362   3.099   2.354   3.533
 2469TIP3   OH2 7363   2.405   1.672   2.858
 2469TIP3    H1 7364   2.327   1.726   2.842
 2469TIP3    H2 7365   2.455   1.677   2.777
 2470TIP3   OH2 7366   2.368   1.466   2.574
 2470TIP3    H1 7367   2.428   1.516   2.630
 2470TIP3    H2 7368   2.425   1.405   2.526
 2471TIP3   OH2 7369   3.312   1.921   3.443
 2471TIP3    H1 7370   3.230   1.969   3.452
 2471TIP3    H2 7371   3.345   1.945   3.357
 2472TIP3   OH2 7372   2.762   1.756   2.833
 2472TIP3    H1 7373   2.705   1.780   2.907
 2472TIP3    H2 7374   2.845   1.733   2.873
 2473TIP3   OH2 7375   2.994   1.796   3.752
 2473TIP3    H1 7376   2.995   1.874   3.806
 2473TIP3    H2 7377   2.911   1.799   3.706
 2474TIP3   OH2 7378   1.995   1.752   3.246
 2474TIP3    H1 7379   1.954   1.695   3.181
 2474TIP3    H2 7380   2.067   1.701   3.281
 2475TIP3   OH2 7381   2.129   2.173   3.392
 2475TIP3    H1 7382   2.103   2.123   3.314
 2475TIP3    H2 7383   2.215   2.138   3.414
 2476TIP3   OH2 7384   2.126   1.727   3.603
 2476TIP3    H1 7385   2.159   1.700   3.517
 2476TIP3    H2 7386   2.169   1.810   3.621
 2477TIP3   OH2 7387   2.649   2.363   3.381
 2477TIP3    H1 7388   2.642   2.441   3.436
 2477TIP3    H2 7389   2.635   2.290   3.441
 2478TIP3   OH2 7390   2.263   2.284   3.925
 2478TIP3    H1 7391   2.206   2.344   3.974
 2478TIP3    H2 7392   2.203   2.229   3.876
 2479TIP3   OH2 7393   2.601   1.618   2.658
 2479TIP3    H1 7394   2.656   1.676   2.710
 2479TIP3    H2 7395   2.625   1.636   2.568
 2480TIP3   OH2 7396   2.018   1.842   4.031
 2480TIP3    H1 7397   2.024   1.928   4.074
 2480TIP3    H2 7398   1.927   1.816   4.043
 2481TIP3   OH2 7399   2.343   2.295   2.927
 2481TIP3    H1 7400   2.426   2.339   2.941
 2481TIP3    H2 7401   2.283   2.365   2.901
 2482TIP3   OH2 7402   2.056   2.447   4.015
 2482TIP3    H1 7403   2.022   2.450   3.925
 2482TIP3    H2 7404   1.979   2.428   4.069
 2483TIP3   OH2 7405   3.105   0.869   2.703
 2483TIP3    H1 7406   3.027   0.857   2.757
 2483TIP3    H2 7407   3.122   0.964   2.707
 2484TIP3   OH2 7408   1.861   1.597   3.043
 2484TIP3    H1 7409   1.788   1.637   2.995
 2484TIP3    H2 7410   1.826   1.513   3.073
 2485TIP3   OH2 7411   2.917   2.222   2.256
 2485TIP3    H1 7412   2.921   2.316   2.240
 2485TIP3    H2 7413   3.007   2.192   2.244
 2486TIP3   OH2 7414   1.637   1.981   3.960
 2486TIP3    H1 7415   1.571   1.961   3.895
 2486TIP3    H2 7416   1.675   1.896   3.984
 2487TIP3   OH2 7417   1.493   2.180   3.586
 2487TIP3    H1 7418   1.588   2.165   3.583
 2487TIP3    H2 7419   1.483   2.252   3.648
 2488TIP3   OH2 7420   3.348   2.623   3.646
 2488TIP3    H1 7421   3.355   2.529   3.665
 2488TIP3    H2 7422   3.271   2.651   3.694
 2489TIP3   OH2 7423   2.456   2.416   3.783
 2489TIP3    H1 7424   2.457   2.506   3.816
 2489TIP3    H2 7425   2.390   2.371   3.836
 2490TIP3   OH2 7426   2.213   2.536   2.735
 2490TIP3    H1 7427   2.182   2.531   2.645
 2490TIP3    H2 7428   2.192   2.625   2.763
 2491TIP3   OH2 7429   1.666   2.384   3.122
 2491TIP3    H1 7430   1.709   2.380   3.208
 2491TIP3    H2 7431   1.613   2.305   3.119
 2492TIP3   OH2 7432   2.414   2.436   2.383
 2492TIP3    H1 7433   2.472   2.373   2.340
 2492TIP3    H2 7434   2.453   2.450   2.469
 2493TIP3   OH2 7435   2.472   2.492   2.652
 2493TIP3    H1 7436   2.386   2.495   2.695
 2493TIP3    H2 7437   2.530   2.453   2.717
 2494TIP3   OH2 7438   3.243   1.750   3.934
 2494TIP3    H1 7439   3.164   1.763   3.881
 2494TIP3    H2 7440   3.269   1.659   3.917
 2495TIP3   OH2 7441   1.840   2.164   3.947
 2495TIP3    H1 7442   1.891   2.150   4.027
 2495TIP3    H2 7443   1.768   2.102   3.953
 2496TIP3   OH2 7444   2.232   0.994   3.760
 2496TIP3    H1 7445   2.159   0.959   3.710
 2496TIP3    H2 7446   2.197   1.072   3.803
 2497TIP3   OH2 7447   2.776   1.099   3.928
 2497TIP3    H1 7448   2.846   1.073   3.988
 2497TIP3    H2 7449   2.695   1.082   3.975
 2498TIP3   OH2 7450   2.994   1.523   3.841
 2498TIP3    H1 7451   2.965   1.524   3.932
 2498TIP3    H2 7452   2.994   1.615   3.814
 2499TIP3   OH2 7453   2.676   1.654   2.400
 2499TIP3    H1 7454   2.640   1.634   2.314
 2499TIP3    H2 7455   2.755   1.706   2.383
 2500TIP3   OH2 7456   2.388   1.040   2.708
 2500TIP3    H1 7457   2.363   1.040   2.800
 2500TIP3    H2 7458   2.358   0.955   2.674
 2501TIP3   OH2 7459   2.173   1.507   3.755
 2501TIP3    H1 7460   2.125   1.524   3.835
 2501TIP3    H2 7461   2.159   1.585   3.701
 2502TIP3   OH2 7462   2.051   1.391   3.265
 2502TIP3    H1 7463   1.962   1.363   3.289
 2502TIP3    H2 7464   2.068   1.349   3.182
 2503TIP3   OH2 7465   2.548   1.477   2.994
 2503TIP3    H1 7466   2.495   1.546   2.954
 2503TIP3    H2 7467   2.601   1.443   2.922
 2504TIP3   OH2 7468   2.725   1.750   4.082
 2504TIP3    H1 7469   2.701   1.679   4.141
 2504TIP3    H2 7470   2.818   1.765   4.101
 2505TIP3   OH2 7471   2.705   1.499   3.229
 2505TIP3    H1 7472   2.640   1.529   3.165
 2505TIP3    H2 7473   2.740   1.419   3.191
 2506TIP3   OH2 7474   1.991   1.530   3.963
 2506TIP3    H1 7475   2.029   1.591   4.026
 2506TIP3    H2 7476   1.979   1.449   4.011
 2507TIP3   OH2 7477   2.039   0.988   2.683
 2507TIP3    H1 7478   2.039   0.988   2.778
 2507TIP3    H2 7479   1.974   1.054   2.659
 2508TIP3   OH2 7480   1.592   1.053   3.543
 2508TIP3    H1 7481   1.663   1.085   3.598
 2508TIP3    H2 7482   1.635   1.019   3.465
 2509TIP3   OH2 7483   1.594   1.058   3.069
 2509TIP3    H1 7484   1.636   1.072   2.984
 2509TIP3    H2 7485   1.515   1.112   3.067
 2510TIP3   OH2 7486   2.709   1.745   3.652
 2510TIP3    H1 7487   2.747   1.680   3.593
 2510TIP3    H2 7488   2.683   1.696   3.729
 2511TIP3   OH2 7489   2.385   1.222   3.327
 2511TIP3    H1 7490   2.306   1.210   3.381
 2511TIP3    H2 7491   2.457   1.201   3.386
 2512TIP3   OH2 7492   1.817   1.267   3.330
 2512TIP3    H1 7493   1.726   1.275   3.300
 2512TIP3    H2 7494   1.841   1.176   3.311
 2513TIP3   OH2 7495   2.088   1.264   3.032
 2513TIP3    H1 7496   2.181   1.279   3.014
 2513TIP3    H2 7497   2.043   1.288   2.950
 2514TIP3   OH2 7498   2.867   1.287   3.525
 2514TIP3    H1 7499   2.846   1.302   3.617
 2514TIP3    H2 7500   2.800   1.225   3.495
 2515TIP3   OH2 7501   1.938   1.309   2.812
 2515TIP3    H1 7502   1.856   1.269   2.781
 2515TIP3    H2 7503   1.983   1.336   2.732
 2516TIP3   OH2 7504   3.048   2.980   3.751
 2516TIP3    H1 7505   3.051   2.990   3.656
 2516TIP3    H2 7506   3.130   3.018   3.782
 2517TIP3   OH2 7507   2.005   2.091   4.171
 2517TIP3    H1 7508   2.085   2.116   4.217
 2517TIP3    H2 7509   1.939   2.085   4.241
 2518TIP3   OH2 7510   2.465   1.544   3.431
 2518TIP3    H1 7511   2.532   1.493   3.385
 2518TIP3    H2 7512   2.462   1.505   3.518
 2519TIP3   OH2 7513   1.986   1.025   3.306
 2519TIP3    H1 7514   1.944   0.957   3.359
 2519TIP3    H2 7515   2.046   0.976   3.249
 2520TIP3   OH2 7516   2.444   1.452   3.701
 2520TIP3    H1 7517   2.355   1.477   3.726
 2520TIP3    H2 7518   2.501   1.502   3.760
 2521TIP3   OH2 7519   2.175   1.827   2.809
 2521TIP3    H1 7520   2.109   1.759   2.797
 2521TIP3    H2 7521   2.160   1.861   2.897
 2522TIP3   OH2 7522   3.078   2.064   3.432
 2522TIP3    H1 7523   3.104   2.113   3.354
 2522TIP3    H2 7524   2.996   2.021   3.408
 2523TIP3   OH2 7525   2.628   1.155   2.638
 2523TIP3    H1 7526   2.543   1.124   2.670
 2523TIP3    H2 7527   2.643   1.235   2.687
 2524TIP3   OH2 7528   2.578   2.148   3.806
 2524TIP3    H1 7529   2.615   2.123   3.891
 2524TIP3    H2 7530   2.540   2.234   3.821
 2525TIP3   OH2 7531   2.709   1.384   2.773
 2525TIP3    H1 7532   2.800   1.394   2.800
 2525TIP3    H2 7533   2.688   1.468   2.731
 2526TIP3   OH2 7534   1.878   1.855   3.482
 2526TIP3    H1 7535   1.913   1.822   3.399
 2526TIP3    H2 7536   1.913   1.796   3.548
 2527TIP3   OH2 7537   2.323   1.974   2.632
 2527TIP3    H1 7538   2.276   2.057   2.632
 2527TIP3    H2 7539   2.272   1.918   2.690
 2528TIP3   OH2 7540   1.754   1.770   4.101
 2528TIP3    H1 7541   1.774   1.756   4.194
 2528TIP3    H2 7542   1.687   1.705   4.080
 2529TIP3   OH2 7543   2.485   1.885   4.116
 2529TIP3    H1 7544   2.423   1.826   4.073
 2529TIP3    H2 7545   2.571   1.851   4.092
 2530TIP3   OH2 7546   2.734   2.418   3.700
 2530TIP3    H1 7547   2.640   2.409   3.715
 2530TIP3    H2 7548   2.767   2.462   3.778
 2531TIP3   OH2 7549   3.128   1.496   2.630
 2531TIP3    H1 7550   3.081   1.439   2.569
 2531TIP3    H2 7551   3.132   1.580   2.586
 2532TIP3   OH2 7552   3.355   2.333   3.687
 2532TIP3    H1 7553   3.260   2.328   3.681
 2532TIP3    H2 7554   3.386   2.305   3.601
 2533TIP3   OH2 7555   2.847   2.297   2.520
 2533TIP3    H1 7556   2.825   2.229   2.584
 2533TIP3    H2 7557   2.863   2.250   2.439
 2534TIP3   OH2 7558   2.842   1.928   3.346
 2534TIP3    H1 7559   2.752   1.904   3.366
 2534TIP3    H2 7560   2.880   1.848   3.309
 2535TIP3   OH2 7561   1.971   2.153   3.102
 2535TIP3    H1 7562   1.965   2.237   3.057
 2535TIP3    H2 7563   1.881   2.136   3.131
 2536TIP3   OH2 7564   1.546   1.457   2.836
 2536TIP3    H1 7565   1.588   1.542   2.853
 2536TIP3    H2 7566   1.460   1.464   2.878
 2537TIP3   OH2 7567   2.107   1.918   3.051
 2537TIP3    H1 7568   2.072   2.005   3.070
 2537TIP3    H2 7569   2.078   1.864   3.124
 2538TIP3   OH2 7570   2.247   2.498   3.579
 2538TIP3    H1 7571   2.291   2.568   3.530
 2538TIP3    H2 7572   2.318   2.457   3.629
 2539TIP3   OH2 7573   1.887   2.399   2.958
 2539TIP3    H1 7574   1.806   2.401   3.009
 2539TIP3    H2 7575   1.922   2.488   2.964
 2540TIP3   OH2 7576   2.631   2.131   3.540
 2540TIP3    H1 7577   2.615   2.132   3.635
 2540TIP3    H2 7578   2.711   2.080   3.530
 2541TIP3   OH2 7579   2.608   2.023   2.425
 2541TIP3    H1 7580   2.663   1.999   2.500
 2541TIP3    H2 7581   2.520   1.998   2.452
 2542TIP3   OH2 7582   2.875   2.664   3.591
 2542TIP3    H1 7583   2.802   2.603   3.590
 2542TIP3    H2 7584   2.858   2.723   3.518
 2543TIP3   OH2 7585   2.943   2.500   2.238
 2543TIP3    H1 7586   2.982   2.569   2.185
 2543TIP3    H2 7587   2.864   2.538   2.274
 2544TIP3   OH2 7588   1.959   1.278   4.109
 2544TIP3    H1 7589   1.863   1.279   4.118
 2544TIP3    H2 7590   1.989   1.220   4.179
 2545TIP3   OH2 7591   2.773   1.951   2.635
 2545TIP3    H1 7592   2.759   1.891   2.709
 2545TIP3    H2 7593   2.868   1.952   2.622
 2546TIP3   OH2 7594   1.683   2.356   3.739
 2546TIP3    H1 7595   1.735   2.283   3.772
 2546TIP3    H2 7596   1.705   2.429   3.797
 2547TIP3   OH2 7597   1.984   1.993   2.425
 2547TIP3    H1 7598   1.992   1.901   2.398
 2547TIP3    H2 7599   1.952   1.989   2.515
 2548TIP3   OH2 7600   1.912   2.013   2.698
 2548TIP3    H1 7601   1.985   1.976   2.747
 2548TIP3    H2 7602   1.923   2.107   2.707
 2549TIP3   OH2 7603   1.650   1.707   2.898
 2549TIP3    H1 7604   1.584   1.748   2.955
 2549TIP3    H2 7605   1.664   1.772   2.828
 2550TIP3   OH2 7606   2.805   1.334   3.784
 2550TIP3    H1 7607   2.880   1.383   3.817
 2550TIP3    H2 7608   2.797   1.259   3.842
 2551TIP3   OH2 7609   2.707   1.094   2.946
 2551TIP3    H1 7610   2.678   1.130   2.862
 2551TIP3    H2 7611   2.740   1.170   2.994
 2552TIP3   OH2 7612   2.179   2.201   2.640
 2552TIP3    H1 7613   2.105   2.235   2.691
 2552TIP3    H2 7614   2.203   2.273   2.582
 2553TIP3   OH2 7615   2.369   1.275   3.058
 2553TIP3    H1 7616   2.431   1.346   3.044
 2553TIP3    H2 7617   2.372   1.259   3.153
 2554TIP3   OH2 7618   2.644   1.588   3.864
 2554TIP3    H1 7619   2.667   1.640   3.941
 2554TIP3    H2 7620   2.698   1.509   3.872
 2555TIP3   OH2 7621   2.518   0.996   3.141
 2555TIP3    H1 7622   2.513   1.043   3.224
 2555TIP3    H2 7623   2.588   1.039   3.093
 2556TIP3   OH2 7624   1.896   2.301   2.708
 2556TIP3    H1 7625   1.938   2.382   2.677
 2556TIP3    H2 7626   1.895   2.310   2.803
 2557TIP3   OH2 7627   2.046   1.007   2.954
 2557TIP3    H1 7628   2.037   1.092   2.998
 2557TIP3    H2 7629   2.138   0.985   2.964
 2558TIP3   OH2 7630   3.278   1.503   3.805
 2558TIP3    H1 7631   3.216   1.480   3.875
 2558TIP3    H2 7632   3.267   1.432   3.741
 2559TIP3   OH2 7633   2.931   1.683   3.234
 2559TIP3    H1 7634   2.855   1.627   3.249
 2559TIP3    H2 7635   3.003   1.640   3.280
 2560TIP3   OH2 7636   1.654   1.911   2.698
 2560TIP3    H1 7637   1.730   1.966   2.717
 2560TIP3    H2 7638   1.686   1.847   2.635
 2561TIP3   OH2 7639   1.624   1.196   2.789
 2561TIP3    H1 7640   1.616   1.285   2.823
 2561TIP3    H2 7641   1.534   1.163   2.786
 2562TIP3   OH2 7642   2.900   2.647   3.177
 2562TIP3    H1 7643   2.857   2.694   3.106
 2562TIP3    H2 7644   2.994   2.663   3.163
 2563TIP3   OH2 7645   1.966   0.908   3.710
 2563TIP3    H1 7646   1.943   0.876   3.623
 2563TIP3    H2 7647   1.964   0.831   3.766
 2564TIP3   OH2 7648   1.513   2.132   3.087
 2564TIP3    H1 7649   1.452   2.156   3.157
 2564TIP3    H2 7650   1.475   2.171   3.008
 2565TIP3   OH2 7651   1.677   2.672   4.161
 2565TIP3    H1 7652   1.761   2.676   4.207
 2565TIP3    H2 7653   1.656   2.579   4.158
 2566TIP3   OH2 7654   2.151   2.629   4.202
 2566TIP3    H1 7655   2.244   2.614   4.214
 2566TIP3    H2 7656   2.125   2.568   4.134
 2567TIP3   OH2 7657   2.132   2.204   2.333
 2567TIP3    H1 7658   2.081   2.130   2.368
 2567TIP3    H2 7659   2.210   2.163   2.297
 2568TIP3   OH2 7660   2.794   2.537   3.940
 2568TIP3    H1 7661   2.784   2.470   4.007
 2568TIP3    H2 7662   2.871   2.587   3.968
 2569TIP3   OH2 7663   2.569   2.249   2.247
 2569TIP3    H1 7664   2.614   2.188   2.305
 2569TIP3    H2 7665   2.620   2.249   2.167
 2570TIP3   OH2 7666   1.801   2.074   4.360
 2570TIP3    H1 7667   1.820   1.981   4.369
 2570TIP3    H2 7668   1.717   2.078   4.315
 2571TIP3   OH2 7669   1.792   1.723   2.568
 2571TIP3    H1 7670   1.848   1.692   2.639
 2571TIP3    H2 7671   1.851   1.729   2.493
 2572TIP3   OH2 7672   2.408   2.160   4.135
 2572TIP3    H1 7673   2.370   2.179   4.049
 2572TIP3    H2 7674   2.441   2.070   4.127
 2573TIP3   OH2 7675   2.298   1.919   2.364
 2573TIP3    H1 7676   2.298   1.934   2.458
 2573TIP3    H2 7677   2.294   1.824   2.354
 2574TIP3   OH2 7678   2.898   2.174   3.740
 2574TIP3    H1 7679   2.977   2.212   3.699
 2574TIP3    H2 7680   2.830   2.240   3.725
 2575TIP3   OH2 7681   1.926   1.814   4.344
 2575TIP3    H1 7682   1.999   1.759   4.316
 2575TIP3    H2 7683   1.952   1.846   4.431
 2576TIP3   OH2 7684   1.985   1.629   2.776
 2576TIP3    H1 7685   1.955   1.600   2.863
 2576TIP3    H2 7686   2.022   1.550   2.736
 2577TIP3   OH2 7687   2.254   1.694   4.003
 2577TIP3    H1 7688   2.178   1.753   4.005
 2577TIP3    H2 7689   2.308   1.726   3.931
 2578TIP3   OH2 7690   2.092   1.420   2.612
 2578TIP3    H1 7691   2.066   1.437   2.522
 2578TIP3    H2 7692   2.187   1.427   2.612
 2579TIP3   OH2 7693   2.777   2.095   4.137
 2579TIP3    H1 7694   2.858   2.070   4.093
 2579TIP3    H2 7695   2.768   2.033   4.209
 2580TIP3   OH2 7696   2.908   1.755   2.279
 2580TIP3    H1 7697   2.888   1.709   2.198
 2580TIP3    H2 7698   2.876   1.844   2.265
 2581TIP3   OH2 7699   2.377   1.483   4.129
 2581TIP3    H1 7700   2.382   1.405   4.074
 2581TIP3    H2 7701   2.335   1.549   4.074
 2582TIP3   OH2 7702   2.382   1.274   3.937
 2582TIP3    H1 7703   2.413   1.304   3.852
 2582TIP3    H2 7704   2.291   1.250   3.922
 2583TIP3   OH2 7705   2.406   1.803   3.812
 2583TIP3    H1 7706   2.493   1.810   3.772
 2583TIP3    H2 7707   2.353   1.867   3.765
 2584TIP3   OH2 7708   2.996   1.763   4.196
 2584TIP3    H1 7709   3.042   1.680   4.208
 2584TIP3    H2 7710   3.061   1.820   4.155
 2585TIP3   OH2 7711   3.033   2.026   3.923
 2585TIP3    H1 7712   2.974   2.078   3.868
 2585TIP3    H2 7713   3.120   2.043   3.887
 2586TIP3   OH2 7714   2.256   1.589   4.362
 2586TIP3    H1 7715   2.191   1.521   4.380
 2586TIP3    H2 7716   2.292   1.566   4.277
 2587TIP3   OH2 7717   2.512   1.031   4.006
 2587TIP3    H1 7718   2.464   1.111   3.983
 2587TIP3    H2 7719   2.448   0.961   3.995
 2588TIP3   OH2 7720   2.640   1.533   4.223
 2588TIP3    H1 7721   2.639   1.519   4.318
 2588TIP3    H2 7722   2.552   1.509   4.195
 2589TIP3   OH2 7723   2.885   1.485   4.086
 2589TIP3    H1 7724   2.811   1.486   4.146
 2589TIP3    H2 7725   2.954   1.440   4.133
 2590TIP3   OH2 7726   2.099   1.368   4.419
 2590TIP3    H1 7727   2.101   1.280   4.383
 2590TIP3    H2 7728   2.137   1.359   4.507
 2591TIP3   OH2 7729   2.608   1.037   4.263
 2591TIP3    H1 7730   2.674   0.969   4.259
 2591TIP3    H2 7731   2.566   1.036   4.177
 2592TIP3   OH2 7732   2.671   1.253   4.425
 2592TIP3    H1 7733   2.654   1.183   4.362
 2592TIP3    H2 7734   2.596   1.311   4.417
 2593TIP3   OH2 7735   1.879   2.476   2.491
 2593TIP3    H1 7736   1.973   2.459   2.487
 2593TIP3    H2 7737   1.864   2.543   2.424
 2594TIP3   OH2 7738   1.380   1.877   2.724
 2594TIP3    H1 7739   1.474   1.896   2.721
 2594TIP3    H2 7740   1.373   1.786   2.695
 2595TIP3   OH2 7741   1.295   2.477   3.155
 2595TIP3    H1 7742   1.229   2.420   3.114
 2595TIP3    H2 7743   1.338   2.421   3.219
 2596TIP3   OH2 7744   1.429   2.326   3.344
 2596TIP3    H1 7745   1.415   2.254   3.406
 2596TIP3    H2 7746   1.479   2.390   3.393
 2597TIP3   OH2 7747   3.153   2.743   3.143
 2597TIP3    H1 7748   3.184   2.760   3.232
 2597TIP3    H2 7749   3.228   2.764   3.087
 2598TIP3   OH2 7750   3.188   2.747   3.425
 2598TIP3    H1 7751   3.138   2.666   3.419
 2598TIP3    H2 7752   3.261   2.725   3.484
 2599TIP3   OH2 7753   3.224   2.432   3.993
 2599TIP3    H1 7754   3.157   2.439   4.061
 2599TIP3    H2 7755   3.273   2.514   3.999
 2600TIP3   OH2 7756   3.051   1.936   2.612
 2600TIP3    H1 7757   3.113   2.002   2.581
 2600TIP3    H2 7758   3.091   1.901   2.692
 2601TIP3   OH2 7759   3.173   1.807   2.820
 2601TIP3    H1 7760   3.110   1.767   2.880
 2601TIP3    H2 7761   3.241   1.842   2.877
 2602TIP3   OH2 7762   3.227   2.200   3.243
 2602TIP3    H1 7763   3.283   2.133   3.204
 2602TIP3    H2 7764   3.225   2.270   3.178
 2603TIP3   OH2 7765   3.055   2.505   3.437
 2603TIP3    H1 7766   2.987   2.538   3.496
 2603TIP3    H2 7767   3.007   2.457   3.370
 2604TIP3   OH2 7768   3.103   1.711   2.464
 2604TIP3    H1 7769   3.037   1.717   2.394
 2604TIP3    H2 7770   3.084   1.785   2.521
 2605TIP3   OH2 7771   2.986   1.665   2.969
 2605TIP3    H1 7772   2.997   1.570   2.967
 2605TIP3    H2 7773   2.970   1.686   3.062
 2606TIP3   OH2 7774   1.613   1.740   3.711
 2606TIP3    H1 7775   1.608   1.705   3.622
 2606TIP3    H2 7776   1.707   1.741   3.731
 2607TIP3   OH2 7777   3.278   2.090   3.816
 2607TIP3    H1 7778   3.345   2.022   3.809
 2607TIP3    H2 7779   3.309   2.161   3.761
 2608TIP3   OH2 7780   3.455   1.884   3.827
 2608TIP3    H1 7781   3.384   1.838   3.871
 2608TIP3    H2 7782   3.532   1.829   3.841
 2609TIP3   OH2 7783   2.985   1.376   2.857
 2609TIP3    H1 7784   3.023   1.289   2.869
 2609TIP3    H2 7785   3.048   1.422   2.801
 2610TIP3   OH2 7786   3.144   1.550   3.350
 2610TIP3    H1 7787   3.227   1.573   3.307
 2610TIP3    H2 7788   3.152   1.586   3.438
 2611TIP3   OH2 7789   3.209   1.699   3.570
 2611TIP3    H1 7790   3.141   1.726   3.632
 2611TIP3    H2 7791   3.246   1.780   3.537
 2612TIP3   OH2 7792   1.835   1.424   4.392
 2612TIP3    H1 7793   1.930   1.419   4.391
 2612TIP3    H2 7794   1.806   1.339   4.426
 2613TIP3   OH2 7795   3.702   1.315   4.136
 2613TIP3    H1 7796   3.728   1.232   4.096
 2613TIP3    H2 7797   3.639   1.353   4.074
 2614TIP3   OH2 7798   3.093   1.122   2.887
 2614TIP3    H1 7799   3.143   1.118   2.968
 2614TIP3    H2 7800   3.027   1.053   2.896
 2615TIP3   OH2 7801   1.792   1.120   3.720
 2615TIP3    H1 7802   1.847   1.042   3.727
 2615TIP3    H2 7803   1.855   1.192   3.709
 2616TIP3   OH2 7804   1.593   1.390   3.786
 2616TIP3    H1 7805   1.641   1.380   3.704
 2616TIP3    H2 7806   1.627   1.471   3.824
 2617TIP3   OH2 7807   3.528   1.428   3.954
 2617TIP3    H1 7808   3.453   1.445   4.012
 2617TIP3    H2 7809   3.496   1.361   3.893
 2618TIP3   OH2 7810   3.159   1.100   2.448
 2618TIP3    H1 7811   3.210   1.020   2.455
 2618TIP3    H2 7812   3.217   1.169   2.480
 2619TIP3   OH2 7813   1.579   0.901   3.293
 2619TIP3    H1 7814   1.492   0.910   3.332
 2619TIP3    H2 7815   1.575   0.956   3.214
 2620TIP3   OH2 7816   2.738   2.603   2.794
 2620TIP3    H1 7817   2.786   2.588   2.713
 2620TIP3    H2 7818   2.795   2.660   2.846
 2621TIP3   OH2 7819   1.798   0.976   4.104
 2621TIP3    H1 7820   1.749   0.970   4.186
 2621TIP3    H2 7821   1.734   1.012   4.042
 2622TIP3   OH2 7822   1.836   2.405   4.179
 2622TIP3    H1 7823   1.745   2.377   4.163
 2622TIP3    H2 7824   1.853   2.382   4.270
 2623TIP3   OH2 7825   2.018   2.439   3.725
 2623TIP3    H1 7826   1.969   2.513   3.689
 2623TIP3    H2 7827   2.105   2.447   3.685
 2624TIP3   OH2 7828   2.461   2.682   3.866
 2624TIP3    H1 7829   2.500   2.677   3.953
 2624TIP3    H2 7830   2.525   2.732   3.815
 2625TIP3   OH2 7831   2.643   2.833   3.725
 2625TIP3    H1 7832   2.711   2.777   3.688
 2625TIP3    H2 7833   2.690   2.889   3.787
 2626TIP3   OH2 7834   3.436   1.199   3.802
 2626TIP3    H1 7835   3.342   1.191   3.788
 2626TIP3    H2 7836   3.467   1.109   3.813
 2627TIP3   OH2 7837   1.690   2.696   3.752
 2627TIP3    H1 7838   1.602   2.725   3.731
 2627TIP3    H2 7839   1.709   2.734   3.838
 2628TIP3   OH2 7840   1.927   2.672   3.611
 2628TIP3    H1 7841   1.843   2.683   3.656
 2628TIP3    H2 7842   1.910   2.702   3.521
 2629TIP3   OH2 7843   2.354   2.699   3.406
 2629TIP3    H1 7844   2.282   2.716   3.345
 2629TIP3    H2 7845   2.366   2.781   3.453
 2630TIP3   OH2 7846   2.623   2.637   3.457
 2630TIP3    H1 7847   2.530   2.652   3.438
 2630TIP3    H2 7848   2.668   2.713   3.419
 2631TIP3   OH2 7849   2.834   2.832   3.372
 2631TIP3    H1 7850   2.817   2.913   3.323
 2631TIP3    H2 7851   2.860   2.768   3.305
 2632TIP3   OH2 7852   1.608   2.482   3.498
 2632TIP3    H1 7853   1.629   2.457   3.588
 2632TIP3    H2 7854   1.676   2.440   3.445
 2633TIP3   OH2 7855   1.803   2.355   3.356
 2633TIP3    H1 7856   1.812   2.273   3.405
 2633TIP3    H2 7857   1.892   2.391   3.355
 2634TIP3   OH2 7858   2.072   2.445   3.363
 2634TIP3    H1 7859   2.097   2.354   3.352
 2634TIP3    H2 7860   2.116   2.473   3.443
 2635TIP3   OH2 7861   2.632   1.096   3.429
 2635TIP3    H1 7862   2.582   1.023   3.464
 2635TIP3    H2 7863   2.713   1.057   3.397
 2636TIP3   OH2 7864   3.160   0.977   3.337
 2636TIP3    H1 7865   3.196   1.034   3.270
 2636TIP3    H2 7866   3.068   1.002   3.344
 2637TIP3   OH2 7867   3.258   1.089   3.103
 2637TIP3    H1 7868   3.331   1.034   3.074
 2637TIP3    H2 7869   3.290   1.179   3.095
 2638TIP3   OH2 7870   1.882   0.823   3.459
 2638TIP3    H1 7871   1.794   0.786   3.449
 2638TIP3    H2 7872   1.940   0.747   3.455
 2639TIP3   OH2 7873   1.777   0.739   3.180
 2639TIP3    H1 7874   1.717   0.716   3.109
 2639TIP3    H2 7875   1.728   0.800   3.235
 2640TIP3   OH2 7876   2.878   0.995   3.321
 2640TIP3    H1 7877   2.869   0.951   3.237
 2640TIP3    H2 7878   2.873   0.925   3.386
 2641TIP3   OH2 7879   2.907   0.913   2.889
 2641TIP3    H1 7880   2.828   0.964   2.908
 2641TIP3    H2 7881   2.894   0.831   2.937
 2642TIP3   OH2 7882   1.392   2.262   2.883
 2642TIP3    H1 7883   1.311   2.224   2.851
 2642TIP3    H2 7884   1.386   2.355   2.860
 2643TIP3   OH2 7885   1.801   0.869   2.891
 2643TIP3    H1 7886   1.845   0.803   2.944
 2643TIP3    H2 7887   1.823   0.952   2.934
 2644TIP3   OH2 7888   2.317   1.022   2.971
 2644TIP3    H1 7889   2.375   0.974   3.030
 2644TIP3    H2 7890   2.328   1.114   2.995
 2645TIP3   OH2 7891   2.151   2.437   2.469
 2645TIP3    H1 7892   2.237   2.469   2.442
 2645TIP3    H2 7893   2.134   2.362   2.412
 2646TIP3   OH2 7894   2.882   2.562   2.564
 2646TIP3    H1 7895   2.877   2.467   2.555
 2646TIP3    H2 7896   2.841   2.596   2.484
 2647TIP3   OH2 7897   2.097   1.095   4.353
 2647TIP3    H1 7898   2.058   1.025   4.406
 2647TIP3    H2 7899   2.189   1.096   4.379
 2648TIP3   OH2 7900   2.346   1.092   4.472
 2648TIP3    H1 7901   2.430   1.071   4.430
 2648TIP3    H2 7902   2.333   1.024   4.537
 2649TIP3   OH2 7903   3.162   1.143   4.252
 2649TIP3    H1 7904   3.190   1.132   4.343
 2649TIP3    H2 7905   3.193   1.230   4.228
 2650TIP3   OH2 7906   3.105   2.711   3.748
 2650TIP3    H1 7907   3.028   2.677   3.702
 2650TIP3    H2 7908   3.086   2.804   3.761
 2651TIP3   OH2 7909   4.376   2.079   2.512
 2651TIP3    H1 7910   4.351   2.170   2.498
 2651TIP3    H2 7911   4.299   2.029   2.485
 2652TIP3   OH2 7912   4.370   2.076   2.902
 2652TIP3    H1 7913   4.409   2.061   2.988
 2652TIP3    H2 7914   4.330   1.992   2.879
 2653TIP3   OH2 7915   3.673   1.971   3.265
 2653TIP3    H1 7916   3.698   1.901   3.326
 2653TIP3    H2 7917   3.746   2.032   3.267
 2654TIP3   OH2 7918   4.617   2.387   2.583
 2654TIP3    H1 7919   4.607   2.319   2.650
 2654TIP3    H2 7920   4.648   2.464   2.631
 2655TIP3   OH2 7921   3.645   2.380   2.981
 2655TIP3    H1 7922   3.636   2.285   2.983
 2655TIP3    H2 7923   3.739   2.395   2.984
 2656TIP3   OH2 7924   3.353   1.583   2.764
 2656TIP3    H1 7925   3.324   1.670   2.790
 2656TIP3    H2 7926   3.274   1.539   2.732
 2657TIP3   OH2 7927   3.413   1.870   2.942
 2657TIP3    H1 7928   3.460   1.796   2.980
 2657TIP3    H2 7929   3.479   1.918   2.893
 2658TIP3   OH2 7930   4.272   2.841   2.600
 2658TIP3    H1 7931   4.312   2.773   2.546
 2658TIP3    H2 7932   4.277   2.808   2.690
 2659TIP3   OH2 7933   4.178   2.307   2.946
 2659TIP3    H1 7934   4.215   2.228   2.905
 2659TIP3    H2 7935   4.254   2.358   2.973
 2660TIP3   OH2 7936   5.190   1.628   2.944
 2660TIP3    H1 7937   5.218   1.708   2.988
 2660TIP3    H2 7938   5.209   1.644   2.852
 2661TIP3   OH2 7939   4.586   1.803   2.975
 2661TIP3    H1 7940   4.629   1.721   2.999
 2661TIP3    H2 7941   4.554   1.788   2.886
 2662TIP3   OH2 7942   3.930   1.468   2.941
 2662TIP3    H1 7943   3.913   1.544   2.886
 2662TIP3    H2 7944   3.884   1.396   2.898
 2663TIP3   OH2 7945   4.625   1.557   2.563
 2663TIP3    H1 7946   4.691   1.542   2.631
 2663TIP3    H2 7947   4.674   1.593   2.489
 2664TIP3   OH2 7948   3.562   1.668   3.048
 2664TIP3    H1 7949   3.641   1.655   3.100
 2664TIP3    H2 7950   3.576   1.615   2.970
 2665TIP3   OH2 7951   4.002   1.867   2.845
 2665TIP3    H1 7952   4.094   1.844   2.856
 2665TIP3    H2 7953   3.961   1.785   2.816
 2666TIP3   OH2 7954   5.261   1.834   3.117
 2666TIP3    H1 7955   5.181   1.880   3.091
 2666TIP3    H2 7956   5.281   1.868   3.204
 2667TIP3   OH2 7957   3.918   1.450   3.378
 2667TIP3    H1 7958   3.862   1.490   3.311
 2667TIP3    H2 7959   3.870   1.463   3.460
 2668TIP3   OH2 7960   4.263   2.301   2.382
 2668TIP3    H1 7961   4.223   2.287   2.297
 2668TIP3    H2 7962   4.222   2.382   2.414
 2669TIP3   OH2 7963   4.027   2.228   3.169
 2669TIP3    H1 7964   3.968   2.293   3.207
 2669TIP3    H2 7965   4.073   2.274   3.099
 2670TIP3   OH2 7966   4.827   1.564   2.744
 2670TIP3    H1 7967   4.804   1.525   2.828
 2670TIP3    H2 7968   4.878   1.642   2.766
 2671TIP3   OH2 7969   3.795   1.567   3.160
 2671TIP3    H1 7970   3.851   1.639   3.189
 2671TIP3    H2 7971   3.843   1.526   3.088
 2672TIP3   OH2 7972   3.852   2.424   3.269
 2672TIP3    H1 7973   3.832   2.511   3.235
 2672TIP3    H2 7974   3.778   2.403   3.326
 2673TIP3   OH2 7975   3.247   2.113   2.504
 2673TIP3    H1 7976   3.209   2.142   2.421
 2673TIP3    H2 7977   3.282   2.193   2.544
 2674TIP3   OH2 7978   4.678   2.619   2.738
 2674TIP3    H1 7979   4.593   2.614   2.782
 2674TIP3    H2 7980   4.683   2.709   2.706
 2675TIP3   OH2 7981   4.983   1.521   3.106
 2675TIP3    H1 7982   4.897   1.552   3.078
 2675TIP3    H2 7983   5.044   1.555   3.041
 2676TIP3   OH2 7984   4.271   1.164   3.094
 2676TIP3    H1 7985   4.258   1.071   3.112
 2676TIP3    H2 7986   4.199   1.207   3.139
 2677TIP3   OH2 7987   4.387   2.670   2.409
 2677TIP3    H1 7988   4.434   2.588   2.397
 2677TIP3    H2 7989   4.447   2.737   2.375
 2678TIP3   OH2 7990   4.533   2.454   2.331
 2678TIP3    H1 7991   4.492   2.375   2.298
 2678TIP3    H2 7992   4.572   2.427   2.415
 2679TIP3   OH2 7993   4.203   1.930   2.346
 2679TIP3    H1 7994   4.126   1.983   2.327
 2679TIP3    H2 7995   4.254   1.931   2.265
 2680TIP3   OH2 7996   4.166   1.720   2.057
 2680TIP3    H1 7997   4.226   1.772   2.111
 2680TIP3    H2 7998   4.222   1.658   2.011
 2681TIP3   OH2 7999   5.118   2.179   2.951
 2681TIP3    H1 8000   5.035   2.225   2.946
 2681TIP3    H2 8001   5.154   2.185   2.862
 2682TIP3   OH2 8002   4.556   2.013   2.319
 2682TIP3    H1 8003   4.500   2.036   2.394
 2682TIP3    H2 8004   4.640   1.990   2.358
 2683TIP3   OH2 8005   4.787   2.054   3.240
 2683TIP3    H1 8006   4.788   2.134   3.292
 2683TIP3    H2 8007   4.705   2.058   3.192
 2684TIP3   OH2 8008   3.789   2.010   2.737
 2684TIP3    H1 8009   3.748   1.955   2.671
 2684TIP3    H2 8010   3.864   1.960   2.768
 2685TIP3   OH2 8011   3.920   2.424   2.883
 2685TIP3    H1 8012   3.901   2.384   2.798
 2685TIP3    H2 8013   4.007   2.392   2.906
 2686TIP3   OH2 8014   3.920   1.986   3.086
 2686TIP3    H1 8015   3.957   1.960   3.002
 2686TIP3    H2 8016   3.964   2.068   3.108
 2687TIP3   OH2 8017   4.442   2.623   2.870
 2687TIP3    H1 8018   4.445   2.702   2.923
 2687TIP3    H2 8019   4.428   2.552   2.933
 2688TIP3   OH2 8020   4.057   2.539   3.418
 2688TIP3    H1 8021   4.001   2.599   3.467
 2688TIP3    H2 8022   3.996   2.485   3.369
 2689TIP3   OH2 8023   4.394   1.876   2.143
 2689TIP3    H1 8024   4.451   1.932   2.195
 2689TIP3    H2 8025   4.419   1.894   2.052
 2690TIP3   OH2 8026   3.814   2.097   3.516
 2690TIP3    H1 8027   3.827   2.182   3.557
 2690TIP3    H2 8028   3.724   2.073   3.536
 2691TIP3   OH2 8029   4.139   2.551   2.417
 2691TIP3    H1 8030   4.222   2.596   2.427
 2691TIP3    H2 8031   4.079   2.617   2.383
 2692TIP3   OH2 8032   3.850   2.706   3.503
 2692TIP3    H1 8033   3.815   2.706   3.413
 2692TIP3    H2 8034   3.774   2.686   3.558
 2693TIP3   OH2 8035   4.907   1.113   2.193
 2693TIP3    H1 8036   4.828   1.133   2.244
 2693TIP3    H2 8037   4.926   1.193   2.145
 2694TIP3   OH2 8038   3.653   1.858   2.538
 2694TIP3    H1 8039   3.583   1.895   2.485
 2694TIP3    H2 8040   3.629   1.766   2.550
 2695TIP3   OH2 8041   4.712   2.479   1.740
 2695TIP3    H1 8042   4.719   2.574   1.728
 2695TIP3    H2 8043   4.802   2.447   1.728
 2696TIP3   OH2 8044   3.434   2.235   3.449
 2696TIP3    H1 8045   3.371   2.208   3.382
 2696TIP3    H2 8046   3.474   2.153   3.478
 2697TIP3   OH2 8047   3.293   2.435   3.075
 2697TIP3    H1 8048   3.386   2.417   3.064
 2697TIP3    H2 8049   3.290   2.504   3.141
 2698TIP3   OH2 8050   5.176   2.877   3.155
 2698TIP3    H1 8051   5.152   2.784   3.152
 2698TIP3    H2 8052   5.097   2.920   3.189
 2699TIP3   OH2 8053   4.250   2.668   3.273
 2699TIP3    H1 8054   4.254   2.758   3.305
 2699TIP3    H2 8055   4.184   2.626   3.328
 2700TIP3   OH2 8056   4.018   2.795   2.223
 2700TIP3    H1 8057   3.976   2.780   2.139
 2700TIP3    H2 8058   3.988   2.882   2.250
 2701TIP3   OH2 8059   3.457   2.643   2.613
 2701TIP3    H1 8060   3.507   2.639   2.695
 2701TIP3    H2 8061   3.408   2.562   2.611
 2702TIP3   OH2 8062   4.221   2.697   1.863
 2702TIP3    H1 8063   4.278   2.629   1.826
 2702TIP3    H2 8064   4.254   2.710   1.952
 2703TIP3   OH2 8065   4.270   2.746   2.134
 2703TIP3    H1 8066   4.184   2.754   2.175
 2703TIP3    H2 8067   4.327   2.712   2.204
 2704TIP3   OH2 8068   5.049   2.015   3.409
 2704TIP3    H1 8069   4.966   2.031   3.365
 2704TIP3    H2 8070   5.063   1.921   3.402
 2705TIP3   OH2 8071   3.637   2.422   3.437
 2705TIP3    H1 8072   3.690   2.407   3.515
 2705TIP3    H2 8073   3.564   2.360   3.445
 2706TIP3   OH2 8074   4.035   1.246   3.225
 2706TIP3    H1 8075   3.950   1.214   3.194
 2706TIP3    H2 8076   4.015   1.326   3.273
 2707TIP3   OH2 8077   4.573   1.356   3.417
 2707TIP3    H1 8078   4.641   1.331   3.480
 2707TIP3    H2 8079   4.491   1.340   3.463
 2708TIP3   OH2 8080   4.806   1.789   3.334
 2708TIP3    H1 8081   4.757   1.786   3.416
 2708TIP3    H2 8082   4.788   1.876   3.298
 2709TIP3   OH2 8083   4.468   1.912   1.884
 2709TIP3    H1 8084   4.435   1.891   1.797
 2709TIP3    H2 8085   4.551   1.958   1.868
 2710TIP3   OH2 8086   4.181   1.292   2.184
 2710TIP3    H1 8087   4.155   1.293   2.276
 2710TIP3    H2 8088   4.143   1.211   2.149
 2711TIP3   OH2 8089   3.966   1.765   3.240
 2711TIP3    H1 8090   3.921   1.784   3.322
 2711TIP3    H2 8091   3.952   1.843   3.186
 2712TIP3   OH2 8092   3.851   1.652   2.761
 2712TIP3    H1 8093   3.762   1.624   2.779
 2712TIP3    H2 8094   3.868   1.624   2.671
 2713TIP3   OH2 8095   4.344   1.732   2.481
 2713TIP3    H1 8096   4.293   1.802   2.440
 2713TIP3    H2 8097   4.399   1.699   2.410
 2714TIP3   OH2 8098   4.519   2.004   3.566
 2714TIP3    H1 8099   4.495   1.935   3.627
 2714TIP3    H2 8100   4.611   2.024   3.586
 2715TIP3   OH2 8101   4.497   1.754   2.718
 2715TIP3    H1 8102   4.437   1.790   2.652
 2715TIP3    H2 8103   4.534   1.677   2.676
 2716TIP3   OH2 8104   3.787   1.788   3.450
 2716TIP3    H1 8105   3.815   1.852   3.514
 2716TIP3    H2 8106   3.775   1.707   3.500
 2717TIP3   OH2 8107   3.835   1.266   2.170
 2717TIP3    H1 8108   3.837   1.257   2.265
 2717TIP3    H2 8109   3.759   1.321   2.153
 2718TIP3   OH2 8110   3.389   1.307   3.021
 2718TIP3    H1 8111   3.449   1.347   3.085
 2718TIP3    H2 8112   3.445   1.288   2.946
 2719TIP3   OH2 8113   3.326   1.287   2.547
 2719TIP3    H1 8114   3.411   1.276   2.504
 2719TIP3    H2 8115   3.318   1.382   2.561
 2720TIP3   OH2 8116   4.505   2.001   3.139
 2720TIP3    H1 8117   4.541   1.935   3.080
 2720TIP3    H2 8118   4.477   1.952   3.216
 2721TIP3   OH2 8119   4.186   1.464   2.815
 2721TIP3    H1 8120   4.105   1.466   2.867
 2721TIP3    H2 8121   4.256   1.465   2.880
 2722TIP3   OH2 8122   3.615   1.525   2.822
 2722TIP3    H1 8123   3.524   1.531   2.792
 2722TIP3    H2 8124   3.643   1.437   2.797
 2723TIP3   OH2 8125   3.884   1.556   2.513
 2723TIP3    H1 8126   3.975   1.539   2.491
 2723TIP3    H2 8127   3.836   1.541   2.432
 2724TIP3   OH2 8128   4.671   1.542   3.015
 2724TIP3    H1 8129   4.646   1.558   3.106
 2724TIP3    H2 8130   4.603   1.484   2.981
 2725TIP3   OH2 8131   3.725   1.552   2.283
 2725TIP3    H1 8132   3.654   1.511   2.234
 2725TIP3    H2 8133   3.779   1.593   2.215
 2726TIP3   OH2 8134   4.845   3.236   3.238
 2726TIP3    H1 8135   4.840   3.251   3.143
 2726TIP3    H2 8136   4.924   3.283   3.266
 2727TIP3   OH2 8137   3.804   2.345   3.651
 2727TIP3    H1 8138   3.882   2.376   3.698
 2727TIP3    H2 8139   3.737   2.337   3.719
 2728TIP3   OH2 8140   4.264   1.796   2.911
 2728TIP3    H1 8141   4.339   1.760   2.864
 2728TIP3    H2 8142   4.269   1.755   2.998
 2729TIP3   OH2 8143   3.782   1.292   2.790
 2729TIP3    H1 8144   3.764   1.208   2.832
 2729TIP3    H2 8145   3.811   1.268   2.701
 2730TIP3   OH2 8146   4.238   1.699   3.203
 2730TIP3    H1 8147   4.150   1.734   3.216
 2730TIP3    H2 8148   4.295   1.758   3.252
 2731TIP3   OH2 8149   3.972   2.082   2.295
 2731TIP3    H1 8150   3.903   2.017   2.282
 2731TIP3    H2 8151   3.957   2.117   2.383
 2732TIP3   OH2 8152   4.883   2.305   2.906
 2732TIP3    H1 8153   4.878   2.389   2.861
 2732TIP3    H2 8154   4.796   2.267   2.898
 2733TIP3   OH2 8155   4.432   1.398   2.153
 2733TIP3    H1 8156   4.339   1.379   2.166
 2733TIP3    H2 8157   4.442   1.488   2.186
 2734TIP3   OH2 8158   4.372   2.401   3.297
 2734TIP3    H1 8159   4.410   2.391   3.384
 2734TIP3    H2 8160   4.333   2.488   3.298
 2735TIP3   OH2 8161   4.504   1.644   2.263
 2735TIP3    H1 8162   4.597   1.649   2.282
 2735TIP3    H2 8163   4.485   1.725   2.216
 2736TIP3   OH2 8164   3.666   2.100   2.969
 2736TIP3    H1 8165   3.707   2.076   2.886
 2736TIP3    H2 8166   3.716   2.052   3.036
 2737TIP3   OH2 8167   4.118   2.232   2.117
 2737TIP3    H1 8168   4.072   2.316   2.118
 2737TIP3    H2 8169   4.068   2.177   2.177
 2738TIP3   OH2 8170   3.554   2.029   3.592
 2738TIP3    H1 8171   3.580   2.023   3.685
 2738TIP3    H2 8172   3.490   1.959   3.581
 2739TIP3   OH2 8173   4.279   2.141   3.602
 2739TIP3    H1 8174   4.216   2.081   3.561
 2739TIP3    H2 8175   4.365   2.107   3.576
 2740TIP3   OH2 8176   4.528   2.708   3.150
 2740TIP3    H1 8177   4.447   2.695   3.200
 2740TIP3    H2 8178   4.595   2.666   3.204
 2741TIP3   OH2 8179   4.938   1.739   2.096
 2741TIP3    H1 8180   4.879   1.693   2.037
 2741TIP3    H2 8181   4.940   1.829   2.063
 2742TIP3   OH2 8182   5.133   2.601   3.177
 2742TIP3    H1 8183   5.039   2.600   3.195
 2742TIP3    H2 8184   5.141   2.561   3.091
 2743TIP3   OH2 8185   4.640   2.554   2.006
 2743TIP3    H1 8186   4.621   2.488   2.073
 2743TIP3    H2 8187   4.658   2.504   1.927
 2744TIP3   OH2 8188   4.633   2.183   2.842
 2744TIP3    H1 8189   4.540   2.160   2.853
 2744TIP3    H2 8190   4.671   2.108   2.797
 2745TIP3   OH2 8191   3.771   2.411   2.592
 2745TIP3    H1 8192   3.770   2.492   2.540
 2745TIP3    H2 8193   3.679   2.395   2.613
 2746TIP3   OH2 8194   3.328   1.721   2.297
 2746TIP3    H1 8195   3.378   1.800   2.319
 2746TIP3    H2 8196   3.257   1.720   2.361
 2747TIP3   OH2 8197   3.901   2.173   2.537
 2747TIP3    H1 8198   3.870   2.262   2.555
 2747TIP3    H2 8199   3.872   2.121   2.612
 2748TIP3   OH2 8200   4.045   2.753   3.065
 2748TIP3    H1 8201   4.088   2.823   3.016
 2748TIP3    H2 8202   4.116   2.712   3.115
 2749TIP3   OH2 8203   3.685   2.656   2.447
 2749TIP3    H1 8204   3.602   2.660   2.495
 2749TIP3    H2 8205   3.720   2.745   2.451
 2750TIP3   OH2 8206   4.424   2.388   3.029
 2750TIP3    H1 8207   4.414   2.386   3.124
 2750TIP3    H2 8208   4.509   2.347   3.013
 2751TIP3   OH2 8209   4.404   2.281   1.913
 2751TIP3    H1 8210   4.462   2.257   1.985
 2751TIP3    H2 8211   4.316   2.256   1.943
 2752TIP3   OH2 8212   4.661   2.942   3.104
 2752TIP3    H1 8213   4.609   2.862   3.108
 2752TIP3    H2 8214   4.649   2.973   3.014
 2753TIP3   OH2 8215   4.741   2.758   1.726
 2753TIP3    H1 8216   4.784   2.831   1.681
 2753TIP3    H2 8217   4.660   2.795   1.761
 2754TIP3   OH2 8218   3.758   1.530   3.591
 2754TIP3    H1 8219   3.665   1.543   3.606
 2754TIP3    H2 8220   3.788   1.479   3.667
 2755TIP3   OH2 8221   4.568   2.209   2.121
 2755TIP3    H1 8222   4.554   2.147   2.194
 2755TIP3    H2 8223   4.663   2.210   2.109
 2756TIP3   OH2 8224   3.477   2.613   3.228
 2756TIP3    H1 8225   3.530   2.539   3.258
 2756TIP3    H2 8226   3.501   2.685   3.285
 2757TIP3   OH2 8227   3.765   2.260   1.911
 2757TIP3    H1 8228   3.782   2.170   1.884
 2757TIP3    H2 8229   3.746   2.254   2.004
 2758TIP3   OH2 8230   3.712   2.269   2.182
 2758TIP3    H1 8231   3.786   2.238   2.235
 2758TIP3    H2 8232   3.714   2.364   2.189
 2759TIP3   OH2 8233   3.441   1.958   2.384
 2759TIP3    H1 8234   3.378   2.002   2.441
 2759TIP3    H2 8235   3.462   2.024   2.317
 2760TIP3   OH2 8236   4.606   1.591   3.274
 2760TIP3    H1 8237   4.679   1.636   3.315
 2760TIP3    H2 8238   4.591   1.514   3.329
 2761TIP3   OH2 8239   4.487   1.344   2.444
 2761TIP3    H1 8240   4.469   1.367   2.353
 2761TIP3    H2 8241   4.524   1.423   2.483
 2762TIP3   OH2 8242   3.976   2.463   2.125
 2762TIP3    H1 8243   3.892   2.485   2.165
 2762TIP3    H2 8244   3.999   2.541   2.074
 2763TIP3   OH2 8245   4.169   1.527   2.546
 2763TIP3    H1 8246   4.228   1.600   2.528
 2763TIP3    H2 8247   4.171   1.517   2.641
 2764TIP3   OH2 8248   4.439   1.844   3.351
 2764TIP3    H1 8249   4.459   1.899   3.426
 2764TIP3    H2 8250   4.490   1.764   3.364
 2765TIP3   OH2 8251   4.312   1.250   2.648
 2765TIP3    H1 8252   4.298   1.326   2.705
 2765TIP3    H2 8253   4.370   1.282   2.579
 2766TIP3   OH2 8254   3.722   2.541   2.198
 2766TIP3    H1 8255   3.694   2.609   2.137
 2766TIP3    H2 8256   3.708   2.580   2.285
 2767TIP3   OH2 8257   5.073   1.745   3.335
 2767TIP3    H1 8258   4.978   1.744   3.342
 2767TIP3    H2 8259   5.091   1.711   3.247
 2768TIP3   OH2 8260   4.727   1.938   2.721
 2768TIP3    H1 8261   4.652   1.880   2.736
 2768TIP3    H2 8262   4.799   1.896   2.767
 2769TIP3   OH2 8263   3.445   2.166   2.185
 2769TIP3    H1 8264   3.513   2.232   2.200
 2769TIP3    H2 8265   3.484   2.106   2.121
 2770TIP3   OH2 8266   3.392   1.456   2.322
 2770TIP3    H1 8267   3.404   1.551   2.319
 2770TIP3    H2 8268   3.310   1.440   2.277
 2771TIP3   OH2 8269   4.699   2.899   2.661
 2771TIP3    H1 8270   4.653   2.945   2.591
 2771TIP3    H2 8271   4.791   2.922   2.648
 2772TIP3   OH2 8272   3.772   1.160   3.192
 2772TIP3    H1 8273   3.742   1.119   3.110
 2772TIP3    H2 8274   3.767   1.090   3.257
 2773TIP3   OH2 8275   3.307   2.382   2.571
 2773TIP3    H1 8276   3.245   2.412   2.638
 2773TIP3    H2 8277   3.276   2.423   2.490
 2774TIP3   OH2 8278   3.475   2.928   3.649
 2774TIP3    H1 8279   3.558   2.932   3.696
 2774TIP3    H2 8280   3.455   2.834   3.646
 2775TIP3   OH2 8281   3.950   2.891   3.682
 2775TIP3    H1 8282   4.041   2.868   3.699
 2775TIP3    H2 8283   3.921   2.829   3.616
 2776TIP3   OH2 8284   3.929   2.461   1.816
 2776TIP3    H1 8285   3.874   2.394   1.856
 2776TIP3    H2 8286   4.007   2.414   1.788
 2777TIP3   OH2 8287   4.570   2.816   3.451
 2777TIP3    H1 8288   4.570   2.731   3.495
 2777TIP3    H2 8289   4.663   2.837   3.440
 2778TIP3   OH2 8290   4.367   2.501   1.732
 2778TIP3    H1 8291   4.406   2.440   1.795
 2778TIP3    H2 8292   4.425   2.498   1.657
 2779TIP3   OH2 8293   3.597   2.344   3.831
 2779TIP3    H1 8294   3.611   2.267   3.887
 2779TIP3    H2 8295   3.510   2.331   3.794
 2780TIP3   OH2 8296   3.581   1.977   2.046
 2780TIP3    H1 8297   3.634   1.948   2.120
 2780TIP3    H2 8298   3.643   1.983   1.973
 2781TIP3   OH2 8299   4.209   2.417   3.623
 2781TIP3    H1 8300   4.168   2.439   3.539
 2781TIP3    H2 8301   4.240   2.327   3.612
 2782TIP3   OH2 8302   4.086   2.177   1.849
 2782TIP3    H1 8303   4.092   2.193   1.943
 2782TIP3    H2 8304   4.088   2.082   1.841
 2783TIP3   OH2 8305   3.727   2.066   3.841
 2783TIP3    H1 8306   3.804   2.010   3.828
 2783TIP3    H2 8307   3.752   2.125   3.913
 2784TIP3   OH2 8308   3.777   1.885   2.260
 2784TIP3    H1 8309   3.759   1.850   2.347
 2784TIP3    H2 8310   3.818   1.812   2.213
 2785TIP3   OH2 8311   4.053   1.949   3.487
 2785TIP3    H1 8312   3.977   2.007   3.491
 2785TIP3    H2 8313   4.105   1.983   3.414
 2786TIP3   OH2 8314   3.887   1.682   2.100
 2786TIP3    H1 8315   3.862   1.691   2.008
 2786TIP3    H2 8316   3.982   1.683   2.099
 2787TIP3   OH2 8317   4.567   2.346   3.624
 2787TIP3    H1 8318   4.644   2.325   3.572
 2787TIP3    H2 8319   4.569   2.282   3.696
 2788TIP3   OH2 8320   4.700   2.010   1.768
 2788TIP3    H1 8321   4.685   1.964   1.685
 2788TIP3    H2 8322   4.670   2.099   1.752
 2789TIP3   OH2 8323   4.180   1.741   3.610
 2789TIP3    H1 8324   4.178   1.662   3.556
 2789TIP3    H2 8325   4.134   1.807   3.559
 2790TIP3   OH2 8326   4.179   1.524   3.423
 2790TIP3    H1 8327   4.207   1.568   3.343
 2790TIP3    H2 8328   4.087   1.503   3.407
 2791TIP3   OH2 8329   4.203   2.057   3.293
 2791TIP3    H1 8330   4.291   2.076   3.259
 2791TIP3    H2 8331   4.147   2.123   3.252
 2792TIP3   OH2 8332   4.787   2.026   3.675
 2792TIP3    H1 8333   4.838   1.946   3.686
 2792TIP3    H2 8334   4.850   2.090   3.642
 2793TIP3   OH2 8335   4.825   2.288   3.400
 2793TIP3    H1 8336   4.789   2.371   3.368
 2793TIP3    H2 8337   4.917   2.289   3.372
 2794TIP3   OH2 8338   4.057   1.842   3.846
 2794TIP3    H1 8339   3.988   1.779   3.866
 2794TIP3    H2 8340   4.089   1.817   3.759
 2795TIP3   OH2 8341   4.308   1.287   3.494
 2795TIP3    H1 8342   4.262   1.367   3.472
 2795TIP3    H2 8343   4.242   1.218   3.485
 2796TIP3   OH2 8344   4.435   1.788   3.711
 2796TIP3    H1 8345   4.423   1.777   3.806
 2796TIP3    H2 8346   4.350   1.767   3.673
 2797TIP3   OH2 8347   4.674   1.738   3.565
 2797TIP3    H1 8348   4.601   1.744   3.626
 2797TIP3    H2 8349   4.748   1.712   3.619
 2798TIP3   OH2 8350   4.907   1.684   3.715
 2798TIP3    H1 8351   4.918   1.590   3.729
 2798TIP3    H2 8352   4.902   1.721   3.803
 2799TIP3   OH2 8353   3.895   1.624   3.904
 2799TIP3    H1 8354   3.895   1.534   3.872
 2799TIP3    H2 8355   3.929   1.617   3.994
 2800TIP3   OH2 8356   4.405   1.295   3.751
 2800TIP3    H1 8357   4.471   1.225   3.746
 2800TIP3    H2 8358   4.363   1.294   3.665
 2801TIP3   OH2 8359   4.469   1.512   3.911
 2801TIP3    H1 8360   4.450   1.443   3.848
 2801TIP3    H2 8361   4.394   1.571   3.906
 2802TIP3   OH2 8362   3.695   2.745   2.008
 2802TIP3    H1 8363   3.789   2.731   1.994
 2802TIP3    H2 8364   3.667   2.795   1.932
 2803TIP3   OH2 8365   3.175   2.126   2.221
 2803TIP3    H1 8366   3.267   2.149   2.210
 2803TIP3    H2 8367   3.167   2.038   2.184
 2804TIP3   OH2 8368   3.088   2.734   2.645
 2804TIP3    H1 8369   3.024   2.675   2.603
 2804TIP3    H2 8370   3.133   2.678   2.708
 2805TIP3   OH2 8371   3.224   2.582   2.831
 2805TIP3    H1 8372   3.214   2.510   2.894
 2805TIP3    H2 8373   3.277   2.646   2.878
 2806TIP3   OH2 8374   4.944   3.013   2.622
 2806TIP3    H1 8375   4.975   3.017   2.712
 2806TIP3    H2 8376   5.024   3.017   2.569
 2807TIP3   OH2 8377   4.978   3.009   2.903
 2807TIP3    H1 8378   4.921   2.932   2.904
 2807TIP3    H2 8379   5.057   2.981   2.948
 2808TIP3   OH2 8380   5.055   2.679   3.495
 2808TIP3    H1 8381   4.963   2.673   3.469
 2808TIP3    H2 8382   5.072   2.773   3.501
 2809TIP3   OH2 8383   4.844   2.198   2.098
 2809TIP3    H1 8384   4.910   2.262   2.069
 2809TIP3    H2 8385   4.883   2.159   2.176
 2810TIP3   OH2 8386   4.962   2.061   2.299
 2810TIP3    H1 8387   4.903   2.023   2.364
 2810TIP3    H2 8388   5.036   2.094   2.350
 2811TIP3   OH2 8389   4.853   2.772   2.932
 2811TIP3    H1 8390   4.799   2.750   3.008
 2811TIP3    H2 8391   4.830   2.706   2.867
 2812TIP3   OH2 8392   4.904   1.974   1.950
 2812TIP3    H1 8393   4.835   1.975   1.883
 2812TIP3    H2 8394   4.883   2.047   2.008
 2813TIP3   OH2 8395   4.777   1.642   1.902
 2813TIP3    H1 8396   4.733   1.682   1.826
 2813TIP3    H2 8397   4.756   1.548   1.894
 2814TIP3   OH2 8398   4.779   1.921   2.454
 2814TIP3    H1 8399   4.791   1.826   2.447
 2814TIP3    H2 8400   4.766   1.937   2.548
 2815TIP3   OH2 8401   3.411   2.000   3.193
 2815TIP3    H1 8402   3.407   1.964   3.105
 2815TIP3    H2 8403   3.504   1.999   3.216
 2816TIP3   OH2 8404   5.077   2.335   3.314
 2816TIP3    H1 8405   5.152   2.281   3.291
 2816TIP3    H2 8406   5.070   2.399   3.243
 2817TIP3   OH2 8407   5.273   2.144   3.317
 2817TIP3    H1 8408   5.193   2.109   3.357
 2817TIP3    H2 8409   5.339   2.077   3.332
 2818TIP3   OH2 8410   4.724   1.375   1.884
 2818TIP3    H1 8411   4.797   1.349   1.940
 2818TIP3    H2 8412   4.651   1.320   1.912
 2819TIP3   OH2 8413   4.781   1.634   2.341
 2819TIP3    H1 8414   4.820   1.548   2.357
 2819TIP3    H2 8415   4.837   1.673   2.274
 2820TIP3   OH2 8416   4.945   1.810   2.841
 2820TIP3    H1 8417   5.026   1.833   2.797
 2820TIP3    H2 8418   4.953   1.846   2.929
 2821TIP3   OH2 8419   5.010   1.956   3.070
 2821TIP3    H1 8420   4.934   1.988   3.119
 2821TIP3    H2 8421   5.047   2.035   3.030
 2822TIP3   OH2 8422   3.627   1.677   3.875
 2822TIP3    H1 8423   3.722   1.673   3.883
 2822TIP3    H2 8424   3.596   1.594   3.910
 2823TIP3   OH2 8425   5.463   1.547   3.625
 2823TIP3    H1 8426   5.523   1.484   3.586
 2823TIP3    H2 8427   5.431   1.599   3.551
 2824TIP3   OH2 8428   4.890   1.385   2.383
 2824TIP3    H1 8429   4.938   1.373   2.464
 2824TIP3    H2 8430   4.828   1.312   2.381
 2825TIP3   OH2 8431   3.590   1.373   3.196
 2825TIP3    H1 8432   3.649   1.300   3.214
 2825TIP3    H2 8433   3.647   1.450   3.192
 2826TIP3   OH2 8434   3.387   1.644   3.268
 2826TIP3    H1 8435   3.441   1.651   3.189
 2826TIP3    H2 8436   3.415   1.717   3.323
 2827TIP3   OH2 8437   5.326   1.681   3.431
 2827TIP3    H1 8438   5.245   1.728   3.451
 2827TIP3    H2 8439   5.299   1.609   3.374
 2828TIP3   OH2 8440   4.967   1.320   2.015
 2828TIP3    H1 8441   5.008   1.251   1.964
 2828TIP3    H2 8442   5.031   1.391   2.017
 2829TIP3   OH2 8443   3.392   1.134   2.772
 2829TIP3    H1 8444   3.306   1.146   2.813
 2829TIP3    H2 8445   3.385   1.180   2.688
 2830TIP3   OH2 8446   4.532   2.859   2.280
 2830TIP3    H1 8447   4.585   2.848   2.201
 2830TIP3    H2 8448   4.583   2.916   2.336
 2831TIP3   OH2 8449   3.594   1.224   3.578
 2831TIP3    H1 8450   3.552   1.221   3.663
 2831TIP3    H2 8451   3.531   1.269   3.521
 2832TIP3   OH2 8452   3.632   2.665   3.671
 2832TIP3    H1 8453   3.544   2.629   3.658
 2832TIP3    H2 8454   3.658   2.634   3.758
 2833TIP3   OH2 8455   3.814   2.694   3.210
 2833TIP3    H1 8456   3.768   2.771   3.175
 2833TIP3    H2 8457   3.903   2.701   3.173
 2834TIP3   OH2 8458   4.258   2.937   3.356
 2834TIP3    H1 8459   4.299   2.933   3.443
 2834TIP3    H2 8460   4.323   2.982   3.301
 2835TIP3   OH2 8461   4.437   3.088   3.210
 2835TIP3    H1 8462   4.503   3.031   3.170
 2835TIP3    H2 8463   4.486   3.143   3.271
 2836TIP3   OH2 8464   5.231   1.445   3.311
 2836TIP3    H1 8465   5.142   1.441   3.275
 2836TIP3    H2 8466   5.264   1.356   3.302
 2837TIP3   OH2 8467   3.484   2.951   3.236
 2837TIP3    H1 8468   3.396   2.985   3.220
 2837TIP3    H2 8469   3.506   2.983   3.324
 2838TIP3   OH2 8470   3.723   2.929   3.098
 2838TIP3    H1 8471   3.638   2.939   3.141
 2838TIP3    H2 8472   3.709   2.957   3.008
 2839TIP3   OH2 8473   4.146   2.958   2.896
 2839TIP3    H1 8474   4.078   2.979   2.831
 2839TIP3    H2 8475   4.160   3.041   2.942
 2840TIP3   OH2 8476   4.417   2.899   2.928
 2840TIP3    H1 8477   4.325   2.922   2.915
 2840TIP3    H2 8478   4.465   2.977   2.903
 2841TIP3   OH2 8479   4.626   3.084   2.856
 2841TIP3    H1 8480   4.617   3.165   2.806
 2841TIP3    H2 8481   4.655   3.019   2.792
 2842TIP3   OH2 8482   3.403   2.736   2.987
 2842TIP3    H1 8483   3.427   2.713   3.077
 2842TIP3    H2 8484   3.471   2.697   2.932
 2843TIP3   OH2 8485   3.598   2.612   2.844
 2843TIP3    H1 8486   3.609   2.530   2.891
 2843TIP3    H2 8487   3.687   2.649   2.840
 2844TIP3   OH2 8488   3.865   2.702   2.852
 2844TIP3    H1 8489   3.893   2.612   2.839
 2844TIP3    H2 8490   3.913   2.731   2.930
 2845TIP3   OH2 8491   4.438   1.362   2.934
 2845TIP3    H1 8492   4.394   1.293   2.984
 2845TIP3    H2 8493   4.511   1.318   2.890
 2846TIP3   OH2 8494   4.955   1.238   2.831
 2846TIP3    H1 8495   4.993   1.291   2.761
 2846TIP3    H2 8496   4.863   1.263   2.832
 2847TIP3   OH2 8497   5.056   1.341   2.597
 2847TIP3    H1 8498   5.127   1.288   2.561
 2847TIP3    H2 8499   5.085   1.432   2.586
 2848TIP3   OH2 8500   3.667   1.040   2.892
 2848TIP3    H1 8501   3.587   1.024   2.941
 2848TIP3    H2 8502   3.729   0.974   2.924
 2849TIP3   OH2 8503   4.131   1.102   2.832
 2849TIP3    H1 8504   4.182   1.149   2.766
 2849TIP3    H2 8505   4.159   1.140   2.916
 2850TIP3   OH2 8506   4.671   1.249   2.812
 2850TIP3    H1 8507   4.672   1.213   2.724
 2850TIP3    H2 8508   4.659   1.172   2.869
 2851TIP3   OH2 8509   4.703   1.175   2.376
 2851TIP3    H1 8510   4.622   1.223   2.394
 2851TIP3    H2 8511   4.690   1.090   2.418
 2852TIP3   OH2 8512   3.185   2.517   2.371
 2852TIP3    H1 8513   3.101   2.482   2.340
 2852TIP3    H2 8514   3.182   2.610   2.348
 2853TIP3   OH2 8515   4.117   1.282   2.445
 2853TIP3    H1 8516   4.155   1.228   2.515
 2853TIP3    H2 8517   4.132   1.372   2.474
 2854TIP3   OH2 8518   3.962   2.697   1.954
 2854TIP3    H1 8519   4.049   2.722   1.924
 2854TIP3    H2 8520   3.937   2.623   1.899
 2855TIP3   OH2 8521   4.680   2.819   2.049
 2855TIP3    H1 8522   4.672   2.724   2.042
 2855TIP3    H2 8523   4.636   2.853   1.971
 2856TIP3   OH2 8524   3.894   1.350   3.834
 2856TIP3    H1 8525   3.848   1.290   3.892
 2856TIP3    H2 8526   3.985   1.350   3.866
 2857TIP3   OH2 8527   4.143   1.346   3.959
 2857TIP3    H1 8528   4.228   1.323   3.921
 2857TIP3    H2 8529   4.126   1.277   4.023
 2858TIP3   OH2 8530   3.266   2.534   2.012
 2858TIP3    H1 8531   3.268   2.554   2.105
 2858TIP3    H2 8532   3.351   2.494   1.994
 2859TIP3   OH2 8533   4.971   1.411   3.745
 2859TIP3    H1 8534   4.986   1.382   3.835
 2859TIP3    H2 8535   5.058   1.408   3.704
 2860TIP3   OH2 8536   4.917   2.968   3.229
 2860TIP3    H1 8537   4.840   2.925   3.191
 2860TIP3    H2 8538   4.889   3.059   3.244
 2861TIP3   OH2 8539   6.172   2.339   1.997
 2861TIP3    H1 8540   6.146   2.429   1.979
 2861TIP3    H2 8541   6.097   2.286   1.970
 2862TIP3   OH2 8542   6.177   2.332   2.387
 2862TIP3    H1 8543   6.209   2.312   2.475
 2862TIP3    H2 8544   6.131   2.253   2.359
 2863TIP3   OH2 8545   5.480   2.231   2.747
 2863TIP3    H1 8546   5.506   2.162   2.808
 2863TIP3    H2 8547   5.555   2.291   2.745
 2864TIP3   OH2 8548   6.420   2.640   2.069
 2864TIP3    H1 8549   6.397   2.575   2.135
 2864TIP3    H2 8550   6.448   2.717   2.119
 2865TIP3   OH2 8551   5.454   2.663   2.465
 2865TIP3    H1 8552   5.387   2.615   2.514
 2865TIP3    H2 8553   5.529   2.603   2.464
 2866TIP3   OH2 8554   5.151   1.835   2.252
 2866TIP3    H1 8555   5.121   1.921   2.280
 2866TIP3    H2 8556   5.074   1.794   2.212
 2867TIP3   OH2 8557   5.206   2.117   2.404
 2867TIP3    H1 8558   5.249   2.058   2.466
 2867TIP3    H2 8559   5.272   2.181   2.382
 2868TIP3   OH2 8560   6.063   3.104   2.081
 2868TIP3    H1 8561   6.106   3.030   2.039
 2868TIP3    H2 8562   6.090   3.098   2.173
 2869TIP3   OH2 8563   5.977   2.557   2.433
 2869TIP3    H1 8564   6.013   2.481   2.387
 2869TIP3    H2 8565   6.053   2.607   2.461
 2870TIP3   OH2 8566   6.982   1.893   2.433
 2870TIP3    H1 8567   7.016   1.963   2.489
 2870TIP3    H2 8568   6.972   1.934   2.347
 2871TIP3   OH2 8569   6.389   2.062   2.459
 2871TIP3    H1 8570   6.425   1.978   2.485
 2871TIP3    H2 8571   6.351   2.047   2.372
 2872TIP3   OH2 8572   5.723   1.722   2.424
 2872TIP3    H1 8573   5.704   1.796   2.366
 2872TIP3    H2 8574   5.676   1.649   2.385
 2873TIP3   OH2 8575   6.422   1.814   2.049
 2873TIP3    H1 8576   6.488   1.798   2.116
 2873TIP3    H2 8577   6.471   1.850   1.975
 2874TIP3   OH2 8578   5.356   1.923   2.536
 2874TIP3    H1 8579   5.436   1.907   2.587
 2874TIP3    H2 8580   5.369   1.874   2.456
 2875TIP3   OH2 8581   5.796   2.120   2.329
 2875TIP3    H1 8582   5.888   2.098   2.344
 2875TIP3    H2 8583   5.757   2.038   2.298
 2876TIP3   OH2 8584   7.056   2.096   2.601
 2876TIP3    H1 8585   6.970   2.138   2.591
 2876TIP3    H2 8586   7.091   2.131   2.682
 2877TIP3   OH2 8587   5.715   1.706   2.865
 2877TIP3    H1 8588   5.659   1.743   2.796
 2877TIP3    H2 8589   5.666   1.721   2.946
 2878TIP3   OH2 8590   6.067   2.564   1.865
 2878TIP3    H1 8591   6.019   2.543   1.785
 2878TIP3    H2 8592   6.024   2.643   1.898
 2879TIP3   OH2 8593   5.823   2.489   2.657
 2879TIP3    H1 8594   5.760   2.552   2.693
 2879TIP3    H2 8595   5.862   2.533   2.582
 2880TIP3   OH2 8596   6.624   1.820   2.230
 2880TIP3    H1 8597   6.597   1.776   2.311
 2880TIP3    H2 8598   6.671   1.898   2.260
 2881TIP3   OH2 8599   5.593   1.820   2.646
 2881TIP3    H1 8600   5.650   1.892   2.673
 2881TIP3    H2 8601   5.639   1.779   2.572
 2882TIP3   OH2 8602   5.636   2.676   2.761
 2882TIP3    H1 8603   5.632   2.765   2.725
 2882TIP3    H2 8604   5.544   2.647   2.762
 2883TIP3   OH2 8605   5.045   2.370   1.990
 2883TIP3    H1 8606   5.004   2.401   1.910
 2883TIP3    H2 8607   5.080   2.449   2.032
 2884TIP3   OH2 8608   6.486   2.865   2.229
 2884TIP3    H1 8609   6.402   2.867   2.275
 2884TIP3    H2 8610   6.490   2.949   2.184
 2885TIP3   OH2 8611   6.775   1.781   2.594
 2885TIP3    H1 8612   6.687   1.809   2.567
 2885TIP3    H2 8613   6.833   1.816   2.527
 2886TIP3   OH2 8614   6.066   1.422   2.581
 2886TIP3    H1 8615   6.057   1.329   2.601
 2886TIP3    H2 8616   5.993   1.463   2.626
 2887TIP3   OH2 8617   6.193   2.925   1.906
 2887TIP3    H1 8618   6.240   2.843   1.888
 2887TIP3    H2 8619   6.248   2.993   1.868
 2888TIP3   OH2 8620   6.335   2.706   1.815
 2888TIP3    H1 8621   6.274   2.637   1.792
 2888TIP3    H2 8622   6.373   2.678   1.898
 2889TIP3   OH2 8623   6.707   2.794   2.573
 2889TIP3    H1 8624   6.695   2.717   2.518
 2889TIP3    H2 8625   6.686   2.868   2.516
 2890TIP3   OH2 8626   6.001   2.188   1.834
 2890TIP3    H1 8627   5.922   2.240   1.819
 2890TIP3    H2 8628   6.046   2.186   1.750
 2891TIP3   OH2 8629   5.963   1.975   1.545
 2891TIP3    H1 8630   6.025   2.028   1.596
 2891TIP3    H2 8631   6.019   1.912   1.499
 2892TIP3   OH2 8632   6.899   2.426   2.412
 2892TIP3    H1 8633   6.819   2.478   2.423
 2892TIP3    H2 8634   6.937   2.457   2.330
 2893TIP3   OH2 8635   6.353   2.271   1.807
 2893TIP3    H1 8636   6.296   2.295   1.879
 2893TIP3    H2 8637   6.436   2.249   1.849
 2894TIP3   OH2 8638   6.582   2.310   2.721
 2894TIP3    H1 8639   6.584   2.390   2.773
 2894TIP3    H2 8640   6.498   2.313   2.676
 2895TIP3   OH2 8641   5.586   2.262   2.217
 2895TIP3    H1 8642   5.545   2.206   2.151
 2895TIP3    H2 8643   5.661   2.211   2.248
 2896TIP3   OH2 8644   5.741   2.689   2.355
 2896TIP3    H1 8645   5.706   2.644   2.278
 2896TIP3    H2 8646   5.823   2.644   2.374
 2897TIP3   OH2 8647   5.735   2.236   2.580
 2897TIP3    H1 8648   5.756   2.216   2.489
 2897TIP3    H2 8649   5.767   2.325   2.594
 2898TIP3   OH2 8650   6.250   2.875   2.361
 2898TIP3    H1 8651   6.206   2.947   2.407
 2898TIP3    H2 8652   6.233   2.798   2.415
 2899TIP3   OH2 8653   5.850   2.794   2.892
 2899TIP3    H1 8654   5.794   2.868   2.915
 2899TIP3    H2 8655   5.793   2.734   2.845
 2900TIP3   OH2 8656   6.192   2.130   1.630
 2900TIP3    H1 8657   6.247   2.189   1.682
 2900TIP3    H2 8658   6.216   2.148   1.539
 2901TIP3   OH2 8659   5.607   2.352   3.001
 2901TIP3    H1 8660   5.617   2.421   3.068
 2901TIP3    H2 8661   5.518   2.320   3.013
 2902TIP3   OH2 8662   5.939   2.805   1.903
 2902TIP3    H1 8663   6.016   2.858   1.922
 2902TIP3    H2 8664   5.874   2.868   1.872
 2903TIP3   OH2 8665   6.702   1.365   1.680
 2903TIP3    H1 8666   6.623   1.387   1.729
 2903TIP3    H2 8667   6.721   1.444   1.629
 2904TIP3   OH2 8668   5.452   2.108   2.016
 2904TIP3    H1 8669   5.383   2.153   1.968
 2904TIP3    H2 8670   5.411   2.027   2.046
 2905TIP3   OH2 8671   6.507   2.736   1.227
 2905TIP3    H1 8672   6.513   2.831   1.215
 2905TIP3    H2 8673   6.598   2.706   1.217
 2906TIP3   OH2 8674   5.223   2.491   2.943
 2906TIP3    H1 8675   5.209   2.520   2.852
 2906TIP3    H2 8676   5.259   2.403   2.935
 2907TIP3   OH2 8677   6.944   3.139   2.627
 2907TIP3    H1 8678   6.949   3.044   2.639
 2907TIP3    H2 8679   6.862   3.164   2.669
 2908TIP3   OH2 8680   6.062   2.921   2.765
 2908TIP3    H1 8681   6.057   3.013   2.790
 2908TIP3    H2 8682   5.987   2.880   2.808
 2909TIP3   OH2 8683   5.817   3.054   1.707
 2909TIP3    H1 8684   5.768   3.039   1.626
 2909TIP3    H2 8685   5.785   3.138   1.739
 2910TIP3   OH2 8686   5.253   2.900   2.096
 2910TIP3    H1 8687   5.302   2.899   2.179
 2910TIP3    H2 8688   5.202   2.819   2.098
 2911TIP3   OH2 8689   6.017   2.955   1.349
 2911TIP3    H1 8690   6.074   2.887   1.313
 2911TIP3    H2 8691   6.048   2.968   1.439
 2912TIP3   OH2 8692   6.067   3.003   1.619
 2912TIP3    H1 8693   5.980   3.013   1.658
 2912TIP3    H2 8694   6.122   2.971   1.691
 2913TIP3   OH2 8695   6.841   2.264   2.901
 2913TIP3    H1 8696   6.757   2.278   2.856
 2913TIP3    H2 8697   6.858   2.171   2.893
 2914TIP3   OH2 8698   5.406   2.688   2.967
 2914TIP3    H1 8699   5.476   2.625   2.952
 2914TIP3    H2 8700   5.329   2.648   2.927
 2915TIP3   OH2 8701   5.830   1.503   2.710
 2915TIP3    H1 8702   5.746   1.470   2.679
 2915TIP3    H2 8703   5.809   1.581   2.760
 2916TIP3   OH2 8704   6.370   1.615   2.905
 2916TIP3    H1 8705   6.441   1.587   2.962
 2916TIP3    H2 8706   6.290   1.593   2.954
 2917TIP3   OH2 8707   6.604   2.048   2.823
 2917TIP3    H1 8708   6.555   2.043   2.905
 2917TIP3    H2 8709   6.581   2.134   2.787
 2918TIP3   OH2 8710   6.269   2.170   1.375
 2918TIP3    H1 8711   6.231   2.148   1.290
 2918TIP3    H2 8712   6.349   2.218   1.354
 2919TIP3   OH2 8713   5.977   1.546   1.682
 2919TIP3    H1 8714   5.945   1.546   1.772
 2919TIP3    H2 8715   5.939   1.467   1.642
 2920TIP3   OH2 8716   5.768   2.015   2.730
 2920TIP3    H1 8717   5.717   2.034   2.809
 2920TIP3    H2 8718   5.758   2.094   2.676
 2921TIP3   OH2 8719   5.648   1.901   2.238
 2921TIP3    H1 8720   5.558   1.879   2.261
 2921TIP3    H2 8721   5.661   1.862   2.152
 2922TIP3   OH2 8722   6.141   1.989   1.969
 2922TIP3    H1 8723   6.089   2.059   1.928
 2922TIP3    H2 8724   6.194   1.954   1.897
 2923TIP3   OH2 8725   6.316   2.264   3.056
 2923TIP3    H1 8726   6.292   2.192   3.115
 2923TIP3    H2 8727   6.409   2.279   3.074
 2924TIP3   OH2 8728   6.296   2.013   2.203
 2924TIP3    H1 8729   6.231   2.045   2.139
 2924TIP3    H2 8730   6.333   1.935   2.162
 2925TIP3   OH2 8731   5.590   2.041   2.937
 2925TIP3    H1 8732   5.605   2.106   3.006
 2925TIP3    H2 8733   5.575   1.959   2.983
 2926TIP3   OH2 8734   5.633   1.525   1.646
 2926TIP3    H1 8735   5.626   1.523   1.741
 2926TIP3    H2 8736   5.559   1.579   1.618
 2927TIP3   OH2 8737   5.181   1.562   2.516
 2927TIP3    H1 8738   5.249   1.599   2.573
 2927TIP3    H2 8739   5.227   1.541   2.434
 2928TIP3   OH2 8740   5.142   1.549   2.032
 2928TIP3    H1 8741   5.191   1.582   1.957
 2928TIP3    H2 8742   5.083   1.621   2.056
 2929TIP3   OH2 8743   6.308   2.257   2.627
 2929TIP3    H1 8744   6.343   2.191   2.568
 2929TIP3    H2 8745   6.278   2.207   2.703
 2930TIP3   OH2 8746   5.981   1.723   2.302
 2930TIP3    H1 8747   5.899   1.723   2.352
 2930TIP3    H2 8748   6.049   1.717   2.369
 2931TIP3   OH2 8749   5.412   1.782   2.306
 2931TIP3    H1 8750   5.320   1.791   2.279
 2931TIP3    H2 8751   5.434   1.692   2.285
 2932TIP3   OH2 8752   5.677   1.774   1.998
 2932TIP3    H1 8753   5.769   1.791   1.977
 2932TIP3    H2 8754   5.629   1.796   1.917
 2933TIP3   OH2 8755   6.466   1.799   2.502
 2933TIP3    H1 8756   6.443   1.814   2.594
 2933TIP3    H2 8757   6.399   1.739   2.470
 2934TIP3   OH2 8758   5.527   1.808   1.772
 2934TIP3    H1 8759   5.454   1.765   1.727
 2934TIP3    H2 8760   5.579   1.848   1.702
 2935TIP3   OH2 8761   6.641   3.489   2.718
 2935TIP3    H1 8762   6.626   3.507   2.625
 2935TIP3    H2 8763   6.706   3.554   2.745
 2936TIP3   OH2 8764   5.593   2.653   3.182
 2936TIP3    H1 8765   5.683   2.663   3.211
 2936TIP3    H2 8766   5.557   2.585   3.238
 2937TIP3   OH2 8767   6.058   2.054   2.403
 2937TIP3    H1 8768   6.130   2.011   2.357
 2937TIP3    H2 8769   6.057   2.013   2.490
 2938TIP3   OH2 8770   5.578   1.538   2.281
 2938TIP3    H1 8771   5.542   1.464   2.331
 2938TIP3    H2 8772   5.626   1.497   2.210
 2939TIP3   OH2 8773   6.037   1.959   2.680
 2939TIP3    H1 8774   5.947   1.987   2.699
 2939TIP3    H2 8775   6.091   2.015   2.734
 2940TIP3   OH2 8776   5.772   2.338   1.785
 2940TIP3    H1 8777   5.702   2.274   1.770
 2940TIP3    H2 8778   5.754   2.373   1.872
 2941TIP3   OH2 8779   6.669   2.575   2.409
 2941TIP3    H1 8780   6.692   2.628   2.333
 2941TIP3    H2 8781   6.586   2.533   2.386
 2942TIP3   OH2 8782   6.228   1.650   1.651
 2942TIP3    H1 8783   6.135   1.631   1.658
 2942TIP3    H2 8784   6.236   1.743   1.674
 2943TIP3   OH2 8785   6.175   2.661   2.780
 2943TIP3    H1 8786   6.202   2.639   2.869
 2943TIP3    H2 8787   6.138   2.749   2.787
 2944TIP3   OH2 8788   6.299   1.902   1.751
 2944TIP3    H1 8789   6.393   1.909   1.766
 2944TIP3    H2 8790   6.277   1.981   1.702
 2945TIP3   OH2 8791   5.482   2.360   2.456
 2945TIP3    H1 8792   5.517   2.327   2.373
 2945TIP3    H2 8793   5.508   2.293   2.520
 2946TIP3   OH2 8794   5.915   2.490   1.606
 2946TIP3    H1 8795   5.869   2.574   1.607
 2946TIP3    H2 8796   5.864   2.435   1.666
 2947TIP3   OH2 8797   5.357   2.262   3.072
 2947TIP3    H1 8798   5.351   2.246   3.166
 2947TIP3    H2 8799   5.279   2.221   3.036
 2948TIP3   OH2 8800   6.074   2.398   3.090
 2948TIP3    H1 8801   6.010   2.339   3.050
 2948TIP3    H2 8802   6.159   2.363   3.063
 2949TIP3   OH2 8803   6.332   2.932   2.679
 2949TIP3    H1 8804   6.238   2.919   2.691
 2949TIP3    H2 8805   6.360   2.978   2.758
 2950TIP3   OH2 8806   6.742   1.996   1.582
 2950TIP3    H1 8807   6.682   1.948   1.523
 2950TIP3    H2 8808   6.742   2.085   1.548
 2951TIP3   OH2 8809   6.958   2.851   2.660
 2951TIP3    H1 8810   6.863   2.844   2.655
 2951TIP3    H2 8811   6.989   2.819   2.575
 2952TIP3   OH2 8812   6.448   2.810   1.497
 2952TIP3    H1 8813   6.412   2.748   1.561
 2952TIP3    H2 8814   6.453   2.760   1.415
 2953TIP3   OH2 8815   6.437   2.437   2.327
 2953TIP3    H1 8816   6.344   2.416   2.343
 2953TIP3    H2 8817   6.471   2.360   2.282
 2954TIP3   OH2 8818   5.566   2.665   2.074
 2954TIP3    H1 8819   5.560   2.748   2.026
 2954TIP3    H2 8820   5.479   2.654   2.113
 2955TIP3   OH2 8821   5.131   1.973   1.792
 2955TIP3    H1 8822   5.178   2.054   1.811
 2955TIP3    H2 8823   5.056   1.973   1.851
 2956TIP3   OH2 8824   5.701   2.431   2.027
 2956TIP3    H1 8825   5.666   2.519   2.041
 2956TIP3    H2 8826   5.667   2.379   2.099
 2957TIP3   OH2 8827   5.838   3.015   2.554
 2957TIP3    H1 8828   5.867   3.091   2.504
 2957TIP3    H2 8829   5.919   2.977   2.590
 2958TIP3   OH2 8830   5.481   2.911   1.934
 2958TIP3    H1 8831   5.398   2.915   1.982
 2958TIP3    H2 8832   5.516   3.000   1.938
 2959TIP3   OH2 8833   6.223   2.641   2.514
 2959TIP3    H1 8834   6.210   2.642   2.609
 2959TIP3    H2 8835   6.303   2.590   2.502
 2960TIP3   OH2 8836   6.200   2.540   1.396
 2960TIP3    H1 8837   6.254   2.514   1.471
 2960TIP3    H2 8838   6.111   2.513   1.421
 2961TIP3   OH2 8839   6.466   3.173   2.537
 2961TIP3    H1 8840   6.405   3.109   2.574
 2961TIP3    H2 8841   6.413   3.223   2.474
 2962TIP3   OH2 8842   6.537   3.014   1.214
 2962TIP3    H1 8843   6.576   3.086   1.164
 2962TIP3    H2 8844   6.457   3.051   1.251
 2963TIP3   OH2 8845   5.553   1.786   3.079
 2963TIP3    H1 8846   5.458   1.790   3.090
 2963TIP3    H2 8847   5.584   1.732   3.152
 2964TIP3   OH2 8848   6.362   2.462   1.603
 2964TIP3    H1 8849   6.348   2.405   1.679
 2964TIP3    H2 8850   6.458   2.466   1.594
 2965TIP3   OH2 8851   5.268   2.892   2.704
 2965TIP3    H1 8852   5.241   2.804   2.676
 2965TIP3    H2 8853   5.324   2.876   2.781
 2966TIP3   OH2 8854   5.563   2.516   1.396
 2966TIP3    H1 8855   5.576   2.425   1.369
 2966TIP3    H2 8856   5.544   2.511   1.490
 2967TIP3   OH2 8857   5.508   2.526   1.667
 2967TIP3    H1 8858   5.577   2.496   1.727
 2967TIP3    H2 8859   5.509   2.621   1.674
 2968TIP3   OH2 8860   5.240   2.218   1.872
 2968TIP3    H1 8861   5.175   2.258   1.930
 2968TIP3    H2 8862   5.255   2.283   1.803
 2969TIP3   OH2 8863   6.403   1.846   2.762
 2969TIP3    H1 8864   6.476   1.888   2.806
 2969TIP3    H2 8865   6.384   1.769   2.815
 2970TIP3   OH2 8866   6.281   1.600   1.930
 2970TIP3    H1 8867   6.263   1.620   1.838
 2970TIP3    H2 8868   6.316   1.681   1.966
 2971TIP3   OH2 8869   5.774   2.721   1.612
 2971TIP3    H1 8870   5.689   2.739   1.653
 2971TIP3    H2 8871   5.794   2.800   1.561
 2972TIP3   OH2 8872   5.963   1.786   2.033
 2972TIP3    H1 8873   6.024   1.858   2.015
 2972TIP3    H2 8874   5.966   1.775   2.128
 2973TIP3   OH2 8875   6.236   2.101   2.837
 2973TIP3    H1 8876   6.255   2.154   2.914
 2973TIP3    H2 8877   6.286   2.020   2.851
 2974TIP3   OH2 8878   6.106   1.508   2.130
 2974TIP3    H1 8879   6.096   1.582   2.190
 2974TIP3    H2 8880   6.167   1.539   2.063
 2975TIP3   OH2 8881   5.520   2.798   1.686
 2975TIP3    H1 8882   5.490   2.866   1.625
 2975TIP3    H2 8883   5.505   2.836   1.772
 2976TIP3   OH2 8884   5.621   1.512   1.921
 2976TIP3    H1 8885   5.614   1.600   1.959
 2976TIP3    H2 8886   5.715   1.491   1.928
 2977TIP3   OH2 8887   6.868   1.997   2.820
 2977TIP3    H1 8888   6.773   2.001   2.830
 2977TIP3    H2 8889   6.881   1.952   2.737
 2978TIP3   OH2 8890   6.526   2.190   2.205
 2978TIP3    H1 8891   6.446   2.139   2.219
 2978TIP3    H2 8892   6.593   2.146   2.256
 2979TIP3   OH2 8893   5.240   2.421   1.673
 2979TIP3    H1 8894   5.305   2.490   1.688
 2979TIP3    H2 8895   5.281   2.364   1.608
 2980TIP3   OH2 8896   5.178   1.702   1.809
 2980TIP3    H1 8897   5.185   1.798   1.809
 2980TIP3    H2 8898   5.095   1.684   1.766
 2981TIP3   OH2 8899   6.510   3.118   2.140
 2981TIP3    H1 8900   6.443   3.182   2.113
 2981TIP3    H2 8901   6.593   3.159   2.117
 2982TIP3   OH2 8902   5.568   1.419   2.680
 2982TIP3    H1 8903   5.539   1.386   2.595
 2982TIP3    H2 8904   5.559   1.344   2.739
 2983TIP3   OH2 8905   5.102   2.634   2.056
 2983TIP3    H1 8906   5.046   2.665   2.128
 2983TIP3    H2 8907   5.068   2.678   1.978
 2984TIP3   OH2 8908   5.263   3.179   3.138
 2984TIP3    H1 8909   5.345   3.185   3.187
 2984TIP3    H2 8910   5.239   3.087   3.144
 2985TIP3   OH2 8911   5.749   3.138   3.176
 2985TIP3    H1 8912   5.835   3.112   3.210
 2985TIP3    H2 8913   5.763   3.148   3.082
 2986TIP3   OH2 8914   5.725   2.716   1.303
 2986TIP3    H1 8915   5.668   2.651   1.343
 2986TIP3    H2 8916   5.803   2.667   1.275
 2987TIP3   OH2 8917   6.384   3.052   2.920
 2987TIP3    H1 8918   6.376   2.983   2.986
 2987TIP3    H2 8919   6.459   3.104   2.948
 2988TIP3   OH2 8920   6.164   2.758   1.220
 2988TIP3    H1 8921   6.200   2.694   1.281
 2988TIP3    H2 8922   6.221   2.754   1.143
 2989TIP3   OH2 8923   5.367   2.595   3.318
 2989TIP3    H1 8924   5.392   2.507   3.346
 2989TIP3    H2 8925   5.274   2.588   3.297
 2990TIP3   OH2 8926   5.377   2.235   1.530
 2990TIP3    H1 8927   5.429   2.206   1.605
 2990TIP3    H2 8928   5.440   2.241   1.458
 2991TIP3   OH2 8929   6.002   2.674   3.105
 2991TIP3    H1 8930   5.962   2.694   3.020
 2991TIP3    H2 8931   6.033   2.584   3.096
 2992TIP3   OH2 8932   5.889   2.437   1.338
 2992TIP3    H1 8933   5.889   2.451   1.433
 2992TIP3    H2 8934   5.888   2.342   1.328
 2993TIP3   OH2 8935   6.494   2.688   2.716
 2993TIP3    H1 8936   6.570   2.728   2.674
 2993TIP3    H2 8937   6.423   2.751   2.701
 2994TIP3   OH2 8938   5.538   2.352   3.311
 2994TIP3    H1 8939   5.581   2.269   3.295
 2994TIP3    H2 8940   5.553   2.370   3.404
 2995TIP3   OH2 8941   5.577   2.143   1.749
 2995TIP3    H1 8942   5.549   2.109   1.833
 2995TIP3    H2 8943   5.614   2.068   1.703
 2996TIP3   OH2 8944   5.853   2.214   2.979
 2996TIP3    H1 8945   5.771   2.264   2.974
 2996TIP3    H2 8946   5.904   2.243   2.904
 2997TIP3   OH2 8947   5.683   1.938   1.587
 2997TIP3    H1 8948   5.656   1.946   1.496
 2997TIP3    H2 8949   5.779   1.940   1.584
 2998TIP3   OH2 8950   6.370   2.608   3.113
 2998TIP3    H1 8951   6.444   2.577   3.062
 2998TIP3    H2 8952   6.361   2.544   3.184
 2999TIP3   OH2 8953   6.502   2.267   1.253
 2999TIP3    H1 8954   6.481   2.219   1.173
 2999TIP3    H2 8955   6.470   2.355   1.238
 3000TIP3   OH2 8956   5.971   1.997   3.102
 3000TIP3    H1 8957   5.973   1.919   3.047
 3000TIP3    H2 8958   5.929   2.064   3.047
 3001TIP3   OH2 8959   5.973   1.787   2.911
 3001TIP3    H1 8960   6.003   1.823   2.828
 3001TIP3    H2 8961   5.882   1.762   2.895
 3002TIP3   OH2 8962   6.000   2.320   2.783
 3002TIP3    H1 8963   6.084   2.331   2.740
 3002TIP3    H2 8964   5.942   2.382   2.739
 3003TIP3   OH2 8965   6.583   2.282   3.163
 3003TIP3    H1 8966   6.625   2.199   3.184
 3003TIP3    H2 8967   6.653   2.336   3.128
 3004TIP3   OH2 8968   6.625   2.540   2.899
 3004TIP3    H1 8969   6.566   2.591   2.844
 3004TIP3    H2 8970   6.712   2.559   2.865
 3005TIP3   OH2 8971   5.850   2.102   3.336
 3005TIP3    H1 8972   5.785   2.035   3.353
 3005TIP3    H2 8973   5.885   2.080   3.250
 3006TIP3   OH2 8974   6.106   1.544   2.978
 3006TIP3    H1 8975   6.056   1.623   2.957
 3006TIP3    H2 8976   6.042   1.473   2.970
 3007TIP3   OH2 8977   6.230   2.047   3.197
 3007TIP3    H1 8978   6.223   2.031   3.291
 3007TIP3    H2 8979   6.144   2.025   3.162
 3008TIP3   OH2 8980   6.472   1.997   3.052
 3008TIP3    H1 8981   6.398   1.998   3.113
 3008TIP3    H2 8982   6.546   1.967   3.104
 3009TIP3   OH2 8983   6.704   1.939   3.199
 3009TIP3    H1 8984   6.715   1.845   3.214
 3009TIP3    H2 8985   6.697   1.977   3.287
 3010TIP3   OH2 8986   5.694   1.881   3.393
 3010TIP3    H1 8987   5.696   1.792   3.357
 3010TIP3    H2 8988   5.731   1.872   3.481
 3011TIP3   OH2 8989   6.174   1.565   3.245
 3011TIP3    H1 8990   6.256   1.516   3.248
 3011TIP3    H2 8991   6.142   1.553   3.155
 3012TIP3   OH2 8992   6.267   1.773   3.396
 3012TIP3    H1 8993   6.245   1.702   3.337
 3012TIP3    H2 8994   6.191   1.831   3.394
 3013TIP3   OH2 8995   5.491   2.999   1.493
 3013TIP3    H1 8996   5.585   2.987   1.479
 3013TIP3    H2 8997   5.463   3.052   1.419
 3014TIP3   OH2 8998   4.969   2.382   1.703
 3014TIP3    H1 8999   5.062   2.404   1.695
 3014TIP3    H2 9000   4.962   2.293   1.668
 3015TIP3   OH2 9001   4.885   2.988   2.132
 3015TIP3    H1 9002   4.820   2.930   2.093
 3015TIP3    H2 9003   4.931   2.933   2.195
 3016TIP3   OH2 9004   5.025   2.834   2.312
 3016TIP3    H1 9005   5.016   2.759   2.372
 3016TIP3    H2 9006   5.073   2.899   2.363
 3017TIP3   OH2 9007   6.758   3.236   2.114
 3017TIP3    H1 9008   6.769   3.268   2.203
 3017TIP3    H2 9009   6.801   3.302   2.059
 3018TIP3   OH2 9010   6.774   3.259   2.394
 3018TIP3    H1 9011   6.723   3.179   2.386
 3018TIP3    H2 9012   6.844   3.236   2.455
 3019TIP3   OH2 9013   6.820   2.943   2.969
 3019TIP3    H1 9014   6.749   2.948   3.034
 3019TIP3    H2 9015   6.861   3.029   2.972
 3020TIP3   OH2 9016   6.642   2.452   1.587
 3020TIP3    H1 9017   6.703   2.519   1.557
 3020TIP3    H2 9018   6.684   2.415   1.665
 3021TIP3   OH2 9019   6.766   2.319   1.794
 3021TIP3    H1 9020   6.697   2.276   1.844
 3021TIP3    H2 9021   6.819   2.364   1.860
 3022TIP3   OH2 9022   6.826   2.715   2.226
 3022TIP3    H1 9023   6.872   2.652   2.170
 3022TIP3    H2 9024   6.814   2.792   2.170
 3023TIP3   OH2 9025   6.647   3.013   2.414
 3023TIP3    H1 9026   6.578   3.066   2.455
 3023TIP3    H2 9027   6.603   2.970   2.340
 3024TIP3   OH2 9028   6.702   2.231   1.437
 3024TIP3    H1 9029   6.635   2.227   1.369
 3024TIP3    H2 9030   6.676   2.304   1.492
 3025TIP3   OH2 9031   6.579   1.901   1.388
 3025TIP3    H1 9032   6.528   1.937   1.315
 3025TIP3    H2 9033   6.555   1.808   1.390
 3026TIP3   OH2 9034   6.582   2.177   1.939
 3026TIP3    H1 9035   6.582   2.082   1.926
 3026TIP3    H2 9036   6.564   2.189   2.032
 3027TIP3   OH2 9037   5.213   2.203   2.702
 3027TIP3    H1 9038   5.179   2.260   2.633
 3027TIP3    H2 9039   5.306   2.222   2.706
 3028TIP3   OH2 9040   6.871   2.606   2.796
 3028TIP3    H1 9041   6.936   2.537   2.783
 3028TIP3    H2 9042   6.900   2.676   2.737
 3029TIP3   OH2 9043   7.045   2.402   2.784
 3029TIP3    H1 9044   6.986   2.346   2.833
 3029TIP3    H2 9045   7.133   2.374   2.811
 3030TIP3   OH2 9046   6.512   1.641   1.391
 3030TIP3    H1 9047   6.584   1.597   1.436
 3030TIP3    H2 9048   6.441   1.577   1.392
 3031TIP3   OH2 9049   6.581   1.895   1.830
 3031TIP3    H1 9050   6.615   1.807   1.846
 3031TIP3    H2 9051   6.634   1.928   1.757
 3032TIP3   OH2 9052   6.745   2.064   2.329
 3032TIP3    H1 9053   6.829   2.088   2.290
 3032TIP3    H2 9054   6.747   2.102   2.417
 3033TIP3   OH2 9055   6.802   2.212   2.556
 3033TIP3    H1 9056   6.728   2.242   2.609
 3033TIP3    H2 9057   6.837   2.292   2.516
 3034TIP3   OH2 9058   5.429   1.928   3.359
 3034TIP3    H1 9059   5.524   1.925   3.363
 3034TIP3    H2 9060   5.401   1.845   3.397
 3035TIP3   OH2 9061   7.278   1.814   3.107
 3035TIP3    H1 9062   7.323   1.742   3.063
 3035TIP3    H2 9063   7.232   1.861   3.037
 3036TIP3   OH2 9064   6.684   1.642   1.869
 3036TIP3    H1 9065   6.730   1.627   1.951
 3036TIP3    H2 9066   6.621   1.570   1.864
 3037TIP3   OH2 9067   5.386   1.629   2.689
 3037TIP3    H1 9068   5.445   1.554   2.697
 3037TIP3    H2 9069   5.444   1.705   2.681
 3038TIP3   OH2 9070   5.188   1.909   2.759
 3038TIP3    H1 9071   5.238   1.899   2.678
 3038TIP3    H2 9072   5.193   2.003   2.778
 3039TIP3   OH2 9073   7.119   1.933   2.924
 3039TIP3    H1 9074   7.043   1.984   2.950
 3039TIP3    H2 9075   7.085   1.867   2.863
 3040TIP3   OH2 9076   6.769   1.571   1.508
 3040TIP3    H1 9077   6.802   1.504   1.448
 3040TIP3    H2 9078   6.828   1.645   1.495
 3041TIP3   OH2 9079   5.170   1.399   2.256
 3041TIP3    H1 9080   5.082   1.400   2.293
 3041TIP3    H2 9081   5.166   1.461   2.184
 3042TIP3   OH2 9082   6.327   3.112   1.767
 3042TIP3    H1 9083   6.385   3.109   1.691
 3042TIP3    H2 9084   6.370   3.171   1.828
 3043TIP3   OH2 9085   5.388   1.486   3.077
 3043TIP3    H1 9086   5.340   1.483   3.160
 3043TIP3    H2 9087   5.326   1.525   3.015
 3044TIP3   OH2 9088   5.624   2.944   2.706
 3044TIP3    H1 9089   5.558   3.008   2.678
 3044TIP3    H2 9090   5.702   2.968   2.657
 3045TIP3   OH2 9091   6.050   3.187   2.846
 3045TIP3    H1 9092   6.092   3.190   2.932
 3045TIP3    H2 9093   6.110   3.234   2.788
 3046TIP3   OH2 9094   6.235   3.328   2.710
 3046TIP3    H1 9095   6.273   3.326   2.622
 3046TIP3    H2 9096   6.289   3.391   2.758
 3047TIP3   OH2 9097   7.024   1.698   2.797
 3047TIP3    H1 9098   6.933   1.690   2.769
 3047TIP3    H2 9099   7.060   1.610   2.790
 3048TIP3   OH2 9100   5.287   3.232   2.716
 3048TIP3    H1 9101   5.198   3.260   2.696
 3048TIP3    H2 9102   5.289   3.220   2.811
 3049TIP3   OH2 9103   5.522   3.182   2.584
 3049TIP3    H1 9104   5.439   3.198   2.629
 3049TIP3    H2 9105   5.506   3.210   2.494
 3050TIP3   OH2 9106   5.943   3.206   2.396
 3050TIP3    H1 9107   5.889   3.246   2.327
 3050TIP3    H2 9108   6.030   3.244   2.383
 3051TIP3   OH2 9109   5.192   2.994   2.468
 3051TIP3    H1 9110   5.218   2.977   2.559
 3051TIP3    H2 9111   5.262   2.954   2.415
 3052TIP3   OH2 9112   5.394   2.879   2.327
 3052TIP3    H1 9113   5.405   2.799   2.378
 3052TIP3    H2 9114   5.482   2.917   2.322
 3053TIP3   OH2 9115   5.662   2.957   2.335
 3053TIP3    H1 9116   5.689   2.866   2.326
 3053TIP3    H2 9117   5.705   2.988   2.415
 3054TIP3   OH2 9118   6.232   1.616   2.419
 3054TIP3    H1 9119   6.188   1.550   2.473
 3054TIP3    H2 9120   6.305   1.570   2.379
 3055TIP3   OH2 9121   6.752   1.498   2.317
 3055TIP3    H1 9122   6.787   1.552   2.246
 3055TIP3    H2 9123   6.659   1.517   2.317
 3056TIP3   OH2 9124   6.851   1.605   2.083
 3056TIP3    H1 9125   6.922   1.551   2.047
 3056TIP3    H2 9126   6.883   1.694   2.076
 3057TIP3   OH2 9127   5.480   1.324   2.432
 3057TIP3    H1 9128   5.388   1.295   2.437
 3057TIP3    H2 9129   5.530   1.242   2.428
 3058TIP3   OH2 9130   5.265   1.200   2.082
 3058TIP3    H1 9131   5.297   1.255   2.010
 3058TIP3    H2 9132   5.239   1.263   2.150
 3059TIP3   OH2 9133   5.929   1.359   2.317
 3059TIP3    H1 9134   5.983   1.408   2.255
 3059TIP3    H2 9135   5.952   1.395   2.403
 3060TIP3   OH2 9136   6.472   1.505   2.297
 3060TIP3    H1 9137   6.466   1.467   2.210
 3060TIP3    H2 9138   6.459   1.432   2.357
 3061TIP3   OH2 9139   6.500   1.431   1.863
 3061TIP3    H1 9140   6.417   1.477   1.877
 3061TIP3    H2 9141   6.488   1.347   1.907
 3062TIP3   OH2 9142   4.983   2.773   1.857
 3062TIP3    H1 9143   4.899   2.739   1.824
 3062TIP3    H2 9144   4.978   2.868   1.842
 3063TIP3   OH2 9145   5.389   1.356   1.843
 3063TIP3    H1 9146   5.435   1.294   1.786
 3063TIP3    H2 9147   5.459   1.410   1.880
 3064TIP3   OH2 9148   5.899   1.536   1.946
 3064TIP3    H1 9149   5.956   1.486   2.005
 3064TIP3    H2 9150   5.916   1.627   1.968
 3065TIP3   OH2 9151   5.757   2.952   1.440
 3065TIP3    H1 9152   5.844   2.978   1.408
 3065TIP3    H2 9153   5.733   2.878   1.384
 3066TIP3   OH2 9154   6.481   3.078   1.535
 3066TIP3    H1 9155   6.474   2.982   1.531
 3066TIP3    H2 9156   6.431   3.109   1.460
 3067TIP3   OH2 9157   5.690   1.608   3.326
 3067TIP3    H1 9158   5.652   1.538   3.380
 3067TIP3    H2 9159   5.783   1.608   3.351
 3068TIP3   OH2 9160   5.942   1.604   3.442
 3068TIP3    H1 9161   6.021   1.586   3.392
 3068TIP3    H2 9162   5.935   1.533   3.505
 3069TIP3   OH2 9163   5.062   2.793   1.500
 3069TIP3    H1 9164   5.062   2.810   1.594
 3069TIP3    H2 9165   5.146   2.751   1.483
 3070TIP3   OH2 9166   6.765   1.668   3.232
 3070TIP3    H1 9167   6.774   1.638   3.323
 3070TIP3    H2 9168   6.852   1.658   3.194
 3071TIP3   OH2 9169   6.694   3.220   2.722
 3071TIP3    H1 9170   6.623   3.187   2.667
 3071TIP3    H2 9171   6.677   3.315   2.727
 3072TIP3   OH2 9172   7.272   2.481   2.234
 3072TIP3    H1 9173   7.290   2.411   2.297
 3072TIP3    H2 9174   7.328   2.553   2.263
 3073TIP3   OH2 9175   7.239   2.897   1.957
 3073TIP3    H1 9176   7.228   2.802   1.962
 3073TIP3    H2 9177   7.334   2.910   1.954
 3074TIP3   OH2 9178   6.946   2.106   1.749
 3074TIP3    H1 9179   6.893   2.185   1.762
 3074TIP3    H2 9180   6.887   2.046   1.704
 3075TIP3   OH2 9181   7.018   2.387   1.913
 3075TIP3    H1 9182   7.067   2.305   1.907
 3075TIP3    H2 9183   7.046   2.438   1.837
 3076TIP3   OH2 9184   7.872   3.321   1.551
 3076TIP3    H1 9185   7.964   3.296   1.554
 3076TIP3    H2 9186   7.848   3.333   1.643
 3077TIP3   OH2 9187   7.780   2.800   1.920
 3077TIP3    H1 9188   7.780   2.780   1.826
 3077TIP3    H2 9189   7.852   2.861   1.932
 3078TIP3   OH2 9190   7.476   1.978   1.938
 3078TIP3    H1 9191   7.505   2.053   1.885
 3078TIP3    H2 9192   7.471   1.905   1.876
 3079TIP3   OH2 9193   7.578   2.379   1.807
 3079TIP3    H1 9194   7.668   2.352   1.823
 3079TIP3    H2 9195   7.533   2.299   1.780
 3080TIP3   OH2 9196   7.515   1.968   2.368
 3080TIP3    H1 9197   7.497   2.054   2.329
 3080TIP3    H2 9198   7.466   1.968   2.450
 3081TIP3   OH2 9199   7.621   2.738   2.153
 3081TIP3    H1 9200   7.557   2.799   2.190
 3081TIP3    H2 9201   7.662   2.786   2.081
 3082TIP3   OH2 9202   7.448   2.935   2.245
 3082TIP3    H1 9203   7.425   3.020   2.209
 3082TIP3    H2 9204   7.373   2.911   2.300
 3083TIP3   OH2 9205   6.841   2.626   1.478
 3083TIP3    H1 9206   6.798   2.650   1.396
 3083TIP3    H2 9207   6.871   2.709   1.515
 3084TIP3   OH2 9208   7.368   2.524   1.707
 3084TIP3    H1 9209   7.328   2.468   1.641
 3084TIP3    H2 9210   7.444   2.475   1.737
 3085TIP3   OH2 9211   7.502   2.941   1.850
 3085TIP3    H1 9212   7.474   2.908   1.765
 3085TIP3    H2 9213   7.582   2.892   1.870
 3086TIP3   OH2 9214   7.530   2.485   2.062
 3086TIP3    H1 9215   7.551   2.471   1.970
 3086TIP3    H2 9216   7.559   2.575   2.079
 3087TIP3   OH2 9217   7.646   3.048   2.398
 3087TIP3    H1 9218   7.589   3.112   2.441
 3087TIP3    H2 9219   7.587   2.995   2.345
 3088TIP3   OH2 9220   7.396   2.618   2.475
 3088TIP3    H1 9221   7.414   2.691   2.534
 3088TIP3    H2 9222   7.313   2.582   2.506
 3089TIP3   OH2 9223   7.752   3.101   1.423
 3089TIP3    H1 9224   7.768   3.190   1.454
 3089TIP3    H2 9225   7.686   3.112   1.354
 3090TIP3   OH2 9226   7.445   3.221   2.477
 3090TIP3    H1 9227   7.413   3.222   2.386
 3090TIP3    H2 9228   7.367   3.198   2.529
 3091TIP3   OH2 9229   7.241   2.365   1.511
 3091TIP3    H1 9230   7.179   2.415   1.457
 3091TIP3    H2 9231   7.199   2.280   1.523
 3092TIP3   OH2 9232   7.029   2.750   2.421
 3092TIP3    H1 9233   6.959   2.729   2.359
 3092TIP3    H2 9234   7.063   2.664   2.447
 3093TIP3   OH2 9235   6.879   2.948   2.056
 3093TIP3    H1 9236   6.974   2.958   2.055
 3093TIP3    H2 9237   6.847   3.027   2.101
 3094TIP3   OH2 9238   7.838   3.162   2.242
 3094TIP3    H1 9239   7.846   3.253   2.271
 3094TIP3    H2 9240   7.768   3.126   2.296
 3095TIP3   OH2 9241   7.618   3.310   1.194
 3095TIP3    H1 9242   7.571   3.291   1.112
 3095TIP3    H2 9243   7.582   3.394   1.224
 3096TIP3   OH2 9244   7.050   3.158   1.584
 3096TIP3    H1 9245   7.097   3.152   1.667
 3096TIP3    H2 9246   6.991   3.082   1.585
 3097TIP3   OH2 9247   7.881   3.270   1.135
 3097TIP3    H1 9248   7.790   3.290   1.157
 3097TIP3    H2 9249   7.889   3.176   1.152
 3098TIP3   OH2 9250   7.231   2.934   2.409
 3098TIP3    H1 9251   7.280   2.920   2.489
 3098TIP3    H2 9252   7.158   2.872   2.413
 3099TIP3   OH2 9253   7.616   1.787   2.180
 3099TIP3    H1 9254   7.541   1.730   2.166
 3099TIP3    H2 9255   7.597   1.832   2.262
 3100TIP3   OH2 9256   7.540   2.259   2.214
 3100TIP3    H1 9257   7.488   2.281   2.291
 3100TIP3    H2 9258   7.530   2.335   2.157
 3101TIP3   OH2 9259   7.447   2.154   1.726
 3101TIP3    H1 9260   7.359   2.125   1.751
 3101TIP3    H2 9261   7.460   2.117   1.639
 3102TIP3   OH2 9262   7.370   2.292   2.430
 3102TIP3    H1 9263   7.400   2.360   2.490
 3102TIP3    H2 9264   7.359   2.215   2.486
 3103TIP3   OH2 9265   7.399   1.728   1.131
 3103TIP3    H1 9266   7.400   1.765   1.219
 3103TIP3    H2 9267   7.359   1.796   1.077
 3104TIP3   OH2 9268   6.998   1.822   1.999
 3104TIP3    H1 9269   7.083   1.785   2.022
 3104TIP3    H2 9270   6.980   1.789   1.911
 3105TIP3   OH2 9271   6.942   1.806   1.522
 3105TIP3    H1 9272   6.987   1.840   1.445
 3105TIP3    H2 9273   6.878   1.874   1.545
 3106TIP3   OH2 9274   7.204   2.033   1.825
 3106TIP3    H1 9275   7.113   2.054   1.802
 3106TIP3    H2 9276   7.220   1.949   1.781
 3107TIP3   OH2 9277   7.484   2.042   1.474
 3107TIP3    H1 9278   7.567   2.050   1.427
 3107TIP3    H2 9279   7.417   2.055   1.407
 3108TIP3   OH2 9280   7.325   2.059   1.260
 3108TIP3    H1 9281   7.249   2.024   1.215
 3108TIP3    H2 9282   7.378   2.098   1.190
 3109TIP3   OH2 9283   7.392   2.868   2.631
 3109TIP3    H1 9284   7.471   2.891   2.679
 3109TIP3    H2 9285   7.341   2.814   2.692
 3110TIP3   OH2 9286   7.382   1.790   1.765
 3110TIP3    H1 9287   7.344   1.721   1.819
 3110TIP3    H2 9288   7.411   1.745   1.686
 3111TIP3   OH2 9289   7.818   2.206   2.223
 3111TIP3    H1 9290   7.727   2.225   2.200
 3111TIP3    H2 9291   7.859   2.292   2.230
 3112TIP3   OH2 9292   7.541   2.621   1.274
 3112TIP3    H1 9293   7.492   2.540   1.266
 3112TIP3    H2 9294   7.545   2.638   1.368
 3113TIP3   OH2 9295   7.939   2.894   2.302
 3113TIP3    H1 9296   7.945   2.881   2.396
 3113TIP3    H2 9297   7.907   2.984   2.292
 3114TIP3   OH2 9298   7.269   2.623   1.950
 3114TIP3    H1 9299   7.299   2.588   1.866
 3114TIP3    H2 9300   7.303   2.561   2.014
 3115TIP3   OH2 9301   7.678   2.744   1.071
 3115TIP3    H1 9302   7.651   2.834   1.091
 3115TIP3    H2 9303   7.647   2.692   1.145
 3116TIP3   OH2 9304   7.144   2.535   2.553
 3116TIP3    H1 9305   7.181   2.541   2.641
 3116TIP3    H2 9306   7.078   2.466   2.559
 3117TIP3   OH2 9307   7.868   2.656   2.576
 3117TIP3    H1 9308   7.806   2.605   2.524
 3117TIP3    H2 9309   7.953   2.615   2.559
 3118TIP3   OH2 9310   7.363   2.926   1.572
 3118TIP3    H1 9311   7.362   3.005   1.517
 3118TIP3    H2 9312   7.271   2.905   1.586
 3119TIP3   OH2 9313   6.926   2.232   1.277
 3119TIP3    H1 9314   6.969   2.315   1.296
 3119TIP3    H2 9315   6.850   2.231   1.335
 3120TIP3   OH2 9316   7.511   2.692   1.538
 3120TIP3    H1 9317   7.471   2.778   1.540
 3120TIP3    H2 9318   7.459   2.640   1.599
 3121TIP3   OH2 9319   7.633   3.265   2.039
 3121TIP3    H1 9320   7.665   3.341   1.990
 3121TIP3    H2 9321   7.709   3.235   2.088
 3122TIP3   OH2 9322   7.282   3.163   1.425
 3122TIP3    H1 9323   7.198   3.170   1.470
 3122TIP3    H2 9324   7.316   3.253   1.426
 3123TIP3   OH2 9325   7.349   2.042   2.574
 3123TIP3    H1 9326   7.255   2.055   2.589
 3123TIP3    H2 9327   7.377   1.984   2.645
 3124TIP3   OH2 9328   7.080   3.126   2.194
 3124TIP3    H1 9329   7.125   3.054   2.238
 3124TIP3    H2 9330   7.090   3.201   2.253
 3125TIP3   OH2 9331   7.356   2.772   0.884
 3125TIP3    H1 9332   7.357   2.680   0.855
 3125TIP3    H2 9333   7.338   2.767   0.978
 3126TIP3   OH2 9334   7.310   2.779   1.155
 3126TIP3    H1 9335   7.389   2.748   1.199
 3126TIP3    H2 9336   7.312   2.874   1.166
 3127TIP3   OH2 9337   7.038   2.477   1.359
 3127TIP3    H1 9338   6.973   2.517   1.416
 3127TIP3    H2 9339   7.052   2.541   1.289
 3128TIP3   OH2 9340   7.573   2.991   1.113
 3128TIP3    H1 9341   7.483   3.008   1.143
 3128TIP3    H2 9342   7.594   3.066   1.056
 3129TIP3   OH2 9343   7.313   3.055   1.171
 3129TIP3    H1 9344   7.281   3.121   1.110
 3129TIP3    H2 9345   7.300   3.094   1.258
 3130TIP3   OH2 9346   7.430   1.776   1.412
 3130TIP3    H1 9347   7.411   1.859   1.456
 3130TIP3    H2 9348   7.510   1.793   1.362
 3131TIP3   OH2 9349   7.038   2.674   1.160
 3131TIP3    H1 9350   7.101   2.745   1.176
 3131TIP3    H2 9351   7.078   2.621   1.092
 3132TIP3   OH2 9352   6.975   1.964   1.307
 3132TIP3    H1 9353   6.971   2.060   1.300
 3132TIP3    H2 9354   6.909   1.932   1.246
 3133TIP3   OH2 9355   7.342   1.715   2.153
 3133TIP3    H1 9356   7.329   1.662   2.074
 3133TIP3    H2 9357   7.340   1.653   2.225
 3134TIP3   OH2 9358   6.896   2.889   1.544
 3134TIP3    H1 9359   6.840   2.921   1.614
 3134TIP3    H2 9360   6.865   2.934   1.466
 3135TIP3   OH2 9361   7.066   3.431   2.624
 3135TIP3    H1 9362   7.151   3.422   2.669
 3135TIP3    H2 9363   7.036   3.341   2.612
 3136TIP3   OH2 9364   7.532   3.404   2.663
 3136TIP3    H1 9365   7.625   3.386   2.676
 3136TIP3    H2 9366   7.505   3.342   2.595
 3137TIP3   OH2 9367   7.517   2.972   0.794
 3137TIP3    H1 9368   7.452   2.907   0.823
 3137TIP3    H2 9369   7.602   2.930   0.811
 3138TIP3   OH2 9370   7.183   2.866   2.842
 3138TIP3    H1 9371   7.224   2.780   2.854
 3138TIP3    H2 9372   7.107   2.849   2.786
 3139TIP3   OH2 9373   7.178   2.494   1.011
 3139TIP3    H1 9374   7.228   2.466   1.088
 3139TIP3    H2 9375   7.244   2.497   0.941
 3140TIP3   OH2 9376   7.816   2.935   2.586
 3140TIP3    H1 9377   7.755   2.952   2.515
 3140TIP3    H2 9378   7.826   2.839   2.586
 3141TIP3   OH2 9379   7.666   2.680   0.813
 3141TIP3    H1 9380   7.687   2.711   0.901
 3141TIP3    H2 9381   7.589   2.624   0.825
 3142TIP3   OH2 9382   7.378   2.395   1.235
 3142TIP3    H1 9383   7.346   2.354   1.316
 3142TIP3    H2 9384   7.419   2.324   1.186
 3143TIP3   OH2 9385   7.613   2.450   2.487
 3143TIP3    H1 9386   7.539   2.510   2.493
 3143TIP3    H2 9387   7.669   2.487   2.418
 3144TIP3   OH2 9388   7.484   2.187   1.070
 3144TIP3    H1 9389   7.447   2.201   0.983
 3144TIP3    H2 9390   7.574   2.160   1.054
 3145TIP3   OH2 9391   7.797   2.263   2.569
 3145TIP3    H1 9392   7.785   2.175   2.534
 3145TIP3    H2 9393   7.724   2.314   2.533
 3146TIP3   OH2 9394   7.788   2.021   2.417
 3146TIP3    H1 9395   7.794   2.075   2.339
 3146TIP3    H2 9396   7.703   1.977   2.409
 3147TIP3   OH2 9397   7.770   2.571   2.307
 3147TIP3    H1 9398   7.834   2.556   2.238
 3147TIP3    H2 9399   7.709   2.635   2.269
 3148TIP3   OH2 9400   7.673   2.354   2.826
 3148TIP3    H1 9401   7.579   2.335   2.834
 3148TIP3    H2 9402   7.693   2.341   2.733
 3149TIP3   OH2 9403   7.476   2.142   2.883
 3149TIP3    H1 9404   7.480   2.056   2.842
 3149TIP3    H2 9405   7.519   2.130   2.967
 3150TIP3   OH2 9406   7.277   3.258   0.982
 3150TIP3    H1 9407   7.372   3.250   0.974
 3150TIP3    H2 9408   7.250   3.309   0.905
 3151TIP3   OH2 9409   6.767   2.636   1.197
 3151TIP3    H1 9410   6.859   2.658   1.184
 3151TIP3    H2 9411   6.757   2.549   1.157
 3152TIP3   OH2 9412   6.685   3.247   1.614
 3152TIP3    H1 9413   6.617   3.192   1.575
 3152TIP3    H2 9414   6.727   3.191   1.679
 3153TIP3   OH2 9415   6.820   3.095   1.800
 3153TIP3    H1 9416   6.795   3.028   1.864
 3153TIP3    H2 9417   6.868   3.160   1.852
 3154TIP3   OH2 9418   7.008   2.497   2.167
 3154TIP3    H1 9419   7.006   2.474   2.074
 3154TIP3    H2 9420   7.101   2.501   2.189
 3155TIP3   OH2 9421   7.212   2.175   2.822
 3155TIP3    H1 9422   7.304   2.192   2.838
 3155TIP3    H2 9423   7.192   2.097   2.875
 3156TIP3   OH2 9424   6.993   2.148   2.237
 3156TIP3    H1 9425   6.978   2.180   2.148
 3156TIP3    H2 9426   7.014   2.227   2.288
 3157TIP3   OH2 9427   6.956   1.686   1.765
 3157TIP3    H1 9428   6.865   1.659   1.776
 3157TIP3    H2 9429   6.957   1.731   1.680
 3158TIP3   OH2 9430   7.179   1.740   2.562
 3158TIP3    H1 9431   7.138   1.740   2.649
 3158TIP3    H2 9432   7.114   1.781   2.505
 3159TIP3   OH2 9433   7.225   3.177   2.641
 3159TIP3    H1 9434   7.135   3.149   2.620
 3159TIP3    H2 9435   7.248   3.127   2.719
 3160TIP3   OH2 9436   7.411   3.207   2.189
 3160TIP3    H1 9437   7.353   3.274   2.153
 3160TIP3    H2 9438   7.494   3.219   2.144
 3161TIP3   OH2 9439   7.839   3.430   2.330
 3161TIP3    H1 9440   7.882   3.439   2.414
 3161TIP3    H2 9441   7.886   3.490   2.272
 3162TIP3   OH2 9442   7.983   3.599   2.152
 3162TIP3    H1 9443   8.025   3.592   2.066
 3162TIP3    H2 9444   8.008   3.686   2.184
 3163TIP3   OH2 9445   7.080   3.463   2.215
 3163TIP3    H1 9446   6.993   3.488   2.186
 3163TIP3    H2 9447   7.091   3.504   2.301
 3164TIP3   OH2 9448   7.315   3.437   2.071
 3164TIP3    H1 9449   7.231   3.448   2.116
 3164TIP3    H2 9450   7.298   3.470   1.982
 3165TIP3   OH2 9451   7.713   3.476   1.871
 3165TIP3    H1 9452   7.640   3.485   1.810
 3165TIP3    H2 9453   7.726   3.564   1.906
 3166TIP3   OH2 9454   7.965   3.374   1.853
 3166TIP3    H1 9455   7.875   3.406   1.859
 3166TIP3    H2 9456   8.018   3.450   1.879
 3167TIP3   OH2 9457   7.000   3.255   1.953
 3167TIP3    H1 9458   7.016   3.228   2.044
 3167TIP3    H2 9459   7.068   3.210   1.902
 3168TIP3   OH2 9460   7.191   3.123   1.814
 3168TIP3    H1 9461   7.202   3.043   1.865
 3168TIP3    H2 9462   7.278   3.162   1.811
 3169TIP3   OH2 9463   7.455   3.219   1.820
 3169TIP3    H1 9464   7.480   3.127   1.809
 3169TIP3    H2 9465   7.498   3.245   1.902
 3170TIP3   OH2 9466   7.269   1.591   1.916
 3170TIP3    H1 9467   7.181   1.555   1.922
 3170TIP3    H2 9468   7.327   1.515   1.915
 3171TIP3   OH2 9469   7.065   1.457   1.577
 3171TIP3    H1 9470   7.085   1.507   1.499
 3171TIP3    H2 9471   7.036   1.522   1.641
 3172TIP3   OH2 9472   6.780   3.030   1.345
 3172TIP3    H1 9473   6.696   2.994   1.315
 3172TIP3    H2 9474   6.774   3.124   1.326
 3173TIP3   OH2 9475   7.182   1.608   1.341
 3173TIP3    H1 9476   7.228   1.535   1.301
 3173TIP3    H2 9477   7.251   1.668   1.369
 3174TIP3   OH2 9478   7.544   3.208   0.936
 3174TIP3    H1 9479   7.635   3.222   0.911
 3174TIP3    H2 9480   7.512   3.140   0.877
 3175TIP3   OH2 9481   7.484   1.876   2.804
 3175TIP3    H1 9482   7.438   1.801   2.842
 3175TIP3    H2 9483   7.572   1.873   2.843
 3176TIP3   OH2 9484   7.721   1.861   2.943
 3176TIP3    H1 9485   7.795   1.823   2.896
 3176TIP3    H2 9486   7.705   1.801   3.016
 3177TIP3   OH2 9487   6.857   3.049   0.985
 3177TIP3    H1 9488   6.856   3.071   1.078
 3177TIP3    H2 9489   6.943   3.009   0.971
 3178TIP3   OH2 9490   0.417   3.384   3.177
 3178TIP3    H1 9491   0.389   3.474   3.160
 3178TIP3    H2 9492   0.351   3.331   3.133
 3179TIP3   OH2 9493   0.417   3.384   3.569
 3179TIP3    H1 9494   0.454   3.354   3.652
 3179TIP3    H2 9495   0.382   3.305   3.528
 3180TIP3   OH2 9496   8.233   3.274   3.943
 3180TIP3    H1 9497   8.264   3.199   3.994
 3180TIP3    H2 9498   8.312   3.311   3.905
 3181TIP3   OH2 9499   0.665   3.686   3.245
 3181TIP3    H1 9500   0.652   3.613   3.305
 3181TIP3    H2 9501   0.698   3.757   3.300
 3182TIP3   OH2 9502   8.200   3.668   3.583
 3182TIP3    H1 9503   8.181   3.577   3.607
 3182TIP3    H2 9504   8.280   3.689   3.632
 3183TIP3   OH2 9505   7.959   3.183   3.582
 3183TIP3    H1 9506   7.993   3.127   3.651
 3183TIP3    H2 9507   8.036   3.207   3.530
 3184TIP3   OH2 9508   0.319   4.144   3.263
 3184TIP3    H1 9509   0.357   4.079   3.204
 3184TIP3    H2 9510   0.310   4.099   3.347
 3185TIP3   OH2 9511   0.225   3.605   3.608
 3185TIP3    H1 9512   0.260   3.524   3.572
 3185TIP3    H2 9513   0.302   3.654   3.637
 3186TIP3   OH2 9514   1.234   2.929   3.608
 3186TIP3    H1 9515   1.263   3.009   3.651
 3186TIP3    H2 9516   1.255   2.943   3.515
 3187TIP3   OH2 9517   0.630   3.109   3.637
 3187TIP3    H1 9518   0.673   3.027   3.663
 3187TIP3    H2 9519   0.598   3.092   3.548
 3188TIP3   OH2 9520   8.471   2.771   3.595
 3188TIP3    H1 9521   8.450   2.843   3.536
 3188TIP3    H2 9522   8.431   2.694   3.555
 3189TIP3   OH2 9523   0.669   2.863   3.226
 3189TIP3    H1 9524   0.736   2.846   3.292
 3189TIP3    H2 9525   0.718   2.895   3.150
 3190TIP3   OH2 9526   8.114   2.976   3.707
 3190TIP3    H1 9527   8.187   2.957   3.765
 3190TIP3    H2 9528   8.128   2.920   3.631
 3191TIP3   OH2 9529   0.048   3.165   3.509
 3191TIP3    H1 9530   0.140   3.144   3.524
 3191TIP3    H2 9531   0.009   3.082   3.480
 3192TIP3   OH2 9532   1.307   3.139   3.776
 3192TIP3    H1 9533   1.222   3.179   3.759
 3192TIP3    H2 9534   1.327   3.163   3.867
 3193TIP3   OH2 9535   8.465   2.750   4.043
 3193TIP3    H1 9536   8.410   2.788   3.974
 3193TIP3    H2 9537   8.415   2.762   4.123
 3194TIP3   OH2 9538   0.303   3.602   3.053
 3194TIP3    H1 9539   0.280   3.587   2.961
 3194TIP3    H2 9540   0.262   3.686   3.075
 3195TIP3   OH2 9541   0.072   3.534   3.833
 3195TIP3    H1 9542   0.012   3.594   3.875
 3195TIP3    H2 9543   0.104   3.581   3.756
 3196TIP3   OH2 9544   0.872   2.866   3.404
 3196TIP3    H1 9545   0.860   2.815   3.484
 3196TIP3    H2 9546   0.923   2.942   3.431
 3197TIP3   OH2 9547   8.347   2.864   3.821
 3197TIP3    H1 9548   8.405   2.934   3.851
 3197TIP3    H2 9549   8.392   2.825   3.746
 3198TIP3   OH2 9550   8.386   3.708   3.955
 3198TIP3    H1 9551   8.335   3.770   3.903
 3198TIP3    H2 9552   8.321   3.665   4.011
 3199TIP3   OH2 9553   0.730   3.931   3.409
 3199TIP3    H1 9554   0.643   3.919   3.447
 3199TIP3    H2 9555   0.725   4.014   3.362
 3200TIP3   OH2 9556   1.026   2.828   3.772
 3200TIP3    H1 9557   0.939   2.853   3.739
 3200TIP3    H2 9558   1.087   2.859   3.705
 3201TIP3   OH2 9559   0.316   2.464   3.757
 3201TIP3    H1 9560   0.304   2.370   3.774
 3201TIP3    H2 9561   0.242   2.506   3.801
 3202TIP3   OH2 9562   0.433   3.972   3.078
 3202TIP3    H1 9563   0.477   3.888   3.062
 3202TIP3    H2 9564   0.493   4.038   3.042
 3203TIP3   OH2 9565   0.575   3.756   2.994
 3203TIP3    H1 9566   0.554   3.677   2.945
 3203TIP3    H2 9567   0.612   3.724   3.077
 3204TIP3   OH2 9568   0.953   3.838   3.751
 3204TIP3    H1 9569   0.946   3.761   3.694
 3204TIP3    H2 9570   0.943   3.912   3.691
 3205TIP3   OH2 9571   0.260   3.229   2.998
 3205TIP3    H1 9572   0.174   3.205   2.962
 3205TIP3    H2 9573   0.320   3.223   2.924
 3206TIP3   OH2 9574   1.152   3.480   3.597
 3206TIP3    H1 9575   1.070   3.528   3.605
 3206TIP3    H2 9576   1.184   3.501   3.510
 3207TIP3   OH2 9577   0.609   3.331   2.988
 3207TIP3    H1 9578   0.551   3.347   3.063
 3207TIP3    H2 9579   0.689   3.297   3.027
 3208TIP3   OH2 9580   0.834   3.351   3.899
 3208TIP3    H1 9581   0.837   3.428   3.956
 3208TIP3    H2 9582   0.749   3.358   3.855
 3209TIP3   OH2 9583   8.336   3.283   3.396
 3209TIP3    H1 9584   8.288   3.202   3.384
 3209TIP3    H2 9585   8.418   3.257   3.437
 3210TIP3   OH2 9586   8.484   3.742   3.541
 3210TIP3    H1 9587   8.442   3.693   3.470
 3210TIP3    H2 9588   8.567   3.697   3.555
 3211TIP3   OH2 9589  -0.008   3.277   3.764
 3211TIP3    H1 9590   0.008   3.257   3.672
 3211TIP3    H2 9591   0.012   3.371   3.772
 3212TIP3   OH2 9592   0.492   3.920   3.535
 3212TIP3    H1 9593   0.478   4.003   3.581
 3212TIP3    H2 9594   0.472   3.853   3.601
 3213TIP3   OH2 9595   0.097   3.858   4.073
 3213TIP3    H1 9596   0.038   3.911   4.127
 3213TIP3    H2 9597   0.041   3.789   4.037
 3214TIP3   OH2 9598   0.456   3.182   2.814
 3214TIP3    H1 9599   0.514   3.245   2.856
 3214TIP3    H2 9600   0.470   3.196   2.720
 3215TIP3   OH2 9601   8.362   3.405   4.189
 3215TIP3    H1 9602   8.355   3.482   4.245
 3215TIP3    H2 9603   8.283   3.409   4.133
 3216TIP3   OH2 9604   0.182   3.854   3.084
 3216TIP3    H1 9605   0.265   3.902   3.092
 3216TIP3    H2 9606   0.124   3.914   3.037
 3217TIP3   OH2 9607   8.380   4.011   4.164
 3217TIP3    H1 9608   8.361   4.019   4.071
 3217TIP3    H2 9609   8.304   3.966   4.200
 3218TIP3   OH2 9610   0.953   2.413   2.859
 3218TIP3    H1 9611   0.872   2.431   2.907
 3218TIP3    H2 9612   0.970   2.494   2.810
 3219TIP3   OH2 9613   0.760   3.783   2.405
 3219TIP3    H1 9614   0.763   3.877   2.391
 3219TIP3    H2 9615   0.848   3.752   2.385
 3220TIP3   OH2 9616   1.193   4.183   3.800
 3220TIP3    H1 9617   1.199   4.089   3.818
 3220TIP3    H2 9618   1.115   4.211   3.847
 3221TIP3   OH2 9619   0.301   3.968   3.934
 3221TIP3    H1 9620   0.298   4.060   3.959
 3221TIP3    H2 9621   0.229   3.928   3.982
 3222TIP3   OH2 9622   0.066   4.097   2.887
 3222TIP3    H1 9623   0.022   4.083   2.804
 3222TIP3    H2 9624   0.037   4.184   2.915
 3223TIP3   OH2 9625   0.269   4.001   2.524
 3223TIP3    H1 9626   0.325   3.932   2.488
 3223TIP3    H2 9627   0.300   4.012   2.613
 3224TIP3   OH2 9628   0.316   4.048   2.795
 3224TIP3    H1 9629   0.228   4.059   2.833
 3224TIP3    H2 9630   0.367   4.009   2.866
 3225TIP3   OH2 9631   1.086   3.311   4.074
 3225TIP3    H1 9632   1.003   3.320   4.028
 3225TIP3    H2 9633   1.107   3.217   4.069
 3226TIP3   OH2 9634   0.080   2.546   3.886
 3226TIP3    H1 9635  -0.003   2.510   3.854
 3226TIP3    H2 9636   0.055   2.623   3.937
 3227TIP3   OH2 9637   0.619   2.660   4.081
 3227TIP3    H1 9638   0.688   2.632   4.140
 3227TIP3    H2 9639   0.537   2.640   4.127
 3228TIP3   OH2 9640   0.850   3.088   3.997
 3228TIP3    H1 9641   0.803   3.085   4.081
 3228TIP3    H2 9642   0.831   3.175   3.962
 3229TIP3   OH2 9643   0.518   3.225   2.555
 3229TIP3    H1 9644   0.476   3.202   2.472
 3229TIP3    H2 9645   0.603   3.259   2.529
 3230TIP3   OH2 9646   0.237   2.638   2.867
 3230TIP3    H1 9647   0.204   2.611   2.953
 3230TIP3    H2 9648   0.195   2.578   2.805
 3231TIP3   OH2 9649   8.517   3.057   3.912
 3231TIP3    H1 9650   8.467   3.077   3.991
 3231TIP3    H2 9651   8.509   3.136   3.858
 3232TIP3   OH2 9652   8.382   2.959   3.416
 3232TIP3    H1 9653   8.296   2.921   3.434
 3232TIP3    H2 9654   8.408   2.919   3.333
 3233TIP3   OH2 9655   0.389   3.038   3.146
 3233TIP3    H1 9656   0.341   3.107   3.101
 3233TIP3    H2 9657   0.443   2.998   3.078
 3234TIP3   OH2 9658   0.567   3.311   4.231
 3234TIP3    H1 9659   0.542   3.239   4.290
 3234TIP3    H2 9660   0.658   3.329   4.253
 3235TIP3   OH2 9661   0.543   3.059   3.377
 3235TIP3    H1 9662   0.480   3.086   3.310
 3235TIP3    H2 9663   0.584   2.980   3.341
 3236TIP3   OH2 9664   8.343   3.082   4.124
 3236TIP3    H1 9665   8.374   3.146   4.189
 3236TIP3    H2 9666   8.335   3.001   4.173
 3237TIP3   OH2 9667   7.963   2.666   3.671
 3237TIP3    H1 9668   8.029   2.659   3.740
 3237TIP3    H2 9669   7.948   2.576   3.642
 3238TIP3   OH2 9670   0.551   3.304   3.805
 3238TIP3    H1 9671   0.587   3.238   3.745
 3238TIP3    H2 9672   0.525   3.254   3.882
 3239TIP3   OH2 9673   0.233   2.780   3.482
 3239TIP3    H1 9674   0.153   2.769   3.532
 3239TIP3    H2 9675   0.303   2.759   3.544
 3240TIP3   OH2 9676   8.159   2.813   3.483
 3240TIP3    H1 9677   8.067   2.788   3.474
 3240TIP3    H2 9678   8.207   2.731   3.468
 3241TIP3   OH2 9679   8.439   2.844   3.183
 3241TIP3    H1 9680   8.532   2.839   3.158
 3241TIP3    H2 9681   8.393   2.855   3.100
 3242TIP3   OH2 9682   0.715   2.848   3.684
 3242TIP3    H1 9683   0.684   2.861   3.774
 3242TIP3    H2 9684   0.653   2.786   3.646
 3243TIP3   OH2 9685   8.288   2.858   2.965
 3243TIP3    H1 9686   8.200   2.822   2.952
 3243TIP3    H2 9687   8.306   2.907   2.884
 3244TIP3   OH2 9688   0.891   4.539   3.899
 3244TIP3    H1 9689   0.888   4.561   3.806
 3244TIP3    H2 9690   0.971   4.580   3.931
 3245TIP3   OH2 9691   8.335   3.634   4.350
 3245TIP3    H1 9692   8.412   3.664   4.399
 3245TIP3    H2 9693   8.263   3.687   4.383
 3246TIP3   OH2 9694   0.308   3.102   3.578
 3246TIP3    H1 9695   0.375   3.058   3.526
 3246TIP3    H2 9696   0.308   3.055   3.662
 3247TIP3   OH2 9697   8.326   2.587   3.449
 3247TIP3    H1 9698   8.304   2.506   3.494
 3247TIP3    H2 9699   8.353   2.560   3.362
 3248TIP3   OH2 9700   0.285   3.002   3.857
 3248TIP3    H1 9701   0.196   3.029   3.879
 3248TIP3    H2 9702   0.341   3.055   3.913
 3249TIP3   OH2 9703   0.917   3.623   3.584
 3249TIP3    H1 9704   0.944   3.672   3.506
 3249TIP3    H2 9705   0.837   3.578   3.559
 3250TIP3   OH2 9706   0.492   2.709   2.821
 3250TIP3    H1 9707   0.398   2.692   2.834
 3250TIP3    H2 9708   0.504   2.799   2.851
 3251TIP3   OH2 9709   0.417   3.730   4.063
 3251TIP3    H1 9710   0.387   3.645   4.033
 3251TIP3    H2 9711   0.381   3.792   4.000
 3252TIP3   OH2 9712   0.547   2.953   2.935
 3252TIP3    H1 9713   0.642   2.962   2.943
 3252TIP3    H2 9714   0.520   3.030   2.884
 3253TIP3   OH2 9715   8.241   3.408   3.646
 3253TIP3    H1 9716   8.262   3.350   3.573
 3253TIP3    H2 9717   8.194   3.353   3.708
 3254TIP3   OH2 9718   0.172   3.539   2.781
 3254TIP3    H1 9719   0.120   3.619   2.788
 3254TIP3    H2 9720   0.120   3.472   2.824
 3255TIP3   OH2 9721   0.333   3.449   4.270
 3255TIP3    H1 9722   0.263   3.402   4.224
 3255TIP3    H2 9723   0.413   3.403   4.244
 3256TIP3   OH2 9724   0.575   3.964   3.867
 3256TIP3    H1 9725   0.479   3.966   3.873
 3256TIP3    H2 9726   0.604   4.023   3.936
 3257TIP3   OH2 9727   0.987   3.038   2.758
 3257TIP3    H1 9728   0.925   2.991   2.702
 3257TIP3    H2 9729   0.989   3.127   2.723
 3258TIP3   OH2 9730   1.205   3.894   3.839
 3258TIP3    H1 9731   1.109   3.889   3.836
 3258TIP3    H2 9732   1.232   3.865   3.752
 3259TIP3   OH2 9733   0.698   3.853   2.674
 3259TIP3    H1 9734   0.663   3.786   2.732
 3259TIP3    H2 9735   0.706   3.809   2.589
 3260TIP3   OH2 9736   0.681   3.483   3.503
 3260TIP3    H1 9737   0.590   3.457   3.517
 3260TIP3    H2 9738   0.722   3.407   3.461
 3261TIP3   OH2 9739   8.321   3.706   3.248
 3261TIP3    H1 9740   8.315   3.789   3.201
 3261TIP3    H2 9741   8.243   3.704   3.304
 3262TIP3   OH2 9742   7.533   1.410   1.346
 3262TIP3    H1 9743   7.602   1.471   1.373
 3262TIP3    H2 9744   7.461   1.426   1.407
 3263TIP3   OH2 9745   8.405   3.446   3.179
 3263TIP3    H1 9746   8.400   3.541   3.186
 3263TIP3    H2 9747   8.393   3.415   3.269
 3264TIP3   OH2 9748   0.093   4.061   3.727
 3264TIP3    H1 9749   0.132   4.130   3.674
 3264TIP3    H2 9750   0.167   4.019   3.771
 3265TIP3   OH2 9751   8.233   3.957   3.118
 3265TIP3    H1 9752   8.150   3.977   3.161
 3265TIP3    H2 9753   8.279   4.040   3.113
 3266TIP3   OH2 9754   0.480   3.685   3.704
 3266TIP3    H1 9755   0.523   3.681   3.790
 3266TIP3    H2 9756   0.536   3.635   3.646
 3267TIP3   OH2 9757   0.451   3.587   2.575
 3267TIP3    H1 9758   0.505   3.563   2.650
 3267TIP3    H2 9759   0.363   3.554   2.598
 3268TIP3   OH2 9760   0.711   4.224   3.738
 3268TIP3    H1 9761   0.632   4.172   3.723
 3268TIP3    H2 9762   0.709   4.290   3.668
 3269TIP3   OH2 9763   0.787   4.060   2.391
 3269TIP3    H1 9764   0.826   4.132   2.341
 3269TIP3    H2 9765   0.707   4.097   2.428
 3270TIP3   OH2 9766   8.314   2.825   4.268
 3270TIP3    H1 9767   8.223   2.829   4.297
 3270TIP3    H2 9768   8.357   2.766   4.330
 3271TIP3   OH2 9769   0.613   3.524   2.792
 3271TIP3    H1 9770   0.598   3.459   2.861
 3271TIP3    H2 9771   0.707   3.518   2.775
 3272TIP3   OH2 9772   8.315   3.561   2.578
 3272TIP3    H1 9773   8.324   3.471   2.547
 3272TIP3    H2 9774   8.298   3.553   2.672
 3273TIP3   OH2 9775   8.278   3.577   2.855
 3273TIP3    H1 9776   8.339   3.568   2.927
 3273TIP3    H2 9777   8.267   3.672   2.844
 3274TIP3   OH2 9778   8.025   3.255   3.053
 3274TIP3    H1 9779   7.980   3.297   3.126
 3274TIP3    H2 9780   8.028   3.321   2.985
 3275TIP3   OH2 9781   0.642   2.899   3.944
 3275TIP3    H1 9782   0.723   2.937   3.977
 3275TIP3    H2 9783   0.631   2.819   3.996
 3276TIP3   OH2 9784   0.524   2.648   3.107
 3276TIP3    H1 9785   0.509   2.668   3.014
 3276TIP3    H2 9786   0.563   2.729   3.142
 3277TIP3   OH2 9787   0.022   3.766   2.795
 3277TIP3    H1 9788  -0.063   3.790   2.830
 3277TIP3    H2 9789   0.043   3.837   2.733
 3278TIP3   OH2 9790   0.218   2.829   3.211
 3278TIP3    H1 9791   0.277   2.901   3.191
 3278TIP3    H2 9792   0.221   2.822   3.306
 3279TIP3   OH2 9793   0.483   3.145   4.013
 3279TIP3    H1 9794   0.508   3.193   4.092
 3279TIP3    H2 9795   0.533   3.064   4.018
 3280TIP3   OH2 9796   0.360   2.554   3.309
 3280TIP3    H1 9797   0.354   2.630   3.366
 3280TIP3    H2 9798   0.416   2.581   3.237
 3281TIP3   OH2 9799   8.266   3.845   2.861
 3281TIP3    H1 9800   8.239   3.911   2.797
 3281TIP3    H2 9801   8.249   3.887   2.946
 3282TIP3   OH2 9802   8.381   2.556   3.159
 3282TIP3    H1 9803   8.367   2.648   3.137
 3282TIP3    H2 9804   8.470   2.538   3.129
 3283TIP3   OH2 9805   1.117   3.046   3.992
 3283TIP3    H1 9806   1.022   3.046   4.003
 3283TIP3    H2 9807   1.132   2.995   3.913
 3284TIP3   OH2 9808   0.771   3.241   3.385
 3284TIP3    H1 9809   0.696   3.183   3.393
 3284TIP3    H2 9810   0.842   3.196   3.430
 3285TIP3   OH2 9811   7.994   3.477   2.889
 3285TIP3    H1 9812   8.055   3.548   2.871
 3285TIP3    H2 9813   8.011   3.413   2.820
 3286TIP3   OH2 9814   0.742   4.202   3.328
 3286TIP3    H1 9815   0.697   4.247   3.257
 3286TIP3    H2 9816   0.835   4.218   3.312
 3287TIP3   OH2 9817   8.319   2.457   3.853
 3287TIP3    H1 9818   8.287   2.420   3.770
 3287TIP3    H2 9819   8.312   2.384   3.915
 3288TIP3   OH2 9820  -0.026   4.199   4.355
 3288TIP3    H1 9821   0.068   4.198   4.373
 3288TIP3    H2 9822  -0.039   4.129   4.291
 3289TIP3   OH2 9823   8.477   3.760   2.481
 3289TIP3    H1 9824   8.419   3.693   2.519
 3289TIP3    H2 9825   8.553   3.710   2.451
 3290TIP3   OH2 9826   0.657   4.074   4.128
 3290TIP3    H1 9827   0.731   4.017   4.146
 3290TIP3    H2 9828   0.694   4.163   4.132
 3291TIP3   OH2 9829   0.413   3.802   2.398
 3291TIP3    H1 9830   0.450   3.736   2.457
 3291TIP3    H2 9831   0.468   3.797   2.320
 3292TIP3   OH2 9832   8.120   3.300   2.721
 3292TIP3    H1 9833   8.153   3.222   2.765
 3292TIP3    H2 9834   8.179   3.313   2.648
 3293TIP3   OH2 9835   0.139   3.482   2.513
 3293TIP3    H1 9836   0.141   3.498   2.607
 3293TIP3    H2 9837   0.140   3.387   2.505
 3294TIP3   OH2 9838   0.736   3.742   3.891
 3294TIP3    H1 9839   0.820   3.763   3.851
 3294TIP3    H2 9840   0.681   3.818   3.875
 3295TIP3   OH2 9841   8.260   3.333   4.513
 3295TIP3    H1 9842   8.334   3.310   4.457
 3295TIP3    H2 9843   8.298   3.389   4.581
 3296TIP3   OH2 9844   0.097   3.257   4.154
 3296TIP3    H1 9845   0.020   3.313   4.160
 3296TIP3    H2 9846   0.149   3.295   4.084
 3297TIP3   OH2 9847   0.747   3.313   2.430
 3297TIP3    H1 9848   0.732   3.263   2.350
 3297TIP3    H2 9849   0.713   3.400   2.411
 3298TIP3   OH2 9850   0.218   3.042   4.280
 3298TIP3    H1 9851   0.222   2.963   4.226
 3298TIP3    H2 9852   0.177   3.108   4.224
 3299TIP3   OH2 9853   0.224   2.831   4.089
 3299TIP3    H1 9854   0.254   2.865   4.004
 3299TIP3    H2 9855   0.133   2.805   4.073
 3300TIP3   OH2 9856   0.256   3.384   3.971
 3300TIP3    H1 9857   0.325   3.355   3.911
 3300TIP3    H2 9858   0.194   3.430   3.915
 3301TIP3   OH2 9859   0.826   3.328   4.340
 3301TIP3    H1 9860   0.873   3.247   4.358
 3301TIP3    H2 9861   0.894   3.388   4.310
 3302TIP3   OH2 9862   0.877   3.578   4.063
 3302TIP3    H1 9863   0.819   3.635   4.013
 3302TIP3    H2 9864   0.964   3.598   4.031
 3303TIP3   OH2 9865   0.094   3.145   4.514
 3303TIP3    H1 9866   0.029   3.076   4.529
 3303TIP3    H2 9867   0.131   3.125   4.428
 3304TIP3   OH2 9868   0.354   2.590   4.157
 3304TIP3    H1 9869   0.306   2.670   4.136
 3304TIP3    H2 9870   0.289   2.520   4.147
 3305TIP3   OH2 9871   0.479   3.094   4.374
 3305TIP3    H1 9872   0.475   3.079   4.468
 3305TIP3    H2 9873   0.392   3.069   4.342
 3306TIP3   OH2 9874   0.720   3.044   4.229
 3306TIP3    H1 9875   0.647   3.045   4.291
 3306TIP3    H2 9876   0.795   3.015   4.281
 3307TIP3   OH2 9877   0.945   2.983   4.377
 3307TIP3    H1 9878   0.961   2.890   4.392
 3307TIP3    H2 9879   0.944   3.021   4.465
 3308TIP3   OH2 9880   8.430   2.927   4.575
 3308TIP3    H1 9881   8.432   2.839   4.538
 3308TIP3    H2 9882   8.477   2.918   4.659
 3309TIP3   OH2 9883   0.450   2.598   4.414
 3309TIP3    H1 9884   0.516   2.529   4.412
 3309TIP3    H2 9885   0.409   2.595   4.328
 3310TIP3   OH2 9886   0.515   2.813   4.573
 3310TIP3    H1 9887   0.497   2.743   4.511
 3310TIP3    H2 9888   0.439   2.871   4.567
 3311TIP3   OH2 9889   8.241   4.035   2.668
 3311TIP3    H1 9890   8.335   4.035   2.649
 3311TIP3    H2 9891   8.203   4.091   2.600
 3312TIP3   OH2 9892   0.997   4.290   3.293
 3312TIP3    H1 9893   1.024   4.318   3.381
 3312TIP3    H2 9894   1.062   4.329   3.235
 3313TIP3   OH2 9895   1.025   4.304   3.576
 3313TIP3    H1 9896   0.979   4.221   3.568
 3313TIP3    H2 9897   1.099   4.285   3.634
 3314TIP3   OH2 9898   1.057   3.992   4.136
 3314TIP3    H1 9899   1.013   3.984   4.220
 3314TIP3    H2 9900   1.114   4.069   4.146
 3315TIP3   OH2 9901   0.892   3.501   2.768
 3315TIP3    H1 9902   0.960   3.560   2.738
 3315TIP3    H2 9903   0.929   3.458   2.845
 3316TIP3   OH2 9904   1.014   3.366   2.973
 3316TIP3    H1 9905   0.949   3.322   3.027
 3316TIP3    H2 9906   1.078   3.400   3.035
 3317TIP3   OH2 9907   1.070   3.758   3.396
 3317TIP3    H1 9908   1.124   3.690   3.356
 3317TIP3    H2 9909   1.066   3.828   3.331
 3318TIP3   OH2 9910   0.897   4.060   3.591
 3318TIP3    H1 9911   0.826   4.096   3.644
 3318TIP3    H2 9912   0.853   4.013   3.520
 3319TIP3   OH2 9913   0.946   3.276   2.617
 3319TIP3    H1 9914   0.880   3.271   2.548
 3319TIP3    H2 9915   0.919   3.350   2.671
 3320TIP3   OH2 9916   0.818   2.944   2.569
 3320TIP3    H1 9917   0.782   2.979   2.487
 3320TIP3    H2 9918   0.803   2.850   2.564
 3321TIP3   OH2 9919   0.829   3.221   3.116
 3321TIP3    H1 9920   0.835   3.127   3.102
 3321TIP3    H2 9921   0.815   3.230   3.210
 3322TIP3   OH2 9922   1.121   3.648   3.961
 3322TIP3    H1 9923   1.189   3.581   3.959
 3322TIP3    H2 9924   1.155   3.719   3.906
 3323TIP3   OH2 9925   1.300   3.445   3.978
 3323TIP3    H1 9926   1.227   3.400   4.019
 3323TIP3    H2 9927   1.375   3.388   3.994
 3324TIP3   OH2 9928   0.776   2.678   2.544
 3324TIP3    H1 9929   0.834   2.644   2.612
 3324TIP3    H2 9930   0.694   2.632   2.558
 3325TIP3   OH2 9931   0.833   2.940   3.007
 3325TIP3    H1 9932   0.867   2.852   3.024
 3325TIP3    H2 9933   0.885   2.972   2.933
 3326TIP3   OH2 9934   0.986   3.113   3.504
 3326TIP3    H1 9935   1.068   3.133   3.460
 3326TIP3    H2 9936   0.998   3.145   3.594
 3327TIP3   OH2 9937   1.057   3.257   3.733
 3327TIP3    H1 9938   0.982   3.287   3.784
 3327TIP3    H2 9939   1.091   3.336   3.690
 3328TIP3   OH2 9940   8.158   2.994   4.485
 3328TIP3    H1 9941   8.249   2.979   4.511
 3328TIP3    H2 9942   8.107   2.946   4.549
 3329TIP3   OH2 9943   1.505   2.847   4.287
 3329TIP3    H1 9944   1.566   2.784   4.250
 3329TIP3    H2 9945   1.477   2.900   4.212
 3330TIP3   OH2 9946   0.933   2.688   3.048
 3330TIP3    H1 9947   0.981   2.673   3.129
 3330TIP3    H2 9948   0.872   2.615   3.042
 3331TIP3   OH2 9949   8.150   2.670   3.873
 3331TIP3    H1 9950   8.207   2.593   3.876
 3331TIP3    H2 9951   8.210   2.743   3.856
 3332TIP3   OH2 9952   1.374   2.985   4.091
 3332TIP3    H1 9953   1.294   3.029   4.119
 3332TIP3    H2 9954   1.344   2.912   4.037
 3333TIP3   OH2 9955   1.017   2.621   2.689
 3333TIP3    H1 9956   1.050   2.554   2.629
 3333TIP3    H2 9957   1.077   2.695   2.678
 3334TIP3   OH2 9958   0.583   4.154   2.947
 3334TIP3    H1 9959   0.630   4.143   2.864
 3334TIP3    H2 9960   0.632   4.222   2.993
 3335TIP3   OH2 9961   8.139   2.545   4.267
 3335TIP3    H1 9962   8.087   2.523   4.344
 3335TIP3    H2 9963   8.077   2.582   4.205
 3336TIP3   OH2 9964   8.361   4.031   3.878
 3336TIP3    H1 9965   8.336   4.106   3.823
 3336TIP3    H2 9966   8.449   4.008   3.848
 3337TIP3   OH2 9967   0.303   4.229   4.015
 3337TIP3    H1 9968   0.337   4.229   4.104
 3337TIP3    H2 9969   0.363   4.286   3.967
 3338TIP3   OH2 9970   0.484   4.388   3.881
 3338TIP3    H1 9971   0.552   4.345   3.829
 3338TIP3    H2 9972   0.533   4.446   3.940
 3339TIP3   OH2 9973   1.275   2.744   3.974
 3339TIP3    H1 9974   1.186   2.734   3.942
 3339TIP3    H2 9975   1.313   2.656   3.968
 3340TIP3   OH2 9976   8.271   4.257   3.732
 3340TIP3    H1 9977   8.249   4.344   3.765
 3340TIP3    H2 9978   8.216   4.246   3.655
 3341TIP3   OH2 9979   0.199   4.256   3.562
 3341TIP3    H1 9980   0.146   4.271   3.483
 3341TIP3    H2 9981   0.210   4.342   3.600
 3342TIP3   OH2 9982   0.465   4.191   3.612
 3342TIP3    H1 9983   0.372   4.209   3.595
 3342TIP3    H2 9984   0.512   4.261   3.565
 3343TIP3   OH2 9985   0.671   4.384   3.522
 3343TIP3    H1 9986   0.656   4.468   3.477
 3343TIP3    H2 9987   0.698   4.324   3.452
 3344TIP3   OH2 9988   8.146   3.917   3.493
 3344TIP3    H1 9989   8.150   3.830   3.533
 3344TIP3    H2 9990   8.237   3.949   3.498
 3345TIP3   OH2 9991   8.422   4.011   3.511
 3345TIP3    H1 9992   8.444   3.920   3.492
 3345TIP3    H2 9993   8.466   4.030   3.593
 3346TIP3   OH2 9994   0.476   2.660   3.594
 3346TIP3    H1 9995   0.436   2.591   3.647
 3346TIP3    H2 9996   0.551   2.618   3.551
 3347TIP3   OH2 9997   1.000   2.549   3.499
 3347TIP3    H1 9998   1.036   2.596   3.424
 3347TIP3    H2 9999   0.906   2.562   3.492
 3348TIP3   OH210000   1.101   2.644   3.262
 3348TIP3    H110001   1.172   2.591   3.226
 3348TIP3    H210002   1.129   2.735   3.249
 3349TIP3   OH210003   8.214   2.360   3.602
 3349TIP3    H110004   8.134   2.310   3.619
 3349TIP3    H210005   8.283   2.295   3.598
 3350TIP3   OH210006   0.175   2.415   3.489
 3350TIP3    H110007   0.233   2.459   3.427
 3350TIP3    H210008   0.208   2.441   3.575
 3351TIP3   OH210009   0.717   2.550   3.475
 3351TIP3    H110010   0.719   2.511   3.387
 3351TIP3    H210011   0.706   2.475   3.534
 3352TIP3   OH210012   0.749   2.475   3.041
 3352TIP3    H110013   0.664   2.518   3.050
 3352TIP3    H210014   0.738   2.391   3.086
 3353TIP3   OH210015   0.155   2.578   3.123
 3353TIP3    H110016   0.205   2.527   3.186
 3353TIP3    H210017   0.173   2.669   3.146
 3354TIP3   OH210018   0.011   3.996   2.618
 3354TIP3    H110019   0.097   4.022   2.586
 3354TIP3    H210020  -0.016   3.924   2.561
 3355TIP3   OH210021   0.726   4.120   2.713
 3355TIP3    H110022   0.722   4.025   2.706
 3355TIP3    H210023   0.679   4.152   2.636
 3356TIP3   OH210024   8.439   2.658   4.503
 3356TIP3    H110025   8.400   2.585   4.551
 3356TIP3    H210026   8.531   2.658   4.530
 3357TIP3   OH210027   0.189   2.650   4.623
 3357TIP3    H110028   0.273   2.627   4.582
 3357TIP3    H210029   0.174   2.582   4.688
 3358TIP3   OH210030   1.016   2.713   4.408
 3358TIP3    H110031   1.030   2.683   4.498
 3358TIP3    H210032   1.103   2.709   4.368
 3359TIP3   OH210033   0.945   4.269   3.894
 3359TIP3    H110034   0.869   4.238   3.844
 3359TIP3    H210035   0.929   4.363   3.906
 3360TIP3   OH210036   2.215   3.642   2.663
 3360TIP3    H110037   2.187   3.732   2.642
 3360TIP3    H210038   2.145   3.587   2.629
 3361TIP3   OH210039   2.219   3.633   3.050
 3361TIP3    H110040   2.240   3.592   3.134
 3361TIP3    H210041   2.177   3.563   3.000
 3362TIP3   OH210042   1.515   3.529   3.413
 3362TIP3    H110043   1.539   3.458   3.473
 3362TIP3    H210044   1.589   3.589   3.417
 3363TIP3   OH210045   2.463   3.946   2.730
 3363TIP3    H110046   2.444   3.876   2.792
 3363TIP3    H210047   2.494   4.018   2.785
 3364TIP3   OH210048   1.488   3.942   3.133
 3364TIP3    H110049   1.477   3.847   3.134
 3364TIP3    H210050   1.583   3.956   3.136
 3365TIP3   OH210051   1.191   3.146   2.917
 3365TIP3    H110052   1.144   3.227   2.936
 3365TIP3    H210053   1.126   3.089   2.877
 3366TIP3   OH210054   1.253   3.430   3.100
 3366TIP3    H110055   1.299   3.354   3.134
 3366TIP3    H210056   1.307   3.460   3.027
 3367TIP3   OH210057   2.112   4.398   2.745
 3367TIP3    H110058   2.157   4.328   2.698
 3367TIP3    H210059   2.103   4.365   2.834
 3368TIP3   OH210060   2.016   3.866   3.094
 3368TIP3    H110061   2.049   3.788   3.049
 3368TIP3    H210062   2.094   3.914   3.121
 3369TIP3   OH210063   3.024   3.188   3.090
 3369TIP3    H110064   3.064   3.262   3.136
 3369TIP3    H210065   3.059   3.193   3.001
 3370TIP3   OH210066   2.429   3.371   3.128
 3370TIP3    H110067   2.469   3.288   3.152
 3370TIP3    H210068   2.396   3.357   3.040
 3371TIP3   OH210069   1.768   3.025   3.088
 3371TIP3    H110070   1.748   3.098   3.029
 3371TIP3    H210071   1.720   2.951   3.051
 3372TIP3   OH210072   2.463   3.117   2.711
 3372TIP3    H110073   2.529   3.101   2.779
 3372TIP3    H210074   2.513   3.150   2.636
 3373TIP3   OH210075   1.402   3.223   3.198
 3373TIP3    H110076   1.481   3.207   3.249
 3373TIP3    H210077   1.412   3.170   3.120
 3374TIP3   OH210078   1.840   3.421   2.994
 3374TIP3    H110079   1.932   3.399   3.008
 3374TIP3    H210080   1.800   3.340   2.962
 3375TIP3   OH210081   3.119   3.389   3.262
 3375TIP3    H110082   3.055   3.458   3.246
 3375TIP3    H210083   3.131   3.390   3.357
 3376TIP3   OH210084   1.760   3.008   3.527
 3376TIP3    H110085   1.702   3.044   3.460
 3376TIP3    H210086   1.712   3.020   3.609
 3377TIP3   OH210087   2.117   3.869   2.524
 3377TIP3    H110088   2.069   3.838   2.447
 3377TIP3    H210089   2.065   3.944   2.556
 3378TIP3   OH210090   1.869   3.787   3.318
 3378TIP3    H110091   1.808   3.850   3.358
 3378TIP3    H210092   1.909   3.835   3.246
 3379TIP3   OH210093   2.666   3.120   2.886
 3379TIP3    H110094   2.662   3.066   2.966
 3379TIP3    H210095   2.720   3.195   2.911
 3380TIP3   OH210096   1.637   3.124   3.309
 3380TIP3    H110097   1.696   3.194   3.337
 3380TIP3    H210098   1.683   3.082   3.236
 3381TIP3   OH210099   1.694   3.981   3.419
 3381TIP3    H110100   1.673   4.068   3.385
 3381TIP3    H210101   1.620   3.958   3.475
 3382TIP3   OH210102   1.098   3.676   2.648
 3382TIP3    H110103   1.034   3.704   2.582
 3382TIP3    H210104   1.125   3.757   2.691
 3383TIP3   OH210105   2.526   4.186   2.892
 3383TIP3    H110106   2.440   4.175   2.933
 3383TIP3    H210107   2.522   4.271   2.849
 3384TIP3   OH210108   2.816   3.091   3.258
 3384TIP3    H110109   2.729   3.105   3.220
 3384TIP3    H210110   2.876   3.119   3.190
 3385TIP3   OH210111   2.110   2.722   3.243
 3385TIP3    H110112   2.102   2.629   3.263
 3385TIP3    H210113   2.037   2.763   3.289
 3386TIP3   OH210114   2.235   4.224   2.563
 3386TIP3    H110115   2.283   4.142   2.549
 3386TIP3    H210116   2.292   4.292   2.529
 3387TIP3   OH210117   2.374   3.999   2.477
 3387TIP3    H110118   2.300   3.939   2.471
 3387TIP3    H210119   2.416   3.977   2.560
 3388TIP3   OH210120   2.750   4.094   3.239
 3388TIP3    H110121   2.743   4.019   3.180
 3388TIP3    H210122   2.736   4.170   3.183
 3389TIP3   OH210123   2.049   3.494   2.498
 3389TIP3    H110124   1.967   3.540   2.477
 3389TIP3    H210125   2.091   3.482   2.413
 3390TIP3   OH210126   2.009   3.273   2.212
 3390TIP3    H110127   2.073   3.329   2.256
 3390TIP3    H210128   2.062   3.210   2.163
 3391TIP3   OH210129   2.960   3.732   3.087
 3391TIP3    H110130   2.872   3.769   3.098
 3391TIP3    H210131   2.982   3.750   2.995
 3392TIP3   OH210132   2.397   3.575   2.470
 3392TIP3    H110133   2.343   3.596   2.546
 3392TIP3    H210134   2.480   3.546   2.507
 3393TIP3   OH210135   1.629   3.566   2.885
 3393TIP3    H110136   1.586   3.510   2.820
 3393TIP3    H210137   1.703   3.515   2.916
 3394TIP3   OH210138   1.762   3.985   3.031
 3394TIP3    H110139   1.738   3.941   2.949
 3394TIP3    H210140   1.849   3.950   3.051
 3395TIP3   OH210141   1.767   3.539   3.240
 3395TIP3    H110142   1.797   3.516   3.152
 3395TIP3    H210143   1.807   3.625   3.256
 3396TIP3   OH210144   2.290   4.178   3.018
 3396TIP3    H110145   2.276   4.259   3.067
 3396TIP3    H210146   2.270   4.109   3.081
 3397TIP3   OH210147   1.900   4.097   3.563
 3397TIP3    H110148   1.844   4.158   3.613
 3397TIP3    H210149   1.838   4.043   3.513
 3398TIP3   OH210150   2.235   3.434   2.294
 3398TIP3    H110151   2.292   3.490   2.345
 3398TIP3    H210152   2.259   3.451   2.203
 3399TIP3   OH210153   1.655   3.657   3.666
 3399TIP3    H110154   1.665   3.741   3.710
 3399TIP3    H210155   1.564   3.631   3.683
 3400TIP3   OH210156   1.980   4.110   2.563
 3400TIP3    H110157   2.063   4.155   2.579
 3400TIP3    H210158   1.920   4.180   2.536
 3401TIP3   OH210159   1.693   4.261   3.654
 3401TIP3    H110160   1.657   4.264   3.565
 3401TIP3    H210161   1.617   4.241   3.709
 3402TIP3   OH210162   2.752   2.672   2.346
 3402TIP3    H110163   2.671   2.691   2.393
 3402TIP3    H210164   2.767   2.749   2.292
 3403TIP3   OH210165   1.491   3.406   2.695
 3403TIP3    H110166   1.424   3.447   2.640
 3403TIP3    H210167   1.457   3.318   2.712
 3404TIP3   OH210168   2.554   4.038   1.896
 3404TIP3    H110169   2.559   4.132   1.877
 3404TIP3    H210170   2.644   4.007   1.889
 3405TIP3   OH210171   1.274   3.795   3.598
 3405TIP3    H110172   1.210   3.771   3.531
 3405TIP3    H210173   1.313   3.711   3.624
 3406TIP3   OH210174   1.130   3.992   3.227
 3406TIP3    H110175   1.225   3.980   3.219
 3406TIP3    H210176   1.121   4.067   3.286
 3407TIP3   OH210177   2.991   4.441   3.291
 3407TIP3    H110178   2.992   4.346   3.306
 3407TIP3    H210179   2.911   4.470   3.334
 3408TIP3   OH210180   2.097   4.226   3.422
 3408TIP3    H110181   2.097   4.317   3.452
 3408TIP3    H210182   2.028   4.183   3.473
 3409TIP3   OH210183   1.855   4.349   2.372
 3409TIP3    H110184   1.820   4.341   2.284
 3409TIP3    H210185   1.828   4.436   2.401
 3410TIP3   OH210186   1.301   4.202   2.762
 3410TIP3    H110187   1.348   4.196   2.845
 3410TIP3    H210188   1.243   4.126   2.762
 3411TIP3   OH210189   2.063   4.256   2.014
 3411TIP3    H110190   2.119   4.189   1.975
 3411TIP3    H210191   2.097   4.267   2.102
 3412TIP3   OH210192   2.110   4.305   2.286
 3412TIP3    H110193   2.023   4.312   2.325
 3412TIP3    H210194   2.165   4.271   2.357
 3413TIP3   OH210195   1.479   3.978   3.585
 3413TIP3    H110196   1.528   3.965   3.666
 3413TIP3    H210197   1.405   3.917   3.592
 3414TIP3   OH210198   1.874   2.804   3.372
 3414TIP3    H110199   1.790   2.770   3.342
 3414TIP3    H210200   1.852   2.882   3.423
 3415TIP3   OH210201   2.412   2.912   3.567
 3415TIP3    H110202   2.482   2.888   3.627
 3415TIP3    H210203   2.331   2.894   3.615
 3416TIP3   OH210204   2.317   3.477   2.041
 3416TIP3    H110205   2.272   3.453   1.960
 3416TIP3    H210206   2.399   3.517   2.012
 3417TIP3   OH210207   2.022   2.849   2.347
 3417TIP3    H110208   1.990   2.845   2.437
 3417TIP3    H210209   1.984   2.773   2.304
 3418TIP3   OH210210   1.811   3.320   3.392
 3418TIP3    H110211   1.762   3.337   3.473
 3418TIP3    H210212   1.796   3.398   3.339
 3419TIP3   OH210213   1.691   3.203   2.900
 3419TIP3    H110214   1.602   3.179   2.923
 3419TIP3    H210215   1.705   3.166   2.814
 3420TIP3   OH210216   2.184   3.291   2.633
 3420TIP3    H110217   2.134   3.360   2.590
 3420TIP3    H210218   2.240   3.255   2.563
 3421TIP3   OH210219   2.366   3.564   3.715
 3421TIP3    H110220   2.335   3.495   3.774
 3421TIP3    H210221   2.457   3.578   3.740
 3422TIP3   OH210222   2.342   3.316   2.865
 3422TIP3    H110223   2.277   3.343   2.800
 3422TIP3    H210224   2.381   3.237   2.829
 3423TIP3   OH210225   1.630   3.343   3.600
 3423TIP3    H110226   1.659   3.406   3.666
 3423TIP3    H210227   1.618   3.262   3.648
 3424TIP3   OH210228   1.665   2.819   2.306
 3424TIP3    H110229   1.656   2.844   2.398
 3424TIP3    H210230   1.598   2.870   2.261
 3425TIP3   OH210231   1.223   2.868   3.179
 3425TIP3    H110232   1.298   2.898   3.231
 3425TIP3    H210233   1.262   2.835   3.098
 3426TIP3   OH210234   1.190   2.856   2.694
 3426TIP3    H110235   1.231   2.895   2.617
 3426TIP3    H210236   1.124   2.920   2.722
 3427TIP3   OH210237   2.423   3.559   3.328
 3427TIP3    H110238   2.435   3.505   3.250
 3427TIP3    H210239   2.364   3.508   3.384
 3428TIP3   OH210240   2.025   3.028   2.966
 3428TIP3    H110241   1.945   3.026   3.017
 3428TIP3    H210242   2.095   3.015   3.030
 3429TIP3   OH210243   1.454   3.083   2.969
 3429TIP3    H110244   1.362   3.092   2.943
 3429TIP3    H210245   1.476   2.992   2.950
 3430TIP3   OH210246   1.720   3.080   2.657
 3430TIP3    H110247   1.813   3.095   2.639
 3430TIP3    H210248   1.677   3.093   2.573
 3431TIP3   OH210249   2.518   3.107   3.174
 3431TIP3    H110250   2.495   3.117   3.266
 3431TIP3    H210251   2.453   3.045   3.139
 3432TIP3   OH210252   1.568   3.091   2.426
 3432TIP3    H110253   1.475   3.094   2.404
 3432TIP3    H210254   1.612   3.139   2.356
 3433TIP3   OH210255   2.689   4.791   3.387
 3433TIP3    H110256   2.685   4.815   3.294
 3433TIP3    H210257   2.767   4.835   3.420
 3434TIP3   OH210258   1.644   3.904   3.808
 3434TIP3    H110259   1.723   3.931   3.855
 3434TIP3    H210260   1.577   3.896   3.876
 3435TIP3   OH210261   2.104   3.357   3.068
 3435TIP3    H110262   2.173   3.311   3.020
 3435TIP3    H210263   2.102   3.314   3.154
 3436TIP3   OH210264   1.624   2.839   2.948
 3436TIP3    H110265   1.584   2.767   2.997
 3436TIP3    H210266   1.674   2.796   2.879
 3437TIP3   OH210267   2.081   3.263   3.341
 3437TIP3    H110268   1.991   3.290   3.363
 3437TIP3    H210269   2.135   3.317   3.398
 3438TIP3   OH210270   1.813   3.646   2.447
 3438TIP3    H110271   1.752   3.573   2.436
 3438TIP3    H210272   1.796   3.678   2.536
 3439TIP3   OH210273   2.716   3.873   3.074
 3439TIP3    H110274   2.747   3.922   2.998
 3439TIP3    H210275   2.635   3.831   3.044
 3440TIP3   OH210276   2.275   2.950   2.320
 3440TIP3    H110277   2.181   2.932   2.322
 3440TIP3    H210278   2.282   3.044   2.338
 3441TIP3   OH210279   2.224   3.961   3.448
 3441TIP3    H110280   2.239   3.939   3.540
 3441TIP3    H210281   2.181   4.047   3.450
 3442TIP3   OH210282   2.343   3.205   2.417
 3442TIP3    H110283   2.438   3.208   2.431
 3442TIP3    H210284   2.324   3.282   2.364
 3443TIP3   OH210285   1.515   3.668   3.120
 3443TIP3    H110286   1.549   3.635   3.037
 3443TIP3    H210287   1.549   3.608   3.186
 3444TIP3   OH210288   1.960   3.797   2.277
 3444TIP3    H110289   1.906   3.877   2.277
 3444TIP3    H210290   1.910   3.735   2.331
 3445TIP3   OH210291   1.394   3.585   3.738
 3445TIP3    H110292   1.418   3.575   3.831
 3445TIP3    H210293   1.327   3.518   3.723
 3446TIP3   OH210294   2.121   3.701   3.749
 3446TIP3    H110295   2.057   3.638   3.717
 3446TIP3    H210296   2.206   3.664   3.726
 3447TIP3   OH210297   2.374   4.216   3.345
 3447TIP3    H110298   2.279   4.218   3.355
 3447TIP3    H210299   2.407   4.269   3.417
 3448TIP3   OH210300   2.781   3.291   2.244
 3448TIP3    H110301   2.720   3.247   2.185
 3448TIP3    H210302   2.787   3.381   2.211
 3449TIP3   OH210303   3.002   4.149   3.328
 3449TIP3    H110304   2.907   4.145   3.322
 3449TIP3    H210305   3.032   4.122   3.241
 3450TIP3   OH210306   2.499   4.108   2.162
 3450TIP3    H110307   2.440   4.051   2.212
 3450TIP3    H210308   2.502   4.068   2.075
 3451TIP3   OH210309   2.480   3.734   2.997
 3451TIP3    H110310   2.387   3.713   3.007
 3451TIP3    H210311   2.516   3.660   2.948
 3452TIP3   OH210312   1.610   3.969   2.742
 3452TIP3    H110313   1.605   4.051   2.692
 3452TIP3    H210314   1.519   3.952   2.769
 3453TIP3   OH210315   1.177   3.269   2.465
 3453TIP3    H110316   1.218   3.355   2.478
 3453TIP3    H210317   1.099   3.272   2.520
 3454TIP3   OH210318   1.747   3.734   2.692
 3454TIP3    H110319   1.710   3.820   2.709
 3454TIP3    H210320   1.714   3.679   2.763
 3455TIP3   OH210321   1.884   4.313   3.215
 3455TIP3    H110322   1.925   4.384   3.166
 3455TIP3    H210323   1.956   4.274   3.265
 3456TIP3   OH210324   1.528   4.212   2.596
 3456TIP3    H110325   1.445   4.216   2.645
 3456TIP3    H210326   1.563   4.300   2.600
 3457TIP3   OH210327   2.263   3.945   3.178
 3457TIP3    H110328   2.255   3.948   3.273
 3457TIP3    H210329   2.346   3.899   3.162
 3458TIP3   OH210330   2.240   3.844   2.057
 3458TIP3    H110331   2.291   3.812   2.132
 3458TIP3    H210332   2.151   3.811   2.073
 3459TIP3   OH210333   2.514   4.476   3.222
 3459TIP3    H110334   2.436   4.421   3.218
 3459TIP3    H210335   2.501   4.541   3.153
 3460TIP3   OH210336   2.582   4.315   1.878
 3460TIP3    H110337   2.622   4.381   1.822
 3460TIP3    H210338   2.502   4.356   1.911
 3461TIP3   OH210339   1.601   3.088   3.742
 3461TIP3    H110340   1.506   3.091   3.754
 3461TIP3    H210341   1.633   3.036   3.815
 3462TIP3   OH210342   2.395   3.761   2.270
 3462TIP3    H110343   2.374   3.697   2.338
 3462TIP3    H210344   2.476   3.801   2.300
 3463TIP3   OH210345   1.320   4.171   3.376
 3463TIP3    H110346   1.372   4.098   3.410
 3463TIP3    H210347   1.342   4.245   3.433
 3464TIP3   OH210348   1.609   3.808   2.064
 3464TIP3    H110349   1.624   3.729   2.011
 3464TIP3    H210350   1.584   3.774   2.150
 3465TIP3   OH210351   1.552   3.836   2.350
 3465TIP3    H110352   1.581   3.749   2.374
 3465TIP3    H210353   1.626   3.893   2.371
 3466TIP3   OH210354   1.296   3.515   2.535
 3466TIP3    H110355   1.232   3.571   2.578
 3466TIP3    H210356   1.337   3.571   2.469
 3467TIP3   OH210357   2.457   3.152   3.444
 3467TIP3    H110358   2.492   3.195   3.522
 3467TIP3    H210359   2.431   3.065   3.475
 3468TIP3   OH210360   2.320   2.903   2.595
 3468TIP3    H110361   2.308   2.920   2.502
 3468TIP3    H210362   2.360   2.983   2.630
 3469TIP3   OH210363   1.794   4.018   2.282
 3469TIP3    H110364   1.753   4.086   2.336
 3469TIP3    H210365   1.832   4.066   2.209
 3470TIP3   OH210366   2.005   3.087   2.695
 3470TIP3    H110367   2.067   3.157   2.676
 3470TIP3    H210368   2.010   3.075   2.790
 3471TIP3   OH210369   2.282   3.406   3.499
 3471TIP3    H110370   2.294   3.456   3.579
 3471TIP3    H210371   2.331   3.325   3.514
 3472TIP3   OH210372   2.153   2.808   2.793
 3472TIP3    H110373   2.149   2.880   2.856
 3472TIP3    H210374   2.212   2.838   2.725
 3473TIP3   OH210375   1.493   4.118   2.342
 3473TIP3    H110376   1.504   4.193   2.284
 3473TIP3    H210377   1.507   4.153   2.430
 3474TIP3   OH210378   1.670   2.815   2.593
 3474TIP3    H110379   1.657   2.904   2.627
 3474TIP3    H210380   1.765   2.803   2.594
 3475TIP3   OH210381   2.878   3.326   3.444
 3475TIP3    H110382   2.828   3.293   3.518
 3475TIP3    H210383   2.889   3.250   3.386
 3476TIP3   OH210384   2.565   3.500   2.865
 3476TIP3    H110385   2.491   3.440   2.873
 3476TIP3    H210386   2.638   3.455   2.908
 3477TIP3   OH210387   1.233   3.005   2.468
 3477TIP3    H110388   1.225   3.101   2.466
 3477TIP3    H210389   1.180   2.976   2.393
 3478TIP3   OH210390   2.540   4.456   2.814
 3478TIP3    H110391   2.495   4.500   2.742
 3478TIP3    H210392   2.633   4.473   2.798
 3479TIP3   OH210393   1.613   2.720   3.343
 3479TIP3    H110394   1.583   2.686   3.258
 3479TIP3    H210395   1.604   2.646   3.403
 3480TIP3   OH210396   1.142   3.940   2.725
 3480TIP3    H110397   1.083   3.970   2.795
 3480TIP3    H210398   1.108   3.983   2.647
 3481TIP3   OH210399   1.313   4.486   3.801
 3481TIP3    H110400   1.398   4.489   3.846
 3481TIP3    H210401   1.291   4.393   3.798
 3482TIP3   OH210402   1.789   4.446   3.836
 3482TIP3    H110403   1.881   4.425   3.852
 3482TIP3    H210404   1.761   4.384   3.769
 3483TIP3   OH210405   1.775   4.016   1.974
 3483TIP3    H110406   1.724   3.943   2.009
 3483TIP3    H210407   1.848   3.975   1.928
 3484TIP3   OH210408   2.433   4.351   3.575
 3484TIP3    H110409   2.423   4.285   3.643
 3484TIP3    H210410   2.506   4.405   3.605
 3485TIP3   OH210411   2.208   4.063   1.884
 3485TIP3    H110412   2.246   3.995   1.939
 3485TIP3    H210413   2.259   4.059   1.803
 3486TIP3   OH210414   1.440   3.884   3.992
 3486TIP3    H110415   1.453   3.791   4.011
 3486TIP3    H210416   1.353   3.887   3.951
 3487TIP3   OH210417   1.451   3.564   2.219
 3487TIP3    H110418   1.439   3.473   2.245
 3487TIP3    H210419   1.490   3.560   2.132
 3488TIP3   OH210420   2.051   3.978   3.769
 3488TIP3    H110421   2.003   3.995   3.688
 3488TIP3    H210422   2.078   3.886   3.763
 3489TIP3   OH210423   1.936   3.739   2.006
 3489TIP3    H110424   1.935   3.748   2.102
 3489TIP3    H210425   1.937   3.644   1.992
 3490TIP3   OH210426   2.532   3.981   3.368
 3490TIP3    H110427   2.609   4.025   3.332
 3490TIP3    H210428   2.463   4.048   3.367
 3491TIP3   OH210429   1.566   3.621   3.982
 3491TIP3    H110430   1.640   3.563   3.964
 3491TIP3    H210431   1.584   3.657   4.069
 3492TIP3   OH210432   1.644   3.440   2.432
 3492TIP3    H110433   1.599   3.394   2.503
 3492TIP3    H210434   1.665   3.371   2.369
 3493TIP3   OH210435   1.893   3.510   3.641
 3493TIP3    H110436   1.816   3.566   3.644
 3493TIP3    H210437   1.944   3.543   3.567
 3494TIP3   OH210438   1.723   3.241   2.253
 3494TIP3    H110439   1.691   3.255   2.164
 3494TIP3    H210440   1.819   3.242   2.244
 3495TIP3   OH210441   2.410   3.904   3.774
 3495TIP3    H110442   2.505   3.896   3.762
 3495TIP3    H210443   2.391   3.846   3.848
 3496TIP3   OH210444   2.548   3.568   1.919
 3496TIP3    H110445   2.532   3.518   1.839
 3496TIP3    H210446   2.514   3.655   1.901
 3497TIP3   OH210447   2.019   3.298   3.763
 3497TIP3    H110448   2.018   3.219   3.709
 3497TIP3    H210449   1.973   3.363   3.711
 3498TIP3   OH210450   2.018   3.086   3.572
 3498TIP3    H110451   2.047   3.122   3.488
 3498TIP3    H210452   1.927   3.061   3.558
 3499TIP3   OH210453   2.040   3.620   3.447
 3499TIP3    H110454   2.124   3.632   3.401
 3499TIP3    H210455   1.981   3.682   3.405
 3500TIP3   OH210456   2.628   3.579   3.826
 3500TIP3    H110457   2.658   3.499   3.869
 3500TIP3    H210458   2.704   3.637   3.829
 3501TIP3   OH210459   2.667   3.801   3.508
 3501TIP3    H110460   2.623   3.884   3.487
 3501TIP3    H210461   2.760   3.820   3.497
 3502TIP3   OH210462   1.890   3.404   3.993
 3502TIP3    H110463   1.826   3.337   4.016
 3502TIP3    H210464   1.930   3.373   3.911
 3503TIP3   OH210465   2.148   2.844   3.642
 3503TIP3    H110466   2.100   2.925   3.623
 3503TIP3    H210467   2.083   2.775   3.634
 3504TIP3   OH210468   2.277   3.352   3.858
 3504TIP3    H110469   2.276   3.336   3.952
 3504TIP3    H210470   2.190   3.327   3.828
 3505TIP3   OH210471   2.510   3.276   3.690
 3505TIP3    H110472   2.445   3.289   3.759
 3505TIP3    H210473   2.592   3.263   3.737
 3506TIP3   OH210474   2.747   3.237   3.846
 3506TIP3    H110475   2.760   3.145   3.869
 3506TIP3    H210476   2.735   3.281   3.930
 3507TIP3   OH210477   1.736   3.182   4.055
 3507TIP3    H110478   1.739   3.092   4.024
 3507TIP3    H210479   1.773   3.178   4.144
 3508TIP3   OH210480   2.247   2.856   3.899
 3508TIP3    H110481   2.313   2.787   3.899
 3508TIP3    H210482   2.206   2.850   3.813
 3509TIP3   OH210483   2.313   3.073   4.057
 3509TIP3    H110484   2.293   3.002   3.997
 3509TIP3    H210485   2.235   3.129   4.055
 3510TIP3   OH210486   1.540   4.301   2.152
 3510TIP3    H110487   1.633   4.290   2.136
 3510TIP3    H210488   1.508   4.353   2.078
 3511TIP3   OH210489   1.016   3.674   2.360
 3511TIP3    H110490   1.111   3.663   2.366
 3511TIP3    H210491   0.985   3.592   2.321
 3512TIP3   OH210492   0.932   4.290   2.793
 3512TIP3    H110493   0.866   4.234   2.751
 3512TIP3    H210494   0.975   4.233   2.856
 3513TIP3   OH210495   1.069   4.137   2.979
 3513TIP3    H110496   1.053   4.068   3.043
 3513TIP3    H210497   1.119   4.203   3.026
 3514TIP3   OH210498   2.794   4.543   2.779
 3514TIP3    H110499   2.817   4.573   2.866
 3514TIP3    H210500   2.857   4.587   2.721
 3515TIP3   OH210501   2.819   4.561   3.061
 3515TIP3    H110502   2.776   4.476   3.057
 3515TIP3    H210503   2.897   4.547   3.115
 3516TIP3   OH210504   2.865   4.243   3.634
 3516TIP3    H110505   2.793   4.253   3.697
 3516TIP3    H210506   2.910   4.327   3.635
 3517TIP3   OH210507   2.868   4.008   2.886
 3517TIP3    H110508   2.924   3.944   2.843
 3517TIP3    H210509   2.865   4.082   2.826
 3518TIP3   OH210510   2.692   4.314   3.081
 3518TIP3    H110511   2.624   4.358   3.132
 3518TIP3    H210512   2.644   4.269   3.011
 3519TIP3   OH210513   2.748   3.546   2.101
 3519TIP3    H110514   2.691   3.522   2.028
 3519TIP3    H210515   2.697   3.611   2.150
 3520TIP3   OH210516   2.614   3.206   2.050
 3520TIP3    H110517   2.574   3.233   1.967
 3520TIP3    H210518   2.596   3.112   2.056
 3521TIP3   OH210519   2.620   3.474   2.593
 3521TIP3    H110520   2.629   3.379   2.586
 3521TIP3    H210521   2.612   3.490   2.687
 3522TIP3   OH210522   1.251   3.555   3.347
 3522TIP3    H110523   1.245   3.520   3.259
 3522TIP3    H210524   1.345   3.555   3.367
 3523TIP3   OH210525   2.915   3.903   3.458
 3523TIP3    H110526   2.979   3.832   3.452
 3523TIP3    H210527   2.948   3.970   3.397
 3524TIP3   OH210528   3.074   3.683   3.492
 3524TIP3    H110529   3.027   3.603   3.518
 3524TIP3    H210530   3.166   3.657   3.489
 3525TIP3   OH210531   2.560   2.942   2.050
 3525TIP3    H110532   2.634   2.903   2.096
 3525TIP3    H210533   2.489   2.879   2.060
 3526TIP3   OH210534   2.626   3.193   2.491
 3526TIP3    H110535   2.660   3.106   2.510
 3526TIP3    H210536   2.679   3.224   2.417
 3527TIP3   OH210537   2.781   3.371   2.981
 3527TIP3    H110538   2.863   3.398   2.939
 3527TIP3    H210539   2.797   3.379   3.075
 3528TIP3   OH210540   1.471   3.236   4.020
 3528TIP3    H110541   1.567   3.236   4.027
 3528TIP3    H210542   1.444   3.152   4.058
 3529TIP3   OH210543   3.294   3.100   3.766
 3529TIP3    H110544   3.359   3.034   3.742
 3529TIP3    H210545   3.290   3.158   3.689
 3530TIP3   OH210546   2.727   2.944   2.536
 3530TIP3    H110547   2.777   2.930   2.616
 3530TIP3    H210548   2.668   2.869   2.531
 3531TIP3   OH210549   1.432   2.931   3.351
 3531TIP3    H110550   1.489   2.854   3.362
 3531TIP3    H210551   1.493   3.005   3.344
 3532TIP3   OH210552   1.230   3.204   3.422
 3532TIP3    H110553   1.279   3.200   3.340
 3532TIP3    H210554   1.263   3.283   3.465
 3533TIP3   OH210555   3.164   3.251   3.565
 3533TIP3    H110556   3.100   3.277   3.632
 3533TIP3    H210557   3.129   3.171   3.528
 3534TIP3   OH210558   2.811   2.876   2.167
 3534TIP3    H110559   2.845   2.805   2.113
 3534TIP3    H210560   2.878   2.944   2.163
 3535TIP3   OH210561   1.216   2.712   2.926
 3535TIP3    H110562   1.125   2.700   2.954
 3535TIP3    H210563   1.210   2.769   2.849
 3536TIP3   OH210564   2.375   4.412   2.432
 3536TIP3    H110565   2.425   4.405   2.351
 3536TIP3    H210566   2.422   4.478   2.483
 3537TIP3   OH210567   1.434   2.788   3.740
 3537TIP3    H110568   1.387   2.782   3.823
 3537TIP3    H210569   1.370   2.824   3.679
 3538TIP3   OH210570   1.474   4.219   3.824
 3538TIP3    H110571   1.384   4.191   3.807
 3538TIP3    H210572   1.488   4.197   3.917
 3539TIP3   OH210573   1.656   4.253   3.362
 3539TIP3    H110574   1.606   4.326   3.326
 3539TIP3    H210575   1.742   4.261   3.321
 3540TIP3   OH210576   2.098   4.493   3.503
 3540TIP3    H110577   2.136   4.490   3.591
 3540TIP3    H210578   2.161   4.545   3.452
 3541TIP3   OH210579   2.279   4.647   3.366
 3541TIP3    H110580   2.348   4.595   3.323
 3541TIP3    H210581   2.327   4.704   3.426
 3542TIP3   OH210582   3.069   2.993   3.466
 3542TIP3    H110583   2.981   2.971   3.436
 3542TIP3    H210584   3.118   2.912   3.460
 3543TIP3   OH210585   1.327   4.508   3.389
 3543TIP3    H110586   1.239   4.538   3.367
 3543TIP3    H210587   1.345   4.546   3.475
 3544TIP3   OH210588   1.564   4.486   3.248
 3544TIP3    H110589   1.480   4.496   3.292
 3544TIP3    H210590   1.548   4.516   3.159
 3545TIP3   OH210591   1.992   4.514   3.045
 3545TIP3    H110592   1.922   4.529   2.982
 3545TIP3    H210593   2.004   4.598   3.089
 3546TIP3   OH210594   2.260   4.449   3.095
 3546TIP3    H110595   2.168   4.468   3.079
 3546TIP3    H210596   2.308   4.522   3.056
 3547TIP3   OH210597   2.463   4.640   3.008
 3547TIP3    H110598   2.452   4.724   2.964
 3547TIP3    H210599   2.493   4.581   2.938
 3548TIP3   OH210600   1.244   4.295   3.135
 3548TIP3    H110601   1.266   4.271   3.225
 3548TIP3    H210602   1.313   4.255   3.082
 3549TIP3   OH210603   1.440   4.170   2.994
 3549TIP3    H110604   1.450   4.088   3.042
 3549TIP3    H210605   1.529   4.206   2.991
 3550TIP3   OH210606   1.707   4.259   3.000
 3550TIP3    H110607   1.733   4.168   2.989
 3550TIP3    H210608   1.751   4.288   3.080
 3551TIP3   OH210609   2.272   2.915   3.078
 3551TIP3    H110610   2.233   2.847   3.134
 3551TIP3    H210611   2.349   2.874   3.040
 3552TIP3   OH210612   2.796   2.809   2.985
 3552TIP3    H110613   2.833   2.855   2.910
 3552TIP3    H210614   2.701   2.821   2.976
 3553TIP3   OH210615   2.897   2.906   2.748
 3553TIP3    H110616   2.967   2.850   2.714
 3553TIP3    H210617   2.929   2.995   2.735
 3554TIP3   OH210618   1.525   2.623   3.095
 3554TIP3    H110619   1.433   2.596   3.100
 3554TIP3    H210620   1.574   2.541   3.092
 3555TIP3   OH210621   1.319   2.503   2.754
 3555TIP3    H110622   1.344   2.553   2.676
 3555TIP3    H210623   1.286   2.569   2.815
 3556TIP3   OH210624   1.972   2.661   2.978
 3556TIP3    H110625   2.030   2.709   2.918
 3556TIP3    H210626   1.993   2.696   3.064
 3557TIP3   OH210627   2.512   2.806   2.961
 3557TIP3    H110628   2.520   2.766   2.874
 3557TIP3    H210629   2.502   2.731   3.021
 3558TIP3   OH210630   2.544   2.732   2.526
 3558TIP3    H110631   2.460   2.776   2.539
 3558TIP3    H210632   2.534   2.648   2.571
 3559TIP3   OH210633   1.032   4.074   2.516
 3559TIP3    H110634   0.950   4.037   2.485
 3559TIP3    H210635   1.031   4.165   2.486
 3560TIP3   OH210636   1.452   2.647   2.520
 3560TIP3    H110637   1.477   2.659   2.428
 3560TIP3    H210638   1.508   2.708   2.568
 3561TIP3   OH210639   1.946   2.835   2.613
 3561TIP3    H110640   2.008   2.792   2.673
 3561TIP3    H210641   1.959   2.929   2.628
 3562TIP3   OH210642   1.806   4.255   2.103
 3562TIP3    H110643   1.892   4.281   2.071
 3562TIP3    H210644   1.780   4.181   2.048
 3563TIP3   OH210645   2.521   4.377   2.201
 3563TIP3    H110646   2.520   4.282   2.192
 3563TIP3    H210647   2.477   4.409   2.122
 3564TIP3   OH210648   1.736   2.909   3.990
 3564TIP3    H110649   1.696   2.840   4.043
 3564TIP3    H210650   1.828   2.909   4.016
 3565TIP3   OH210651   1.985   2.903   4.107
 3565TIP3    H110652   2.070   2.880   4.070
 3565TIP3    H210653   1.969   2.838   4.175
 3566TIP3   OH210654   2.810   2.969   3.896
 3566TIP3    H110655   2.824   2.938   3.986
 3566TIP3    H210656   2.897   2.965   3.856
 3567TIP3   OH210657   2.742   4.522   3.386
 3567TIP3    H110658   2.667   4.491   3.336
 3567TIP3    H210659   2.728   4.617   3.394
 3568TIP3   OH210660   4.010   3.894   2.151
 3568TIP3    H110661   3.984   3.984   2.133
 3568TIP3    H210662   3.938   3.841   2.119
 3569TIP3   OH210663   4.007   3.895   2.543
 3569TIP3    H110664   4.047   3.873   2.627
 3569TIP3    H210665   3.973   3.812   2.510
 3570TIP3   OH210666   3.311   3.792   2.915
 3570TIP3    H110667   3.337   3.720   2.973
 3570TIP3    H210668   3.393   3.836   2.893
 3571TIP3   OH210669   4.256   4.198   2.221
 3571TIP3    H110670   4.245   4.128   2.285
 3571TIP3    H210671   4.290   4.272   2.272
 3572TIP3   OH210672   3.284   4.192   2.617
 3572TIP3    H110673   3.276   4.096   2.623
 3572TIP3    H210674   3.379   4.207   2.613
 3573TIP3   OH210675   2.961   3.435   2.411
 3573TIP3    H110676   2.904   3.448   2.487
 3573TIP3    H210677   2.921   3.363   2.362
 3574TIP3   OH210678   3.909   4.656   2.236
 3574TIP3    H110679   3.948   4.589   2.180
 3574TIP3    H210680   3.906   4.616   2.323
 3575TIP3   OH210681   3.815   4.120   2.584
 3575TIP3    H110682   3.852   4.041   2.544
 3575TIP3    H210683   3.891   4.172   2.609
 3576TIP3   OH210684   4.822   3.444   2.577
 3576TIP3    H110685   4.856   3.521   2.622
 3576TIP3    H210686   4.852   3.454   2.486
 3577TIP3   OH210687   4.221   3.620   2.611
 3577TIP3    H110688   4.266   3.539   2.637
 3577TIP3    H210689   4.190   3.602   2.522
 3578TIP3   OH210690   3.561   3.282   2.577
 3578TIP3    H110691   3.547   3.354   2.516
 3578TIP3    H210692   3.516   3.208   2.536
 3579TIP3   OH210693   4.261   3.373   2.198
 3579TIP3    H110694   4.325   3.358   2.268
 3579TIP3    H210695   4.313   3.407   2.125
 3580TIP3   OH210696   3.195   3.481   2.691
 3580TIP3    H110697   3.277   3.461   2.736
 3580TIP3    H210698   3.205   3.440   2.605
 3581TIP3   OH210699   3.635   3.679   2.486
 3581TIP3    H110700   3.728   3.660   2.497
 3581TIP3    H210701   3.598   3.597   2.453
 3582TIP3   OH210702   4.899   3.651   2.747
 3582TIP3    H110703   4.814   3.692   2.728
 3582TIP3    H210704   4.912   3.667   2.841
 3583TIP3   OH210705   3.557   3.264   3.013
 3583TIP3    H110706   3.499   3.299   2.945
 3583TIP3    H210707   3.510   3.278   3.095
 3584TIP3   OH210708   3.890   4.111   2.024
 3584TIP3    H110709   3.865   4.104   1.932
 3584TIP3    H210710   3.853   4.195   2.053
 3585TIP3   OH210711   3.664   4.042   2.804
 3585TIP3    H110712   3.607   4.109   2.842
 3585TIP3    H210713   3.710   4.086   2.733
 3586TIP3   OH210714   4.462   3.380   2.378
 3586TIP3    H110715   4.456   3.329   2.460
 3586TIP3    H210716   4.516   3.456   2.401
 3587TIP3   OH210717   3.431   3.379   2.797
 3587TIP3    H110718   3.489   3.450   2.824
 3587TIP3    H210719   3.477   3.337   2.724
 3588TIP3   OH210720   3.491   4.240   2.906
 3588TIP3    H110721   3.471   4.326   2.869
 3588TIP3    H210722   3.416   4.218   2.960
 3589TIP3   OH210723   2.905   3.917   2.176
 3589TIP3    H110724   2.837   3.909   2.109
 3589TIP3    H210725   2.913   4.011   2.191
 3590TIP3   OH210726   4.322   4.444   2.383
 3590TIP3    H110727   4.234   4.432   2.421
 3590TIP3    H210728   4.317   4.528   2.337
 3591TIP3   OH210729   4.619   3.345   2.745
 3591TIP3    H110730   4.533   3.371   2.712
 3591TIP3    H210731   4.681   3.376   2.678
 3592TIP3   OH210732   3.903   2.978   2.725
 3592TIP3    H110733   3.900   2.885   2.748
 3592TIP3    H210734   3.831   3.018   2.773
 3593TIP3   OH210735   4.024   4.485   2.049
 3593TIP3    H110736   4.069   4.401   2.034
 3593TIP3    H210737   4.084   4.551   2.015
 3594TIP3   OH210738   4.164   4.267   1.971
 3594TIP3    H110739   4.149   4.187   1.919
 3594TIP3    H210740   4.203   4.235   2.053
 3595TIP3   OH210741   4.551   4.350   2.726
 3595TIP3    H110742   4.540   4.273   2.669
 3595TIP3    H210743   4.534   4.425   2.668
 3596TIP3   OH210744   3.842   3.746   1.983
 3596TIP3    H110745   3.767   3.802   1.962
 3596TIP3    H210746   3.893   3.743   1.902
 3597TIP3   OH210747   3.804   3.533   1.697
 3597TIP3    H110748   3.867   3.586   1.746
 3597TIP3    H210749   3.859   3.470   1.650
 3598TIP3   OH210750   4.745   3.994   2.572
 3598TIP3    H110751   4.662   4.042   2.577
 3598TIP3    H210752   4.778   4.013   2.484
 3599TIP3   OH210753   4.193   3.828   1.957
 3599TIP3    H110754   4.139   3.851   2.032
 3599TIP3    H210755   4.277   3.803   1.995
 3600TIP3   OH210756   4.423   3.869   2.873
 3600TIP3    H110757   4.422   3.949   2.924
 3600TIP3    H210758   4.341   3.870   2.825
 3601TIP3   OH210759   3.425   3.825   2.377
 3601TIP3    H110760   3.381   3.764   2.317
 3601TIP3    H210761   3.500   3.777   2.410
 3602TIP3   OH210762   3.553   4.232   2.522
 3602TIP3    H110763   3.537   4.202   2.432
 3602TIP3    H210764   3.641   4.200   2.543
 3603TIP3   OH210765   3.547   3.804   2.725
 3603TIP3    H110766   3.585   3.772   2.643
 3603TIP3    H210767   3.596   3.883   2.745
 3604TIP3   OH210768   4.081   4.436   2.505
 3604TIP3    H110769   4.073   4.515   2.559
 3604TIP3    H210770   4.068   4.364   2.566
 3605TIP3   OH210771   3.697   4.354   3.051
 3605TIP3    H110772   3.640   4.415   3.098
 3605TIP3    H210773   3.637   4.300   3.000
 3606TIP3   OH210774   4.029   3.692   1.781
 3606TIP3    H110775   4.088   3.748   1.832
 3606TIP3    H210776   4.054   3.708   1.690
 3607TIP3   OH210777   3.455   3.915   3.159
 3607TIP3    H110778   3.460   4.002   3.199
 3607TIP3    H210779   3.362   3.892   3.162
 3608TIP3   OH210780   3.774   4.368   2.059
 3608TIP3    H110781   3.858   4.412   2.066
 3608TIP3    H210782   3.718   4.432   2.014
 3609TIP3   OH210783   3.490   4.518   3.137
 3609TIP3    H110784   3.457   4.523   3.048
 3609TIP3    H210785   3.413   4.498   3.191
 3610TIP3   OH210786   4.545   2.928   1.830
 3610TIP3    H110787   4.466   2.947   1.881
 3610TIP3    H210788   4.562   3.008   1.781
 3611TIP3   OH210789   3.252   3.672   2.202
 3611TIP3    H110790   3.218   3.702   2.118
 3611TIP3    H210791   3.271   3.579   2.189
 3612TIP3   OH210792   4.350   4.295   1.380
 3612TIP3    H110793   4.357   4.389   1.363
 3612TIP3    H210794   4.440   4.263   1.370
 3613TIP3   OH210795   3.068   4.053   3.086
 3613TIP3    H110796   3.004   4.029   3.020
 3613TIP3    H210797   3.108   3.970   3.114
 3614TIP3   OH210798   2.930   4.245   2.716
 3614TIP3    H110799   3.025   4.242   2.711
 3614TIP3    H210800   2.911   4.320   2.772
 3615TIP3   OH210801   4.787   4.698   2.777
 3615TIP3    H110802   4.789   4.603   2.787
 3615TIP3    H210803   4.706   4.725   2.820
 3616TIP3   OH210804   3.892   4.485   2.909
 3616TIP3    H110805   3.892   4.575   2.940
 3616TIP3    H210806   3.825   4.441   2.961
 3617TIP3   OH210807   3.655   4.607   1.862
 3617TIP3    H110808   3.615   4.592   1.777
 3617TIP3    H210809   3.626   4.695   1.887
 3618TIP3   OH210810   3.093   4.459   2.251
 3618TIP3    H110811   3.149   4.453   2.329
 3618TIP3    H210812   3.022   4.397   2.269
 3619TIP3   OH210813   3.858   4.510   1.500
 3619TIP3    H110814   3.914   4.443   1.462
 3619TIP3    H210815   3.893   4.524   1.588
 3620TIP3   OH210816   3.907   4.563   1.771
 3620TIP3    H110817   3.821   4.569   1.813
 3620TIP3    H210818   3.964   4.527   1.839
 3621TIP3   OH210819   4.675   3.825   3.048
 3621TIP3    H110820   4.594   3.835   2.998
 3621TIP3    H210821   4.698   3.733   3.041
 3622TIP3   OH210822   3.274   4.236   3.071
 3622TIP3    H110823   3.324   4.223   3.151
 3622TIP3    H210824   3.201   4.174   3.077
 3623TIP3   OH210825   3.670   3.059   2.860
 3623TIP3    H110826   3.585   3.026   2.830
 3623TIP3    H210827   3.649   3.137   2.910
 3624TIP3   OH210828   4.213   3.172   3.055
 3624TIP3    H110829   4.285   3.143   3.111
 3624TIP3    H210830   4.134   3.152   3.104
 3625TIP3   OH210831   4.443   3.603   2.971
 3625TIP3    H110832   4.396   3.599   3.054
 3625TIP3    H210833   4.422   3.690   2.936
 3626TIP3   OH210834   4.107   3.728   1.524
 3626TIP3    H110835   4.071   3.706   1.438
 3626TIP3    H210836   4.190   3.772   1.505
 3627TIP3   OH210837   3.816   3.106   1.832
 3627TIP3    H110838   3.786   3.104   1.923
 3627TIP3    H210839   3.781   3.026   1.794
 3628TIP3   OH210840   3.602   3.581   2.874
 3628TIP3    H110841   3.562   3.601   2.959
 3628TIP3    H210842   3.586   3.659   2.821
 3629TIP3   OH210843   3.487   3.462   2.388
 3629TIP3    H110844   3.399   3.436   2.411
 3629TIP3    H210845   3.504   3.420   2.304
 3630TIP3   OH210846   3.980   3.545   2.117
 3630TIP3    H110847   3.931   3.616   2.075
 3630TIP3    H210848   4.037   3.511   2.048
 3631TIP3   OH210849   4.158   3.821   3.205
 3631TIP3    H110850   4.133   3.750   3.263
 3631TIP3    H210851   4.251   3.836   3.224
 3632TIP3   OH210852   4.134   3.569   2.352
 3632TIP3    H110853   4.073   3.600   2.285
 3632TIP3    H210854   4.175   3.491   2.314
 3633TIP3   OH210855   3.423   3.603   3.091
 3633TIP3    H110856   3.475   3.660   3.148
 3633TIP3    H210857   3.417   3.520   3.138
 3634TIP3   OH210858   3.473   3.082   1.795
 3634TIP3    H110859   3.468   3.079   1.891
 3634TIP3    H210860   3.397   3.133   1.768
 3635TIP3   OH210861   3.020   3.131   2.662
 3635TIP3    H110862   3.094   3.157   2.717
 3635TIP3    H210863   3.060   3.086   2.588
 3636TIP3   OH210864   2.987   3.106   2.186
 3636TIP3    H110865   3.033   3.136   2.108
 3636TIP3    H210866   2.920   3.172   2.203
 3637TIP3   OH210867   4.144   3.815   2.778
 3637TIP3    H110868   4.178   3.749   2.717
 3637TIP3    H210869   4.117   3.765   2.855
 3638TIP3   OH210870   3.820   3.289   2.453
 3638TIP3    H110871   3.744   3.283   2.512
 3638TIP3    H210872   3.895   3.271   2.509
 3639TIP3   OH210873   3.253   3.338   2.456
 3639TIP3    H110874   3.162   3.335   2.425
 3639TIP3    H210875   3.286   3.249   2.441
 3640TIP3   OH210876   3.516   3.337   2.148
 3640TIP3    H110877   3.611   3.346   2.134
 3640TIP3    H210878   3.477   3.354   2.062
 3641TIP3   OH210879   4.309   3.362   2.658
 3641TIP3    H110880   4.279   3.373   2.748
 3641TIP3    H210881   4.248   3.298   2.620
 3642TIP3   OH210882   3.363   3.378   1.921
 3642TIP3    H110883   3.297   3.326   1.876
 3642TIP3    H210884   3.418   3.414   1.851
 3643TIP3   OH210885   4.485   5.048   2.873
 3643TIP3    H110886   4.479   5.070   2.780
 3643TIP3    H210887   4.562   5.095   2.904
 3644TIP3   OH210888   3.437   4.161   3.296
 3644TIP3    H110889   3.519   4.188   3.339
 3644TIP3    H210890   3.372   4.162   3.367
 3645TIP3   OH210891   3.899   3.612   2.549
 3645TIP3    H110892   3.972   3.575   2.498
 3645TIP3    H210893   3.904   3.569   2.634
 3646TIP3   OH210894   3.416   3.098   2.431
 3646TIP3    H110895   3.382   3.024   2.481
 3646TIP3    H210896   3.473   3.058   2.366
 3647TIP3   OH210897   3.877   3.514   2.836
 3647TIP3    H110898   3.789   3.549   2.853
 3647TIP3    H210899   3.935   3.570   2.887
 3648TIP3   OH210900   3.607   3.898   1.931
 3648TIP3    H110901   3.538   3.833   1.919
 3648TIP3    H210902   3.593   3.933   2.019
 3649TIP3   OH210903   4.510   4.136   2.559
 3649TIP3    H110904   4.537   4.185   2.481
 3649TIP3    H210905   4.429   4.092   2.532
 3650TIP3   OH210906   4.069   3.210   1.798
 3650TIP3    H110907   3.976   3.192   1.808
 3650TIP3    H210908   4.078   3.301   1.825
 3651TIP3   OH210909   4.007   4.215   2.933
 3651TIP3    H110910   4.047   4.198   3.018
 3651TIP3    H210911   3.975   4.305   2.939
 3652TIP3   OH210912   4.141   3.460   1.901
 3652TIP3    H110913   4.235   3.463   1.919
 3652TIP3    H210914   4.124   3.540   1.851
 3653TIP3   OH210915   3.293   3.907   2.603
 3653TIP3    H110916   3.337   3.885   2.520
 3653TIP3    H210917   3.346   3.865   2.670
 3654TIP3   OH210918   3.758   4.048   1.756
 3654TIP3    H110919   3.712   4.132   1.757
 3654TIP3    H210920   3.708   3.993   1.816
 3655TIP3   OH210921   3.188   3.849   3.228
 3655TIP3    H110922   3.222   3.831   3.316
 3655TIP3    H210923   3.126   3.778   3.211
 3656TIP3   OH210924   3.919   3.956   3.238
 3656TIP3    H110925   3.860   3.898   3.190
 3656TIP3    H210926   4.007   3.924   3.216
 3657TIP3   OH210927   4.169   4.477   2.830
 3657TIP3    H110928   4.074   4.476   2.840
 3657TIP3    H210929   4.201   4.528   2.904
 3658TIP3   OH210930   4.576   3.554   1.734
 3658TIP3    H110931   4.517   3.507   1.674
 3658TIP3    H210932   4.579   3.643   1.699
 3659TIP3   OH210933   4.801   4.411   2.811
 3659TIP3    H110934   4.706   4.403   2.808
 3659TIP3    H210935   4.831   4.379   2.726
 3660TIP3   OH210936   4.276   4.367   1.641
 3660TIP3    H110937   4.262   4.293   1.701
 3660TIP3    H210938   4.298   4.326   1.558
 3661TIP3   OH210939   4.277   3.997   2.475
 3661TIP3    H110940   4.185   3.975   2.491
 3661TIP3    H210941   4.313   3.919   2.434
 3662TIP3   OH210942   3.410   4.229   2.234
 3662TIP3    H110943   3.421   4.307   2.180
 3662TIP3    H210944   3.315   4.220   2.244
 3663TIP3   OH210945   2.974   3.528   1.941
 3663TIP3    H110946   3.019   3.612   1.954
 3663TIP3    H210947   2.898   3.532   1.999
 3664TIP3   OH210948   3.533   3.987   2.174
 3664TIP3    H110949   3.507   4.077   2.193
 3664TIP3    H210950   3.509   3.937   2.252
 3665TIP3   OH210951   3.680   4.568   2.702
 3665TIP3    H110952   3.720   4.640   2.652
 3665TIP3    H210953   3.753   4.529   2.750
 3666TIP3   OH210954   3.325   4.468   2.086
 3666TIP3    H110955   3.241   4.476   2.131
 3666TIP3    H210956   3.362   4.557   2.087
 3667TIP3   OH210957   4.063   4.202   2.665
 3667TIP3    H110958   4.050   4.200   2.760
 3667TIP3    H210959   4.142   4.151   2.650
 3668TIP3   OH210960   4.043   4.093   1.551
 3668TIP3    H110961   4.098   4.071   1.626
 3668TIP3    H210962   3.954   4.069   1.579
 3669TIP3   OH210963   4.310   4.735   2.710
 3669TIP3    H110964   4.233   4.680   2.706
 3669TIP3    H210965   4.298   4.799   2.640
 3670TIP3   OH210966   4.378   4.573   1.363
 3670TIP3    H110967   4.429   4.647   1.328
 3670TIP3    H210968   4.296   4.612   1.392
 3671TIP3   OH210969   3.403   3.345   3.229
 3671TIP3    H110970   3.308   3.343   3.239
 3671TIP3    H210971   3.436   3.291   3.301
 3672TIP3   OH210972   4.205   4.031   1.768
 3672TIP3    H110973   4.192   3.964   1.835
 3672TIP3    H210974   4.299   4.028   1.749
 3673TIP3   OH210975   3.117   4.427   2.863
 3673TIP3    H110976   3.173   4.360   2.902
 3673TIP3    H210977   3.139   4.507   2.911
 3674TIP3   OH210978   3.402   4.075   1.549
 3674TIP3    H110979   3.419   3.987   1.518
 3674TIP3    H210980   3.382   4.065   1.642
 3675TIP3   OH210981   3.349   4.082   1.825
 3675TIP3    H110982   3.431   4.057   1.867
 3675TIP3    H210983   3.349   4.178   1.827
 3676TIP3   OH210984   3.084   3.781   2.013
 3676TIP3    H110985   3.019   3.844   2.043
 3676TIP3    H210986   3.119   3.819   1.932
 3677TIP3   OH210987   4.236   3.411   2.918
 3677TIP3    H110988   4.318   3.448   2.949
 3677TIP3    H210989   4.225   3.331   2.970
 3678TIP3   OH210990   4.117   3.161   2.081
 3678TIP3    H110991   4.107   3.181   1.988
 3678TIP3    H210992   4.158   3.240   2.118
 3679TIP3   OH210993   3.612   4.276   1.766
 3679TIP3    H110994   3.528   4.303   1.802
 3679TIP3    H210995   3.637   4.347   1.706
 3680TIP3   OH210996   3.797   3.347   2.184
 3680TIP3    H110997   3.862   3.414   2.163
 3680TIP3    H210998   3.806   3.333   2.278
 3681TIP3   OH210999   4.076   3.656   2.987
 3681TIP3    H111000   4.101   3.705   3.065
 3681TIP3    H211001   4.127   3.575   2.992
 3682TIP3   OH211002   3.948   3.064   2.278
 3682TIP3    H111003   3.956   3.129   2.348
 3682TIP3    H211004   4.007   3.095   2.209
 3683TIP3   OH211005   3.358   4.355   1.835
 3683TIP3    H111006   3.332   4.422   1.772
 3683TIP3    H211007   3.346   4.397   1.921
 3684TIP3   OH211008   3.463   3.071   2.071
 3684TIP3    H111009   3.457   3.157   2.112
 3684TIP3    H211010   3.555   3.047   2.077
 3685TIP3   OH211011   4.711   3.561   2.965
 3685TIP3    H111012   4.616   3.562   2.976
 3685TIP3    H211013   4.725   3.503   2.890
 3686TIP3   OH211014   4.364   3.754   2.358
 3686TIP3    H111015   4.289   3.695   2.370
 3686TIP3    H211016   4.436   3.711   2.403
 3687TIP3   OH211017   3.081   3.983   1.820
 3687TIP3    H111018   3.149   4.049   1.834
 3687TIP3    H211019   3.118   3.924   1.754
 3688TIP3   OH211020   3.015   3.257   1.964
 3688TIP3    H111021   3.018   3.352   1.956
 3688TIP3    H211022   2.949   3.231   1.899
 3689TIP3   OH211023   4.335   4.715   2.302
 3689TIP3    H111024   4.290   4.760   2.231
 3689TIP3    H211025   4.428   4.730   2.285
 3690TIP3   OH211026   3.404   2.977   2.832
 3690TIP3    H111027   3.379   2.942   2.747
 3690TIP3    H211028   3.398   2.902   2.892
 3691TIP3   OH211029   2.931   4.178   2.212
 3691TIP3    H111030   2.874   4.225   2.273
 3691TIP3    H211031   2.922   4.224   2.129
 3692TIP3   OH211032   3.111   4.744   3.287
 3692TIP3    H111033   3.195   4.750   3.333
 3692TIP3    H211034   3.092   4.650   3.283
 3693TIP3   OH211035   3.582   4.701   3.326
 3693TIP3    H111036   3.676   4.688   3.339
 3693TIP3    H211037   3.559   4.640   3.256
 3694TIP3   OH211038   3.567   4.276   1.455
 3694TIP3    H111039   3.514   4.206   1.493
 3694TIP3    H211040   3.644   4.231   1.419
 3695TIP3   OH211041   4.225   4.611   3.064
 3695TIP3    H111042   4.216   4.542   3.129
 3695TIP3    H211043   4.300   4.662   3.093
 3696TIP3   OH211044   4.003   4.315   1.368
 3696TIP3    H111045   4.049   4.258   1.429
 3696TIP3    H211046   4.057   4.316   1.290
 3697TIP3   OH211047   3.235   4.145   3.483
 3697TIP3    H111048   3.249   4.051   3.496
 3697TIP3    H211049   3.150   4.150   3.439
 3698TIP3   OH211050   3.217   3.791   1.686
 3698TIP3    H111051   3.276   3.761   1.755
 3698TIP3    H211052   3.273   3.799   1.609
 3699TIP3   OH211053   3.840   4.231   3.260
 3699TIP3    H111054   3.805   4.253   3.174
 3699TIP3    H211055   3.874   4.142   3.250
 3700TIP3   OH211056   3.723   3.992   1.489
 3700TIP3    H111057   3.730   4.007   1.583
 3700TIP3    H211058   3.727   3.896   1.480
 3701TIP3   OH211059   4.335   4.247   2.866
 3701TIP3    H111060   4.413   4.282   2.823
 3701TIP3    H211061   4.268   4.313   2.849
 3702TIP3   OH211062   3.348   3.861   3.467
 3702TIP3    H111063   3.430   3.823   3.436
 3702TIP3    H211064   3.369   3.899   3.552
 3703TIP3   OH211065   3.414   3.694   1.898
 3703TIP3    H111066   3.409   3.643   1.978
 3703TIP3    H211067   3.456   3.636   1.834
 3704TIP3   OH211068   3.680   3.757   3.118
 3704TIP3    H111069   3.611   3.823   3.127
 3704TIP3    H211070   3.739   3.792   3.051
 3705TIP3   OH211071   3.526   3.501   1.737
 3705TIP3    H111072   3.500   3.505   1.645
 3705TIP3    H211073   3.622   3.499   1.735
 3706TIP3   OH211074   4.211   4.164   3.263
 3706TIP3    H111075   4.283   4.131   3.210
 3706TIP3    H211076   4.202   4.102   3.335
 3707TIP3   OH211077   4.338   3.824   1.406
 3707TIP3    H111078   4.322   3.778   1.324
 3707TIP3    H211079   4.308   3.913   1.390
 3708TIP3   OH211080   3.809   3.554   3.253
 3708TIP3    H111081   3.816   3.474   3.200
 3708TIP3    H211082   3.768   3.618   3.195
 3709TIP3   OH211083   3.815   3.344   3.062
 3709TIP3    H111084   3.847   3.380   2.980
 3709TIP3    H211085   3.725   3.318   3.044
 3710TIP3   OH211086   3.838   3.873   2.937
 3710TIP3    H111087   3.926   3.880   2.900
 3710TIP3    H211088   3.787   3.938   2.890
 3711TIP3   OH211089   4.425   3.839   3.313
 3711TIP3    H111090   4.463   3.755   3.336
 3711TIP3    H211091   4.497   3.888   3.273
 3712TIP3   OH211092   4.465   4.102   3.054
 3712TIP3    H111093   4.407   4.153   2.997
 3712TIP3    H211094   4.552   4.117   3.018
 3713TIP3   OH211095   3.684   3.662   3.482
 3713TIP3    H111096   3.622   3.592   3.502
 3713TIP3    H211097   3.724   3.635   3.399
 3714TIP3   OH211098   3.947   3.102   3.130
 3714TIP3    H111099   3.898   3.182   3.111
 3714TIP3    H211100   3.882   3.032   3.121
 3715TIP3   OH211101   4.071   3.606   3.348
 3715TIP3    H111102   4.067   3.591   3.442
 3715TIP3    H211103   3.984   3.581   3.316
 3716TIP3   OH211104   4.314   3.560   3.204
 3716TIP3    H111105   4.241   3.556   3.266
 3716TIP3    H211106   4.389   3.527   3.253
 3717TIP3   OH211107   4.543   3.496   3.346
 3717TIP3    H111108   4.558   3.402   3.360
 3717TIP3    H211109   4.539   3.533   3.434
 3718TIP3   OH211110   3.532   3.439   3.543
 3718TIP3    H111111   3.535   3.349   3.509
 3718TIP3    H211112   3.570   3.432   3.630
 3719TIP3   OH211113   4.044   3.112   3.387
 3719TIP3    H111114   4.110   3.044   3.388
 3719TIP3    H211115   4.004   3.106   3.300
 3720TIP3   OH211116   4.108   3.328   3.545
 3720TIP3    H111117   4.092   3.255   3.485
 3720TIP3    H211118   4.030   3.383   3.538
 3721TIP3   OH211119   3.333   4.556   1.645
 3721TIP3    H111120   3.427   4.545   1.632
 3721TIP3    H211121   3.303   4.607   1.570
 3722TIP3   OH211122   2.818   3.918   1.891
 3722TIP3    H111123   2.903   3.953   1.862
 3722TIP3    H211124   2.804   3.841   1.835
 3723TIP3   OH211125   2.727   4.547   2.281
 3723TIP3    H111126   2.661   4.491   2.239
 3723TIP3    H211127   2.770   4.489   2.344
 3724TIP3   OH211128   2.869   4.392   2.463
 3724TIP3    H111129   2.851   4.327   2.531
 3724TIP3    H211130   2.919   4.460   2.507
 3725TIP3   OH211131   4.588   4.803   2.266
 3725TIP3    H111132   4.618   4.836   2.351
 3725TIP3    H211133   4.653   4.835   2.204
 3726TIP3   OH211134   4.616   4.819   2.551
 3726TIP3    H111135   4.570   4.736   2.541
 3726TIP3    H211136   4.694   4.798   2.602
 3727TIP3   OH211137   4.664   4.500   3.123
 3727TIP3    H111138   4.588   4.508   3.180
 3727TIP3    H211139   4.705   4.587   3.125
 3728TIP3   OH211140   4.481   4.011   1.739
 3728TIP3    H111141   4.543   4.076   1.704
 3728TIP3    H211142   4.525   3.975   1.816
 3729TIP3   OH211143   4.607   3.879   1.944
 3729TIP3    H111144   4.542   3.839   2.002
 3729TIP3    H211145   4.673   3.914   2.004
 3730TIP3   OH211146   4.664   4.271   2.371
 3730TIP3    H111147   4.716   4.203   2.329
 3730TIP3    H211148   4.663   4.344   2.309
 3731TIP3   OH211149   4.489   4.571   2.568
 3731TIP3    H111150   4.419   4.613   2.618
 3731TIP3    H211151   4.445   4.525   2.497
 3732TIP3   OH211152   4.541   3.788   1.587
 3732TIP3    H111153   4.473   3.788   1.520
 3732TIP3    H211154   4.518   3.862   1.644
 3733TIP3   OH211155   4.412   3.457   1.541
 3733TIP3    H111156   4.371   3.495   1.463
 3733TIP3    H211157   4.392   3.364   1.535
 3734TIP3   OH211158   4.418   3.736   2.090
 3734TIP3    H111159   4.429   3.641   2.080
 3734TIP3    H211160   4.405   3.749   2.184
 3735TIP3   OH211161   3.057   3.808   2.830
 3735TIP3    H111162   3.075   3.763   2.748
 3735TIP3    H211163   3.144   3.820   2.870
 3736TIP3   OH211164   4.713   4.161   2.947
 3736TIP3    H111165   4.780   4.093   2.939
 3736TIP3    H211166   4.735   4.225   2.879
 3737TIP3   OH211167   4.894   3.959   2.960
 3737TIP3    H111168   4.818   3.912   2.995
 3737TIP3    H211169   4.968   3.900   2.975
 3738TIP3   OH211170   4.361   3.191   1.523
 3738TIP3    H111171   4.434   3.163   1.577
 3738TIP3    H211172   4.289   3.133   1.548
 3739TIP3   OH211173   4.419   3.450   1.978
 3739TIP3    H111174   4.456   3.363   1.995
 3739TIP3    H211175   4.475   3.486   1.909
 3740TIP3   OH211176   4.578   3.628   2.477
 3740TIP3    H111177   4.661   3.648   2.433
 3740TIP3    H211178   4.591   3.658   2.567
 3741TIP3   OH211179   4.648   3.772   2.706
 3741TIP3    H111180   4.573   3.803   2.756
 3741TIP3    H211181   4.683   3.850   2.663
 3742TIP3   OH211182   3.271   3.499   3.510
 3742TIP3    H111183   3.367   3.494   3.513
 3742TIP3    H211184   3.241   3.413   3.539
 3743TIP3   OH211185   5.103   3.367   3.258
 3743TIP3    H111186   5.160   3.300   3.219
 3743TIP3    H211187   5.070   3.417   3.183
 3744TIP3   OH211188   4.524   3.201   2.021
 3744TIP3    H111189   4.575   3.188   2.101
 3744TIP3    H211190   4.465   3.126   2.018
 3745TIP3   OH211191   3.223   3.187   2.847
 3745TIP3    H111192   3.281   3.111   2.853
 3745TIP3    H211193   3.283   3.261   2.834
 3746TIP3   OH211194   3.026   3.465   2.910
 3746TIP3    H111195   3.075   3.458   2.828
 3746TIP3    H211196   3.067   3.537   2.957
 3747TIP3   OH211197   4.963   3.497   3.063
 3747TIP3    H111198   4.880   3.539   3.083
 3747TIP3    H211199   4.940   3.422   3.009
 3748TIP3   OH211200   4.604   3.135   1.651
 3748TIP3    H111201   4.645   3.064   1.602
 3748TIP3    H211202   4.670   3.204   1.653
 3749TIP3   OH211203   3.011   2.969   2.419
 3749TIP3    H111204   2.919   2.956   2.442
 3749TIP3    H211205   3.008   3.022   2.340
 3750TIP3   OH211206   4.170   4.673   1.920
 3750TIP3    H111207   4.216   4.657   1.837
 3750TIP3    H211208   4.226   4.734   1.967
 3751TIP3   OH211209   3.230   3.053   3.232
 3751TIP3    H111210   3.181   3.041   3.313
 3751TIP3    H211211   3.164   3.077   3.167
 3752TIP3   OH211212   3.270   4.475   3.301
 3752TIP3    H111213   3.179   4.448   3.292
 3752TIP3    H211214   3.291   4.459   3.393
 3753TIP3   OH211215   3.452   4.510   2.848
 3753TIP3    H111216   3.404   4.584   2.812
 3753TIP3    H211217   3.539   4.517   2.808
 3754TIP3   OH211218   3.893   4.751   2.991
 3754TIP3    H111219   3.933   4.748   3.078
 3754TIP3    H211220   3.956   4.800   2.938
 3755TIP3   OH211221   4.073   4.904   2.852
 3755TIP3    H111222   4.140   4.852   2.806
 3755TIP3    H211223   4.123   4.959   2.912
 3756TIP3   OH211224   4.865   3.254   2.949
 3756TIP3    H111225   4.775   3.241   2.920
 3756TIP3    H211226   4.906   3.168   2.942
 3757TIP3   OH211227   3.121   4.760   2.880
 3757TIP3    H111228   3.033   4.790   2.857
 3757TIP3    H211229   3.144   4.809   2.958
 3758TIP3   OH211230   3.359   4.741   2.735
 3758TIP3    H111231   3.274   4.752   2.778
 3758TIP3    H211232   3.345   4.773   2.646
 3759TIP3   OH211233   3.786   4.769   2.535
 3759TIP3    H111234   3.721   4.786   2.466
 3759TIP3    H211235   3.800   4.854   2.576
 3760TIP3   OH211236   4.057   4.707   2.586
 3760TIP3    H111237   3.965   4.724   2.567
 3760TIP3    H211238   4.104   4.777   2.541
 3761TIP3   OH211239   4.261   4.897   2.495
 3761TIP3    H111240   4.249   4.981   2.450
 3761TIP3    H211241   4.290   4.837   2.425
 3762TIP3   OH211242   3.040   4.551   2.619
 3762TIP3    H111243   3.061   4.528   2.710
 3762TIP3    H211244   3.110   4.511   2.567
 3763TIP3   OH211245   3.236   4.425   2.480
 3763TIP3    H111246   3.249   4.343   2.527
 3763TIP3    H211247   3.323   4.464   2.475
 3764TIP3   OH211248   3.500   4.517   2.489
 3764TIP3    H111249   3.531   4.428   2.473
 3764TIP3    H211250   3.546   4.545   2.568
 3765TIP3   OH211251   4.061   3.169   2.554
 3765TIP3    H111252   4.027   3.102   2.614
 3765TIP3    H211253   4.143   3.132   2.521
 3766TIP3   OH211254   4.590   3.058   2.468
 3766TIP3    H111255   4.629   3.108   2.396
 3766TIP3    H211256   4.497   3.081   2.464
 3767TIP3   OH211257   4.692   3.159   2.233
 3767TIP3    H111258   4.763   3.104   2.200
 3767TIP3    H211259   4.724   3.249   2.221
 3768TIP3   OH211260   3.320   2.881   2.582
 3768TIP3    H111261   3.229   2.852   2.588
 3768TIP3    H211262   3.371   2.801   2.579
 3769TIP3   OH211263   3.112   2.759   2.235
 3769TIP3    H111264   3.141   2.811   2.160
 3769TIP3    H211265   3.087   2.823   2.301
 3770TIP3   OH211266   3.766   2.923   2.469
 3770TIP3    H111267   3.821   2.966   2.403
 3770TIP3    H211268   3.802   2.952   2.553
 3771TIP3   OH211269   4.302   3.062   2.450
 3771TIP3    H111270   4.317   3.021   2.365
 3771TIP3    H211271   4.294   2.988   2.511
 3772TIP3   OH211272   4.340   2.988   2.013
 3772TIP3    H111273   4.257   3.032   2.028
 3772TIP3    H211274   4.331   2.903   2.057
 3773TIP3   OH211275   2.823   4.336   2.017
 3773TIP3    H111276   2.740   4.299   1.986
 3773TIP3    H211277   2.821   4.427   1.988
 3774TIP3   OH211278   3.231   2.915   1.994
 3774TIP3    H111279   3.275   2.850   1.938
 3774TIP3    H211280   3.303   2.967   2.029
 3775TIP3   OH211281   3.739   3.095   2.097
 3775TIP3    H111282   3.797   3.044   2.153
 3775TIP3    H211283   3.759   3.186   2.119
 3776TIP3   OH211284   3.601   4.510   1.593
 3776TIP3    H111285   3.687   4.537   1.562
 3776TIP3    H211286   3.575   4.438   1.536
 3777TIP3   OH211287   4.309   4.632   1.687
 3777TIP3    H111288   4.306   4.537   1.677
 3777TIP3    H211289   4.272   4.666   1.606
 3778TIP3   OH211290   3.531   3.165   3.480
 3778TIP3    H111291   3.495   3.092   3.530
 3778TIP3    H211292   3.624   3.166   3.503
 3779TIP3   OH211293   3.781   3.161   3.594
 3779TIP3    H111294   3.865   3.137   3.555
 3779TIP3    H211295   3.768   3.096   3.663
 3780TIP3   OH211296   2.903   4.346   1.649
 3780TIP3    H111297   2.911   4.377   1.739
 3780TIP3    H211298   2.987   4.304   1.630
 3781TIP3   OH211299   4.606   3.227   3.382
 3781TIP3    H111300   4.620   3.193   3.471
 3781TIP3    H211301   4.691   3.218   3.339
 3782TIP3   OH211302   4.537   4.779   2.876
 3782TIP3    H111303   4.464   4.746   2.824
 3782TIP3    H211304   4.522   4.873   2.881
 3783TIP3   OH211305   5.808   4.155   1.635
 3783TIP3    H111306   5.780   4.244   1.615
 3783TIP3    H211307   5.735   4.100   1.607
 3784TIP3   OH211308   5.810   4.150   2.027
 3784TIP3    H111309   5.845   4.126   2.113
 3784TIP3    H211310   5.769   4.070   1.995
 3785TIP3   OH211311   5.107   4.043   2.392
 3785TIP3    H111312   5.134   3.974   2.452
 3785TIP3    H211313   5.187   4.092   2.373
 3786TIP3   OH211314   6.055   4.454   1.706
 3786TIP3    H111315   6.037   4.384   1.769
 3786TIP3    H211316   6.084   4.528   1.760
 3787TIP3   OH211317   5.084   4.454   2.112
 3787TIP3    H111318   5.072   4.359   2.112
 3787TIP3    H211319   5.178   4.466   2.100
 3788TIP3   OH211320   4.784   3.655   1.890
 3788TIP3    H111321   4.742   3.739   1.911
 3788TIP3    H211322   4.715   3.603   1.850
 3789TIP3   OH211323   4.845   3.943   2.072
 3789TIP3    H111324   4.892   3.867   2.105
 3789TIP3    H211325   4.904   3.982   2.008
 3790TIP3   OH211326   5.709   4.916   1.723
 3790TIP3    H111327   5.749   4.848   1.668
 3790TIP3    H211328   5.693   4.873   1.807
 3791TIP3   OH211329   5.610   4.377   2.069
 3791TIP3    H111330   5.644   4.298   2.027
 3791TIP3    H211331   5.688   4.426   2.095
 3792TIP3   OH211332   6.642   3.698   2.058
 3792TIP3    H111333   6.659   3.779   2.106
 3792TIP3    H211334   6.654   3.722   1.966
 3793TIP3   OH211335   6.020   3.881   2.096
 3793TIP3    H111336   6.058   3.797   2.122
 3793TIP3    H211337   5.986   3.864   2.008
 3794TIP3   OH211338   5.357   3.537   2.064
 3794TIP3    H111339   5.342   3.610   2.003
 3794TIP3    H211340   5.310   3.463   2.024
 3795TIP3   OH211341   6.059   3.627   1.686
 3795TIP3    H111342   6.123   3.610   1.755
 3795TIP3    H211343   6.110   3.664   1.614
 3796TIP3   OH211344   4.995   3.737   2.171
 3796TIP3    H111345   5.074   3.721   2.222
 3796TIP3    H211346   5.006   3.684   2.092
 3797TIP3   OH211347   5.432   3.934   1.973
 3797TIP3    H111348   5.525   3.913   1.984
 3797TIP3    H211349   5.393   3.853   1.939
 3798TIP3   OH211350   6.695   3.909   2.233
 3798TIP3    H111351   6.611   3.948   2.208
 3798TIP3    H211352   6.697   3.917   2.328
 3799TIP3   OH211353   5.354   3.524   2.501
 3799TIP3    H111354   5.295   3.558   2.433
 3799TIP3    H211355   5.305   3.534   2.582
 3800TIP3   OH211356   5.698   4.374   1.503
 3800TIP3    H111357   5.656   4.356   1.419
 3800TIP3    H211358   5.655   4.454   1.535
 3801TIP3   OH211359   5.462   4.299   2.291
 3801TIP3    H111360   5.402   4.364   2.329
 3801TIP3    H211361   5.503   4.344   2.218
 3802TIP3   OH211362   6.259   3.634   1.869
 3802TIP3    H111363   6.230   3.596   1.952
 3802TIP3    H211364   6.308   3.712   1.894
 3803TIP3   OH211365   5.228   3.637   2.283
 3803TIP3    H111366   5.288   3.706   2.311
 3803TIP3    H211367   5.273   3.594   2.210
 3804TIP3   OH211368   5.288   4.495   2.396
 3804TIP3    H111369   5.266   4.579   2.355
 3804TIP3    H211370   5.212   4.474   2.449
 3805TIP3   OH211371   4.678   4.184   1.629
 3805TIP3    H111372   4.643   4.210   1.544
 3805TIP3    H211373   4.713   4.265   1.666
 3806TIP3   OH211374   6.121   4.701   1.870
 3806TIP3    H111375   6.034   4.688   1.910
 3806TIP3    H211376   6.113   4.784   1.823
 3807TIP3   OH211377   6.448   3.620   2.266
 3807TIP3    H111378   6.367   3.570   2.258
 3807TIP3    H211379   6.478   3.631   2.175
 3808TIP3   OH211380   5.695   3.236   2.204
 3808TIP3    H111381   5.696   3.144   2.231
 3808TIP3    H211382   5.625   3.276   2.255
 3809TIP3   OH211383   5.825   4.742   1.540
 3809TIP3    H111384   5.869   4.659   1.525
 3809TIP3    H211385   5.884   4.808   1.503
 3810TIP3   OH211386   5.966   4.525   1.456
 3810TIP3    H111387   5.921   4.449   1.420
 3810TIP3    H211388   6.005   4.493   1.538
 3811TIP3   OH211389   6.347   4.608   2.211
 3811TIP3    H111390   6.335   4.530   2.156
 3811TIP3    H211391   6.330   4.682   2.152
 3812TIP3   OH211392   5.640   4.002   1.471
 3812TIP3    H111393   5.561   4.053   1.456
 3812TIP3    H211394   5.685   4.002   1.387
 3813TIP3   OH211395   5.600   3.790   1.182
 3813TIP3    H111396   5.661   3.842   1.234
 3813TIP3    H211397   5.656   3.727   1.136
 3814TIP3   OH211398   6.542   4.254   2.058
 3814TIP3    H111399   6.459   4.299   2.065
 3814TIP3    H211400   6.573   4.273   1.970
 3815TIP3   OH211401   5.990   4.085   1.444
 3815TIP3    H111402   5.933   4.109   1.518
 3815TIP3    H211403   6.073   4.061   1.484
 3816TIP3   OH211404   6.219   4.127   2.355
 3816TIP3    H111405   6.218   4.207   2.407
 3816TIP3    H211406   6.135   4.126   2.311
 3817TIP3   OH211407   5.221   4.079   1.861
 3817TIP3    H111408   5.180   4.025   1.793
 3817TIP3    H211409   5.295   4.028   1.891
 3818TIP3   OH211410   5.348   4.491   2.007
 3818TIP3    H111411   5.326   4.461   1.919
 3818TIP3    H211412   5.435   4.455   2.023
 3819TIP3   OH211413   5.350   4.056   2.214
 3819TIP3    H111414   5.384   4.026   2.129
 3819TIP3    H211415   5.396   4.138   2.231
 3820TIP3   OH211416   5.883   4.692   1.993
 3820TIP3    H111417   5.869   4.770   2.047
 3820TIP3    H211418   5.866   4.619   2.052
 3821TIP3   OH211419   5.492   4.612   2.539
 3821TIP3    H111420   5.433   4.672   2.584
 3821TIP3    H211421   5.434   4.557   2.487
 3822TIP3   OH211422   5.830   3.945   1.267
 3822TIP3    H111423   5.885   4.004   1.319
 3822TIP3    H211424   5.853   3.963   1.176
 3823TIP3   OH211425   5.249   4.167   2.646
 3823TIP3    H111426   5.254   4.254   2.686
 3823TIP3    H211427   5.157   4.143   2.652
 3824TIP3   OH211428   5.574   4.620   1.543
 3824TIP3    H111429   5.653   4.672   1.553
 3824TIP3    H211430   5.511   4.681   1.503
 3825TIP3   OH211431   5.286   4.778   2.625
 3825TIP3    H111432   5.255   4.780   2.534
 3825TIP3    H211433   5.208   4.755   2.676
 3826TIP3   OH211434   6.341   3.183   1.318
 3826TIP3    H111435   6.262   3.201   1.369
 3826TIP3    H211436   6.358   3.264   1.270
 3827TIP3   OH211437   5.085   3.927   1.661
 3827TIP3    H111438   5.019   3.970   1.607
 3827TIP3    H211439   5.051   3.839   1.675
 3828TIP3   OH211440   6.144   4.550   0.866
 3828TIP3    H111441   6.149   4.644   0.852
 3828TIP3    H211442   6.234   4.519   0.857
 3829TIP3   OH211443   4.866   4.309   2.572
 3829TIP3    H111444   4.802   4.288   2.504
 3829TIP3    H211445   4.905   4.224   2.594
 3830TIP3   OH211446   4.724   4.501   2.207
 3830TIP3    H111447   4.818   4.492   2.191
 3830TIP3    H211448   4.716   4.580   2.261
 3831TIP3   OH211449   6.583   4.954   2.264
 3831TIP3    H111450   6.585   4.859   2.275
 3831TIP3    H211451   6.502   4.981   2.307
 3832TIP3   OH211452   5.689   4.740   2.398
 3832TIP3    H111453   5.688   4.831   2.427
 3832TIP3    H211454   5.620   4.697   2.448
 3833TIP3   OH211455   5.455   4.866   1.351
 3833TIP3    H111456   5.416   4.845   1.266
 3833TIP3    H211457   5.419   4.952   1.373
 3834TIP3   OH211458   4.882   4.715   1.738
 3834TIP3    H111459   4.936   4.708   1.816
 3834TIP3    H211460   4.834   4.632   1.734
 3835TIP3   OH211461   5.658   4.773   0.985
 3835TIP3    H111462   5.714   4.704   0.950
 3835TIP3    H211463   5.688   4.784   1.075
 3836TIP3   OH211464   5.705   4.819   1.257
 3836TIP3    H111465   5.616   4.829   1.292
 3836TIP3    H211466   5.753   4.776   1.327
 3837TIP3   OH211467   6.474   4.080   2.522
 3837TIP3    H111468   6.388   4.090   2.483
 3837TIP3    H211469   6.494   3.987   2.515
 3838TIP3   OH211470   5.070   4.493   2.560
 3838TIP3    H111471   5.121   4.475   2.639
 3838TIP3    H211472   4.997   4.431   2.563
 3839TIP3   OH211473   5.466   3.317   2.346
 3839TIP3    H111474   5.381   3.284   2.317
 3839TIP3    H211475   5.445   3.394   2.398
 3840TIP3   OH211476   5.998   3.464   2.570
 3840TIP3    H111477   6.071   3.403   2.574
 3840TIP3    H211478   5.920   3.410   2.580
 3841TIP3   OH211479   6.251   3.869   2.469
 3841TIP3    H111480   6.194   3.862   2.546
 3841TIP3    H211481   6.219   3.947   2.423
 3842TIP3   OH211482   5.902   3.983   1.008
 3842TIP3    H111483   5.868   3.960   0.922
 3842TIP3    H211484   5.983   4.031   0.990
 3843TIP3   OH211485   5.614   3.361   1.319
 3843TIP3    H111486   5.584   3.361   1.410
 3843TIP3    H211487   5.577   3.281   1.281
 3844TIP3   OH211488   5.402   3.835   2.365
 3844TIP3    H111489   5.353   3.852   2.445
 3844TIP3    H211490   5.387   3.913   2.311
 3845TIP3   OH211491   5.284   3.717   1.875
 3845TIP3    H111492   5.195   3.693   1.898
 3845TIP3    H211493   5.299   3.677   1.790
 3846TIP3   OH211494   5.778   3.804   1.606
 3846TIP3    H111495   5.727   3.873   1.564
 3846TIP3    H211496   5.832   3.768   1.535
 3847TIP3   OH211497   5.953   4.079   2.696
 3847TIP3    H111498   5.929   4.007   2.753
 3847TIP3    H211499   6.048   4.090   2.709
 3848TIP3   OH211500   5.933   3.828   1.838
 3848TIP3    H111501   5.869   3.856   1.772
 3848TIP3    H211502   5.971   3.748   1.802
 3849TIP3   OH211503   5.221   3.858   2.574
 3849TIP3    H111504   5.258   3.918   2.639
 3849TIP3    H211505   5.211   3.776   2.622
 3850TIP3   OH211506   5.268   3.338   1.282
 3850TIP3    H111507   5.265   3.335   1.378
 3850TIP3    H211508   5.195   3.394   1.257
 3851TIP3   OH211509   4.818   3.380   2.151
 3851TIP3    H111510   4.888   3.413   2.208
 3851TIP3    H211511   4.864   3.350   2.073
 3852TIP3   OH211512   4.779   3.363   1.669
 3852TIP3    H111513   4.829   3.394   1.594
 3852TIP3    H211514   4.720   3.435   1.691
 3853TIP3   OH211515   5.945   4.074   2.267
 3853TIP3    H111516   5.978   4.009   2.205
 3853TIP3    H211517   5.914   4.023   2.342
 3854TIP3   OH211518   5.614   3.549   1.939
 3854TIP3    H111519   5.538   3.541   1.997
 3854TIP3    H211520   5.689   3.523   1.993
 3855TIP3   OH211521   5.048   3.595   1.944
 3855TIP3    H111522   4.956   3.602   1.916
 3855TIP3    H211523   5.073   3.505   1.923
 3856TIP3   OH211524   5.313   3.590   1.636
 3856TIP3    H111525   5.406   3.605   1.618
 3856TIP3    H211526   5.269   3.611   1.554
 3857TIP3   OH211527   6.098   3.620   2.137
 3857TIP3    H111528   6.076   3.629   2.230
 3857TIP3    H211529   6.054   3.539   2.110
 3858TIP3   OH211530   5.163   3.624   1.409
 3858TIP3    H111531   5.090   3.582   1.364
 3858TIP3    H211532   5.215   3.663   1.339
 3859TIP3   OH211533   6.280   5.306   2.360
 3859TIP3    H111534   6.276   5.328   2.267
 3859TIP3    H211535   6.358   5.351   2.391
 3860TIP3   OH211536   5.233   4.417   2.783
 3860TIP3    H111537   5.314   4.443   2.827
 3860TIP3    H211538   5.168   4.412   2.853
 3861TIP3   OH211539   5.697   3.870   2.040
 3861TIP3    H111540   5.766   3.827   1.989
 3861TIP3    H211541   5.696   3.825   2.124
 3862TIP3   OH211542   5.213   3.353   1.918
 3862TIP3    H111543   5.178   3.279   1.969
 3862TIP3    H211544   5.270   3.312   1.854
 3863TIP3   OH211545   5.672   3.772   2.318
 3863TIP3    H111546   5.583   3.802   2.338
 3863TIP3    H211547   5.729   3.828   2.372
 3864TIP3   OH211548   5.411   4.151   1.424
 3864TIP3    H111549   5.338   4.091   1.406
 3864TIP3    H211550   5.391   4.187   1.510
 3865TIP3   OH211551   6.306   4.392   2.045
 3865TIP3    H111552   6.330   4.442   1.967
 3865TIP3    H211553   6.225   4.347   2.021
 3866TIP3   OH211554   5.863   3.470   1.276
 3866TIP3    H111555   5.772   3.448   1.293
 3866TIP3    H211556   5.872   3.560   1.310
 3867TIP3   OH211557   5.811   4.477   2.416
 3867TIP3    H111558   5.838   4.452   2.505
 3867TIP3    H211559   5.770   4.563   2.427
 3868TIP3   OH211560   5.936   3.715   1.388
 3868TIP3    H111561   6.030   3.721   1.407
 3868TIP3    H211562   5.917   3.796   1.340
 3869TIP3   OH211563   5.103   4.176   2.093
 3869TIP3    H111564   5.138   4.151   2.007
 3869TIP3    H211565   5.151   4.120   2.155
 3870TIP3   OH211566   5.549   4.310   1.247
 3870TIP3    H111567   5.500   4.392   1.247
 3870TIP3    H211568   5.499   4.252   1.304
 3871TIP3   OH211569   4.982   4.098   2.712
 3871TIP3    H111570   5.002   4.083   2.805
 3871TIP3    H211571   4.917   4.031   2.690
 3872TIP3   OH211572   5.713   4.213   2.727
 3872TIP3    H111573   5.650   4.156   2.683
 3872TIP3    H211574   5.798   4.178   2.702
 3873TIP3   OH211575   5.967   4.741   2.315
 3873TIP3    H111576   5.872   4.732   2.326
 3873TIP3    H211577   5.996   4.789   2.392
 3874TIP3   OH211578   6.375   3.809   1.219
 3874TIP3    H111579   6.316   3.762   1.160
 3874TIP3    H211580   6.376   3.899   1.186
 3875TIP3   OH211581   6.597   4.667   2.298
 3875TIP3    H111582   6.502   4.660   2.296
 3875TIP3    H211583   6.625   4.635   2.212
 3876TIP3   OH211584   6.087   4.624   1.133
 3876TIP3    H111585   6.051   4.558   1.193
 3876TIP3    H211586   6.093   4.579   1.049
 3877TIP3   OH211587   6.074   4.252   1.962
 3877TIP3    H111588   5.982   4.231   1.979
 3877TIP3    H211589   6.110   4.174   1.921
 3878TIP3   OH211590   5.205   4.482   1.731
 3878TIP3    H111591   5.204   4.565   1.684
 3878TIP3    H211592   5.114   4.454   1.734
 3879TIP3   OH211593   4.768   3.787   1.428
 3879TIP3    H111594   4.814   3.869   1.444
 3879TIP3    H211595   4.693   3.789   1.487
 3880TIP3   OH211596   5.336   4.246   1.665
 3880TIP3    H111597   5.305   4.335   1.683
 3880TIP3    H211598   5.303   4.193   1.737
 3881TIP3   OH211599   5.476   4.825   2.190
 3881TIP3    H111600   5.515   4.896   2.139
 3881TIP3    H211601   5.550   4.785   2.236
 3882TIP3   OH211602   5.140   4.720   1.607
 3882TIP3    H111603   5.045   4.725   1.615
 3882TIP3    H211604   5.166   4.808   1.581
 3883TIP3   OH211605   5.861   4.459   2.150
 3883TIP3    H111606   5.848   4.458   2.245
 3883TIP3    H211607   5.936   4.402   2.136
 3884TIP3   OH211608   5.839   4.352   1.034
 3884TIP3    H111609   5.888   4.327   1.112
 3884TIP3    H211610   5.749   4.324   1.053
 3885TIP3   OH211611   6.107   4.991   2.198
 3885TIP3    H111612   6.031   4.934   2.196
 3885TIP3    H211613   6.092   5.054   2.128
 3886TIP3   OH211614   6.170   4.824   0.851
 3886TIP3    H111615   6.197   4.879   0.777
 3886TIP3    H211616   6.097   4.870   0.890
 3887TIP3   OH211617   5.191   3.604   2.715
 3887TIP3    H111618   5.095   3.602   2.723
 3887TIP3    H211619   5.221   3.541   2.781
 3888TIP3   OH211620   6.001   4.282   1.247
 3888TIP3    H111621   5.987   4.220   1.320
 3888TIP3    H211622   6.096   4.281   1.234
 3889TIP3   OH211623   4.911   4.687   2.350
 3889TIP3    H111624   4.963   4.611   2.378
 3889TIP3    H211625   4.943   4.759   2.404
 3890TIP3   OH211626   5.230   4.314   1.031
 3890TIP3    H111627   5.223   4.221   1.009
 3890TIP3    H211628   5.192   4.321   1.119
 3891TIP3   OH211629   5.152   4.334   1.292
 3891TIP3    H111630   5.219   4.326   1.360
 3891TIP3    H211631   5.124   4.425   1.298
 3892TIP3   OH211632   4.877   4.034   1.507
 3892TIP3    H111633   4.813   4.076   1.564
 3892TIP3    H211634   4.893   4.098   1.438
 3893TIP3   OH211635   6.035   3.677   2.407
 3893TIP3    H111636   6.125   3.699   2.432
 3893TIP3    H211637   6.012   3.603   2.462
 3894TIP3   OH211638   5.919   3.416   1.567
 3894TIP3    H111639   5.904   3.440   1.475
 3894TIP3    H211640   5.956   3.495   1.607
 3895TIP3   OH211641   5.405   4.540   1.253
 3895TIP3    H111642   5.338   4.583   1.307
 3895TIP3    H211643   5.424   4.603   1.184
 3896TIP3   OH211644   5.597   3.602   1.670
 3896TIP3    H111645   5.659   3.673   1.653
 3896TIP3    H211646   5.601   3.588   1.764
 3897TIP3   OH211647   5.873   3.910   2.471
 3897TIP3    H111648   5.899   3.954   2.552
 3897TIP3    H211649   5.924   3.830   2.469
 3898TIP3   OH211650   5.746   3.319   1.766
 3898TIP3    H111651   5.759   3.380   1.839
 3898TIP3    H211652   5.804   3.352   1.697
 3899TIP3   OH211653   5.260   3.327   1.557
 3899TIP3    H111654   5.252   3.414   1.597
 3899TIP3    H211655   5.352   3.305   1.565
 3900TIP3   OH211656   6.511   3.811   2.448
 3900TIP3    H111657   6.419   3.826   2.470
 3900TIP3    H211658   6.509   3.747   2.378
 3901TIP3   OH211659   6.161   4.009   1.844
 3901TIP3    H111660   6.084   3.954   1.857
 3901TIP3    H211661   6.231   3.964   1.891
 3902TIP3   OH211662   4.868   4.243   1.313
 3902TIP3    H111663   4.888   4.336   1.305
 3902TIP3    H211664   4.928   4.200   1.252
 3903TIP3   OH211665   4.814   3.517   1.447
 3903TIP3    H111666   4.822   3.612   1.445
 3903TIP3    H211667   4.733   3.498   1.400
 3904TIP3   OH211668   6.131   4.972   1.789
 3904TIP3    H111669   6.086   5.017   1.718
 3904TIP3    H211670   6.224   4.987   1.770
 3905TIP3   OH211671   5.201   3.234   2.319
 3905TIP3    H111672   5.175   3.199   2.234
 3905TIP3    H211673   5.193   3.159   2.379
 3906TIP3   OH211674   4.747   4.450   1.699
 3906TIP3    H111675   4.675   4.482   1.753
 3906TIP3    H211676   4.730   4.486   1.612
 3907TIP3   OH211677   4.905   4.998   2.774
 3907TIP3    H111678   4.990   5.000   2.817
 3907TIP3    H211679   4.883   4.905   2.768
 3908TIP3   OH211680   5.382   4.953   2.816
 3908TIP3    H111681   5.476   4.937   2.821
 3908TIP3    H211682   5.352   4.897   2.745
 3909TIP3   OH211683   5.362   4.532   0.940
 3909TIP3    H111684   5.304   4.467   0.979
 3909TIP3    H211685   5.438   4.482   0.911
 3910TIP3   OH211686   6.019   4.869   2.554
 3910TIP3    H111687   6.012   4.799   2.619
 3910TIP3    H211688   6.097   4.918   2.581
 3911TIP3   OH211689   5.800   4.572   0.862
 3911TIP3    H111690   5.837   4.506   0.920
 3911TIP3    H211691   5.854   4.567   0.783
 3912TIP3   OH211692   5.030   4.402   2.972
 3912TIP3    H111693   5.050   4.309   2.978
 3912TIP3    H211694   4.946   4.406   2.926
 3913TIP3   OH211695   5.013   4.048   1.168
 3913TIP3    H111696   5.066   4.026   1.244
 3913TIP3    H211697   5.076   4.055   1.096
 3914TIP3   OH211698   5.636   4.488   2.745
 3914TIP3    H111699   5.597   4.509   2.660
 3914TIP3    H211700   5.668   4.399   2.736
 3915TIP3   OH211701   5.541   4.250   0.974
 3915TIP3    H111702   5.524   4.268   1.066
 3915TIP3    H211703   5.528   4.156   0.966
 3916TIP3   OH211704   6.132   4.503   2.354
 3916TIP3    H111705   6.209   4.542   2.311
 3916TIP3    H211706   6.061   4.565   2.337
 3917TIP3   OH211707   5.154   4.144   2.954
 3917TIP3    H111708   5.225   4.088   2.924
 3917TIP3    H211709   5.181   4.172   3.042
 3918TIP3   OH211710   5.216   3.957   1.387
 3918TIP3    H111711   5.189   3.920   1.471
 3918TIP3    H211712   5.252   3.883   1.338
 3919TIP3   OH211713   5.485   4.022   2.615
 3919TIP3    H111714   5.408   4.079   2.616
 3919TIP3    H211715   5.537   4.054   2.542
 3920TIP3   OH211716   5.321   3.751   1.224
 3920TIP3    H111717   5.293   3.763   1.133
 3920TIP3    H211718   5.416   3.755   1.221
 3921TIP3   OH211719   6.009   4.424   2.750
 3921TIP3    H111720   6.082   4.392   2.697
 3921TIP3    H211721   5.997   4.358   2.818
 3922TIP3   OH211722   6.136   4.080   0.891
 3922TIP3    H111723   6.118   4.034   0.810
 3922TIP3    H211724   6.105   4.170   0.876
 3923TIP3   OH211725   5.609   3.810   2.738
 3923TIP3    H111726   5.612   3.732   2.683
 3923TIP3    H211727   5.566   3.876   2.683
 3924TIP3   OH211728   5.612   3.602   2.549
 3924TIP3    H111729   5.643   3.635   2.465
 3924TIP3    H211730   5.521   3.576   2.532
 3925TIP3   OH211731   5.636   4.134   2.425
 3925TIP3    H111732   5.721   4.139   2.382
 3925TIP3    H211733   5.581   4.196   2.377
 3926TIP3   OH211734   6.226   4.099   2.804
 3926TIP3    H111735   6.260   4.010   2.800
 3926TIP3    H211736   6.299   4.154   2.774
 3927TIP3   OH211737   6.261   4.356   2.539
 3927TIP3    H111738   6.203   4.407   2.482
 3927TIP3    H211739   6.348   4.370   2.502
 3928TIP3   OH211740   5.489   3.916   2.972
 3928TIP3    H111741   5.423   3.849   2.991
 3928TIP3    H211742   5.522   3.894   2.886
 3929TIP3   OH211743   5.737   3.359   2.629
 3929TIP3    H111744   5.693   3.439   2.602
 3929TIP3    H211745   5.674   3.289   2.611
 3930TIP3   OH211746   5.864   3.861   2.835
 3930TIP3    H111747   5.851   3.847   2.928
 3930TIP3    H211748   5.781   3.837   2.795
 3931TIP3   OH211749   6.113   3.828   2.697
 3931TIP3    H111750   6.035   3.814   2.751
 3931TIP3    H211751   6.184   3.786   2.746
 3932TIP3   OH211752   6.350   3.760   2.842
 3932TIP3    H111753   6.356   3.665   2.852
 3932TIP3    H211754   6.339   3.793   2.931
 3933TIP3   OH211755   5.328   3.700   3.031
 3933TIP3    H111756   5.325   3.611   2.995
 3933TIP3    H211757   5.364   3.689   3.119
 3934TIP3   OH211758   5.829   3.354   2.886
 3934TIP3    H111759   5.903   3.295   2.873
 3934TIP3    H211760   5.792   3.365   2.799
 3935TIP3   OH211761   5.902   3.582   3.034
 3935TIP3    H111762   5.883   3.511   2.972
 3935TIP3    H211763   5.827   3.641   3.027
 3936TIP3   OH211764   4.605   4.190   1.351
 3936TIP3    H111765   4.695   4.218   1.337
 3936TIP3    H211766   4.599   4.105   1.309
 3937TIP3   OH211767   4.517   4.806   1.769
 3937TIP3    H111768   4.459   4.746   1.723
 3937TIP3    H211769   4.565   4.750   1.830
 3938TIP3   OH211770   4.654   4.655   1.955
 3938TIP3    H111771   4.645   4.580   2.014
 3938TIP3    H211772   4.709   4.717   2.002
 3939TIP3   OH211773   6.387   5.056   1.753
 3939TIP3    H111774   6.411   5.086   1.841
 3939TIP3    H211775   6.449   5.100   1.695
 3940TIP3   OH211776   6.414   5.074   2.035
 3940TIP3    H111777   6.365   4.992   2.028
 3940TIP3    H211778   6.488   5.053   2.092
 3941TIP3   OH211779   6.455   4.761   2.603
 3941TIP3    H111780   6.385   4.766   2.669
 3941TIP3    H211781   6.500   4.845   2.610
 3942TIP3   OH211782   6.279   4.265   1.226
 3942TIP3    H111783   6.341   4.331   1.194
 3942TIP3    H211784   6.321   4.229   1.304
 3943TIP3   OH211785   6.404   4.134   1.432
 3943TIP3    H111786   6.338   4.092   1.487
 3943TIP3    H211787   6.467   4.170   1.494
 3944TIP3   OH211788   6.462   4.530   1.860
 3944TIP3    H111789   6.512   4.461   1.817
 3944TIP3    H211790   6.455   4.599   1.794
 3945TIP3   OH211791   6.285   4.830   2.053
 3945TIP3    H111792   6.215   4.868   2.106
 3945TIP3    H211793   6.240   4.783   1.983
 3946TIP3   OH211794   6.338   4.045   1.073
 3946TIP3    H111795   6.270   4.043   1.005
 3946TIP3    H211796   6.314   4.118   1.130
 3947TIP3   OH211797   6.214   3.711   1.024
 3947TIP3    H111798   6.164   3.753   0.953
 3947TIP3    H211799   6.192   3.619   1.017
 3948TIP3   OH211800   6.216   3.992   1.577
 3948TIP3    H111801   6.223   3.897   1.568
 3948TIP3    H211802   6.201   4.006   1.671
 3949TIP3   OH211803   4.843   4.065   2.322
 3949TIP3    H111804   4.838   4.031   2.232
 3949TIP3    H211805   4.937   4.067   2.341
 3950TIP3   OH211806   6.507   4.415   2.428
 3950TIP3    H111807   6.576   4.349   2.422
 3950TIP3    H211808   6.532   4.481   2.363
 3951TIP3   OH211809   6.692   4.217   2.444
 3951TIP3    H111810   6.615   4.172   2.476
 3951TIP3    H211811   6.764   4.155   2.459
 3952TIP3   OH211812   6.157   3.445   1.006
 3952TIP3    H111813   6.227   3.418   1.066
 3952TIP3    H211814   6.082   3.392   1.033
 3953TIP3   OH211815   6.216   3.707   1.465
 3953TIP3    H111816   6.252   3.620   1.482
 3953TIP3    H211817   6.272   3.743   1.396
 3954TIP3   OH211818   6.376   3.879   1.964
 3954TIP3    H111819   6.458   3.903   1.922
 3954TIP3    H211820   6.384   3.909   2.054
 3955TIP3   OH211821   6.445   4.028   2.191
 3955TIP3    H111822   6.369   4.056   2.242
 3955TIP3    H211823   6.478   4.108   2.150
 3956TIP3   OH211824   5.063   3.751   3.005
 3956TIP3    H111825   5.158   3.746   3.002
 3956TIP3    H211826   5.036   3.665   3.037
 3957TIP3   OH211827   6.915   3.615   2.750
 3957TIP3    H111828   6.968   3.551   2.702
 3957TIP3    H211829   6.871   3.665   2.682
 3958TIP3   OH211830   6.321   3.457   1.505
 3958TIP3    H111831   6.369   3.446   1.586
 3958TIP3    H211832   6.260   3.384   1.503
 3959TIP3   OH211833   5.022   3.445   2.329
 3959TIP3    H111834   5.078   3.367   2.337
 3959TIP3    H211835   5.084   3.518   2.319
 3960TIP3   OH211836   4.821   3.720   2.393
 3960TIP3    H111837   4.871   3.712   2.312
 3960TIP3    H211838   4.856   3.798   2.436
 3961TIP3   OH211839   6.762   3.746   2.566
 3961TIP3    H111840   6.687   3.799   2.593
 3961TIP3    H211841   6.727   3.684   2.502
 3962TIP3   OH211842   6.400   3.391   1.139
 3962TIP3    H111843   6.439   3.321   1.088
 3962TIP3    H211844   6.466   3.460   1.139
 3963TIP3   OH211845   4.807   3.217   1.896
 3963TIP3    H111846   4.717   3.215   1.929
 3963TIP3    H211847   4.804   3.277   1.822
 3964TIP3   OH211848   5.972   4.927   1.407
 3964TIP3    H111849   6.018   4.913   1.324
 3964TIP3    H211850   6.024   4.993   1.453
 3965TIP3   OH211851   5.029   3.319   2.722
 3965TIP3    H111852   4.978   3.294   2.799
 3965TIP3    H211853   4.963   3.337   2.654
 3966TIP3   OH211854   5.066   4.734   2.790
 3966TIP3    H111855   4.976   4.705   2.771
 3966TIP3    H211856   5.080   4.708   2.881
 3967TIP3   OH211857   5.249   4.769   2.339
 3967TIP3    H111858   5.199   4.842   2.301
 3967TIP3    H211859   5.335   4.776   2.297
 3968TIP3   OH211860   5.690   5.007   2.480
 3968TIP3    H111861   5.731   5.005   2.567
 3968TIP3    H211862   5.752   5.056   2.426
 3969TIP3   OH211863   5.869   5.160   2.339
 3969TIP3    H111864   5.934   5.108   2.292
 3969TIP3    H211865   5.921   5.215   2.398
 3970TIP3   OH211866   6.654   3.518   2.432
 3970TIP3    H111867   6.572   3.531   2.384
 3970TIP3    H211868   6.675   3.426   2.420
 3971TIP3   OH211869   4.919   5.020   2.364
 3971TIP3    H111870   4.832   5.050   2.339
 3971TIP3    H211871   4.935   5.061   2.449
 3972TIP3   OH211872   5.158   5.001   2.223
 3972TIP3    H111873   5.072   5.011   2.265
 3972TIP3    H211874   5.143   5.028   2.133
 3973TIP3   OH211875   5.582   5.025   2.021
 3973TIP3    H111876   5.514   5.038   1.955
 3973TIP3    H211877   5.595   5.111   2.060
 3974TIP3   OH211878   5.852   4.966   2.074
 3974TIP3    H111879   5.759   4.980   2.054
 3974TIP3    H211880   5.898   5.036   2.026
 3975TIP3   OH211881   6.061   5.156   1.982
 3975TIP3    H111882   6.046   5.238   1.936
 3975TIP3    H211883   6.087   5.094   1.914
 3976TIP3   OH211884   4.834   4.808   2.110
 3976TIP3    H111885   4.859   4.784   2.199
 3976TIP3    H211886   4.902   4.769   2.054
 3977TIP3   OH211887   5.029   4.684   1.969
 3977TIP3    H111888   5.044   4.602   2.016
 3977TIP3    H211889   5.117   4.720   1.957
 3978TIP3   OH211890   5.299   4.778   1.973
 3978TIP3    H111891   5.324   4.688   1.952
 3978TIP3    H211892   5.344   4.797   2.055
 3979TIP3   OH211893   5.847   3.419   2.031
 3979TIP3    H111894   5.815   3.356   2.095
 3979TIP3    H211895   5.934   3.387   2.007
 3980TIP3   OH211896   6.393   3.305   1.951
 3980TIP3    H111897   6.423   3.361   1.880
 3980TIP3    H211898   6.305   3.336   1.970
 3981TIP3   OH211899   6.489   3.419   1.716
 3981TIP3    H111900   6.562   3.365   1.683
 3981TIP3    H211901   6.519   3.509   1.705
 3982TIP3   OH211902   5.116   3.138   2.069
 3982TIP3    H111903   5.026   3.108   2.076
 3982TIP3    H211904   5.168   3.057   2.066
 3983TIP3   OH211905   4.898   3.017   1.717
 3983TIP3    H111906   4.933   3.071   1.647
 3983TIP3    H211907   4.876   3.079   1.787
 3984TIP3   OH211908   5.564   3.177   1.955
 3984TIP3    H111909   5.617   3.224   1.891
 3984TIP3    H211910   5.598   3.206   2.040
 3985TIP3   OH211911   6.098   3.324   1.939
 3985TIP3    H111912   6.113   3.284   1.854
 3985TIP3    H211913   6.088   3.251   1.999
 3986TIP3   OH211914   6.136   3.245   1.499
 3986TIP3    H111915   6.055   3.292   1.517
 3986TIP3    H211916   6.126   3.161   1.543
 3987TIP3   OH211917   4.608   4.586   1.517
 3987TIP3    H111918   4.525   4.562   1.475
 3987TIP3    H211919   4.643   4.655   1.462
 3988TIP3   OH211920   5.027   3.173   1.480
 3988TIP3    H111921   5.072   3.109   1.424
 3988TIP3    H211922   5.097   3.226   1.516
 3989TIP3   OH211923   5.537   3.352   1.583
 3989TIP3    H111924   5.593   3.302   1.642
 3989TIP3    H211925   5.554   3.443   1.605
 3990TIP3   OH211926   5.406   4.768   1.093
 3990TIP3    H111927   5.487   4.784   1.045
 3990TIP3    H211928   5.353   4.714   1.033
 3991TIP3   OH211929   6.115   4.890   1.174
 3991TIP3    H111930   6.111   4.795   1.166
 3991TIP3    H211931   6.069   4.923   1.097
 3992TIP3   OH211932   5.324   3.433   2.971
 3992TIP3    H111933   5.286   3.355   3.013
 3992TIP3    H211934   5.417   3.429   2.994
 3993TIP3   OH211935   5.578   3.422   3.084
 3993TIP3    H111936   5.658   3.401   3.037
 3993TIP3    H211937   5.567   3.349   3.146
 3994TIP3   OH211938   6.405   3.489   2.870
 3994TIP3    H111939   6.419   3.455   2.958
 3994TIP3    H211940   6.489   3.476   2.826
 3995TIP3   OH211941   6.335   5.036   2.360
 3995TIP3    H111942   6.260   5.002   2.310
 3995TIP3    H211943   6.317   5.130   2.368
 3996TIP3   OH211944   7.601   4.412   1.126
 3996TIP3    H111945   7.573   4.501   1.104
 3996TIP3    H211946   7.527   4.357   1.101
 3997TIP3   OH211947   7.610   4.395   1.513
 3997TIP3    H111948   7.645   4.343   1.585
 3997TIP3    H211949   7.558   4.334   1.461
 3998TIP3   OH211950   6.904   4.299   1.873
 3998TIP3    H111951   6.928   4.229   1.934
 3998TIP3    H211952   6.982   4.355   1.869
 3999TIP3   OH211953   7.854   4.704   1.194
 3999TIP3    H111954   7.830   4.642   1.262
 3999TIP3    H211955   7.878   4.784   1.241
 4000TIP3   OH211956   6.878   4.711   1.595
 4000TIP3    H111957   6.866   4.616   1.596
 4000TIP3    H211958   6.973   4.724   1.593
 4001TIP3   OH211959   6.582   3.916   1.377
 4001TIP3    H111960   6.537   3.997   1.399
 4001TIP3    H211961   6.514   3.860   1.339
 4002TIP3   OH211962   6.642   4.201   1.560
 4002TIP3    H111963   6.688   4.124   1.593
 4002TIP3    H211964   6.698   4.234   1.490
 4003TIP3   OH211965   7.501   5.173   1.211
 4003TIP3    H111966   7.542   5.103   1.160
 4003TIP3    H211967   7.489   5.135   1.299
 4004TIP3   OH211968   7.407   4.637   1.555
 4004TIP3    H111969   7.439   4.556   1.517
 4004TIP3    H211970   7.486   4.685   1.581
 4005TIP3   OH211971   7.802   4.173   1.582
 4005TIP3    H111972   7.820   4.091   1.627
 4005TIP3    H211973   7.758   4.148   1.501
 4006TIP3   OH211974   7.154   3.793   1.551
 4006TIP3    H111975   7.138   3.867   1.491
 4006TIP3    H211976   7.108   3.719   1.510
 4007TIP3   OH211977   7.842   3.886   1.188
 4007TIP3    H111978   7.906   3.831   1.231
 4007TIP3    H211979   7.893   3.944   1.132
 4008TIP3   OH211980   6.791   3.994   1.659
 4008TIP3    H111981   6.870   3.978   1.710
 4008TIP3    H211982   6.801   3.940   1.581
 4009TIP3   OH211983   7.231   4.191   1.454
 4009TIP3    H111984   7.322   4.167   1.471
 4009TIP3    H211985   7.190   4.110   1.423
 4010TIP3   OH211986   7.148   3.779   1.989
 4010TIP3    H111987   7.092   3.814   1.920
 4010TIP3    H211988   7.098   3.794   2.069
 4011TIP3   OH211989   7.495   4.629   0.991
 4011TIP3    H111990   7.456   4.613   0.905
 4011TIP3    H211991   7.450   4.707   1.024
 4012TIP3   OH211992   7.257   4.557   1.776
 4012TIP3    H111993   7.198   4.621   1.816
 4012TIP3    H211994   7.300   4.605   1.705
 4013TIP3   OH211995   7.026   3.894   1.771
 4013TIP3    H111996   7.084   3.965   1.797
 4013TIP3    H211997   7.070   3.852   1.697
 4014TIP3   OH211998   7.085   4.754   1.883
 4014TIP3    H111999   7.063   4.839   1.846
 4014TIP3    H212000   7.009   4.730   1.936
 4015TIP3   OH212001   6.477   4.440   1.115
 4015TIP3    H112002   6.436   4.463   1.031
 4015TIP3    H212003   6.508   4.523   1.150
 4016TIP3   OH212004   7.916   4.953   1.352
 4016TIP3    H112005   7.832   4.940   1.397
 4016TIP3    H212006   7.907   5.040   1.312
 4017TIP3   OH212007   7.493   3.487   1.707
 4017TIP3    H112008   7.474   3.394   1.720
 4017TIP3    H212009   7.419   3.532   1.748
 4018TIP3   OH212010   7.621   5.000   1.030
 4018TIP3    H112011   7.661   4.915   1.012
 4018TIP3    H212012   7.681   5.063   0.991
 4019TIP3   OH212013   7.752   4.779   0.944
 4019TIP3    H112014   7.700   4.704   0.917
 4019TIP3    H212015   7.800   4.749   1.021
 4020TIP3   OH212016   8.143   4.858   1.702
 4020TIP3    H112017   8.145   4.784   1.642
 4020TIP3    H212018   8.137   4.935   1.645
 4021TIP3   OH212019   7.433   4.258   0.956
 4021TIP3    H112020   7.352   4.308   0.947
 4021TIP3    H212021   7.475   4.264   0.871
 4022TIP3   OH212022   7.391   4.055   0.677
 4022TIP3    H112023   7.459   4.098   0.729
 4022TIP3    H212024   7.435   3.981   0.636
 4023TIP3   OH212025   7.778   4.339   0.935
 4023TIP3    H112026   7.721   4.370   1.005
 4023TIP3    H212027   7.850   4.295   0.980
 4024TIP3   OH212028   8.018   4.362   1.824
 4024TIP3    H112029   8.024   4.429   1.892
 4024TIP3    H212030   7.925   4.360   1.801
 4025TIP3   OH212031   7.019   4.336   1.345
 4025TIP3    H112032   6.977   4.280   1.279
 4025TIP3    H212033   7.092   4.284   1.377
 4026TIP3   OH212034   7.150   4.755   1.491
 4026TIP3    H112035   7.126   4.714   1.408
 4026TIP3    H212036   7.236   4.719   1.511
 4027TIP3   OH212037   7.152   4.312   1.700
 4027TIP3    H112038   7.186   4.286   1.614
 4027TIP3    H212039   7.195   4.395   1.719
 4028TIP3   OH212040   7.681   4.948   1.478
 4028TIP3    H112041   7.666   5.027   1.529
 4028TIP3    H212042   7.662   4.876   1.538
 4029TIP3   OH212043   7.289   4.867   2.030
 4029TIP3    H112044   7.229   4.927   2.074
 4029TIP3    H212045   7.232   4.811   1.977
 4030TIP3   OH212046   7.629   4.204   0.751
 4030TIP3    H112047   7.677   4.261   0.811
 4030TIP3    H212048   7.670   4.218   0.666
 4031TIP3   OH212049   7.042   4.424   2.127
 4031TIP3    H112050   7.050   4.509   2.171
 4031TIP3    H212051   6.951   4.399   2.141
 4032TIP3   OH212052   7.372   4.874   1.034
 4032TIP3    H112053   7.453   4.924   1.042
 4032TIP3    H212054   7.311   4.933   0.989
 4033TIP3   OH212055   7.082   5.033   2.114
 4033TIP3    H112056   7.050   5.036   2.024
 4033TIP3    H212057   7.005   5.011   2.166
 4034TIP3   OH212058   6.883   4.183   1.144
 4034TIP3    H112059   6.814   4.226   1.094
 4034TIP3    H212060   6.848   4.097   1.166
 4035TIP3   OH212061   6.663   4.565   2.058
 4035TIP3    H112062   6.596   4.545   1.993
 4035TIP3    H212063   6.701   4.479   2.080
 4036TIP3   OH212064   6.518   4.762   1.688
 4036TIP3    H112065   6.613   4.753   1.682
 4036TIP3    H212066   6.504   4.837   1.745
 4037TIP3   OH212067   7.483   5.000   1.885
 4037TIP3    H112068   7.482   5.091   1.915
 4037TIP3    H212069   7.415   4.956   1.936
 4038TIP3   OH212070   7.251   5.135   0.832
 4038TIP3    H112071   7.185   5.108   0.768
 4038TIP3    H212072   7.221   5.220   0.864
 4039TIP3   OH212073   6.689   4.972   1.221
 4039TIP3    H112074   6.732   4.964   1.306
 4039TIP3    H212075   6.636   4.892   1.214
 4040TIP3   OH212076   7.483   5.014   0.745
 4040TIP3    H112077   7.404   5.057   0.777
 4040TIP3    H212078   7.549   5.031   0.813
 4041TIP3   OH212079   6.865   4.749   2.045
 4041TIP3    H112080   6.916   4.733   2.125
 4041TIP3    H212081   6.793   4.687   2.049
 4042TIP3   OH212082   7.264   3.573   1.835
 4042TIP3    H112083   7.179   3.541   1.804
 4042TIP3    H212084   7.243   3.654   1.882
 4043TIP3   OH212085   7.766   3.702   2.015
 4043TIP3    H112086   7.828   3.660   2.076
 4043TIP3    H212087   7.680   3.687   2.054
 4044TIP3   OH212088   8.080   4.117   1.953
 4044TIP3    H112089   8.019   4.118   2.026
 4044TIP3    H212090   8.061   4.196   1.904
 4045TIP3   OH212091   7.421   3.612   0.806
 4045TIP3    H112092   7.387   3.614   0.895
 4045TIP3    H212093   7.378   3.537   0.765
 4046TIP3   OH212094   7.197   4.092   1.853
 4046TIP3    H112095   7.148   4.110   1.933
 4046TIP3    H212096   7.185   4.170   1.799
 4047TIP3   OH212097   7.080   3.974   1.363
 4047TIP3    H112098   6.991   3.948   1.386
 4047TIP3    H212099   7.095   3.934   1.278
 4048TIP3   OH212100   7.577   4.062   1.090
 4048TIP3    H112101   7.522   4.129   1.049
 4048TIP3    H212102   7.632   4.029   1.019
 4049TIP3   OH212103   7.713   4.092   1.327
 4049TIP3    H112104   7.654   4.108   1.254
 4049TIP3    H212105   7.751   4.006   1.309
 4050TIP3   OH212106   7.017   4.116   2.060
 4050TIP3    H112107   7.046   4.179   2.126
 4050TIP3    H212108   7.004   4.035   2.108
 4051TIP3   OH212109   7.066   3.596   0.771
 4051TIP3    H112110   7.061   3.592   0.866
 4051TIP3    H212111   6.990   3.648   0.745
 4052TIP3   OH212112   6.615   3.641   1.633
 4052TIP3    H112113   6.686   3.672   1.689
 4052TIP3    H212114   6.659   3.606   1.556
 4053TIP3   OH212115   6.577   3.620   1.156
 4053TIP3    H112116   6.626   3.654   1.080
 4053TIP3    H212117   6.516   3.691   1.178
 4054TIP3   OH212118   7.406   3.812   1.424
 4054TIP3    H112119   7.331   3.802   1.483
 4054TIP3    H212120   7.481   3.778   1.473
 4055TIP3   OH212121   6.844   3.853   1.430
 4055TIP3    H112122   6.752   3.862   1.403
 4055TIP3    H212123   6.866   3.762   1.410
 4056TIP3   OH212124   7.108   3.845   1.124
 4056TIP3    H112125   7.201   3.860   1.105
 4056TIP3    H212126   7.063   3.867   1.042
 4057TIP3   OH212127   7.827   3.901   1.616
 4057TIP3    H112128   7.816   3.911   1.711
 4057TIP3    H212129   7.894   3.832   1.607
 4058TIP3   OH212130   6.958   3.881   0.899
 4058TIP3    H112131   6.884   3.838   0.856
 4058TIP3    H212132   7.009   3.917   0.827
 4059TIP3   OH212133   8.067   5.569   1.848
 4059TIP3    H112134   8.062   5.570   1.752
 4059TIP3    H212135   8.128   5.639   1.869
 4060TIP3   OH212136   7.028   4.674   2.267
 4060TIP3    H112137   7.108   4.702   2.313
 4060TIP3    H212138   6.963   4.665   2.336
 4061TIP3   OH212139   7.491   4.122   1.530
 4061TIP3    H112140   7.557   4.075   1.479
 4061TIP3    H212141   7.493   4.080   1.616
 4062TIP3   OH212142   7.012   3.609   1.405
 4062TIP3    H112143   6.975   3.536   1.455
 4062TIP3    H212144   7.058   3.567   1.333
 4063TIP3   OH212145   7.464   4.022   1.814
 4063TIP3    H112146   7.377   4.058   1.827
 4063TIP3    H212147   7.522   4.077   1.867
 4064TIP3   OH212148   7.202   4.406   0.913
 4064TIP3    H112149   7.133   4.342   0.898
 4064TIP3    H212150   7.184   4.441   1.001
 4065TIP3   OH212151   8.109   4.650   1.516
 4065TIP3    H112152   8.109   4.665   1.421
 4065TIP3    H212153   8.026   4.605   1.533
 4066TIP3   OH212154   7.674   3.710   0.782
 4066TIP3    H112155   7.583   3.681   0.785
 4066TIP3    H212156   7.669   3.805   0.769
 4067TIP3   OH212157   7.599   4.726   1.892
 4067TIP3    H112158   7.641   4.683   1.967
 4067TIP3    H212159   7.568   4.810   1.926
 4068TIP3   OH212160   7.762   3.988   0.857
 4068TIP3    H112161   7.849   4.028   0.857
 4068TIP3    H212162   7.707   4.050   0.808
 4069TIP3   OH212163   6.902   4.437   1.580
 4069TIP3    H112164   6.938   4.406   1.497
 4069TIP3    H212165   6.940   4.379   1.646
 4070TIP3   OH212166   7.348   4.572   0.756
 4070TIP3    H112167   7.299   4.654   0.752
 4070TIP3    H212168   7.295   4.515   0.811
 4071TIP3   OH212169   6.781   4.351   2.197
 4071TIP3    H112170   6.795   4.339   2.291
 4071TIP3    H212171   6.712   4.288   2.175
 4072TIP3   OH212172   7.490   4.463   2.213
 4072TIP3    H112173   7.434   4.395   2.177
 4072TIP3    H212174   7.575   4.451   2.170
 4073TIP3   OH212175   7.761   4.996   1.801
 4073TIP3    H112176   7.667   4.987   1.813
 4073TIP3    H212177   7.790   5.046   1.877
 4074TIP3   OH212178   7.863   4.511   1.454
 4074TIP3    H112179   7.770   4.493   1.471
 4074TIP3    H212180   7.899   4.427   1.427
 4075TIP3   OH212181   6.998   4.739   1.204
 4075TIP3    H112182   6.994   4.820   1.153
 4075TIP3    H212183   6.907   4.718   1.224
 4076TIP3   OH212184   6.566   4.044   0.918
 4076TIP3    H112185   6.610   4.127   0.936
 4076TIP3    H212186   6.489   4.044   0.974
 4077TIP3   OH212187   7.131   4.503   1.151
 4077TIP3    H112188   7.099   4.591   1.170
 4077TIP3    H212189   7.099   4.450   1.224
 4078TIP3   OH212190   7.273   5.082   1.676
 4078TIP3    H112191   7.313   5.154   1.627
 4078TIP3    H212192   7.346   5.042   1.723
 4079TIP3   OH212193   6.914   4.980   1.058
 4079TIP3    H112194   6.831   4.983   1.106
 4079TIP3    H212195   6.947   5.070   1.061
 4080TIP3   OH212196   7.658   4.715   1.631
 4080TIP3    H112197   7.638   4.719   1.725
 4080TIP3    H212198   7.742   4.669   1.627
 4081TIP3   OH212199   7.906   5.245   1.682
 4081TIP3    H112200   7.830   5.188   1.681
 4081TIP3    H212201   7.888   5.310   1.614
 4082TIP3   OH212202   6.982   3.859   2.199
 4082TIP3    H112203   6.888   3.869   2.209
 4082TIP3    H212204   7.009   3.804   2.273
 4083TIP3   OH212205   7.769   4.536   0.738
 4083TIP3    H112206   7.772   4.472   0.808
 4083TIP3    H212207   7.853   4.582   0.744
 4084TIP3   OH212208   6.710   4.941   1.835
 4084TIP3    H112209   6.760   4.867   1.870
 4084TIP3    H212210   6.732   5.014   1.893
 4085TIP3   OH212211   7.018   4.574   0.539
 4085TIP3    H112212   7.009   4.484   0.509
 4085TIP3    H212213   6.997   4.570   0.632
 4086TIP3   OH212214   6.942   4.598   0.804
 4086TIP3    H112215   7.005   4.564   0.867
 4086TIP3    H212216   6.949   4.693   0.812
 4087TIP3   OH212217   6.673   4.290   0.996
 4087TIP3    H112218   6.608   4.329   1.054
 4087TIP3    H212219   6.686   4.354   0.926
 4088TIP3   OH212220   7.836   3.937   1.887
 4088TIP3    H112221   7.906   3.971   1.944
 4088TIP3    H212222   7.805   3.859   1.932
 4089TIP3   OH212223   7.689   3.684   1.065
 4089TIP3    H112224   7.687   3.694   0.970
 4089TIP3    H212225   7.734   3.762   1.097
 4090TIP3   OH212226   7.207   4.798   0.723
 4090TIP3    H112227   7.123   4.823   0.761
 4090TIP3    H212228   7.212   4.848   0.641
 4091TIP3   OH212229   7.391   3.861   1.155
 4091TIP3    H112230   7.458   3.928   1.140
 4091TIP3    H212231   7.395   3.844   1.250
 4092TIP3   OH212232   7.642   4.156   1.976
 4092TIP3    H112233   7.679   4.236   2.013
 4092TIP3    H212234   7.718   4.098   1.965
 4093TIP3   OH212235   7.532   3.570   1.255
 4093TIP3    H112236   7.555   3.622   1.332
 4093TIP3    H212237   7.586   3.607   1.184
 4094TIP3   OH212238   6.957   4.870   0.811
 4094TIP3    H112239   6.935   4.941   0.750
 4094TIP3    H212240   6.938   4.906   0.897
 4095TIP3   OH212241   7.055   3.583   1.046
 4095TIP3    H112242   7.048   3.670   1.085
 4095TIP3    H212243   7.149   3.562   1.052
 4096TIP3   OH212244   7.952   4.248   1.366
 4096TIP3    H112245   7.868   4.214   1.334
 4096TIP3    H212246   7.955   4.220   1.458
 4097TIP3   OH212247   6.672   4.493   0.802
 4097TIP3    H112248   6.738   4.560   0.818
 4097TIP3    H212249   6.711   4.435   0.737
 4098TIP3   OH212250   6.613   3.774   0.933
 4098TIP3    H112251   6.617   3.869   0.932
 4098TIP3    H212252   6.530   3.753   0.890
 4099TIP3   OH212253   7.935   5.227   1.275
 4099TIP3    H112254   7.890   5.271   1.203
 4099TIP3    H212255   8.028   5.243   1.259
 4100TIP3   OH212256   7.004   3.491   1.802
 4100TIP3    H112257   6.973   3.459   1.717
 4100TIP3    H212258   6.994   3.416   1.860
 4101TIP3   OH212259   6.537   4.714   1.181
 4101TIP3    H112260   6.476   4.739   1.250
 4101TIP3    H212261   6.502   4.754   1.101
 4102TIP3   OH212262   6.701   5.255   2.260
 4102TIP3    H112263   6.785   5.257   2.305
 4102TIP3    H212264   6.678   5.162   2.256
 4103TIP3   OH212265   7.177   5.208   2.306
 4103TIP3    H112266   7.272   5.201   2.305
 4103TIP3    H212267   7.147   5.152   2.235
 4104TIP3   OH212268   7.810   5.125   2.044
 4104TIP3    H112269   7.814   5.053   2.106
 4104TIP3    H212270   7.888   5.177   2.064
 4105TIP3   OH212271   6.827   4.660   2.458
 4105TIP3    H112272   6.846   4.567   2.468
 4105TIP3    H212273   6.743   4.663   2.413
 4106TIP3   OH212274   6.821   4.316   0.666
 4106TIP3    H112275   6.878   4.283   0.735
 4106TIP3    H212276   6.877   4.319   0.588
 4107TIP3   OH212277   7.438   4.741   2.230
 4107TIP3    H112278   7.396   4.764   2.147
 4107TIP3    H212279   7.461   4.648   2.220
 4108TIP3   OH212280   7.329   4.509   0.493
 4108TIP3    H112281   7.331   4.526   0.587
 4108TIP3    H212282   7.269   4.435   0.483
 4109TIP3   OH212283   7.929   4.759   1.838
 4109TIP3    H112284   8.010   4.795   1.801
 4109TIP3    H212285   7.863   4.826   1.821
 4110TIP3   OH212286   6.952   4.403   2.445
 4110TIP3    H112287   7.002   4.323   2.430
 4110TIP3    H212288   6.978   4.432   2.533
 4111TIP3   OH212289   7.011   4.213   0.874
 4111TIP3    H112290   6.980   4.179   0.958
 4111TIP3    H212291   7.048   4.137   0.829
 4112TIP3   OH212292   7.282   4.281   2.109
 4112TIP3    H112293   7.203   4.336   2.107
 4112TIP3    H212294   7.332   4.307   2.032
 4113TIP3   OH212295   7.116   4.009   0.716
 4113TIP3    H112296   7.088   4.019   0.625
 4113TIP3    H212297   7.212   4.011   0.712
 4114TIP3   OH212298   7.835   4.666   2.263
 4114TIP3    H112299   7.906   4.681   2.201
 4114TIP3    H212300   7.796   4.583   2.236
 4115TIP3   OH212301   7.409   4.066   2.223
 4115TIP3    H112302   7.413   3.990   2.165
 4115TIP3    H212303   7.368   4.135   2.170
 4116TIP3   OH212304   7.409   3.851   2.032
 4116TIP3    H112305   7.437   3.897   1.953
 4116TIP3    H212306   7.316   3.833   2.017
 4117TIP3   OH212307   7.424   4.380   1.909
 4117TIP3    H112308   7.517   4.398   1.899
 4117TIP3    H212309   7.380   4.447   1.858
 4118TIP3   OH212310   8.075   4.348   2.328
 4118TIP3    H112311   8.011   4.302   2.273
 4118TIP3    H212312   8.090   4.430   2.282
 4119TIP3   OH212313   8.069   4.605   2.012
 4119TIP3    H112314   8.010   4.660   1.961
 4119TIP3    H212315   8.147   4.595   1.957
 4120TIP3   OH212316   7.298   4.171   2.461
 4120TIP3    H112317   7.219   4.121   2.479
 4120TIP3    H212318   7.322   4.145   2.372
 4121TIP3   OH212319   7.526   3.615   2.110
 4121TIP3    H112320   7.478   3.694   2.087
 4121TIP3    H212321   7.462   3.544   2.098
 4122TIP3   OH212322   7.677   4.103   2.321
 4122TIP3    H112323   7.638   4.098   2.409
 4122TIP3    H212324   7.602   4.101   2.262
 4123TIP3   OH212325   7.909   4.063   2.166
 4123TIP3    H112326   7.829   4.087   2.213
 4123TIP3    H212327   7.968   4.032   2.235
 4124TIP3   OH212328   8.106   3.980   2.350
 4124TIP3    H112329   8.160   3.903   2.372
 4124TIP3    H212330   8.112   4.036   2.427
 4125TIP3   OH212331   7.122   3.954   2.508
 4125TIP3    H112332   7.125   3.863   2.478
 4125TIP3    H212333   7.150   3.950   2.600
 4126TIP3   OH212334   7.632   3.623   2.362
 4126TIP3    H112335   7.686   3.544   2.360
 4126TIP3    H212336   7.589   3.625   2.277
 4127TIP3   OH212337   7.701   3.840   2.524
 4127TIP3    H112338   7.682   3.774   2.457
 4127TIP3    H212339   7.633   3.906   2.514
 4128TIP3   OH212340   6.944   5.067   0.620
 4128TIP3    H112341   7.024   5.055   0.568
 4128TIP3    H212342   6.876   5.086   0.556
 4129TIP3   OH212343   6.402   4.451   0.837
 4129TIP3    H112344   6.493   4.475   0.822
 4129TIP3    H212345   6.393   4.364   0.797
 4130TIP3   OH212346   6.319   5.062   1.252
 4130TIP3    H112347   6.254   5.005   1.212
 4130TIP3    H212348   6.364   5.006   1.316
 4131TIP3   OH212349   6.455   4.910   1.440
 4131TIP3    H112350   6.438   4.838   1.502
 4131TIP3    H212351   6.505   4.974   1.491
 4132TIP3   OH212352   8.253   5.303   1.515
 4132TIP3    H112353   8.203   5.222   1.507
 4132TIP3    H212354   8.228   5.339   1.600
 4133TIP3   OH212355   8.225   5.035   2.091
 4133TIP3    H112356   8.160   5.027   2.162
 4133TIP3    H212357   8.263   5.122   2.104
 4134TIP3   OH212358   8.086   5.083   1.537
 4134TIP3    H112359   8.022   5.123   1.596
 4134TIP3    H212360   8.032   5.034   1.474
 4135TIP3   OH212361   7.990   4.214   1.065
 4135TIP3    H112362   8.078   4.175   1.070
 4135TIP3    H212363   7.979   4.259   1.149
 4136TIP3   OH212364   6.639   4.322   1.807
 4136TIP3    H112365   6.634   4.288   1.718
 4136TIP3    H212366   6.733   4.324   1.826
 4137TIP3   OH212367   6.856   4.003   2.486
 4137TIP3    H112368   6.951   4.006   2.488
 4137TIP3    H212369   6.834   3.916   2.521
 4138TIP3   OH212370   6.822   3.701   1.804
 4138TIP3    H112371   6.879   3.625   1.817
 4138TIP3    H212372   6.882   3.776   1.801
 4139TIP3   OH212373   6.621   3.972   1.884
 4139TIP3    H112374   6.669   3.971   1.801
 4139TIP3    H212375   6.648   4.054   1.927
 4140TIP3   OH212376   6.604   3.474   1.383
 4140TIP3    H112377   6.515   3.470   1.417
 4140TIP3    H212378   6.599   3.533   1.309
 4141TIP3   OH212379   7.759   5.182   0.878
 4141TIP3    H112380   7.785   5.182   0.786
 4141TIP3    H212381   7.819   5.244   0.920
 4142TIP3   OH212382   6.824   3.553   2.201
 4142TIP3    H112383   6.772   3.549   2.282
 4142TIP3    H212384   6.766   3.596   2.137
 4143TIP3   OH212385   6.862   4.989   2.279
 4143TIP3    H112386   6.772   4.962   2.258
 4143TIP3    H212387   6.874   4.962   2.370
 4144TIP3   OH212388   7.046   5.025   1.824
 4144TIP3    H112389   6.994   5.096   1.788
 4144TIP3    H212390   7.131   5.034   1.782
 4145TIP3   OH212391   7.486   5.265   1.965
 4145TIP3    H112392   7.526   5.266   2.052
 4145TIP3    H212393   7.548   5.314   1.910
 4146TIP3   OH212394   7.666   5.416   1.826
 4146TIP3    H112395   7.734   5.367   1.780
 4146TIP3    H212396   7.714   5.474   1.885
 4147TIP3   OH212397   6.716   5.278   1.851
 4147TIP3    H112398   6.628   5.307   1.827
 4147TIP3    H212399   6.733   5.320   1.936
 4148TIP3   OH212400   6.952   5.256   1.708
 4148TIP3    H112401   6.868   5.267   1.753
 4148TIP3    H212402   6.936   5.286   1.619
 4149TIP3   OH212403   7.379   5.283   1.506
 4149TIP3    H112404   7.308   5.300   1.444
 4149TIP3    H212405   7.393   5.367   1.550
 4150TIP3   OH212406   7.646   5.217   1.559
 4150TIP3    H112407   7.555   5.238   1.539
 4150TIP3    H212408   7.697   5.289   1.522
 4151TIP3   OH212409   7.832   5.401   1.466
 4151TIP3    H112410   7.834   5.489   1.430
 4151TIP3    H212411   7.867   5.345   1.396
 4152TIP3   OH212412   6.634   5.067   1.596
 4152TIP3    H112413   6.655   5.041   1.685
 4152TIP3    H212414   6.701   5.025   1.542
 4153TIP3   OH212415   6.828   4.939   1.455
 4153TIP3    H112416   6.838   4.857   1.504
 4153TIP3    H212417   6.916   4.975   1.450
 4154TIP3   OH212418   7.097   5.031   1.459
 4154TIP3    H112419   7.122   4.940   1.446
 4154TIP3    H212420   7.140   5.058   1.540
 4155TIP3   OH212421   7.624   3.655   1.505
 4155TIP3    H112422   7.604   3.603   1.583
 4155TIP3    H212423   7.718   3.647   1.494
 4156TIP3   OH212424   6.913   3.396   1.555
 4156TIP3    H112425   6.821   3.368   1.561
 4156TIP3    H212426   6.963   3.314   1.551
 4157TIP3   OH212427   6.701   3.273   1.207
 4157TIP3    H112428   6.730   3.328   1.135
 4157TIP3    H212429   6.674   3.334   1.275
 4158TIP3   OH212430   7.362   3.428   1.439
 4158TIP3    H112431   7.413   3.474   1.372
 4158TIP3    H212432   7.382   3.474   1.521
 4159TIP3   OH212433   7.877   3.559   1.419
 4159TIP3    H112434   7.890   3.539   1.326
 4159TIP3    H212435   7.872   3.473   1.461
 4160TIP3   OH212436   6.415   4.848   0.980
 4160TIP3    H112437   6.332   4.810   0.951
 4160TIP3    H212438   6.410   4.940   0.952
 4161TIP3   OH212439   6.823   3.428   0.967
 4161TIP3    H112440   6.868   3.365   0.910
 4161TIP3    H212441   6.894   3.481   1.003
 4162TIP3   OH212442   7.332   3.609   1.068
 4162TIP3    H112443   7.388   3.559   1.127
 4162TIP3    H212444   7.349   3.700   1.090
 4163TIP3   OH212445   7.122   3.680   2.454
 4163TIP3    H112446   7.082   3.609   2.505
 4163TIP3    H212447   7.215   3.678   2.480
 4164TIP3   OH212448   7.376   3.670   2.570
 4164TIP3    H112449   7.458   3.665   2.521
 4164TIP3    H212450   7.373   3.589   2.621
 4165TIP3   OH212451   6.472   4.848   0.640
 4165TIP3    H112452   6.472   4.894   0.724
 4165TIP3    H212453   6.561   4.815   0.631
 4166TIP3   OH212454   8.124   5.301   1.855
 4166TIP3    H112455   8.054   5.265   1.801
 4166TIP3    H212456   8.107   5.395   1.856
 4167TIP3   OH212457   0.059   5.197   2.813
 4167TIP3    H112458   0.026   5.287   2.813
 4167TIP3    H212459  -0.008   5.146   2.767
 4168TIP3   OH212460   0.087   5.174   3.181
 4168TIP3    H112461   0.097   5.157   3.275
 4168TIP3    H212462   0.024   5.108   3.152
 4169TIP3   OH212463   0.305   5.499   2.883
 4169TIP3    H112464   0.287   5.432   2.948
 4169TIP3    H212465   0.331   5.576   2.934
 4170TIP3   OH212466   8.504   5.983   2.884
 4170TIP3    H112467   8.552   5.903   2.866
 4170TIP3    H212468   8.434   5.956   2.944
 4171TIP3   OH212469   8.386   5.375   3.276
 4171TIP3    H112470   8.404   5.320   3.200
 4171TIP3    H212471   8.463   5.431   3.284
 4172TIP3   OH212472   0.872   4.742   3.245
 4172TIP3    H112473   0.901   4.823   3.287
 4172TIP3    H212474   0.891   4.755   3.152
 4173TIP3   OH212475   0.267   4.918   3.279
 4173TIP3    H112476   0.310   4.835   3.298
 4173TIP3    H212477   0.236   4.909   3.189
 4174TIP3   OH212478   0.306   4.678   2.865
 4174TIP3    H112479   0.373   4.661   2.931
 4174TIP3    H212480   0.355   4.710   2.789
 4175TIP3   OH212481   0.943   4.952   3.415
 4175TIP3    H112482   0.860   4.995   3.394
 4175TIP3    H212483   0.963   4.981   3.504
 4176TIP3   OH212484   8.428   5.421   2.695
 4176TIP3    H112485   8.405   5.381   2.611
 4176TIP3    H212486   8.491   5.489   2.672
 4177TIP3   OH212487   0.509   4.679   3.042
 4177TIP3    H112488   0.494   4.631   3.122
 4177TIP3    H212489   0.560   4.756   3.069
 4178TIP3   OH212490   0.368   5.743   3.041
 4178TIP3    H112491   0.283   5.732   3.084
 4178TIP3    H212492   0.364   5.830   3.002
 4179TIP3   OH212493   0.663   4.641   3.410
 4179TIP3    H112494   0.576   4.664   3.377
 4179TIP3    H212495   0.724   4.671   3.342
 4180TIP3   OH212496   8.464   4.271   3.384
 4180TIP3    H112497   8.455   4.177   3.399
 4180TIP3    H212498   8.415   4.312   3.455
 4181TIP3   OH212499   0.069   5.765   2.702
 4181TIP3    H112500   0.114   5.682   2.684
 4181TIP3    H212501   0.131   5.833   2.674
 4182TIP3   OH212502   0.200   5.540   2.630
 4182TIP3    H112503   0.225   5.470   2.569
 4182TIP3    H212504   0.247   5.520   2.710
 4183TIP3   OH212505   0.596   5.651   3.390
 4183TIP3    H112506   0.582   5.575   3.333
 4183TIP3    H212507   0.576   5.727   3.334
 4184TIP3   OH212508   8.389   5.062   2.651
 4184TIP3    H112509   8.310   5.013   2.673
 4184TIP3    H212510   8.405   5.042   2.559
 4185TIP3   OH212511   8.369   4.833   2.368
 4185TIP3    H112512   8.439   4.888   2.404
 4185TIP3    H212513   8.416   4.767   2.317
 4186TIP3   OH212514   0.790   5.295   3.235
 4186TIP3    H112515   0.707   5.342   3.242
 4186TIP3    H212516   0.822   5.316   3.148
 4187TIP3   OH212517   0.240   5.131   2.621
 4187TIP3    H112518   0.184   5.152   2.696
 4187TIP3    H212519   0.323   5.104   2.660
 4188TIP3   OH212520   0.469   5.170   3.536
 4188TIP3    H112521   0.468   5.252   3.586
 4188TIP3    H212522   0.386   5.170   3.489
 4189TIP3   OH212523   0.130   5.738   3.162
 4189TIP3    H112524   0.107   5.821   3.205
 4189TIP3    H212525   0.113   5.671   3.228
 4190TIP3   OH212526   0.081   4.987   2.446
 4190TIP3    H112527   0.130   5.047   2.502
 4190TIP3    H212528   0.106   5.010   2.357
 4191TIP3   OH212529   0.591   4.227   2.496
 4191TIP3    H112530   0.511   4.246   2.545
 4191TIP3    H212531   0.607   4.307   2.445
 4192TIP3   OH212532   0.393   5.596   2.039
 4192TIP3    H112533   0.400   5.691   2.028
 4192TIP3    H212534   0.483   5.564   2.029
 4193TIP3   OH212535   0.832   6.000   3.442
 4193TIP3    H112536   0.833   5.905   3.454
 4193TIP3    H212537   0.751   6.029   3.485
 4194TIP3   OH212538   8.451   5.842   2.165
 4194TIP3    H112539   8.485   5.759   2.131
 4194TIP3    H212540   8.441   5.827   2.259
 4195TIP3   OH212541   8.448   5.864   2.453
 4195TIP3    H112542   8.382   5.868   2.522
 4195TIP3    H212543   8.530   5.846   2.501
 4196TIP3   OH212544   0.721   5.126   3.713
 4196TIP3    H112545   0.640   5.140   3.663
 4196TIP3    H212546   0.739   5.032   3.703
 4197TIP3   OH212547   0.263   4.475   3.716
 4197TIP3    H112548   0.330   4.448   3.779
 4197TIP3    H212549   0.180   4.458   3.760
 4198TIP3   OH212550   0.489   4.905   3.635
 4198TIP3    H112551   0.440   4.900   3.717
 4198TIP3    H212552   0.467   4.991   3.599
 4199TIP3   OH212553   0.158   5.043   2.198
 4199TIP3    H112554   0.117   5.012   2.117
 4199TIP3    H212555   0.242   5.080   2.169
 4200TIP3   OH212556   8.355   4.412   2.470
 4200TIP3    H112557   8.345   4.413   2.566
 4200TIP3    H212558   8.324   4.326   2.444
 4201TIP3   OH212559   0.031   4.857   2.785
 4201TIP3    H112560  -0.023   4.926   2.747
 4201TIP3    H212561   0.078   4.819   2.711
 4202TIP3   OH212562   0.229   5.113   3.859
 4202TIP3    H112563   0.199   5.042   3.916
 4202TIP3    H212564   0.320   5.126   3.882
 4203TIP3   OH212565   0.179   4.873   3.019
 4203TIP3    H112566   0.118   4.905   2.953
 4203TIP3    H212567   0.218   4.795   2.979
 4204TIP3   OH212568   0.192   5.117   3.446
 4204TIP3    H112569   0.225   5.054   3.382
 4204TIP3    H212570   0.161   5.063   3.519
 4205TIP3   OH212571   8.370   4.577   3.106
 4205TIP3    H112572   8.281   4.607   3.122
 4205TIP3    H212573   8.417   4.597   3.187
 4206TIP3   OH212574   0.352   4.657   3.323
 4206TIP3    H112575   0.320   4.674   3.412
 4206TIP3    H212576   0.289   4.594   3.287
 4207TIP3   OH212577   0.534   6.345   3.537
 4207TIP3    H112578   0.525   6.372   3.445
 4207TIP3    H212579   0.605   6.400   3.570
 4208TIP3   OH212580   8.456   4.896   3.213
 4208TIP3    H112581   8.530   4.873   3.157
 4208TIP3    H212582   8.477   4.857   3.298
 4209TIP3   OH212583   8.451   4.798   3.501
 4209TIP3    H112584   8.385   4.867   3.492
 4209TIP3    H212585   8.523   4.840   3.548
 4210TIP3   OH212586   0.556   5.435   3.223
 4210TIP3    H112587   0.580   5.488   3.146
 4210TIP3    H212588   0.475   5.392   3.198
 4211TIP3   OH212589   0.111   4.509   2.465
 4211TIP3    H112590   0.016   4.492   2.467
 4211TIP3    H212591   0.119   4.601   2.492
 4212TIP3   OH212592   0.051   5.527   3.590
 4212TIP3    H112593   0.078   5.520   3.681
 4212TIP3    H212594  -0.004   5.605   3.586
 4213TIP3   OH212595   0.185   4.760   2.567
 4213TIP3    H112596   0.279   4.764   2.582
 4213TIP3    H212597   0.166   4.838   2.515
 4214TIP3   OH212598   8.292   5.352   2.443
 4214TIP3    H112599   8.234   5.425   2.421
 4214TIP3    H212600   8.236   5.288   2.486
 4215TIP3   OH212601   0.014   5.237   3.970
 4215TIP3    H112602  -0.057   5.198   3.917
 4215TIP3    H212603   0.094   5.212   3.925
 4216TIP3   OH212604   0.220   5.773   3.486
 4216TIP3    H112605   0.125   5.778   3.497
 4216TIP3    H212606   0.255   5.823   3.560
 4217TIP3   OH212607   0.624   4.854   2.395
 4217TIP3    H112608   0.564   4.807   2.338
 4217TIP3    H212609   0.625   4.944   2.361
 4218TIP3   OH212610   0.846   5.709   3.475
 4218TIP3    H112611   0.750   5.705   3.472
 4218TIP3    H212612   0.875   5.679   3.389
 4219TIP3   OH212613   0.340   5.664   2.309
 4219TIP3    H112614   0.297   5.597   2.363
 4219TIP3    H212615   0.342   5.626   2.222
 4220TIP3   OH212616   0.331   5.295   3.136
 4220TIP3    H112617   0.240   5.272   3.154
 4220TIP3    H212618   0.367   5.219   3.092
 4221TIP3   OH212619   0.124   5.500   3.328
 4221TIP3    H112620   0.106   5.513   3.421
 4221TIP3    H212621   0.209   5.456   3.325
 4222TIP3   OH212622   0.093   5.403   2.207
 4222TIP3    H112623   0.135   5.377   2.290
 4222TIP3    H212624   0.006   5.363   2.210
 4223TIP3   OH212625   0.358   6.030   3.368
 4223TIP3    H112626   0.279   5.977   3.367
 4223TIP3    H212627   0.342   6.099   3.304
 4224TIP3   OH212628   0.424   5.871   2.033
 4224TIP3    H112629   0.454   5.937   1.970
 4224TIP3    H212630   0.347   5.911   2.074
 4225TIP3   OH212631   0.251   5.338   2.439
 4225TIP3    H112632   0.235   5.265   2.499
 4225TIP3    H212633   0.343   5.329   2.415
 4226TIP3   OH212634   0.279   4.716   3.584
 4226TIP3    H112635   0.363   4.752   3.612
 4226TIP3    H212636   0.271   4.634   3.632
 4227TIP3   OH212637   0.172   4.456   2.746
 4227TIP3    H112638   0.145   4.475   2.656
 4227TIP3    H212639   0.202   4.540   2.780
 4228TIP3   OH212640   8.350   4.654   2.844
 4228TIP3    H112641   8.413   4.725   2.832
 4228TIP3    H212642   8.348   4.639   2.938
 4229TIP3   OH212643   0.130   4.953   3.649
 4229TIP3    H112644   0.158   5.008   3.722
 4229TIP3    H212645   0.184   4.874   3.656
 4230TIP3   OH212646   0.005   4.367   2.964
 4230TIP3    H112647  -0.027   4.448   3.005
 4230TIP3    H212648   0.051   4.397   2.885
 4231TIP3   OH212649   0.754   4.861   3.632
 4231TIP3    H112650   0.659   4.861   3.641
 4231TIP3    H212651   0.771   4.817   3.549
 4232TIP3   OH212652   0.411   5.052   3.018
 4232TIP3    H112653   0.332   5.000   3.031
 4232TIP3    H212654   0.479   5.005   3.066
 4233TIP3   OH212655   0.383   6.010   2.966
 4233TIP3    H112656   0.338   6.055   2.895
 4233TIP3    H212657   0.476   6.026   2.949
 4234TIP3   OH212658   0.293   5.902   3.713
 4234TIP3    H112659   0.270   5.850   3.789
 4234TIP3    H212660   0.347   5.973   3.748
 4235TIP3   OH212661   0.081   5.615   2.028
 4235TIP3    H112662   0.095   5.550   2.097
 4235TIP3    H212663   0.152   5.600   1.966
 4236TIP3   OH212664   8.311   5.283   2.168
 4236TIP3    H112665   8.293   5.288   2.262
 4236TIP3    H212666   8.299   5.190   2.147
 4237TIP3   OH212667   0.379   5.545   3.530
 4237TIP3    H112668   0.455   5.586   3.489
 4237TIP3    H212669   0.309   5.609   3.517
 4238TIP3   OH212670   8.108   4.814   2.462
 4238TIP3    H112671   8.077   4.805   2.372
 4238TIP3    H212672   8.203   4.812   2.454
 4239TIP3   OH212673   0.245   5.467   3.935
 4239TIP3    H112674   0.312   5.438   3.874
 4239TIP3    H212675   0.244   5.401   4.004
 4240TIP3   OH212676   0.386   5.124   2.068
 4240TIP3    H112677   0.370   5.076   1.987
 4240TIP3    H212678   0.355   5.212   2.051
 4241TIP3   OH212679   8.324   4.593   3.645
 4241TIP3    H112680   8.375   4.653   3.591
 4241TIP3    H212681   8.288   4.648   3.715
 4242TIP3   OH212682   8.443   5.244   3.544
 4242TIP3    H112683   8.535   5.227   3.524
 4242TIP3    H212684   8.420   5.320   3.490
 4243TIP3   OH212685   0.480   5.136   3.976
 4243TIP3    H112686   0.528   5.055   3.986
 4243TIP3    H212687   0.542   5.197   3.936
 4244TIP3   OH212688   0.510   5.400   3.715
 4244TIP3    H112689   0.451   5.451   3.660
 4244TIP3    H212690   0.597   5.418   3.680
 4245TIP3   OH212691   8.502   4.405   3.780
 4245TIP3    H112692   8.442   4.475   3.754
 4245TIP3    H212693   8.450   4.325   3.770
 4246TIP3   OH212694   0.128   4.909   4.016
 4246TIP3    H112695   0.154   4.907   4.108
 4246TIP3    H212696   0.042   4.867   4.015
 4247TIP3   OH212697   0.362   4.851   3.867
 4247TIP3    H112698   0.288   4.852   3.928
 4247TIP3    H212699   0.437   4.824   3.921
 4248TIP3   OH212700   0.589   4.798   4.018
 4248TIP3    H112701   0.601   4.704   4.032
 4248TIP3    H212702   0.584   4.835   4.107
 4249TIP3   OH212703   0.102   4.418   4.040
 4249TIP3    H112704   0.156   4.339   4.037
 4249TIP3    H212705   0.052   4.416   3.958
 4250TIP3   OH212706   0.168   4.627   4.198
 4250TIP3    H112707   0.154   4.551   4.142
 4250TIP3    H212708   0.083   4.670   4.203
 4251TIP3   OH212709   0.642   6.093   2.931
 4251TIP3    H112710   0.656   6.126   3.020
 4251TIP3    H212711   0.690   6.154   2.875
 4252TIP3   OH212712   0.663   6.119   3.210
 4252TIP3    H112713   0.614   6.037   3.206
 4252TIP3    H212714   0.736   6.100   3.270
 4253TIP3   OH212715   0.714   5.801   3.783
 4253TIP3    H112716   0.640   5.808   3.843
 4253TIP3    H212717   0.755   5.887   3.784
 4254TIP3   OH212718   0.525   5.311   2.404
 4254TIP3    H112719   0.588   5.376   2.371
 4254TIP3    H212720   0.568   5.273   2.480
 4255TIP3   OH212721   0.652   5.181   2.610
 4255TIP3    H112722   0.585   5.137   2.663
 4255TIP3    H212723   0.715   5.216   2.673
 4256TIP3   OH212724   0.710   5.574   3.038
 4256TIP3    H112725   0.760   5.507   2.992
 4256TIP3    H212726   0.702   5.645   2.975
 4257TIP3   OH212727   0.535   5.871   3.231
 4257TIP3    H112728   0.467   5.917   3.282
 4257TIP3    H212729   0.486   5.827   3.161
 4258TIP3   OH212730   0.588   5.091   2.250
 4258TIP3    H112731   0.520   5.087   2.183
 4258TIP3    H212732   0.561   5.163   2.307
 4259TIP3   OH212733   0.459   4.759   2.203
 4259TIP3    H112734   0.417   4.794   2.124
 4259TIP3    H212735   0.439   4.666   2.201
 4260TIP3   OH212736   0.466   5.036   2.751
 4260TIP3    H112737   0.471   4.941   2.739
 4260TIP3    H212738   0.451   5.048   2.845
 4261TIP3   OH212739   0.757   5.462   3.610
 4261TIP3    H112740   0.826   5.397   3.598
 4261TIP3    H212741   0.777   5.530   3.546
 4262TIP3   OH212742   0.938   5.259   3.620
 4262TIP3    H112743   0.863   5.215   3.659
 4262TIP3    H212744   1.012   5.200   3.635
 4263TIP3   OH212745   0.401   4.495   2.193
 4263TIP3    H112746   0.472   4.460   2.246
 4263TIP3    H212747   0.328   4.436   2.209
 4264TIP3   OH212748   0.466   4.752   2.643
 4264TIP3    H112749   0.502   4.665   2.660
 4264TIP3    H212750   0.520   4.786   2.571
 4265TIP3   OH212751   0.625   4.924   3.144
 4265TIP3    H112752   0.706   4.946   3.099
 4265TIP3    H212753   0.635   4.960   3.232
 4266TIP3   OH212754   0.694   5.073   3.372
 4266TIP3    H112755   0.617   5.104   3.419
 4266TIP3    H212756   0.727   5.151   3.327
 4267TIP3   OH212757   1.141   4.663   3.925
 4267TIP3    H112758   1.202   4.598   3.890
 4267TIP3    H212759   1.114   4.714   3.848
 4268TIP3   OH212760   0.570   4.502   2.684
 4268TIP3    H112761   0.617   4.488   2.767
 4268TIP3    H212762   0.509   4.429   2.679
 4269TIP3   OH212763   1.009   4.799   3.727
 4269TIP3    H112764   0.926   4.843   3.745
 4269TIP3    H212765   0.985   4.724   3.673
 4270TIP3   OH212766   0.650   4.434   2.318
 4270TIP3    H112767   0.686   4.364   2.263
 4270TIP3    H212768   0.715   4.504   2.313
 4271TIP3   OH212769   0.220   5.954   2.587
 4271TIP3    H112770   0.272   5.953   2.507
 4271TIP3    H212771   0.253   6.029   2.637
 4272TIP3   OH212772   0.122   6.199   3.517
 4272TIP3    H112773   0.181   6.131   3.486
 4272TIP3    H212774   0.176   6.256   3.571
 4273TIP3   OH212775   0.913   4.559   3.612
 4273TIP3    H112776   0.825   4.552   3.575
 4273TIP3    H212777   0.950   4.471   3.604
 4274TIP3   OH212778   0.089   6.011   3.260
 4274TIP3    H112779   0.009   6.025   3.312
 4274TIP3    H212780   0.102   6.094   3.214
 4275TIP3   OH212781   0.328   6.206   3.160
 4275TIP3    H112782   0.298   6.284   3.113
 4275TIP3    H212783   0.335   6.139   3.093
 4276TIP3   OH212784   0.138   4.479   3.253
 4276TIP3    H112785   0.080   4.408   3.281
 4276TIP3    H212786   0.190   4.441   3.182
 4277TIP3   OH212787   0.639   4.362   3.136
 4277TIP3    H112788   0.675   4.411   3.062
 4277TIP3    H212789   0.545   4.375   3.129
 4278TIP3   OH212790   0.738   4.458   2.899
 4278TIP3    H112791   0.809   4.405   2.862
 4278TIP3    H212792   0.766   4.549   2.886
 4279TIP3   OH212793   8.333   4.211   3.132
 4279TIP3    H112794   8.376   4.259   3.062
 4279TIP3    H212795   8.368   4.249   3.213
 4280TIP3   OH212796   0.360   4.364   3.108
 4280TIP3    H112797   0.348   4.327   3.021
 4280TIP3    H212798   0.345   4.290   3.167
 4281TIP3   OH212799   0.386   4.291   2.676
 4281TIP3    H112800   0.305   4.340   2.693
 4281TIP3    H212801   0.372   4.206   2.718
 4282TIP3   OH212802   8.334   4.399   2.736
 4282TIP3    H112803   8.314   4.345   2.813
 4282TIP3    H212804   8.322   4.489   2.766
 4283TIP3   OH212805   0.365   5.932   2.354
 4283TIP3    H112806   0.362   5.837   2.345
 4283TIP3    H212807   0.316   5.965   2.279
 4284TIP3   OH212808   0.655   4.527   4.047
 4284TIP3    H112809   0.672   4.497   4.136
 4284TIP3    H212810   0.741   4.526   4.004
 4285TIP3   OH212811   0.584   6.077   3.537
 4285TIP3    H112812   0.508   6.044   3.488
 4285TIP3    H212813   0.568   6.171   3.544
 4286TIP3   OH212814   1.851   5.450   2.298
 4286TIP3    H112815   1.822   5.541   2.287
 4286TIP3    H212816   1.779   5.398   2.261
 4287TIP3   OH212817   1.844   5.451   2.694
 4287TIP3    H112818   1.886   5.433   2.778
 4287TIP3    H212819   1.810   5.367   2.665
 4288TIP3   OH212820   1.155   5.346   3.049
 4288TIP3    H112821   1.176   5.274   3.109
 4288TIP3    H212822   1.231   5.404   3.053
 4289TIP3   OH212823   2.097   5.757   2.371
 4289TIP3    H112824   2.088   5.688   2.436
 4289TIP3    H212825   2.130   5.832   2.420
 4290TIP3   OH212826   1.126   5.752   2.762
 4290TIP3    H112827   1.114   5.657   2.766
 4290TIP3    H212828   1.214   5.767   2.795
 4291TIP3   OH212829   0.829   4.961   2.554
 4291TIP3    H112830   0.782   5.041   2.575
 4291TIP3    H212831   0.764   4.904   2.514
 4292TIP3   OH212832   0.892   5.245   2.736
 4292TIP3    H112833   0.936   5.168   2.772
 4292TIP3    H212834   0.943   5.268   2.659
 4293TIP3   OH212835   1.748   6.214   2.385
 4293TIP3    H112836   1.787   6.144   2.333
 4293TIP3    H212837   1.745   6.179   2.474
 4294TIP3   OH212838   1.661   5.676   2.734
 4294TIP3    H112839   1.698   5.595   2.699
 4294TIP3    H212840   1.737   5.729   2.758
 4295TIP3   OH212841   2.668   4.999   2.730
 4295TIP3    H112842   2.696   5.079   2.775
 4295TIP3    H212843   2.692   5.013   2.639
 4296TIP3   OH212844   2.063   5.177   2.761
 4296TIP3    H112845   2.107   5.096   2.786
 4296TIP3    H212846   2.031   5.160   2.672
 4297TIP3   OH212847   1.404   4.840   2.725
 4297TIP3    H112848   1.386   4.913   2.666
 4297TIP3    H212849   1.358   4.765   2.687
 4298TIP3   OH212850   2.103   4.931   2.349
 4298TIP3    H112851   2.169   4.916   2.416
 4298TIP3    H212852   2.153   4.965   2.274
 4299TIP3   OH212853   1.038   5.037   2.836
 4299TIP3    H112854   1.118   5.021   2.886
 4299TIP3    H212855   1.048   4.984   2.757
 4300TIP3   OH212856   1.474   5.245   2.625
 4300TIP3    H112857   1.565   5.220   2.639
 4300TIP3    H212858   1.431   5.164   2.596
 4301TIP3   OH212859   2.739   5.207   2.905
 4301TIP3    H112860   2.657   5.251   2.884
 4301TIP3    H212861   2.765   5.242   2.990
 4302TIP3   OH212862   1.397   4.823   3.165
 4302TIP3    H112863   1.340   4.858   3.096
 4302TIP3    H212864   1.349   4.837   3.246
 4303TIP3   OH212865   1.718   5.664   2.176
 4303TIP3    H112866   1.711   5.663   2.081
 4303TIP3    H212867   1.687   5.751   2.202
 4304TIP3   OH212868   1.505   5.600   2.955
 4304TIP3    H112869   1.446   5.666   2.993
 4304TIP3    H212870   1.554   5.648   2.888
 4305TIP3   OH212871   2.304   4.936   2.530
 4305TIP3    H112872   2.287   4.894   2.615
 4305TIP3    H212873   2.357   5.013   2.552
 4306TIP3   OH212874   1.274   4.938   2.946
 4306TIP3    H112875   1.332   5.009   2.974
 4306TIP3    H212876   1.320   4.896   2.873
 4307TIP3   OH212877   1.328   5.797   3.050
 4307TIP3    H112878   1.312   5.887   3.023
 4307TIP3    H212879   1.255   5.775   3.107
 4308TIP3   OH212880   0.724   5.484   2.289
 4308TIP3    H112881   0.681   5.503   2.206
 4308TIP3    H212882   0.751   5.570   2.322
 4309TIP3   OH212883   2.161   6.001   2.530
 4309TIP3    H112884   2.074   5.990   2.569
 4309TIP3    H212885   2.158   6.086   2.487
 4310TIP3   OH212886   2.460   4.894   2.894
 4310TIP3    H112887   2.374   4.926   2.864
 4310TIP3    H212888   2.522   4.928   2.829
 4311TIP3   OH212889   1.749   4.536   2.881
 4311TIP3    H112890   1.737   4.443   2.899
 4311TIP3    H212891   1.676   4.578   2.926
 4312TIP3   OH212892   1.864   6.040   2.199
 4312TIP3    H112893   1.909   5.957   2.182
 4312TIP3    H212894   1.924   6.106   2.165
 4313TIP3   OH212895   2.002   5.819   2.119
 4313TIP3    H112896   2.003   5.740   2.065
 4313TIP3    H212897   2.040   5.791   2.202
 4314TIP3   OH212898   2.390   5.908   2.876
 4314TIP3    H112899   2.381   5.832   2.818
 4314TIP3    H212900   2.375   5.984   2.818
 4315TIP3   OH212901   1.683   5.305   2.125
 4315TIP3    H112902   1.605   5.340   2.081
 4315TIP3    H212903   1.747   5.294   2.054
 4316TIP3   OH212904   1.646   5.090   1.852
 4316TIP3    H112905   1.712   5.144   1.895
 4316TIP3    H212906   1.698   5.025   1.802
 4317TIP3   OH212907   2.585   5.548   2.720
 4317TIP3    H112908   2.504   5.598   2.727
 4317TIP3    H212909   2.620   5.571   2.634
 4318TIP3   OH212910   2.036   5.387   2.107
 4318TIP3    H112911   1.982   5.410   2.182
 4318TIP3    H212912   2.120   5.361   2.145
 4319TIP3   OH212913   2.264   5.426   3.024
 4319TIP3    H112914   2.267   5.505   3.077
 4319TIP3    H212915   2.182   5.431   2.977
 4320TIP3   OH212916   1.265   5.402   2.508
 4320TIP3    H112917   1.223   5.341   2.447
 4320TIP3    H212918   1.343   5.355   2.538
 4321TIP3   OH212919   1.413   5.785   2.650
 4321TIP3    H112920   1.402   5.691   2.633
 4321TIP3    H212921   1.502   5.793   2.683
 4322TIP3   OH212922   1.405   5.354   2.876
 4322TIP3    H112923   1.437   5.330   2.789
 4322TIP3    H212924   1.446   5.438   2.895
 4323TIP3   OH212925   1.922   5.993   2.655
 4323TIP3    H112926   1.913   6.074   2.705
 4323TIP3    H212927   1.909   5.923   2.719
 4324TIP3   OH212928   1.537   5.911   3.201
 4324TIP3    H112929   1.480   5.972   3.248
 4324TIP3    H212930   1.476   5.857   3.151
 4325TIP3   OH212931   1.871   5.252   1.933
 4325TIP3    H112932   1.932   5.306   1.983
 4325TIP3    H212933   1.894   5.267   1.842
 4326TIP3   OH212934   1.291   5.470   3.304
 4326TIP3    H112935   1.300   5.556   3.345
 4326TIP3    H212936   1.200   5.445   3.319
 4327TIP3   OH212937   1.612   5.927   2.210
 4327TIP3    H112938   1.697   5.969   2.218
 4327TIP3    H212939   1.557   5.991   2.165
 4328TIP3   OH212940   1.331   6.075   3.289
 4328TIP3    H112941   1.296   6.082   3.200
 4328TIP3    H212942   1.254   6.054   3.343
 4329TIP3   OH212943   2.388   4.485   1.982
 4329TIP3    H112944   2.308   4.506   2.030
 4329TIP3    H212945   2.406   4.564   1.930
 4330TIP3   OH212946   1.126   5.231   2.330
 4330TIP3    H112947   1.057   5.267   2.274
 4330TIP3    H212948   1.101   5.140   2.344
 4331TIP3   OH212949   2.192   5.852   1.527
 4331TIP3    H112950   2.198   5.947   1.515
 4331TIP3    H212951   2.283   5.822   1.518
 4332TIP3   OH212952   0.912   5.610   3.234
 4332TIP3    H112953   0.843   5.591   3.171
 4332TIP3    H212954   0.948   5.524   3.256
 4333TIP3   OH212955   0.765   5.809   2.865
 4333TIP3    H112956   0.860   5.810   2.870
 4333TIP3    H212957   0.737   5.884   2.918
 4334TIP3   OH212958   2.628   6.255   2.927
 4334TIP3    H112959   2.630   6.160   2.941
 4334TIP3    H212960   2.548   6.283   2.971
 4335TIP3   OH212961   1.732   6.042   3.059
 4335TIP3    H112962   1.733   6.133   3.090
 4335TIP3    H212963   1.665   5.999   3.112
 4336TIP3   OH212964   1.498   6.165   2.013
 4336TIP3    H112965   1.455   6.151   1.929
 4336TIP3    H212966   1.468   6.251   2.041
 4337TIP3   OH212967   0.935   6.016   2.398
 4337TIP3    H112968   0.978   6.014   2.484
 4337TIP3    H212969   0.864   5.952   2.405
 4338TIP3   OH212970   1.700   6.069   1.649
 4338TIP3    H112971   1.757   6.002   1.612
 4338TIP3    H212972   1.733   6.082   1.738
 4339TIP3   OH212973   1.749   6.120   1.920
 4339TIP3    H112974   1.663   6.128   1.960
 4339TIP3    H212975   1.806   6.088   1.990
 4340TIP3   OH212976   2.517   5.381   3.201
 4340TIP3    H112977   2.436   5.393   3.151
 4340TIP3    H212978   2.537   5.288   3.194
 4341TIP3   OH212979   1.116   5.791   3.219
 4341TIP3    H112980   1.164   5.781   3.301
 4341TIP3    H212981   1.043   5.730   3.226
 4342TIP3   OH212982   1.512   4.617   3.011
 4342TIP3    H112983   1.428   4.584   2.980
 4342TIP3    H212984   1.491   4.697   3.059
 4343TIP3   OH212985   2.052   4.729   3.206
 4343TIP3    H112986   2.121   4.703   3.267
 4343TIP3    H212987   1.970   4.712   3.252
 4344TIP3   OH212988   2.282   5.160   3.120
 4344TIP3    H112989   2.235   5.157   3.203
 4344TIP3    H212990   2.263   5.247   3.085
 4345TIP3   OH212991   1.951   5.290   1.680
 4345TIP3    H112992   1.911   5.266   1.597
 4345TIP3    H212993   2.035   5.329   1.656
 4346TIP3   OH212994   1.658   4.662   1.983
 4346TIP3    H112995   1.626   4.660   2.073
 4346TIP3    H212996   1.621   4.584   1.942
 4347TIP3   OH212997   1.446   5.135   3.028
 4347TIP3    H112998   1.398   5.154   3.109
 4347TIP3    H212999   1.432   5.213   2.974
 4348TIP3   OH213000   1.327   5.020   2.539
 4348TIP3    H113001   1.238   4.993   2.562
 4348TIP3    H213002   1.343   4.980   2.454
 4349TIP3   OH213003   1.821   5.105   2.267
 4349TIP3    H113004   1.771   5.175   2.225
 4349TIP3    H213005   1.877   5.070   2.198
 4350TIP3   OH213006   1.998   5.378   3.355
 4350TIP3    H113007   1.975   5.307   3.415
 4350TIP3    H213008   2.090   5.396   3.374
 4351TIP3   OH213009   1.976   5.128   2.503
 4351TIP3    H113010   1.914   5.159   2.437
 4351TIP3    H213011   2.015   5.049   2.464
 4352TIP3   OH213012   1.265   5.160   3.236
 4352TIP3    H113013   1.297   5.223   3.300
 4352TIP3    H213014   1.255   5.078   3.285
 4353TIP3   OH213015   1.317   4.641   1.946
 4353TIP3    H113016   1.307   4.639   2.041
 4353TIP3    H213017   1.242   4.691   1.914
 4354TIP3   OH213018   0.860   4.682   2.817
 4354TIP3    H113019   0.935   4.712   2.869
 4354TIP3    H213020   0.899   4.649   2.736
 4355TIP3   OH213021   0.826   4.666   2.335
 4355TIP3    H113022   0.872   4.698   2.258
 4355TIP3    H213023   0.763   4.735   2.357
 4356TIP3   OH213024   1.982   5.373   2.926
 4356TIP3    H113025   2.018   5.307   2.867
 4356TIP3    H213026   1.955   5.324   3.004
 4357TIP3   OH213027   1.662   4.840   2.602
 4357TIP3    H113028   1.582   4.840   2.655
 4357TIP3    H213029   1.733   4.832   2.665
 4358TIP3   OH213030   1.092   4.897   2.606
 4358TIP3    H113031   1.000   4.906   2.579
 4358TIP3    H213032   1.114   4.806   2.587
 4359TIP3   OH213033   1.358   4.893   2.299
 4359TIP3    H113034   1.451   4.906   2.279
 4359TIP3    H213035   1.313   4.914   2.217
 4360TIP3   OH213036   2.149   4.917   2.805
 4360TIP3    H113037   2.121   4.931   2.895
 4360TIP3    H213038   2.084   4.857   2.769
 4361TIP3   OH213039   1.208   4.933   2.073
 4361TIP3    H113040   1.138   4.883   2.032
 4361TIP3    H213041   1.260   4.966   2.000
 4362TIP3   OH213042   2.325   6.606   3.024
 4362TIP3    H113043   2.321   6.630   2.931
 4362TIP3    H213044   2.403   6.651   3.057
 4363TIP3   OH213045   1.279   5.717   3.446
 4363TIP3    H113046   1.359   5.745   3.490
 4363TIP3    H213047   1.213   5.715   3.515
 4364TIP3   OH213048   1.739   5.171   2.699
 4364TIP3    H113049   1.812   5.132   2.650
 4364TIP3    H213050   1.743   5.129   2.784
 4365TIP3   OH213051   1.261   4.654   2.582
 4365TIP3    H113052   1.224   4.581   2.632
 4365TIP3    H213053   1.306   4.612   2.509
 4366TIP3   OH213054   1.717   5.072   2.987
 4366TIP3    H113055   1.629   5.105   3.003
 4366TIP3    H213056   1.774   5.130   3.037
 4367TIP3   OH213057   1.432   5.470   2.079
 4367TIP3    H113058   1.369   5.400   2.064
 4367TIP3    H213059   1.460   5.459   2.170
 4368TIP3   OH213060   2.353   5.694   2.708
 4368TIP3    H113061   2.379   5.745   2.631
 4368TIP3    H213062   2.271   5.651   2.682
 4369TIP3   OH213063   1.912   4.764   1.957
 4369TIP3    H113064   1.818   4.746   1.960
 4369TIP3    H213065   1.919   4.858   1.975
 4370TIP3   OH213066   1.846   5.773   3.084
 4370TIP3    H113067   1.889   5.757   3.168
 4370TIP3    H213068   1.815   5.863   3.089
 4371TIP3   OH213069   1.982   5.020   2.053
 4371TIP3    H113070   2.076   5.021   2.069
 4371TIP3    H213071   1.966   5.097   1.999
 4372TIP3   OH213072   1.155   5.480   2.758
 4372TIP3    H113073   1.190   5.443   2.677
 4372TIP3    H213074   1.185   5.422   2.827
 4373TIP3   OH213075   1.599   5.608   1.908
 4373TIP3    H113076   1.556   5.694   1.907
 4373TIP3    H213077   1.545   5.556   1.969
 4374TIP3   OH213078   1.030   5.396   3.374
 4374TIP3    H113079   1.048   5.384   3.468
 4374TIP3    H213080   0.960   5.333   3.355
 4375TIP3   OH213081   1.758   5.513   3.391
 4375TIP3    H113082   1.696   5.454   3.349
 4375TIP3    H213083   1.844   5.480   3.365
 4376TIP3   OH213084   2.009   6.032   2.982
 4376TIP3    H113085   1.914   6.034   2.992
 4376TIP3    H213086   2.042   6.084   3.055
 4377TIP3   OH213087   2.416   5.112   1.885
 4377TIP3    H113088   2.357   5.065   1.825
 4377TIP3    H213089   2.420   5.201   1.849
 4378TIP3   OH213090   2.640   5.965   2.964
 4378TIP3    H113091   2.545   5.961   2.959
 4378TIP3    H213092   2.669   5.936   2.877
 4379TIP3   OH213093   2.120   5.925   1.791
 4379TIP3    H113094   2.101   5.854   1.853
 4379TIP3    H213095   2.138   5.880   1.709
 4380TIP3   OH213096   2.118   5.555   2.624
 4380TIP3    H113097   2.026   5.534   2.639
 4380TIP3    H213098   2.154   5.476   2.583
 4381TIP3   OH213099   0.815   5.087   2.095
 4381TIP3    H113100   0.858   5.170   2.112
 4381TIP3    H213101   0.737   5.087   2.151
 4382TIP3   OH213102   1.523   6.125   2.850
 4382TIP3    H113103   1.562   6.198   2.802
 4382TIP3    H213104   1.595   6.090   2.902
 4383TIP3   OH213105   1.162   6.001   2.251
 4383TIP3    H113106   1.076   6.023   2.287
 4383TIP3    H213107   1.207   6.086   2.244
 4384TIP3   OH213108   1.904   5.760   2.817
 4384TIP3    H113109   1.890   5.759   2.911
 4384TIP3    H213110   1.986   5.713   2.804
 4385TIP3   OH213111   1.887   5.654   1.698
 4385TIP3    H113112   1.939   5.633   1.776
 4385TIP3    H213113   1.798   5.623   1.720
 4386TIP3   OH213114   2.150   6.292   2.859
 4386TIP3    H113115   2.072   6.237   2.854
 4386TIP3    H213116   2.139   6.357   2.790
 4387TIP3   OH213117   2.219   6.130   1.515
 4387TIP3    H113118   2.263   6.200   1.467
 4387TIP3    H213119   2.138   6.170   1.548
 4388TIP3   OH213120   1.236   4.903   3.379
 4388TIP3    H113121   1.141   4.906   3.390
 4388TIP3    H213122   1.267   4.848   3.452
 4389TIP3   OH213123   2.047   5.593   1.922
 4389TIP3    H113124   2.032   5.523   1.985
 4389TIP3    H213125   2.140   5.587   1.901
 4390TIP3   OH213126   0.964   5.983   3.010
 4390TIP3    H113127   1.012   5.917   3.060
 4390TIP3    H213128   0.973   6.064   3.061
 4391TIP3   OH213129   1.245   5.631   1.703
 4391TIP3    H113130   1.258   5.545   1.663
 4391TIP3    H213131   1.214   5.612   1.791
 4392TIP3   OH213132   1.199   5.640   1.991
 4392TIP3    H113133   1.290   5.613   1.998
 4392TIP3    H213134   1.203   5.735   1.980
 4393TIP3   OH213135   0.922   5.336   2.171
 4393TIP3    H113136   0.855   5.376   2.227
 4393TIP3    H213137   0.933   5.399   2.099
 4394TIP3   OH213138   2.079   4.966   3.064
 4394TIP3    H113139   2.157   5.008   3.100
 4394TIP3    H213140   2.067   4.888   3.118
 4395TIP3   OH213141   1.959   4.717   2.233
 4395TIP3    H113142   1.945   4.735   2.140
 4395TIP3    H213143   1.998   4.798   2.267
 4396TIP3   OH213144   1.453   5.835   1.916
 4396TIP3    H113145   1.369   5.863   1.952
 4396TIP3    H213146   1.478   5.906   1.856
 4397TIP3   OH213147   1.642   4.903   2.333
 4397TIP3    H113148   1.705   4.973   2.314
 4397TIP3    H213149   1.648   4.890   2.427
 4398TIP3   OH213150   1.918   5.216   3.137
 4398TIP3    H113151   1.940   5.268   3.214
 4398TIP3    H213152   1.969   5.135   3.147
 4399TIP3   OH213153   1.789   4.621   2.430
 4399TIP3    H113154   1.785   4.693   2.493
 4399TIP3    H213155   1.849   4.653   2.362
 4400TIP3   OH213156   1.201   5.913   1.986
 4400TIP3    H113157   1.175   5.978   1.920
 4400TIP3    H213158   1.183   5.956   2.070
 4401TIP3   OH213159   1.304   4.629   2.223
 4401TIP3    H113160   1.295   4.716   2.262
 4401TIP3    H213161   1.397   4.609   2.228
 4402TIP3   OH213162   2.549   5.117   3.122
 4402TIP3    H113163   2.454   5.114   3.127
 4402TIP3    H213164   2.570   5.080   3.036
 4403TIP3   OH213165   2.205   5.310   2.508
 4403TIP3    H113166   2.131   5.252   2.521
 4403TIP3    H213167   2.277   5.268   2.554
 4404TIP3   OH213168   0.921   5.536   1.973
 4404TIP3    H113169   0.983   5.608   1.980
 4404TIP3    H213170   0.959   5.477   1.909
 4405TIP3   OH213171   0.861   4.817   2.112
 4405TIP3    H113172   0.860   4.912   2.109
 4405TIP3    H213173   0.787   4.790   2.057
 4406TIP3   OH213174   2.176   6.271   2.451
 4406TIP3    H113175   2.132   6.315   2.379
 4406TIP3    H213176   2.269   6.288   2.436
 4407TIP3   OH213177   1.250   4.534   2.981
 4407TIP3    H113178   1.220   4.502   2.896
 4407TIP3    H213179   1.240   4.460   3.040
 4408TIP3   OH213180   0.796   5.750   2.357
 4408TIP3    H113181   0.741   5.772   2.431
 4408TIP3    H213182   0.754   5.793   2.282
 4409TIP3   OH213183   0.951   6.300   3.435
 4409TIP3    H113184   1.034   6.304   3.481
 4409TIP3    H213185   0.928   6.207   3.433
 4410TIP3   OH213186   1.425   6.255   3.481
 4410TIP3    H113187   1.520   6.244   3.488
 4410TIP3    H213188   1.399   6.197   3.410
 4411TIP3   OH213189   1.410   5.832   1.607
 4411TIP3    H113190   1.355   5.764   1.646
 4411TIP3    H213191   1.485   5.784   1.573
 4412TIP3   OH213192   2.067   6.166   3.215
 4412TIP3    H113193   2.059   6.099   3.282
 4412TIP3    H213194   2.142   6.219   3.242
 4413TIP3   OH213195   1.847   5.872   1.520
 4413TIP3    H113196   1.884   5.811   1.583
 4413TIP3    H213197   1.909   5.872   1.447
 4414TIP3   OH213198   1.076   5.703   3.634
 4414TIP3    H113199   1.092   5.609   3.642
 4414TIP3    H213200   0.991   5.708   3.590
 4415TIP3   OH213201   1.058   5.355   1.828
 4415TIP3    H113202   1.107   5.314   1.899
 4415TIP3    H213203   1.119   5.358   1.755
 4416TIP3   OH213204   1.683   5.790   3.409
 4416TIP3    H113205   1.645   5.811   3.323
 4416TIP3    H213206   1.715   5.700   3.399
 4417TIP3   OH213207   1.572   5.553   1.640
 4417TIP3    H113208   1.574   5.566   1.734
 4417TIP3    H213209   1.573   5.458   1.628
 4418TIP3   OH213210   2.174   5.805   3.014
 4418TIP3    H113211   2.253   5.840   2.972
 4418TIP3    H213212   2.108   5.873   3.000
 4419TIP3   OH213213   1.200   5.439   3.620
 4419TIP3    H113214   1.276   5.390   3.591
 4419TIP3    H213215   1.225   5.474   3.706
 4420TIP3   OH213216   1.273   5.251   2.058
 4420TIP3    H113217   1.234   5.206   2.132
 4420TIP3    H213218   1.307   5.181   2.002
 4421TIP3   OH213219   1.530   5.323   3.277
 4421TIP3    H113220   1.454   5.381   3.278
 4421TIP3    H213221   1.583   5.354   3.204
 4422TIP3   OH213222   1.367   5.056   1.886
 4422TIP3    H113223   1.339   5.061   1.794
 4422TIP3    H213224   1.462   5.054   1.882
 4423TIP3   OH213225   2.050   5.723   3.412
 4423TIP3    H113226   2.129   5.697   3.365
 4423TIP3    H213227   2.042   5.661   3.484
 4424TIP3   OH213228   2.179   5.384   1.556
 4424TIP3    H113229   2.162   5.335   1.476
 4424TIP3    H213230   2.147   5.472   1.537
 4425TIP3   OH213231   1.653   5.113   3.402
 4425TIP3    H113232   1.656   5.034   3.348
 4425TIP3    H213233   1.610   5.178   3.348
 4426TIP3   OH213234   1.657   4.900   3.212
 4426TIP3    H113235   1.686   4.940   3.130
 4426TIP3    H213236   1.566   4.876   3.195
 4427TIP3   OH213237   1.680   5.430   3.083
 4427TIP3    H113238   1.768   5.443   3.047
 4427TIP3    H213239   1.626   5.495   3.039
 4428TIP3   OH213240   2.265   5.398   3.463
 4428TIP3    H113241   2.311   5.316   3.479
 4428TIP3    H213242   2.332   5.457   3.429
 4429TIP3   OH213243   2.306   5.655   3.196
 4429TIP3    H113244   2.247   5.708   3.142
 4429TIP3    H213245   2.393   5.674   3.162
 4430TIP3   OH213246   1.531   5.217   3.637
 4430TIP3    H113247   1.465   5.150   3.654
 4430TIP3    H213248   1.566   5.195   3.551
 4431TIP3   OH213249   1.787   4.659   3.280
 4431TIP3    H113250   1.740   4.740   3.259
 4431TIP3    H213251   1.721   4.590   3.271
 4432TIP3   OH213252   1.913   5.162   3.499
 4432TIP3    H113253   1.906   5.148   3.593
 4432TIP3    H213254   1.827   5.139   3.464
 4433TIP3   OH213255   2.153   5.113   3.353
 4433TIP3    H113256   2.080   5.115   3.414
 4433TIP3    H213257   2.228   5.085   3.405
 4434TIP3   OH213258   2.379   5.054   3.501
 4434TIP3    H113259   2.395   4.960   3.516
 4434TIP3    H213260   2.378   5.092   3.589
 4435TIP3   OH213261   1.373   4.997   3.694
 4435TIP3    H113262   1.375   4.908   3.659
 4435TIP3    H213263   1.412   4.989   3.782
 4436TIP3   OH213264   1.884   4.670   3.536
 4436TIP3    H113265   1.949   4.599   3.535
 4436TIP3    H213266   1.843   4.666   3.450
 4437TIP3   OH213267   1.949   4.885   3.696
 4437TIP3    H113268   1.931   4.815   3.634
 4437TIP3    H213269   1.872   4.942   3.691
 4438TIP3   OH213270   1.175   6.112   1.798
 4438TIP3    H113271   1.268   6.106   1.777
 4438TIP3    H213272   1.137   6.162   1.726
 4439TIP3   OH213273   0.651   5.492   2.015
 4439TIP3    H113274   0.742   5.516   1.998
 4439TIP3    H213275   0.640   5.407   1.973
 4440TIP3   OH213276   0.569   6.106   2.428
 4440TIP3    H113277   0.502   6.050   2.388
 4440TIP3    H213278   0.612   6.049   2.492
 4441TIP3   OH213279   0.711   5.950   2.612
 4441TIP3    H113280   0.685   5.886   2.678
 4441TIP3    H213281   0.756   6.018   2.661
 4442TIP3   OH213282   2.429   6.361   2.416
 4442TIP3    H113283   2.455   6.392   2.503
 4442TIP3    H213284   2.494   6.398   2.357
 4443TIP3   OH213285   2.457   6.376   2.699
 4443TIP3    H113286   2.413   6.291   2.693
 4443TIP3    H213287   2.534   6.359   2.753
 4444TIP3   OH213288   2.503   6.057   3.271
 4444TIP3    H113289   2.432   6.066   3.335
 4444TIP3    H213290   2.547   6.142   3.273
 4445TIP3   OH213291   2.322   5.571   1.889
 4445TIP3    H113292   2.386   5.633   1.856
 4445TIP3    H213293   2.364   5.532   1.966
 4446TIP3   OH213294   2.447   5.437   2.094
 4446TIP3    H113295   2.383   5.396   2.152
 4446TIP3    H213296   2.515   5.471   2.152
 4447TIP3   OH213297   2.504   5.829   2.520
 4447TIP3    H113298   2.556   5.761   2.477
 4447TIP3    H213299   2.503   5.902   2.458
 4448TIP3   OH213300   2.329   6.128   2.718
 4448TIP3    H113301   2.261   6.171   2.769
 4448TIP3    H213302   2.283   6.083   2.647
 4449TIP3   OH213303   2.383   5.347   1.738
 4449TIP3    H113304   2.314   5.345   1.672
 4449TIP3    H213305   2.359   5.420   1.795
 4450TIP3   OH213306   2.251   5.017   1.692
 4450TIP3    H113307   2.215   5.051   1.610
 4450TIP3    H213308   2.232   4.923   1.690
 4451TIP3   OH213309   2.259   5.294   2.240
 4451TIP3    H113310   2.270   5.200   2.229
 4451TIP3    H213311   2.246   5.306   2.334
 4452TIP3   OH213312   0.889   5.364   2.986
 4452TIP3    H113313   0.883   5.332   2.896
 4452TIP3    H213314   0.983   5.367   3.004
 4453TIP3   OH213315   2.554   5.719   3.095
 4453TIP3    H113316   2.622   5.652   3.086
 4453TIP3    H213317   2.579   5.788   3.034
 4454TIP3   OH213318   2.733   5.516   3.107
 4454TIP3    H113319   2.659   5.469   3.147
 4454TIP3    H213320   2.808   5.458   3.121
 4455TIP3   OH213321   2.198   4.753   1.680
 4455TIP3    H113322   2.272   4.718   1.730
 4455TIP3    H213323   2.127   4.691   1.695
 4456TIP3   OH213324   2.261   5.008   2.128
 4456TIP3    H113325   2.298   4.921   2.145
 4456TIP3    H213326   2.316   5.044   2.058
 4457TIP3   OH213327   2.420   5.183   2.628
 4457TIP3    H113328   2.502   5.204   2.583
 4457TIP3    H213329   2.431   5.217   2.717
 4458TIP3   OH213330   2.489   5.328   2.858
 4458TIP3    H113331   2.413   5.361   2.907
 4458TIP3    H213332   2.523   5.406   2.813
 4459TIP3   OH213333   1.108   5.050   3.662
 4459TIP3    H113334   1.203   5.047   3.663
 4459TIP3    H213335   1.081   4.966   3.698
 4460TIP3   OH213336   2.937   4.918   3.412
 4460TIP3    H113337   2.999   4.855   3.375
 4460TIP3    H213338   2.909   4.971   3.337
 4461TIP3   OH213339   2.366   4.759   2.173
 4461TIP3    H113340   2.415   4.746   2.253
 4461TIP3    H213341   2.306   4.685   2.169
 4462TIP3   OH213342   1.069   4.745   2.990
 4462TIP3    H113343   1.127   4.669   2.999
 4462TIP3    H213344   1.129   4.819   2.982
 4463TIP3   OH213345   0.868   5.018   3.061
 4463TIP3    H113346   0.917   5.013   2.979
 4463TIP3    H213347   0.895   5.101   3.100
 4464TIP3   OH213348   2.806   5.055   3.216
 4464TIP3    H113349   2.725   5.100   3.240
 4464TIP3    H213350   2.778   4.982   3.161
 4465TIP3   OH213351   2.446   4.690   1.804
 4465TIP3    H113352   2.483   4.622   1.749
 4465TIP3    H213353   2.511   4.760   1.802
 4466TIP3   OH213354   0.852   4.525   2.566
 4466TIP3    H113355   0.761   4.515   2.593
 4466TIP3    H213356   0.848   4.581   2.489
 4467TIP3   OH213357   2.010   6.227   2.068
 4467TIP3    H113358   2.062   6.218   1.988
 4467TIP3    H213359   2.058   6.291   2.121
 4468TIP3   OH213360   1.072   4.603   3.379
 4468TIP3    H113361   1.023   4.597   3.461
 4468TIP3    H213362   1.009   4.639   3.316
 4469TIP3   OH213363   1.111   6.028   3.452
 4469TIP3    H113364   1.019   6.006   3.439
 4469TIP3    H213365   1.125   6.015   3.546
 4470TIP3   OH213366   1.296   6.066   2.998
 4470TIP3    H113367   1.243   6.139   2.964
 4470TIP3    H213368   1.382   6.079   2.957
 4471TIP3   OH213369   1.735   6.308   3.140
 4471TIP3    H113370   1.773   6.306   3.228
 4471TIP3    H213371   1.798   6.358   3.088
 4472TIP3   OH213372   1.916   6.461   3.003
 4472TIP3    H113373   1.985   6.410   2.959
 4472TIP3    H213374   1.963   6.518   3.063
 4473TIP3   OH213375   2.709   4.817   3.099
 4473TIP3    H113376   2.620   4.811   3.064
 4473TIP3    H213377   2.744   4.728   3.090
 4474TIP3   OH213378   0.964   6.319   3.031
 4474TIP3    H113379   0.876   6.347   3.006
 4474TIP3    H213380   0.983   6.368   3.111
 4475TIP3   OH213381   1.200   6.297   2.884
 4475TIP3    H113382   1.116   6.309   2.930
 4475TIP3    H213383   1.184   6.332   2.797
 4476TIP3   OH213384   1.627   6.327   2.684
 4476TIP3    H113385   1.560   6.345   2.618
 4476TIP3    H213386   1.641   6.411   2.727
 4477TIP3   OH213387   1.898   6.264   2.733
 4477TIP3    H113388   1.806   6.283   2.716
 4477TIP3    H213389   1.946   6.336   2.693
 4478TIP3   OH213390   2.100   6.454   2.645
 4478TIP3    H113391   2.089   6.538   2.602
 4478TIP3    H213392   2.130   6.395   2.575
 4479TIP3   OH213393   0.885   6.111   2.766
 4479TIP3    H113394   0.901   6.087   2.858
 4479TIP3    H213395   0.954   6.068   2.717
 4480TIP3   OH213396   1.079   5.980   2.625
 4480TIP3    H113397   1.089   5.902   2.680
 4480TIP3    H213398   1.165   6.022   2.628
 4481TIP3   OH213399   1.340   6.072   2.640
 4481TIP3    H113400   1.376   5.985   2.625
 4481TIP3    H213401   1.386   6.104   2.717
 4482TIP3   OH213402   1.910   4.731   2.715
 4482TIP3    H113403   1.871   4.662   2.769
 4482TIP3    H213404   1.987   4.690   2.676
 4483TIP3   OH213405   2.433   4.613   2.620
 4483TIP3    H113406   2.472   4.665   2.549
 4483TIP3    H213407   2.341   4.637   2.618
 4484TIP3   OH213408   2.534   4.714   2.386
 4484TIP3    H113409   2.604   4.661   2.349
 4484TIP3    H213410   2.563   4.805   2.374
 4485TIP3   OH213411   1.162   4.440   2.733
 4485TIP3    H113412   1.070   4.411   2.737
 4485TIP3    H213413   1.212   4.358   2.728
 4486TIP3   OH213414   0.949   4.318   2.386
 4486TIP3    H113415   0.979   4.372   2.313
 4486TIP3    H213416   0.922   4.381   2.453
 4487TIP3   OH213417   1.612   4.473   2.617
 4487TIP3    H113418   1.665   4.521   2.553
 4487TIP3    H213419   1.635   4.512   2.702
 4488TIP3   OH213420   2.147   4.622   2.600
 4488TIP3    H113421   2.154   4.586   2.512
 4488TIP3    H213422   2.137   4.545   2.656
 4489TIP3   OH213423   2.181   4.546   2.164
 4489TIP3    H113424   2.098   4.592   2.176
 4489TIP3    H213425   2.169   4.462   2.208
 4490TIP3   OH213426   0.665   5.888   2.164
 4490TIP3    H113427   0.581   5.854   2.134
 4490TIP3    H213428   0.667   5.978   2.133
 4491TIP3   OH213429   1.071   4.469   2.144
 4491TIP3    H113430   1.116   4.406   2.088
 4491TIP3    H213431   1.141   4.523   2.180
 4492TIP3   OH213432   1.580   4.651   2.249
 4492TIP3    H113433   1.639   4.603   2.306
 4492TIP3    H213434   1.598   4.743   2.268
 4493TIP3   OH213435   1.442   6.068   1.741
 4493TIP3    H113436   1.529   6.093   1.710
 4493TIP3    H213437   1.416   5.995   1.685
 4494TIP3   OH213438   2.155   6.191   1.836
 4494TIP3    H113439   2.148   6.096   1.828
 4494TIP3    H213440   2.113   6.225   1.757
 4495TIP3   OH213441   1.372   4.723   3.629
 4495TIP3    H113442   1.334   4.652   3.681
 4495TIP3    H213443   1.464   4.724   3.654
 4496TIP3   OH213444   1.622   4.720   3.746
 4496TIP3    H113445   1.706   4.696   3.706
 4496TIP3    H213446   1.607   4.655   3.814
 4497TIP3   OH213447   0.734   5.887   1.811
 4497TIP3    H113448   0.732   5.926   1.898
 4497TIP3    H213449   0.824   5.854   1.801
 4498TIP3   OH213450   2.450   4.784   3.532
 4498TIP3    H113451   2.464   4.754   3.622
 4498TIP3    H213452   2.536   4.780   3.492
 4499TIP3   OH213453   2.379   6.337   3.024
 4499TIP3    H113454   2.304   6.305   2.974
 4499TIP3    H213455   2.364   6.431   3.031
 4500TIP3   OH213456   3.647   5.708   1.789
 4500TIP3    H113457   3.621   5.798   1.770
 4500TIP3    H213458   3.576   5.654   1.755
 4501TIP3   OH213459   3.648   5.710   2.178
 4501TIP3    H113460   3.684   5.685   2.263
 4501TIP3    H213461   3.611   5.630   2.142
 4502TIP3   OH213462   2.947   5.601   2.542
 4502TIP3    H113463   2.975   5.533   2.603
 4502TIP3    H213464   3.026   5.653   2.527
 4503TIP3   OH213465   3.895   6.012   1.857
 4503TIP3    H113466   3.880   5.942   1.921
 4503TIP3    H213467   3.927   6.086   1.909
 4504TIP3   OH213468   2.922   6.010   2.258
 4504TIP3    H113469   2.912   5.915   2.260
 4504TIP3    H213470   3.017   6.023   2.251
 4505TIP3   OH213471   2.624   5.211   2.042
 4505TIP3    H113472   2.583   5.296   2.062
 4505TIP3    H213473   2.555   5.161   1.999
 4506TIP3   OH213474   2.685   5.500   2.220
 4506TIP3    H113475   2.732   5.424   2.254
 4506TIP3    H213476   2.747   5.543   2.162
 4507TIP3   OH213477   3.547   6.471   1.873
 4507TIP3    H113478   3.586   6.404   1.817
 4507TIP3    H213479   3.539   6.429   1.958
 4508TIP3   OH213480   3.451   5.934   2.221
 4508TIP3    H113481   3.487   5.857   2.178
 4508TIP3    H213482   3.528   5.985   2.247
 4509TIP3   OH213483   4.465   5.255   2.217
 4509TIP3    H113484   4.494   5.336   2.258
 4509TIP3    H213485   4.489   5.264   2.125
 4510TIP3   OH213486   3.858   5.432   2.249
 4510TIP3    H113487   3.904   5.351   2.272
 4510TIP3    H213488   3.828   5.417   2.159
 4511TIP3   OH213489   3.198   5.095   2.214
 4511TIP3    H113490   3.184   5.169   2.155
 4511TIP3    H213491   3.153   5.022   2.173
 4512TIP3   OH213492   3.898   5.189   1.835
 4512TIP3    H113493   3.964   5.174   1.903
 4512TIP3    H213494   3.948   5.221   1.760
 4513TIP3   OH213495   2.834   5.294   2.323
 4513TIP3    H113496   2.914   5.280   2.373
 4513TIP3    H213497   2.846   5.242   2.244
 4514TIP3   OH213498   3.273   5.491   2.123
 4514TIP3    H113499   3.366   5.472   2.132
 4514TIP3    H213500   3.235   5.411   2.088
 4515TIP3   OH213501   4.537   5.465   2.389
 4515TIP3    H113502   4.454   5.507   2.366
 4515TIP3    H213503   4.554   5.494   2.478
 4516TIP3   OH213504   3.193   5.079   2.651
 4516TIP3    H113505   3.137   5.115   2.582
 4516TIP3    H213506   3.144   5.095   2.732
 4517TIP3   OH213507   3.529   5.925   1.662
 4517TIP3    H113508   3.502   5.916   1.571
 4517TIP3    H213509   3.491   6.009   1.690
 4518TIP3   OH213510   3.302   5.856   2.442
 4518TIP3    H113511   3.244   5.923   2.479
 4518TIP3    H213512   3.346   5.901   2.370
 4519TIP3   OH213513   4.098   5.195   2.016
 4519TIP3    H113514   4.093   5.144   2.097
 4519TIP3    H213515   4.153   5.270   2.038
 4520TIP3   OH213516   3.069   5.195   2.434
 4520TIP3    H113517   3.127   5.266   2.460
 4520TIP3    H213518   3.114   5.153   2.360
 4521TIP3   OH213519   3.129   6.054   2.544
 4521TIP3    H113520   3.108   6.139   2.506
 4521TIP3    H213521   3.053   6.032   2.599
 4522TIP3   OH213522   2.520   5.742   1.778
 4522TIP3    H113523   2.484   5.771   1.694
 4522TIP3    H213524   2.555   5.822   1.818
 4523TIP3   OH213525   3.960   6.259   2.021
 4523TIP3    H113526   3.873   6.246   2.059
 4523TIP3    H213527   3.954   6.342   1.974
 4524TIP3   OH213528   4.257   5.154   2.383
 4524TIP3    H113529   4.170   5.180   2.351
 4524TIP3    H213530   4.318   5.186   2.316
 4525TIP3   OH213531   3.544   4.793   2.365
 4525TIP3    H113532   3.534   4.700   2.383
 4525TIP3    H213533   3.472   4.835   2.412
 4526TIP3   OH213534   3.663   6.300   1.688
 4526TIP3    H113535   3.706   6.216   1.672
 4526TIP3    H213536   3.724   6.365   1.653
 4527TIP3   OH213537   3.801   6.082   1.608
 4527TIP3    H113538   3.789   6.004   1.554
 4527TIP3    H213539   3.839   6.049   1.689
 4528TIP3   OH213540   4.187   6.165   2.361
 4528TIP3    H113541   4.176   6.088   2.305
 4528TIP3    H213542   4.171   6.240   2.303
 4529TIP3   OH213543   3.481   5.562   1.621
 4529TIP3    H113544   3.404   5.616   1.601
 4529TIP3    H213545   3.529   5.557   1.539
 4530TIP3   OH213546   3.443   5.346   1.335
 4530TIP3    H113547   3.505   5.401   1.382
 4530TIP3    H213548   3.498   5.284   1.287
 4531TIP3   OH213549   4.382   5.809   2.210
 4531TIP3    H113550   4.299   5.856   2.215
 4531TIP3    H213551   4.415   5.828   2.122
 4532TIP3   OH213552   3.830   5.643   1.594
 4532TIP3    H113553   3.776   5.666   1.669
 4532TIP3    H213554   3.914   5.618   1.632
 4533TIP3   OH213555   4.060   5.682   2.510
 4533TIP3    H113556   4.061   5.762   2.561
 4533TIP3    H213557   3.977   5.684   2.463
 4534TIP3   OH213558   3.061   5.637   2.012
 4534TIP3    H113559   3.021   5.582   1.946
 4534TIP3    H213560   3.137   5.587   2.043
 4535TIP3   OH213561   3.191   6.049   2.158
 4535TIP3    H113562   3.171   6.018   2.069
 4535TIP3    H213563   3.278   6.015   2.177
 4536TIP3   OH213564   3.191   5.615   2.363
 4536TIP3    H113565   3.226   5.586   2.279
 4536TIP3    H213566   3.237   5.696   2.382
 4537TIP3   OH213567   3.721   6.250   2.143
 4537TIP3    H113568   3.710   6.329   2.197
 4537TIP3    H213569   3.705   6.177   2.203
 4538TIP3   OH213570   3.334   6.169   2.688
 4538TIP3    H113571   3.277   6.229   2.735
 4538TIP3    H213572   3.274   6.115   2.637
 4539TIP3   OH213573   3.666   5.506   1.417
 4539TIP3    H113574   3.724   5.562   1.468
 4539TIP3    H213575   3.690   5.522   1.326
 4540TIP3   OH213576   3.090   5.724   2.796
 4540TIP3    H113577   3.097   5.812   2.835
 4540TIP3    H213578   2.998   5.702   2.804
 4541TIP3   OH213579   3.413   6.182   1.696
 4541TIP3    H113580   3.496   6.228   1.702
 4541TIP3    H213581   3.354   6.244   1.651
 4542TIP3   OH213582   3.127   6.333   2.775
 4542TIP3    H113583   3.095   6.337   2.685
 4542TIP3    H213584   3.049   6.313   2.828
 4543TIP3   OH213585   4.182   4.742   1.466
 4543TIP3    H113586   4.104   4.765   1.516
 4543TIP3    H213587   4.202   4.820   1.415
 4544TIP3   OH213588   2.925   5.484   1.815
 4544TIP3    H113589   2.860   5.526   1.760
 4544TIP3    H213590   2.894   5.394   1.824
 4545TIP3   OH213591   3.988   6.107   1.020
 4545TIP3    H113592   3.994   6.201   1.000
 4545TIP3    H213593   4.077   6.074   1.007
 4546TIP3   OH213594   2.707   5.866   2.722
 4546TIP3    H113595   2.644   5.844   2.654
 4546TIP3    H213596   2.747   5.782   2.746
 4547TIP3   OH213597   2.565   6.060   2.355
 4547TIP3    H113598   2.660   6.050   2.343
 4547TIP3    H213599   2.557   6.137   2.412
 4548TIP3   OH213600   4.423   6.513   2.412
 4548TIP3    H113601   4.426   6.418   2.424
 4548TIP3    H213602   4.344   6.540   2.457
 4549TIP3   OH213603   3.530   6.298   2.547
 4549TIP3    H113604   3.529   6.389   2.577
 4549TIP3    H213605   3.462   6.254   2.598
 4550TIP3   OH213606   3.293   6.422   1.499
 4550TIP3    H113607   3.252   6.407   1.414
 4550TIP3    H213608   3.264   6.510   1.524
 4551TIP3   OH213609   2.731   6.272   1.887
 4551TIP3    H113610   2.781   6.268   1.968
 4551TIP3    H213611   2.679   6.191   1.887
 4552TIP3   OH213612   3.495   6.326   1.137
 4552TIP3    H113613   3.551   6.258   1.098
 4552TIP3    H213614   3.530   6.338   1.225
 4553TIP3   OH213615   3.545   6.377   1.408
 4553TIP3    H113616   3.459   6.385   1.449
 4553TIP3    H213617   3.600   6.338   1.476
 4554TIP3   OH213618   4.314   5.639   2.686
 4554TIP3    H113619   4.232   5.651   2.638
 4554TIP3    H213620   4.333   5.546   2.678
 4555TIP3   OH213621   2.911   6.049   2.709
 4555TIP3    H113622   2.962   6.034   2.789
 4555TIP3    H213623   2.838   5.988   2.716
 4556TIP3   OH213624   3.308   4.873   2.498
 4556TIP3    H113625   3.223   4.843   2.467
 4556TIP3    H213626   3.289   4.954   2.545
 4557TIP3   OH213627   3.849   4.985   2.691
 4557TIP3    H113628   3.918   4.959   2.752
 4557TIP3    H213629   3.768   4.968   2.739
 4558TIP3   OH213630   4.081   5.417   2.609
 4558TIP3    H113631   4.032   5.414   2.691
 4558TIP3    H213632   4.060   5.504   2.572
 4559TIP3   OH213633   3.743   5.546   1.162
 4559TIP3    H113634   3.707   5.521   1.076
 4559TIP3    H213635   3.828   5.585   1.142
 4560TIP3   OH213636   3.451   4.920   1.468
 4560TIP3    H113637   3.421   4.918   1.559
 4560TIP3    H213638   3.418   4.839   1.430
 4561TIP3   OH213639   3.241   5.393   2.514
 4561TIP3    H113640   3.196   5.413   2.596
 4561TIP3    H213641   3.227   5.471   2.460
 4562TIP3   OH213642   3.126   5.273   2.026
 4562TIP3    H113643   3.036   5.250   2.047
 4562TIP3    H213644   3.141   5.235   1.940
 4563TIP3   OH213645   3.617   5.359   1.754
 4563TIP3    H113646   3.568   5.430   1.712
 4563TIP3    H213647   3.675   5.326   1.685
 4564TIP3   OH213648   3.795   5.634   2.841
 4564TIP3    H113649   3.771   5.564   2.901
 4564TIP3    H213650   3.886   5.653   2.861
 4565TIP3   OH213651   3.771   5.384   1.990
 4565TIP3    H113652   3.710   5.416   1.923
 4565TIP3    H213653   3.811   5.307   1.951
 4566TIP3   OH213654   3.061   5.417   2.725
 4566TIP3    H113655   3.100   5.480   2.786
 4566TIP3    H213656   3.054   5.336   2.775
 4567TIP3   OH213657   3.108   4.895   1.433
 4567TIP3    H113658   3.104   4.894   1.529
 4567TIP3    H213659   3.034   4.950   1.406
 4568TIP3   OH213660   2.658   4.936   2.306
 4568TIP3    H113661   2.729   4.972   2.359
 4568TIP3    H213662   2.700   4.912   2.223
 4569TIP3   OH213663   2.621   4.921   1.822
 4569TIP3    H113664   2.669   4.951   1.745
 4569TIP3    H213665   2.561   4.992   1.843
 4570TIP3   OH213666   3.782   5.629   2.415
 4570TIP3    H113667   3.816   5.563   2.355
 4570TIP3    H213668   3.753   5.579   2.492
 4571TIP3   OH213669   3.458   5.097   2.090
 4571TIP3    H113670   3.380   5.096   2.145
 4571TIP3    H213671   3.531   5.089   2.151
 4572TIP3   OH213672   2.888   5.153   2.095
 4572TIP3    H113673   2.797   5.159   2.066
 4572TIP3    H213674   2.915   5.064   2.072
 4573TIP3   OH213675   3.154   5.149   1.785
 4573TIP3    H113676   3.247   5.162   1.768
 4573TIP3    H213677   3.111   5.170   1.702
 4574TIP3   OH213678   3.947   5.174   2.295
 4574TIP3    H113679   3.915   5.188   2.385
 4574TIP3    H213680   3.884   5.114   2.256
 4575TIP3   OH213681   3.003   5.184   1.557
 4575TIP3    H113682   2.934   5.138   1.509
 4575TIP3    H213683   3.058   5.223   1.489
 4576TIP3   OH213684   4.121   6.864   2.511
 4576TIP3    H113685   4.118   6.883   2.417
 4576TIP3    H213686   4.201   6.907   2.542
 4577TIP3   OH213687   3.076   5.974   2.933
 4577TIP3    H113688   3.156   6.001   2.976
 4577TIP3    H213689   3.010   5.972   3.003
 4578TIP3   OH213690   3.538   5.425   2.185
 4578TIP3    H113691   3.611   5.392   2.133
 4578TIP3    H213692   3.547   5.381   2.269
 4579TIP3   OH213693   3.056   4.913   2.066
 4579TIP3    H113694   3.023   4.837   2.115
 4579TIP3    H213695   3.106   4.876   1.994
 4580TIP3   OH213696   3.513   5.324   2.480
 4580TIP3    H113697   3.426   5.362   2.490
 4580TIP3    H213698   3.571   5.385   2.525
 4581TIP3   OH213699   3.246   5.712   1.570
 4581TIP3    H113700   3.177   5.648   1.556
 4581TIP3    H213701   3.230   5.747   1.658
 4582TIP3   OH213702   4.148   5.950   2.196
 4582TIP3    H113703   4.173   6.000   2.118
 4582TIP3    H213704   4.066   5.906   2.171
 4583TIP3   OH213705   3.708   5.021   1.443
 4583TIP3    H113706   3.613   5.006   1.445
 4583TIP3    H213707   3.717   5.114   1.461
 4584TIP3   OH213708   3.647   6.031   2.569
 4584TIP3    H113709   3.684   6.014   2.656
 4584TIP3    H213710   3.611   6.119   2.576
 4585TIP3   OH213711   3.778   5.276   1.539
 4585TIP3    H113712   3.873   5.279   1.553
 4585TIP3    H213713   3.760   5.353   1.485
 4586TIP3   OH213714   2.943   5.731   2.244
 4586TIP3    H113715   2.979   5.707   2.159
 4586TIP3    H213716   2.993   5.679   2.307
 4587TIP3   OH213717   3.395   5.862   1.394
 4587TIP3    H113718   3.349   5.947   1.395
 4587TIP3    H213719   3.345   5.807   1.454
 4588TIP3   OH213720   2.825   5.657   2.863
 4588TIP3    H113721   2.848   5.646   2.955
 4588TIP3    H213722   2.760   5.589   2.846
 4589TIP3   OH213723   3.555   5.770   2.877
 4589TIP3    H113724   3.494   5.713   2.830
 4589TIP3    H213725   3.642   5.738   2.853
 4590TIP3   OH213726   3.807   6.294   2.467
 4590TIP3    H113727   3.712   6.290   2.478
 4590TIP3    H213728   3.838   6.344   2.543
 4591TIP3   OH213729   4.213   5.370   1.372
 4591TIP3    H113730   4.154   5.322   1.313
 4591TIP3    H213731   4.216   5.459   1.335
 4592TIP3   OH213732   4.437   6.224   2.449
 4592TIP3    H113733   4.342   6.218   2.446
 4592TIP3    H213734   4.466   6.193   2.363
 4593TIP3   OH213735   3.919   6.181   1.281
 4593TIP3    H113736   3.897   6.106   1.336
 4593TIP3    H213737   3.937   6.143   1.195
 4594TIP3   OH213738   3.915   5.811   2.114
 4594TIP3    H113739   3.822   5.790   2.129
 4594TIP3    H213740   3.950   5.733   2.071
 4595TIP3   OH213741   3.047   6.043   1.874
 4595TIP3    H113742   3.049   6.121   1.818
 4595TIP3    H213743   2.954   6.022   1.883
 4596TIP3   OH213744   2.607   5.345   1.576
 4596TIP3    H113745   2.655   5.425   1.596
 4596TIP3    H213746   2.534   5.344   1.637
 4597TIP3   OH213747   3.173   5.802   1.814
 4597TIP3    H113748   3.146   5.892   1.832
 4597TIP3    H213749   3.143   5.751   1.889
 4598TIP3   OH213750   3.317   6.383   2.339
 4598TIP3    H113751   3.357   6.455   2.289
 4598TIP3    H213752   3.390   6.343   2.386
 4599TIP3   OH213753   2.961   6.282   1.723
 4599TIP3    H113754   2.878   6.289   1.770
 4599TIP3    H213755   2.997   6.371   1.725
 4600TIP3   OH213756   3.700   6.017   2.302
 4600TIP3    H113757   3.687   6.015   2.397
 4600TIP3    H213758   3.778   5.964   2.286
 4601TIP3   OH213759   3.679   5.911   1.190
 4601TIP3    H113760   3.734   5.888   1.265
 4601TIP3    H213761   3.591   5.883   1.217
 4602TIP3   OH213762   3.947   6.550   2.348
 4602TIP3    H113763   3.870   6.493   2.344
 4602TIP3    H213764   3.934   6.613   2.277
 4603TIP3   OH213765   4.013   6.382   1.003
 4603TIP3    H113766   4.046   6.437   0.933
 4603TIP3    H213767   3.937   6.430   1.037
 4604TIP3   OH213768   3.034   5.159   2.867
 4604TIP3    H113769   2.939   5.162   2.879
 4604TIP3    H213770   3.066   5.107   2.941
 4605TIP3   OH213771   3.842   5.849   1.407
 4605TIP3    H113772   3.828   5.780   1.472
 4605TIP3    H213773   3.935   5.844   1.387
 4606TIP3   OH213774   2.752   6.243   2.500
 4606TIP3    H113775   2.807   6.172   2.533
 4606TIP3    H213776   2.778   6.320   2.551
 4607TIP3   OH213777   3.038   5.890   1.185
 4607TIP3    H113778   3.058   5.801   1.156
 4607TIP3    H213779   3.019   5.881   1.279
 4608TIP3   OH213780   2.985   5.897   1.459
 4608TIP3    H113781   3.064   5.868   1.506
 4608TIP3    H213782   2.987   5.992   1.464
 4609TIP3   OH213783   2.717   5.588   1.659
 4609TIP3    H113784   2.653   5.631   1.716
 4609TIP3    H213785   2.737   5.653   1.591
 4610TIP3   OH213786   3.873   5.225   2.555
 4610TIP3    H113787   3.954   5.264   2.587
 4610TIP3    H213788   3.862   5.146   2.607
 4611TIP3   OH213789   3.753   4.975   1.720
 4611TIP3    H113790   3.741   4.992   1.627
 4611TIP3    H213791   3.793   5.055   1.754
 4612TIP3   OH213792   3.250   6.091   1.403
 4612TIP3    H113793   3.165   6.116   1.440
 4612TIP3    H213794   3.272   6.163   1.344
 4613TIP3   OH213795   3.436   5.160   1.820
 4613TIP3    H113796   3.499   5.229   1.798
 4613TIP3    H213797   3.444   5.148   1.914
 4614TIP3   OH213798   3.713   5.472   2.624
 4614TIP3    H113799   3.736   5.523   2.701
 4614TIP3    H213800   3.764   5.391   2.632
 4615TIP3   OH213801   3.584   4.878   1.916
 4615TIP3    H113802   3.580   4.950   1.978
 4615TIP3    H213803   3.644   4.909   1.848
 4616TIP3   OH213804   2.996   6.169   1.473
 4616TIP3    H113805   2.969   6.237   1.410
 4616TIP3    H213806   2.983   6.210   1.558
 4617TIP3   OH213807   3.099   4.885   1.710
 4617TIP3    H113808   3.094   4.974   1.746
 4617TIP3    H213809   3.192   4.862   1.715
 4618TIP3   OH213810   4.348   5.374   2.606
 4618TIP3    H113811   4.253   5.374   2.615
 4618TIP3    H213812   4.364   5.330   2.522
 4619TIP3   OH213813   4.001   5.567   1.996
 4619TIP3    H113814   3.926   5.508   2.005
 4619TIP3    H213815   4.073   5.523   2.041
 4620TIP3   OH213816   2.719   5.794   1.459
 4620TIP3    H113817   2.787   5.860   1.474
 4620TIP3    H213818   2.758   5.734   1.395
 4621TIP3   OH213819   2.654   5.074   1.601
 4621TIP3    H113820   2.659   5.169   1.596
 4621TIP3    H213821   2.580   5.051   1.544
 4622TIP3   OH213822   3.971   6.531   1.939
 4622TIP3    H113823   3.925   6.576   1.869
 4622TIP3    H213824   4.064   6.546   1.922
 4623TIP3   OH213825   3.044   4.793   2.468
 4623TIP3    H113826   3.017   4.761   2.382
 4623TIP3    H213827   3.036   4.717   2.526
 4624TIP3   OH213828   2.580   6.007   1.846
 4624TIP3    H113829   2.518   6.041   1.911
 4624TIP3    H213830   2.554   6.050   1.764
 4625TIP3   OH213831   2.747   6.558   2.924
 4625TIP3    H113832   2.831   6.562   2.969
 4625TIP3    H213833   2.727   6.464   2.920
 4626TIP3   OH213834   3.221   6.513   2.965
 4626TIP3    H113835   3.315   6.498   2.975
 4626TIP3    H213836   3.195   6.454   2.894
 4627TIP3   OH213837   3.204   6.090   1.092
 4627TIP3    H113838   3.151   6.020   1.130
 4627TIP3    H213839   3.281   6.045   1.057
 4628TIP3   OH213840   3.862   6.425   2.703
 4628TIP3    H113841   3.854   6.356   2.769
 4628TIP3    H213842   3.938   6.476   2.731
 4629TIP3   OH213843   3.638   6.130   1.006
 4629TIP3    H113844   3.684   6.071   1.066
 4629TIP3    H213845   3.691   6.129   0.926
 4630TIP3   OH213846   2.871   5.959   3.121
 4630TIP3    H113847   2.889   5.866   3.131
 4630TIP3    H213848   2.787   5.964   3.076
 4631TIP3   OH213849   2.852   5.605   1.319
 4631TIP3    H113850   2.906   5.577   1.392
 4631TIP3    H213851   2.913   5.612   1.245
 4632TIP3   OH213852   3.478   6.047   2.896
 4632TIP3    H113853   3.440   6.067   2.810
 4632TIP3    H213854   3.511   5.957   2.887
 4633TIP3   OH213855   3.358   5.805   1.127
 4633TIP3    H113856   3.366   5.820   1.221
 4633TIP3    H213857   3.363   5.710   1.117
 4634TIP3   OH213858   3.972   6.062   2.503
 4634TIP3    H113859   4.050   6.099   2.460
 4634TIP3    H213860   3.903   6.127   2.487
 4635TIP3   OH213861   2.995   5.695   3.106
 4635TIP3    H113862   3.073   5.648   3.076
 4635TIP3    H213863   3.020   5.728   3.193
 4636TIP3   OH213864   3.052   5.514   1.533
 4636TIP3    H113865   3.033   5.475   1.618
 4636TIP3    H213866   3.094   5.444   1.483
 4637TIP3   OH213867   3.323   5.576   2.761
 4637TIP3    H113868   3.249   5.637   2.765
 4637TIP3    H213869   3.378   5.610   2.690
 4638TIP3   OH213870   3.163   5.312   1.376
 4638TIP3    H113871   3.137   5.318   1.284
 4638TIP3    H213872   3.259   5.312   1.373
 4639TIP3   OH213873   3.846   5.980   2.899
 4639TIP3    H113874   3.924   5.952   2.851
 4639TIP3    H213875   3.838   5.919   2.972
 4640TIP3   OH213876   3.973   5.638   1.045
 4640TIP3    H113877   3.964   5.592   0.962
 4640TIP3    H213878   3.944   5.727   1.027
 4641TIP3   OH213879   3.449   5.369   2.889
 4641TIP3    H113880   3.453   5.291   2.834
 4641TIP3    H213881   3.407   5.435   2.834
 4642TIP3   OH213882   3.452   5.155   2.699
 4642TIP3    H113883   3.484   5.197   2.619
 4642TIP3    H213884   3.361   5.133   2.681
 4643TIP3   OH213885   3.476   5.689   2.572
 4643TIP3    H113886   3.563   5.700   2.534
 4643TIP3    H213887   3.422   5.753   2.527
 4644TIP3   OH213888   4.060   5.654   2.950
 4644TIP3    H113889   4.106   5.573   2.968
 4644TIP3    H213890   4.127   5.713   2.915
 4645TIP3   OH213891   4.103   5.912   2.686
 4645TIP3    H113892   4.044   5.964   2.631
 4645TIP3    H213893   4.190   5.930   2.650
 4646TIP3   OH213894   3.326   5.474   3.122
 4646TIP3    H113895   3.260   5.407   3.140
 4646TIP3    H213896   3.362   5.450   3.037
 4647TIP3   OH213897   3.583   4.916   2.769
 4647TIP3    H113898   3.537   4.997   2.746
 4647TIP3    H213899   3.518   4.847   2.758
 4648TIP3   OH213900   3.709   5.418   2.986
 4648TIP3    H113901   3.703   5.406   3.080
 4648TIP3    H213902   3.623   5.395   2.952
 4649TIP3   OH213903   3.949   5.370   2.840
 4649TIP3    H113904   3.876   5.372   2.902
 4649TIP3    H213905   4.024   5.341   2.892
 4650TIP3   OH213906   4.180   5.311   2.986
 4650TIP3    H113907   4.193   5.217   3.002
 4650TIP3    H213908   4.175   5.349   3.074
 4651TIP3   OH213909   3.167   5.253   3.181
 4651TIP3    H113910   3.173   5.164   3.146
 4651TIP3    H213911   3.205   5.247   3.268
 4652TIP3   OH213912   3.677   4.925   3.026
 4652TIP3    H113913   3.744   4.856   3.023
 4652TIP3    H213914   3.638   4.923   2.939
 4653TIP3   OH213915   3.744   5.141   3.184
 4653TIP3    H113916   3.725   5.071   3.122
 4653TIP3    H213917   3.668   5.199   3.178
 4654TIP3   OH213918   2.970   6.370   1.282
 4654TIP3    H113919   3.064   6.359   1.269
 4654TIP3    H213920   2.941   6.422   1.207
 4655TIP3   OH213921   2.449   5.754   1.495
 4655TIP3    H113922   2.541   5.779   1.484
 4655TIP3    H213923   2.444   5.665   1.460
 4656TIP3   OH213924   2.363   6.360   1.917
 4656TIP3    H113925   2.298   6.302   1.877
 4656TIP3    H213926   2.408   6.305   1.981
 4657TIP3   OH213927   2.499   6.209   2.104
 4657TIP3    H113928   2.487   6.139   2.168
 4657TIP3    H213929   2.551   6.275   2.150
 4658TIP3   OH213930   4.225   6.620   1.903
 4658TIP3    H113931   4.257   6.646   1.989
 4658TIP3    H213932   4.293   6.650   1.842
 4659TIP3   OH213933   4.255   6.634   2.187
 4659TIP3    H113934   4.207   6.552   2.178
 4659TIP3    H213935   4.330   6.611   2.242
 4660TIP3   OH213936   4.299   6.314   2.758
 4660TIP3    H113937   4.228   6.321   2.822
 4660TIP3    H213938   4.342   6.399   2.760
 4661TIP3   OH213939   4.117   5.826   1.377
 4661TIP3    H113940   4.180   5.889   1.341
 4661TIP3    H213941   4.162   5.789   1.453
 4662TIP3   OH213942   4.245   5.694   1.582
 4662TIP3    H113943   4.179   5.652   1.637
 4662TIP3    H213944   4.309   5.729   1.644
 4663TIP3   OH213945   4.302   6.087   2.010
 4663TIP3    H113946   4.351   6.017   1.966
 4663TIP3    H213947   4.299   6.158   1.946
 4664TIP3   OH213948   4.127   6.388   2.204
 4664TIP3    H113949   4.056   6.427   2.256
 4664TIP3    H213950   4.082   6.341   2.134
 4665TIP3   OH213951   4.178   5.604   1.224
 4665TIP3    H113952   4.111   5.600   1.156
 4665TIP3    H213953   4.153   5.678   1.279
 4666TIP3   OH213954   4.047   5.275   1.181
 4666TIP3    H113955   4.013   5.311   1.099
 4666TIP3    H213956   4.027   5.181   1.176
 4667TIP3   OH213957   4.056   5.551   1.726
 4667TIP3    H113958   4.066   5.457   1.714
 4667TIP3    H213959   4.042   5.562   1.820
 4668TIP3   OH213960   2.684   5.623   2.471
 4668TIP3    H113961   2.680   5.590   2.382
 4668TIP3    H213962   2.778   5.625   2.491
 4669TIP3   OH213963   4.350   5.975   2.582
 4669TIP3    H113964   4.418   5.909   2.572
 4669TIP3    H213965   4.373   6.042   2.517
 4670TIP3   OH213966   4.531   5.773   2.593
 4670TIP3    H113967   4.456   5.728   2.632
 4670TIP3    H213968   4.605   5.714   2.609
 4671TIP3   OH213969   3.996   5.009   1.167
 4671TIP3    H113970   4.073   4.977   1.213
 4671TIP3    H213971   3.928   4.944   1.184
 4672TIP3   OH213972   4.058   5.266   1.615
 4672TIP3    H113973   4.094   5.179   1.632
 4672TIP3    H213974   4.112   5.301   1.544
 4673TIP3   OH213975   4.217   5.440   2.116
 4673TIP3    H113976   4.299   5.461   2.071
 4673TIP3    H213977   4.229   5.474   2.205
 4674TIP3   OH213978   4.287   5.586   2.345
 4674TIP3    H113979   4.210   5.617   2.393
 4674TIP3    H213980   4.320   5.664   2.300
 4675TIP3   OH213981   2.902   5.304   3.142
 4675TIP3    H113982   2.998   5.305   3.148
 4675TIP3    H213983   2.876   5.221   3.183
 4676TIP3   OH213984   4.738   5.177   2.899
 4676TIP3    H113985   4.798   5.113   2.860
 4676TIP3    H213986   4.706   5.228   2.824
 4677TIP3   OH213987   4.160   5.016   1.661
 4677TIP3    H113988   4.211   5.002   1.740
 4677TIP3    H213989   4.102   4.941   1.656
 4678TIP3   OH213990   2.864   5.003   2.480
 4678TIP3    H113991   2.922   4.927   2.487
 4678TIP3    H213992   2.923   5.078   2.469
 4679TIP3   OH213993   2.663   5.275   2.546
 4679TIP3    H113994   2.712   5.271   2.464
 4679TIP3    H213995   2.692   5.356   2.588
 4680TIP3   OH213996   4.601   5.311   2.704
 4680TIP3    H113997   4.520   5.356   2.725
 4680TIP3    H213998   4.575   5.238   2.648
 4681TIP3   OH213999   4.242   4.949   1.289
 4681TIP3    H114000   4.285   4.877   1.243
 4681TIP3    H214001   4.308   5.019   1.290
 4682TIP3   OH214002   2.648   4.775   2.049
 4682TIP3    H114003   2.557   4.771   2.079
 4682TIP3    H214004   2.646   4.834   1.974
 4683TIP3   OH214005   3.811   6.487   1.558
 4683TIP3    H114006   3.854   6.470   1.474
 4683TIP3    H214007   3.867   6.551   1.601
 4684TIP3   OH214008   2.866   4.856   2.863
 4684TIP3    H114009   2.820   4.855   2.947
 4684TIP3    H214010   2.804   4.895   2.801
 4685TIP3   OH214011   2.906   6.290   2.940
 4685TIP3    H114012   2.816   6.263   2.925
 4685TIP3    H214013   2.923   6.269   3.032
 4686TIP3   OH214014   3.089   6.325   2.486
 4686TIP3    H114015   3.041   6.399   2.450
 4686TIP3    H214016   3.176   6.332   2.446
 4687TIP3   OH214017   3.531   6.565   2.628
 4687TIP3    H114018   3.570   6.561   2.715
 4687TIP3    H214019   3.594   6.615   2.576
 4688TIP3   OH214020   3.711   6.718   2.489
 4688TIP3    H114021   3.777   6.665   2.444
 4688TIP3    H214022   3.761   6.773   2.549
 4689TIP3   OH214023   4.505   5.073   2.586
 4689TIP3    H114024   4.416   5.066   2.550
 4689TIP3    H214025   4.540   4.984   2.578
 4690TIP3   OH214026   2.759   6.576   2.516
 4690TIP3    H114027   2.672   6.606   2.492
 4690TIP3    H214028   2.779   6.621   2.597
 4691TIP3   OH214029   2.997   6.557   2.372
 4691TIP3    H114030   2.912   6.567   2.415
 4691TIP3    H214031   2.983   6.587   2.283
 4692TIP3   OH214032   3.423   6.583   2.172
 4692TIP3    H114033   3.357   6.598   2.104
 4692TIP3    H214034   3.436   6.669   2.212
 4693TIP3   OH214035   3.693   6.523   2.224
 4693TIP3    H114036   3.600   6.537   2.204
 4693TIP3    H214037   3.739   6.593   2.176
 4694TIP3   OH214038   3.903   6.715   2.132
 4694TIP3    H114039   3.886   6.797   2.085
 4694TIP3    H214040   3.928   6.653   2.064
 4695TIP3   OH214041   2.676   6.365   2.258
 4695TIP3    H114042   2.698   6.342   2.348
 4695TIP3    H214043   2.745   6.326   2.205
 4696TIP3   OH214044   2.872   6.241   2.119
 4696TIP3    H114045   2.885   6.158   2.166
 4696TIP3    H214046   2.960   6.279   2.113
 4697TIP3   OH214047   3.138   6.332   2.124
 4697TIP3    H114048   3.167   6.242   2.108
 4697TIP3    H214049   3.184   6.358   2.204
 4698TIP3   OH214050   3.708   4.989   2.202
 4698TIP3    H114051   3.668   4.919   2.254
 4698TIP3    H214052   3.784   4.949   2.161
 4699TIP3   OH214053   4.228   4.877   2.112
 4699TIP3    H114054   4.267   4.923   2.038
 4699TIP3    H214055   4.134   4.893   2.104
 4700TIP3   OH214056   4.327   4.972   1.876
 4700TIP3    H114057   4.396   4.916   1.839
 4700TIP3    H214058   4.358   5.061   1.862
 4701TIP3   OH214059   2.958   4.698   2.220
 4701TIP3    H114060   2.867   4.669   2.224
 4701TIP3    H214061   3.008   4.616   2.214
 4702TIP3   OH214062   2.751   4.573   1.872
 4702TIP3    H114063   2.780   4.625   1.798
 4702TIP3    H214064   2.723   4.637   1.937
 4703TIP3   OH214065   3.406   4.733   2.106
 4703TIP3    H114066   3.457   4.776   2.037
 4703TIP3    H214067   3.438   4.771   2.188
 4704TIP3   OH214068   3.942   4.878   2.086
 4704TIP3    H114069   3.953   4.841   1.999
 4704TIP3    H214070   3.932   4.801   2.143
 4705TIP3   OH214071   3.977   4.804   1.650
 4705TIP3    H114072   3.893   4.847   1.663
 4705TIP3    H214073   3.967   4.718   1.692
 4706TIP3   OH214074   2.459   6.147   1.648
 4706TIP3    H114075   2.376   6.113   1.615
 4706TIP3    H214076   2.457   6.240   1.629
 4707TIP3   OH214077   2.868   4.726   1.633
 4707TIP3    H114078   2.912   4.664   1.574
 4707TIP3    H214079   2.939   4.781   1.667
 4708TIP3   OH214080   3.375   4.908   1.735
 4708TIP3    H114081   3.436   4.859   1.790
 4708TIP3    H214082   3.394   5.000   1.755
 4709TIP3   OH214083   3.238   6.324   1.230
 4709TIP3    H114084   3.324   6.351   1.199
 4709TIP3    H214085   3.212   6.252   1.173
 4710TIP3   OH214086   3.951   6.447   1.325
 4710TIP3    H114087   3.946   6.352   1.316
 4710TIP3    H214088   3.910   6.481   1.245
 4711TIP3   OH214089   3.169   4.976   3.111
 4711TIP3    H114090   3.130   4.909   3.167
 4711TIP3    H214091   3.261   4.979   3.138
 4712TIP3   OH214092   3.417   4.976   3.231
 4712TIP3    H114093   3.502   4.956   3.191
 4712TIP3    H214094   3.405   4.908   3.297
 4713TIP3   OH214095   2.540   6.162   1.287
 4713TIP3    H114096   2.547   6.187   1.379
 4713TIP3    H214097   2.623   6.120   1.266
 4714TIP3   OH214098   4.246   5.040   3.019
 4714TIP3    H114099   4.260   5.010   3.109
 4714TIP3    H214100   4.332   5.036   2.978
 4715TIP3   OH214101   4.176   6.593   2.510
 4715TIP3    H114102   4.101   6.560   2.461
 4715TIP3    H214103   4.158   6.687   2.520
 4716TIP3   OH214104   5.445   5.970   1.273
 4716TIP3    H114105   5.417   6.059   1.251
 4716TIP3    H214106   5.375   5.913   1.241
 4717TIP3   OH214107   5.449   5.965   1.663
 4717TIP3    H114108   5.482   5.939   1.749
 4717TIP3    H214109   5.407   5.887   1.628
 4718TIP3   OH214110   4.745   5.858   2.027
 4718TIP3    H114111   4.772   5.789   2.087
 4718TIP3    H214112   4.825   5.908   2.009
 4719TIP3   OH214113   5.693   6.270   1.341
 4719TIP3    H114114   5.672   6.200   1.402
 4719TIP3    H214115   5.721   6.343   1.397
 4720TIP3   OH214116   4.720   6.270   1.749
 4720TIP3    H114117   4.709   6.175   1.748
 4720TIP3    H214118   4.814   6.282   1.738
 4721TIP3   OH214119   4.420   5.471   1.529
 4721TIP3    H114120   4.376   5.554   1.546
 4721TIP3    H214121   4.355   5.416   1.486
 4722TIP3   OH214122   4.483   5.759   1.711
 4722TIP3    H114123   4.529   5.681   1.742
 4722TIP3    H214124   4.535   5.790   1.637
 4723TIP3   OH214125   5.345   6.729   1.359
 4723TIP3    H114126   5.386   6.661   1.305
 4723TIP3    H214127   5.331   6.687   1.444
 4724TIP3   OH214128   5.246   6.192   1.707
 4724TIP3    H114129   5.279   6.114   1.663
 4724TIP3    H214130   5.325   6.240   1.733
 4725TIP3   OH214131   6.262   5.512   1.705
 4725TIP3    H114132   6.291   5.593   1.747
 4725TIP3    H214133   6.279   5.526   1.612
 4726TIP3   OH214134   5.659   5.690   1.734
 4726TIP3    H114135   5.700   5.607   1.757
 4726TIP3    H214136   5.624   5.676   1.647
 4727TIP3   OH214137   4.997   5.350   1.698
 4727TIP3    H114138   4.978   5.423   1.639
 4727TIP3    H214139   4.953   5.275   1.659
 4728TIP3   OH214140   5.695   5.447   1.324
 4728TIP3    H114141   5.762   5.429   1.390
 4728TIP3    H214142   5.744   5.479   1.249
 4729TIP3   OH214143   4.631   5.550   1.810
 4729TIP3    H114144   4.711   5.533   1.859
 4729TIP3    H214145   4.640   5.497   1.731
 4730TIP3   OH214146   5.068   5.748   1.611
 4730TIP3    H114147   5.161   5.727   1.620
 4730TIP3    H214148   5.028   5.668   1.576
 4731TIP3   OH214149   6.333   5.723   1.874
 4731TIP3    H114150   6.250   5.764   1.853
 4731TIP3    H214151   6.349   5.748   1.965
 4732TIP3   OH214152   4.989   5.337   2.139
 4732TIP3    H114153   4.933   5.370   2.069
 4732TIP3    H214154   4.939   5.353   2.219
 4733TIP3   OH214155   5.337   6.190   1.141
 4733TIP3    H114156   5.295   6.169   1.058
 4733TIP3    H214157   5.291   6.269   1.172
 4734TIP3   OH214158   5.100   6.114   1.929
 4734TIP3    H114159   5.040   6.179   1.966
 4734TIP3    H214160   5.140   6.158   1.855
 4735TIP3   OH214161   5.898   5.449   1.501
 4735TIP3    H114162   5.883   5.399   1.581
 4735TIP3    H214163   5.948   5.526   1.530
 4736TIP3   OH214164   4.867   5.450   1.919
 4736TIP3    H114165   4.927   5.520   1.945
 4736TIP3    H214166   4.911   5.408   1.845
 4737TIP3   OH214167   4.926   6.310   2.032
 4737TIP3    H114168   4.903   6.394   1.992
 4737TIP3    H214169   4.850   6.288   2.086
 4738TIP3   OH214170   4.314   5.996   1.265
 4738TIP3    H114171   4.279   6.015   1.178
 4738TIP3    H214172   4.348   6.080   1.296
 4739TIP3   OH214173   5.758   6.515   1.505
 4739TIP3    H114174   5.672   6.502   1.546
 4739TIP3    H214175   5.750   6.599   1.460
 4740TIP3   OH214176   6.051   5.413   1.870
 4740TIP3    H114177   5.964   5.435   1.838
 4740TIP3    H214178   6.111   5.443   1.802
 4741TIP3   OH214179   5.343   5.049   1.856
 4741TIP3    H114180   5.329   4.955   1.871
 4741TIP3    H214181   5.269   5.091   1.899
 4742TIP3   OH214182   5.463   6.556   1.174
 4742TIP3    H114183   5.506   6.472   1.161
 4742TIP3    H214184   5.526   6.620   1.142
 4743TIP3   OH214185   5.606   6.340   1.089
 4743TIP3    H114186   5.558   6.265   1.054
 4743TIP3    H214187   5.643   6.308   1.172
 4744TIP3   OH214188   5.984   6.421   1.848
 4744TIP3    H114189   5.972   6.344   1.794
 4744TIP3    H214190   5.966   6.495   1.790
 4745TIP3   OH214191   5.279   5.820   1.110
 4745TIP3    H114192   5.198   5.869   1.093
 4745TIP3    H214193   5.320   5.812   1.024
 4746TIP3   OH214194   5.239   5.604   0.819
 4746TIP3    H114195   5.303   5.656   0.868
 4746TIP3    H214196   5.292   5.540   0.770
 4747TIP3   OH214197   6.178   6.065   1.695
 4747TIP3    H114198   6.095   6.112   1.702
 4747TIP3    H214199   6.211   6.086   1.608
 4748TIP3   OH214200   5.628   5.901   1.081
 4748TIP3    H114201   5.570   5.924   1.154
 4748TIP3    H214202   5.710   5.875   1.122
 4749TIP3   OH214203   5.857   5.939   1.995
 4749TIP3    H114204   5.856   6.020   2.045
 4749TIP3    H214205   5.773   5.938   1.950
 4750TIP3   OH214206   4.857   5.895   1.497
 4750TIP3    H114207   4.813   5.841   1.432
 4750TIP3    H214208   4.931   5.843   1.527
 4751TIP3   OH214209   4.987   6.308   1.643
 4751TIP3    H114210   4.963   6.276   1.556
 4751TIP3    H214211   5.073   6.271   1.660
 4752TIP3   OH214212   4.991   5.868   1.853
 4752TIP3    H114213   5.021   5.841   1.766
 4752TIP3    H214214   5.035   5.952   1.868
 4753TIP3   OH214215   5.521   6.507   1.630
 4753TIP3    H114216   5.507   6.585   1.684
 4753TIP3    H214217   5.503   6.434   1.689
 4754TIP3   OH214218   5.129   6.425   2.176
 4754TIP3    H114219   5.071   6.486   2.222
 4754TIP3    H214220   5.070   6.370   2.124
 4755TIP3   OH214221   5.464   5.760   0.903
 4755TIP3    H114222   5.521   5.819   0.953
 4755TIP3    H214223   5.483   5.780   0.811
 4756TIP3   OH214224   4.887   5.980   2.284
 4756TIP3    H114225   4.892   6.068   2.323
 4756TIP3    H214226   4.794   5.957   2.290
 4757TIP3   OH214227   5.209   6.434   1.187
 4757TIP3    H114228   5.288   6.489   1.193
 4757TIP3    H214229   5.148   6.486   1.135
 4758TIP3   OH214230   4.923   6.590   2.263
 4758TIP3    H114231   4.892   6.593   2.172
 4758TIP3    H214232   4.846   6.569   2.315
 4759TIP3   OH214233   5.982   4.999   0.957
 4759TIP3    H114234   5.901   5.017   1.004
 4759TIP3    H214235   5.997   5.077   0.904
 4760TIP3   OH214236   4.718   5.742   1.306
 4760TIP3    H114237   4.655   5.786   1.249
 4760TIP3    H214238   4.689   5.651   1.309
 4761TIP3   OH214239   4.503   6.123   2.208
 4761TIP3    H114240   4.438   6.104   2.141
 4761TIP3    H214241   4.542   6.038   2.230
 4762TIP3   OH214242   4.360   6.317   1.842
 4762TIP3    H114243   4.454   6.306   1.828
 4762TIP3    H214244   4.353   6.394   1.898
 4763TIP3   OH214245   6.219   6.760   1.901
 4763TIP3    H114246   6.223   6.665   1.912
 4763TIP3    H214247   6.140   6.786   1.950
 4764TIP3   OH214248   5.326   6.553   2.036
 4764TIP3    H114249   5.325   6.644   2.065
 4764TIP3    H214250   5.257   6.510   2.086
 4765TIP3   OH214251   5.086   6.683   0.985
 4765TIP3    H114252   5.040   6.661   0.904
 4765TIP3    H214253   5.052   6.769   1.009
 4766TIP3   OH214254   4.528   6.529   1.372
 4766TIP3    H114255   4.573   6.521   1.456
 4766TIP3    H214256   4.479   6.448   1.363
 4767TIP3   OH214257   5.306   6.545   0.671
 4767TIP3    H114258   5.382   6.487   0.666
 4767TIP3    H214259   5.310   6.582   0.760
 4768TIP3   OH214260   5.341   6.631   0.925
 4768TIP3    H114261   5.251   6.645   0.956
 4768TIP3    H214262   5.387   6.595   1.001
 4769TIP3   OH214263   6.108   5.895   2.172
 4769TIP3    H114264   6.027   5.907   2.123
 4769TIP3    H214265   6.128   5.801   2.164
 4770TIP3   OH214266   4.707   6.306   2.197
 4770TIP3    H114267   4.758   6.290   2.276
 4770TIP3    H214268   4.634   6.245   2.201
 4771TIP3   OH214269   5.105   5.130   1.984
 4771TIP3    H114270   5.022   5.097   1.951
 4771TIP3    H214271   5.082   5.209   2.032
 4772TIP3   OH214272   5.643   5.244   2.178
 4772TIP3    H114273   5.711   5.215   2.239
 4772TIP3    H214274   5.561   5.224   2.223
 4773TIP3   OH214275   5.879   5.676   2.098
 4773TIP3    H114276   5.829   5.672   2.179
 4773TIP3    H214277   5.855   5.760   2.059
 4774TIP3   OH214278   5.522   5.807   0.638
 4774TIP3    H114279   5.516   5.759   0.556
 4774TIP3    H214280   5.608   5.849   0.635
 4775TIP3   OH214281   5.256   5.181   0.958
 4775TIP3    H114282   5.218   5.172   1.045
 4775TIP3    H214283   5.219   5.107   0.909
 4776TIP3   OH214284   5.040   5.648   2.002
 4776TIP3    H114285   4.990   5.665   2.082
 4776TIP3    H214286   5.026   5.726   1.948
 4777TIP3   OH214287   4.921   5.531   1.514
 4777TIP3    H114288   4.831   5.507   1.534
 4777TIP3    H214289   4.937   5.495   1.427
 4778TIP3   OH214290   5.416   5.620   1.245
 4778TIP3    H114291   5.365   5.689   1.202
 4778TIP3    H214292   5.469   5.583   1.175
 4779TIP3   OH214293   5.591   5.892   2.331
 4779TIP3    H114294   5.566   5.820   2.389
 4779TIP3    H214295   5.683   5.907   2.349
 4780TIP3   OH214296   5.570   5.643   1.476
 4780TIP3    H114297   5.506   5.671   1.410
 4780TIP3    H214298   5.610   5.565   1.438
 4781TIP3   OH214299   4.860   5.673   2.210
 4781TIP3    H114300   4.889   5.736   2.275
 4781TIP3    H214301   4.848   5.592   2.259
 4782TIP3   OH214302   4.907   5.150   0.924
 4782TIP3    H114303   4.897   5.146   1.019
 4782TIP3    H214304   4.832   5.201   0.894
 4783TIP3   OH214305   4.452   5.194   1.795
 4783TIP3    H114306   4.528   5.225   1.843
 4783TIP3    H214307   4.486   5.164   1.711
 4784TIP3   OH214308   4.417   5.178   1.310
 4784TIP3    H114309   4.466   5.206   1.232
 4784TIP3    H214310   4.357   5.250   1.327
 4785TIP3   OH214311   5.585   5.886   1.903
 4785TIP3    H114312   5.617   5.820   1.842
 4785TIP3    H214313   5.552   5.835   1.977
 4786TIP3   OH214314   5.258   5.357   1.579
 4786TIP3    H114315   5.175   5.352   1.626
 4786TIP3    H214316   5.325   5.346   1.646
 4787TIP3   OH214317   4.684   5.408   1.583
 4787TIP3    H114318   4.593   5.416   1.555
 4787TIP3    H214319   4.709   5.319   1.559
 4788TIP3   OH214320   4.951   5.410   1.272
 4788TIP3    H114321   5.043   5.418   1.247
 4788TIP3    H214322   4.903   5.428   1.191
 4789TIP3   OH214323   5.740   5.429   1.781
 4789TIP3    H114324   5.709   5.444   1.871
 4789TIP3    H214325   5.677   5.368   1.744
 4790TIP3   OH214326   4.799   5.443   1.049
 4790TIP3    H114327   4.729   5.395   1.005
 4790TIP3    H214328   4.852   5.478   0.977
 4791TIP3   OH214329   4.871   6.230   2.419
 4791TIP3    H114330   4.951   6.258   2.464
 4791TIP3    H214331   4.806   6.226   2.489
 4792TIP3   OH214332   5.334   5.684   1.676
 4792TIP3    H114333   5.402   5.642   1.623
 4792TIP3    H214334   5.336   5.638   1.760
 4793TIP3   OH214335   4.856   5.166   1.554
 4793TIP3    H114336   4.819   5.093   1.603
 4793TIP3    H214337   4.898   5.126   1.479
 4794TIP3   OH214338   5.310   5.583   1.961
 4794TIP3    H114339   5.220   5.615   1.975
 4794TIP3    H214340   5.365   5.643   2.010
 4795TIP3   OH214341   5.046   5.969   1.061
 4795TIP3    H114342   4.979   5.903   1.045
 4795TIP3    H214343   5.027   6.003   1.148
 4796TIP3   OH214344   5.944   6.206   1.682
 4796TIP3    H114345   5.967   6.257   1.605
 4796TIP3    H214346   5.862   6.162   1.659
 4797TIP3   OH214347   5.504   5.278   0.927
 4797TIP3    H114348   5.411   5.256   0.934
 4797TIP3    H214349   5.508   5.372   0.947
 4798TIP3   OH214350   5.451   6.293   2.054
 4798TIP3    H114351   5.472   6.267   2.144
 4798TIP3    H214352   5.407   6.377   2.063
 4799TIP3   OH214353   5.572   5.533   1.030
 4799TIP3    H114354   5.667   5.535   1.041
 4799TIP3    H214355   5.552   5.609   0.976
 4800TIP3   OH214356   4.743   5.995   1.730
 4800TIP3    H114357   4.776   5.967   1.645
 4800TIP3    H214358   4.783   5.933   1.792
 4801TIP3   OH214359   5.192   6.119   0.882
 4801TIP3    H114360   5.148   6.204   0.885
 4801TIP3    H214361   5.139   6.063   0.939
 4802TIP3   OH214362   4.621   5.911   2.348
 4802TIP3    H114363   4.638   5.897   2.441
 4802TIP3    H214364   4.553   5.847   2.326
 4803TIP3   OH214365   5.349   6.027   2.364
 4803TIP3    H114366   5.285   5.970   2.322
 4803TIP3    H214367   5.434   5.992   2.338
 4804TIP3   OH214368   5.605   6.558   1.950
 4804TIP3    H114369   5.511   6.546   1.962
 4804TIP3    H214370   5.634   6.604   2.029
 4805TIP3   OH214371   6.010   5.619   0.856
 4805TIP3    H114372   5.952   5.574   0.794
 4805TIP3    H214373   6.008   5.710   0.827
 4806TIP3   OH214374   6.233   6.480   1.935
 4806TIP3    H114375   6.138   6.472   1.931
 4806TIP3    H214376   6.263   6.450   1.849
 4807TIP3   OH214377   5.742   6.426   0.755
 4807TIP3    H114378   5.708   6.382   0.833
 4807TIP3    H214379   5.687   6.395   0.684
 4808TIP3   OH214380   5.712   6.066   1.601
 4808TIP3    H114381   5.619   6.045   1.617
 4808TIP3    H214382   5.746   5.988   1.557
 4809TIP3   OH214383   4.841   6.301   1.363
 4809TIP3    H114384   4.839   6.379   1.306
 4809TIP3    H214385   4.750   6.272   1.366
 4810TIP3   OH214386   4.405   5.600   1.063
 4810TIP3    H114387   4.451   5.682   1.079
 4810TIP3    H214388   4.328   5.603   1.120
 4811TIP3   OH214389   4.974   6.062   1.304
 4811TIP3    H114390   4.943   6.151   1.322
 4811TIP3    H214391   4.939   6.009   1.375
 4812TIP3   OH214392   5.113   6.640   1.827
 4812TIP3    H114393   5.152   6.711   1.776
 4812TIP3    H214394   5.187   6.600   1.873
 4813TIP3   OH214395   4.758   6.538   1.212
 4813TIP3    H114396   4.673   6.544   1.257
 4813TIP3    H214397   4.792   6.627   1.212
 4814TIP3   OH214398   5.498   6.273   1.787
 4814TIP3    H114399   5.486   6.273   1.882
 4814TIP3    H214400   5.572   6.215   1.772
 4815TIP3   OH214401   5.459   6.157   0.675
 4815TIP3    H114402   5.516   6.134   0.748
 4815TIP3    H214403   5.371   6.140   0.707
 4816TIP3   OH214404   5.741   6.808   1.837
 4816TIP3    H114405   5.666   6.749   1.836
 4816TIP3    H214406   5.726   6.868   1.764
 4817TIP3   OH214407   4.827   5.418   2.353
 4817TIP3    H114408   4.732   5.419   2.362
 4817TIP3    H214409   4.857   5.360   2.423
 4818TIP3   OH214410   5.635   6.098   0.886
 4818TIP3    H114411   5.623   6.035   0.958
 4818TIP3    H214412   5.729   6.098   0.871
 4819TIP3   OH214413   4.549   6.501   1.988
 4819TIP3    H114414   4.600   6.424   2.014
 4819TIP3    H214415   4.579   6.571   2.045
 4820TIP3   OH214416   4.827   6.147   0.670
 4820TIP3    H114417   4.854   6.060   0.640
 4820TIP3    H214418   4.808   6.135   0.763
 4821TIP3   OH214419   4.783   6.158   0.944
 4821TIP3    H114420   4.856   6.127   0.998
 4821TIP3    H214421   4.787   6.254   0.950
 4822TIP3   OH214422   4.517   5.846   1.146
 4822TIP3    H114423   4.450   5.889   1.200
 4822TIP3    H214424   4.532   5.908   1.074
 4823TIP3   OH214425   5.670   5.483   2.042
 4823TIP3    H114426   5.752   5.518   2.076
 4823TIP3    H214427   5.656   5.403   2.092
 4824TIP3   OH214428   5.551   5.231   1.205
 4824TIP3    H114429   5.534   5.248   1.113
 4824TIP3    H214430   5.588   5.313   1.239
 4825TIP3   OH214431   5.054   6.351   0.896
 4825TIP3    H114432   4.969   6.378   0.930
 4825TIP3    H214433   5.061   6.395   0.812
 4826TIP3   OH214434   5.240   5.415   1.308
 4826TIP3    H114435   5.301   5.487   1.289
 4826TIP3    H214436   5.242   5.406   1.404
 4827TIP3   OH214437   5.509   5.729   2.110
 4827TIP3    H114438   5.533   5.778   2.188
 4827TIP3    H214439   5.559   5.647   2.117
 4828TIP3   OH214440   5.382   5.140   1.407
 4828TIP3    H114441   5.367   5.219   1.459
 4828TIP3    H214442   5.442   5.168   1.338
 4829TIP3   OH214443   4.800   6.431   0.959
 4829TIP3    H114444   4.766   6.495   0.896
 4829TIP3    H214445   4.781   6.469   1.044
 4830TIP3   OH214446   4.892   5.144   1.200
 4830TIP3    H114447   4.891   5.233   1.236
 4830TIP3    H214448   4.984   5.118   1.203
 4831TIP3   OH214449   6.144   5.629   2.091
 4831TIP3    H114450   6.049   5.632   2.103
 4831TIP3    H214451   6.157   5.581   2.010
 4832TIP3   OH214452   5.798   5.823   1.481
 4832TIP3    H114453   5.721   5.767   1.491
 4832TIP3    H214454   5.868   5.777   1.528
 4833TIP3   OH214455   4.514   6.051   0.949
 4833TIP3    H114456   4.581   6.120   0.956
 4833TIP3    H214457   4.552   5.987   0.889
 4834TIP3   OH214458   4.451   5.331   1.087
 4834TIP3    H114459   4.455   5.426   1.084
 4834TIP3    H214460   4.380   5.307   1.028
 4835TIP3   OH214461   5.769   6.786   1.426
 4835TIP3    H114462   5.722   6.830   1.355
 4835TIP3    H214463   5.862   6.801   1.407
 4836TIP3   OH214464   4.841   5.048   1.955
 4836TIP3    H114465   4.813   5.018   1.869
 4836TIP3    H214466   4.831   4.972   2.012
 4837TIP3   OH214467   4.381   6.275   1.332
 4837TIP3    H114468   4.313   6.299   1.395
 4837TIP3    H214469   4.351   6.312   1.249
 4838TIP3   OH214470   4.542   6.814   2.410
 4838TIP3    H114471   4.627   6.817   2.455
 4838TIP3    H214472   4.520   6.721   2.406
 4839TIP3   OH214473   5.018   6.770   2.452
 4839TIP3    H114474   5.112   6.754   2.460
 4839TIP3    H214475   4.989   6.711   2.382
 4840TIP3   OH214476   5.016   6.333   0.599
 4840TIP3    H114477   4.934   6.285   0.615
 4840TIP3    H214478   5.082   6.266   0.588
 4841TIP3   OH214479   5.663   6.680   2.191
 4841TIP3    H114480   5.650   6.610   2.255
 4841TIP3    H214481   5.738   6.729   2.223
 4842TIP3   OH214482   4.667   6.216   2.608
 4842TIP3    H114483   4.686   6.123   2.616
 4842TIP3    H214484   4.583   6.221   2.564
 4843TIP3   OH214485   4.663   5.876   0.818
 4843TIP3    H114486   4.729   5.837   0.877
 4843TIP3    H214487   4.706   5.878   0.733
 4844TIP3   OH214488   5.275   6.304   2.382
 4844TIP3    H114489   5.234   6.324   2.298
 4844TIP3    H214490   5.306   6.213   2.372
 4845TIP3   OH214491   5.143   6.074   0.609
 4845TIP3    H114492   5.157   6.081   0.704
 4845TIP3    H214493   5.144   5.980   0.592
 4846TIP3   OH214494   5.770   6.316   1.991
 4846TIP3    H114495   5.845   6.357   1.947
 4846TIP3    H214496   5.697   6.376   1.975
 4847TIP3   OH214497   4.791   5.956   2.594
 4847TIP3    H114498   4.865   5.904   2.563
 4847TIP3    H214499   4.818   5.987   2.681
 4848TIP3   OH214500   4.862   5.769   1.027
 4848TIP3    H114501   4.826   5.728   1.106
 4848TIP3    H214502   4.896   5.696   0.975
 4849TIP3   OH214503   5.125   5.838   2.254
 4849TIP3    H114504   5.046   5.893   2.254
 4849TIP3    H214505   5.176   5.870   2.179
 4850TIP3   OH214506   4.959   5.568   0.864
 4850TIP3    H114507   4.929   5.572   0.773
 4850TIP3    H214508   5.054   5.567   0.858
 4851TIP3   OH214509   5.644   6.238   2.387
 4851TIP3    H114510   5.718   6.206   2.335
 4851TIP3    H214511   5.634   6.174   2.457
 4852TIP3   OH214512   5.777   5.858   0.535
 4852TIP3    H114513   5.799   5.793   0.467
 4852TIP3    H214514   5.774   5.941   0.488
 4853TIP3   OH214515   5.247   5.625   2.375
 4853TIP3    H114516   5.248   5.547   2.319
 4853TIP3    H214517   5.204   5.692   2.321
 4854TIP3   OH214518   5.249   5.414   2.186
 4854TIP3    H114519   5.279   5.452   2.103
 4854TIP3    H214520   5.158   5.389   2.169
 4855TIP3   OH214521   5.274   5.949   2.061
 4855TIP3    H114522   5.358   5.956   2.016
 4855TIP3    H214523   5.217   6.010   2.015
 4856TIP3   OH214524   5.858   5.910   2.438
 4856TIP3    H114525   5.902   5.826   2.447
 4856TIP3    H214526   5.925   5.968   2.401
 4857TIP3   OH214527   5.900   6.170   2.176
 4857TIP3    H114528   5.841   6.221   2.120
 4857TIP3    H214529   5.987   6.187   2.140
 4858TIP3   OH214530   5.126   5.729   2.611
 4858TIP3    H114531   5.059   5.663   2.628
 4858TIP3    H214532   5.159   5.709   2.524
 4859TIP3   OH214533   5.379   5.174   2.256
 4859TIP3    H114534   5.332   5.254   2.233
 4859TIP3    H214535   5.315   5.104   2.244
 4860TIP3   OH214536   5.504   5.674   2.471
 4860TIP3    H114537   5.492   5.661   2.565
 4860TIP3    H214538   5.419   5.652   2.433
 4861TIP3   OH214539   5.747   5.631   2.329
 4861TIP3    H114540   5.672   5.629   2.389
 4861TIP3    H214541   5.821   5.599   2.381
 4862TIP3   OH214542   5.977   5.569   2.476
 4862TIP3    H114543   5.990   5.475   2.489
 4862TIP3    H214544   5.973   5.605   2.565
 4863TIP3   OH214545   4.965   5.511   2.667
 4863TIP3    H114546   4.966   5.422   2.631
 4863TIP3    H214547   5.002   5.501   2.755
 4864TIP3   OH214548   5.475   5.181   2.513
 4864TIP3    H114549   5.540   5.112   2.509
 4864TIP3    H214550   5.434   5.180   2.426
 4865TIP3   OH214551   5.541   5.398   2.671
 4865TIP3    H114552   5.522   5.327   2.609
 4865TIP3    H214553   5.465   5.455   2.665
 4866TIP3   OH214554   4.763   6.635   0.771
 4866TIP3    H114555   4.857   6.625   0.752
 4866TIP3    H214556   4.727   6.675   0.692
 4867TIP3   OH214557   4.245   6.006   0.995
 4867TIP3    H114558   4.335   6.031   0.974
 4867TIP3    H214559   4.232   5.922   0.952
 4868TIP3   OH214560   4.157   6.619   1.404
 4868TIP3    H114561   4.094   6.561   1.361
 4868TIP3    H214562   4.203   6.563   1.466
 4869TIP3   OH214563   4.292   6.470   1.592
 4869TIP3    H114564   4.280   6.396   1.651
 4869TIP3    H214565   4.346   6.532   1.641
 4870TIP3   OH214566   6.025   6.871   1.390
 4870TIP3    H114567   6.046   6.906   1.477
 4870TIP3    H214568   6.085   6.917   1.331
 4871TIP3   OH214569   6.048   6.886   1.680
 4871TIP3    H114570   6.002   6.803   1.669
 4871TIP3    H214571   6.133   6.863   1.717
 4872TIP3   OH214572   6.090   6.570   2.240
 4872TIP3    H114573   6.022   6.577   2.307
 4872TIP3    H214574   6.138   6.652   2.246
 4873TIP3   OH214575   5.916   6.080   0.872
 4873TIP3    H114576   5.986   6.142   0.850
 4873TIP3    H214577   5.949   6.033   0.949
 4874TIP3   OH214578   6.041   5.946   1.072
 4874TIP3    H114579   5.975   5.905   1.127
 4874TIP3    H214580   6.104   5.983   1.133
 4875TIP3   OH214581   6.099   6.344   1.497
 4875TIP3    H114582   6.150   6.275   1.454
 4875TIP3    H214583   6.090   6.413   1.431
 4876TIP3   OH214584   5.920   6.642   1.690
 4876TIP3    H114585   5.848   6.681   1.739
 4876TIP3    H214586   5.877   6.594   1.619
 4877TIP3   OH214587   5.974   5.855   0.722
 4877TIP3    H114588   5.902   5.839   0.661
 4877TIP3    H214589   5.946   5.932   0.773
 4878TIP3   OH214590   5.854   5.535   0.650
 4878TIP3    H114591   5.827   5.559   0.561
 4878TIP3    H214592   5.821   5.446   0.663
 4879TIP3   OH214593   5.854   5.805   1.213
 4879TIP3    H114594   5.858   5.710   1.201
 4879TIP3    H214595   5.839   5.816   1.307
 4880TIP3   OH214596   4.480   5.878   1.959
 4880TIP3    H114597   4.474   5.845   1.870
 4880TIP3    H214598   4.574   5.880   1.978
 4881TIP3   OH214599   6.146   6.232   2.069
 4881TIP3    H114600   6.214   6.164   2.061
 4881TIP3    H214601   6.169   6.297   2.003
 4882TIP3   OH214602   6.325   6.029   2.082
 4882TIP3    H114603   6.250   5.983   2.119
 4882TIP3    H214604   6.400   5.971   2.096
 4883TIP3   OH214605   5.777   5.277   0.672
 4883TIP3    H114606   5.854   5.235   0.711
 4883TIP3    H214607   5.705   5.216   0.688
 4884TIP3   OH214608   5.855   5.522   1.104
 4884TIP3    H114609   5.890   5.435   1.122
 4884TIP3    H214610   5.908   5.553   1.030
 4885TIP3   OH214611   6.013   5.695   1.604
 4885TIP3    H114612   6.095   5.717   1.559
 4885TIP3    H214613   6.023   5.730   1.692
 4886TIP3   OH214614   6.082   5.842   1.832
 4886TIP3    H114615   6.005   5.873   1.880
 4886TIP3    H214616   6.115   5.921   1.787
 4887TIP3   OH214617   4.700   5.563   2.637
 4887TIP3    H114618   4.795   5.560   2.637
 4887TIP3    H214619   4.673   5.479   2.673
 4888TIP3   OH214620   6.534   5.434   2.385
 4888TIP3    H114621   6.593   5.370   2.347
 4888TIP3    H214622   6.502   5.485   2.311
 4889TIP3   OH214623   5.958   5.272   1.147
 4889TIP3    H114624   6.005   5.257   1.228
 4889TIP3    H214625   5.896   5.199   1.141
 4890TIP3   OH214626   4.661   5.260   1.971
 4890TIP3    H114627   4.718   5.182   1.974
 4890TIP3    H214628   4.722   5.332   1.957
 4891TIP3   OH214629   4.460   5.533   2.034
 4891TIP3    H114630   4.507   5.523   1.951
 4891TIP3    H214631   4.490   5.616   2.069
 4892TIP3   OH214632   6.398   5.567   2.190
 4892TIP3    H114633   6.316   5.613   2.209
 4892TIP3    H214634   6.372   5.494   2.134
 4893TIP3   OH214635   6.039   5.200   0.776
 4893TIP3    H114636   6.067   5.129   0.718
 4893TIP3    H214637   6.104   5.269   0.762
 4894TIP3   OH214638   4.447   5.047   1.545
 4894TIP3    H114639   4.354   5.031   1.565
 4894TIP3    H214640   4.445   5.097   1.463
 4895TIP3   OH214641   5.621   6.735   1.048
 4895TIP3    H114642   5.657   6.729   0.960
 4895TIP3    H214643   5.662   6.813   1.085
 4896TIP3   OH214644   4.665   5.119   2.354
 4896TIP3    H114645   4.614   5.112   2.435
 4896TIP3    H214646   4.603   5.153   2.289
 4897TIP3   OH214647   4.702   6.548   2.429
 4897TIP3    H114648   4.613   6.521   2.410
 4897TIP3    H214649   4.717   6.523   2.520
 4898TIP3   OH214650   4.886   6.583   1.975
 4898TIP3    H114651   4.836   6.656   1.938
 4898TIP3    H214652   4.972   6.590   1.933
 4899TIP3   OH214653   5.324   6.819   2.116
 4899TIP3    H114654   5.365   6.818   2.202
 4899TIP3    H214655   5.385   6.869   2.062
 4900TIP3   OH214656   5.499   6.973   1.974
 4900TIP3    H114657   5.565   6.924   1.927
 4900TIP3    H214658   5.549   7.027   2.036
 4901TIP3   OH214659   6.301   5.329   2.072
 4901TIP3    H114660   6.212   5.321   2.038
 4901TIP3    H214661   6.337   5.240   2.065
 4902TIP3   OH214662   4.557   6.836   2.000
 4902TIP3    H114663   4.470   6.868   1.976
 4902TIP3    H214664   4.572   6.872   2.087
 4903TIP3   OH214665   4.795   6.815   1.859
 4903TIP3    H114666   4.710   6.825   1.902
 4903TIP3    H214667   4.780   6.843   1.769
 4904TIP3   OH214668   5.220   6.839   1.658
 4904TIP3    H114669   5.152   6.853   1.591
 4904TIP3    H214670   5.233   6.925   1.697
 4905TIP3   OH214671   5.489   6.780   1.710
 4905TIP3    H114672   5.397   6.795   1.691
 4905TIP3    H214673   5.536   6.849   1.662
 4906TIP3   OH214674   5.697   6.969   1.620
 4906TIP3    H114675   5.684   7.053   1.576
 4906TIP3    H214676   5.723   6.909   1.550
 4907TIP3   OH214677   4.472   6.623   1.748
 4907TIP3    H114678   4.497   6.599   1.837
 4907TIP3    H214679   4.540   6.584   1.692
 4908TIP3   OH214680   4.667   6.499   1.607
 4908TIP3    H114681   4.680   6.416   1.653
 4908TIP3    H214682   4.755   6.535   1.598
 4909TIP3   OH214683   4.936   6.590   1.610
 4909TIP3    H114684   4.962   6.499   1.592
 4909TIP3    H214685   4.981   6.613   1.691
 4910TIP3   OH214686   5.509   5.247   1.701
 4910TIP3    H114687   5.464   5.178   1.748
 4910TIP3    H214688   5.576   5.202   1.649
 4911TIP3   OH214689   6.027   5.134   1.597
 4911TIP3    H114690   6.063   5.182   1.523
 4911TIP3    H214691   5.932   5.146   1.590
 4912TIP3   OH214692   6.126   5.230   1.360
 4912TIP3    H114693   6.197   5.177   1.323
 4912TIP3    H214694   6.154   5.321   1.347
 4913TIP3   OH214695   4.751   4.956   1.709
 4913TIP3    H114696   4.659   4.929   1.710
 4913TIP3    H214697   4.800   4.874   1.703
 4914TIP3   OH214698   4.513   4.826   1.352
 4914TIP3    H114699   4.576   4.860   1.289
 4914TIP3    H214700   4.512   4.890   1.423
 4915TIP3   OH214701   5.202   4.996   1.583
 4915TIP3    H114702   5.261   5.043   1.523
 4915TIP3    H214703   5.229   5.024   1.670
 4916TIP3   OH214704   5.746   5.134   1.570
 4916TIP3    H114705   5.741   5.096   1.483
 4916TIP3    H214706   5.734   5.060   1.629
 4917TIP3   OH214707   5.774   5.060   1.137
 4917TIP3    H114708   5.690   5.104   1.149
 4917TIP3    H214709   5.762   4.975   1.180
 4918TIP3   OH214710   4.254   6.407   1.133
 4918TIP3    H114711   4.172   6.368   1.104
 4918TIP3    H214712   4.250   6.498   1.102
 4919TIP3   OH214713   4.666   4.987   1.112
 4919TIP3    H114714   4.709   4.911   1.073
 4919TIP3    H214715   4.737   5.037   1.152
 4920TIP3   OH214716   5.169   5.164   1.220
 4920TIP3    H114717   5.224   5.109   1.276
 4920TIP3    H214718   5.195   5.254   1.243
 4921TIP3   OH214719   5.030   6.585   0.711
 4921TIP3    H114720   5.122   6.600   0.689
 4921TIP3    H214721   5.005   6.510   0.658
 4922TIP3   OH214722   5.758   6.702   0.804
 4922TIP3    H114723   5.745   6.608   0.786
 4922TIP3    H214724   5.744   6.745   0.720
 4923TIP3   OH214725   4.963   5.238   2.603
 4923TIP3    H114726   4.925   5.167   2.655
 4923TIP3    H214727   5.056   5.238   2.628
 4924TIP3   OH214728   5.215   5.234   2.719
 4924TIP3    H114729   5.297   5.211   2.676
 4924TIP3    H214730   5.201   5.165   2.784
 4925TIP3   OH214731   4.341   6.422   0.779
 4925TIP3    H114732   4.344   6.438   0.874
 4925TIP3    H214733   4.424   6.377   0.760
 4926TIP3   OH214734   6.042   5.298   2.506
 4926TIP3    H114735   6.056   5.267   2.595
 4926TIP3    H214736   6.128   5.293   2.464
 4927TIP3   OH214737   5.968   6.862   1.990
 4927TIP3    H114738   5.889   6.813   1.966
 4927TIP3    H214739   5.979   6.925   1.919
 4928TIP3   OH214740   7.225   6.205   1.150
 4928TIP3    H114741   7.271   6.204   1.234
 4928TIP3    H214742   7.183   6.119   1.145
 4929TIP3   OH214743   6.541   6.115   1.512
 4929TIP3    H114744   6.566   6.044   1.573
 4929TIP3    H214745   6.617   6.173   1.511
 4930TIP3   OH214746   6.515   6.523   1.231
 4930TIP3    H114747   6.505   6.428   1.234
 4930TIP3    H214748   6.610   6.538   1.232
 4931TIP3   OH214749   6.221   5.733   1.010
 4931TIP3    H114750   6.172   5.812   1.033
 4931TIP3    H214751   6.154   5.672   0.979
 4932TIP3   OH214752   6.279   6.015   1.197
 4932TIP3    H114753   6.324   5.938   1.231
 4932TIP3    H214754   6.341   6.055   1.136
 4933TIP3   OH214755   7.043   6.446   1.192
 4933TIP3    H114756   7.084   6.369   1.152
 4933TIP3    H214757   7.116   6.501   1.219
 4934TIP3   OH214758   8.047   5.779   1.195
 4934TIP3    H114759   8.080   5.853   1.246
 4934TIP3    H214760   8.073   5.798   1.105
 4935TIP3   OH214761   7.454   5.947   1.234
 4935TIP3    H114762   7.497   5.865   1.257
 4935TIP3    H214763   7.421   5.933   1.145
 4936TIP3   OH214764   6.794   5.607   1.186
 4936TIP3    H114765   6.773   5.680   1.128
 4936TIP3    H214766   6.747   5.532   1.149
 4937TIP3   OH214767   7.462   5.700   0.842
 4937TIP3    H114768   7.541   5.684   0.894
 4937TIP3    H214769   7.494   5.719   0.754
 4938TIP3   OH214770   6.427   5.807   1.295
 4938TIP3    H114771   6.506   5.792   1.346
 4938TIP3    H214772   6.437   5.752   1.218
 4939TIP3   OH214773   6.865   6.003   1.091
 4939TIP3    H114774   6.957   5.982   1.106
 4939TIP3    H214775   6.826   5.921   1.060
 4940TIP3   OH214776   6.785   5.592   1.625
 4940TIP3    H114777   6.729   5.629   1.557
 4940TIP3    H214778   6.737   5.607   1.707
 4941TIP3   OH214779   6.893   6.370   1.417
 4941TIP3    H114780   6.834   6.436   1.455
 4941TIP3    H214781   6.938   6.416   1.346
 4942TIP3   OH214782   7.695   5.706   0.989
 4942TIP3    H114783   7.671   5.665   1.072
 4942TIP3    H214784   7.739   5.788   1.014
 4943TIP3   OH214785   6.663   5.708   1.406
 4943TIP3    H114786   6.720   5.780   1.434
 4943TIP3    H214787   6.711   5.666   1.335
 4944TIP3   OH214788   6.717   6.566   1.517
 4944TIP3    H114789   6.701   6.653   1.480
 4944TIP3    H214790   6.642   6.548   1.572
 4945TIP3   OH214791   6.112   6.249   0.753
 4945TIP3    H114792   6.024   6.274   0.726
 4945TIP3    H214793   6.150   6.330   0.788
 4946TIP3   OH214794   7.851   5.657   1.354
 4946TIP3    H114795   7.766   5.696   1.335
 4946TIP3    H214796   7.910   5.695   1.288
 4947TIP3   OH214797   7.137   5.306   1.342
 4947TIP3    H114798   7.127   5.213   1.361
 4947TIP3    H214799   7.064   5.348   1.387
 4948TIP3   OH214800   8.011   6.292   1.213
 4948TIP3    H114801   7.920   6.320   1.223
 4948TIP3    H214802   8.043   6.339   1.136
 4949TIP3   OH214803   7.651   6.193   1.485
 4949TIP3    H114804   7.654   6.267   1.545
 4949TIP3    H214805   7.570   6.205   1.436
 4950TIP3   OH214806   6.657   6.150   0.986
 4950TIP3    H114807   6.616   6.091   0.922
 4950TIP3    H214808   6.732   6.101   1.018
 4951TIP3   OH214809   6.784   6.562   1.142
 4951TIP3    H114810   6.762   6.531   1.055
 4951TIP3    H214811   6.873   6.530   1.157
 4952TIP3   OH214812   6.789   6.127   1.336
 4952TIP3    H114813   6.824   6.105   1.250
 4952TIP3    H214814   6.831   6.211   1.358
 4953TIP3   OH214815   7.272   6.742   1.096
 4953TIP3    H114816   7.301   6.824   1.136
 4953TIP3    H214817   7.285   6.676   1.164
 4954TIP3   OH214818   6.927   6.679   1.663
 4954TIP3    H114819   6.871   6.740   1.712
 4954TIP3    H214820   6.865   6.626   1.613
 4955TIP3   OH214821   6.681   6.237   1.768
 4955TIP3    H114822   6.690   6.325   1.807
 4955TIP3    H214823   6.589   6.215   1.781
 4956TIP3   OH214824   6.719   6.844   1.746
 4956TIP3    H114825   6.688   6.849   1.655
 4956TIP3    H214826   6.640   6.828   1.798
 4957TIP3   OH214827   6.516   5.984   0.809
 4957TIP3    H114828   6.457   6.030   0.750
 4957TIP3    H214829   6.467   5.907   0.838
 4958TIP3   OH214830   6.300   6.379   1.696
 4958TIP3    H114831   6.234   6.359   1.629
 4958TIP3    H214832   6.337   6.294   1.718
 4959TIP3   OH214833   6.157   6.579   1.321
 4959TIP3    H114834   6.252   6.566   1.319
 4959TIP3    H214835   6.144   6.652   1.382
 4960TIP3   OH214836   7.111   6.818   1.514
 4960TIP3    H114837   7.115   6.908   1.545
 4960TIP3    H214838   7.050   6.775   1.573
 4961TIP3   OH214839   6.297   6.772   0.875
 4961TIP3    H114840   6.373   6.775   0.934
 4961TIP3    H214841   6.222   6.761   0.933
 4962TIP3   OH214842   7.916   6.159   1.671
 4962TIP3    H114843   7.853   6.178   1.601
 4962TIP3    H214844   7.948   6.071   1.651
 4963TIP3   OH214845   6.503   6.563   1.684
 4963TIP3    H114846   6.555   6.548   1.762
 4963TIP3    H214847   6.430   6.501   1.690
 4964TIP3   OH214848   6.901   5.388   1.470
 4964TIP3    H114849   6.816   5.354   1.440
 4964TIP3    H214850   6.879   5.466   1.520
 4965TIP3   OH214851   7.440   5.497   1.665
 4965TIP3    H114852   7.509   5.473   1.727
 4965TIP3    H214853   7.358   5.482   1.713
 4966TIP3   OH214854   7.665   5.925   1.575
 4966TIP3    H114855   7.625   5.924   1.662
 4966TIP3    H214856   7.657   6.016   1.546
 4967TIP3   OH214857   6.834   5.906   1.487
 4967TIP3    H114858   6.789   5.925   1.569
 4967TIP3    H214859   6.821   5.985   1.434
 4968TIP3   OH214860   6.716   5.781   0.997
 4968TIP3    H114861   6.627   5.762   1.025
 4968TIP3    H214862   6.723   5.744   0.909
 4969TIP3   OH214863   7.385   6.146   1.811
 4969TIP3    H114864   7.367   6.077   1.874
 4969TIP3    H214865   7.475   6.174   1.831
 4970TIP3   OH214866   7.359   5.905   0.985
 4970TIP3    H114867   7.327   5.961   0.914
 4970TIP3    H214868   7.390   5.826   0.940
 4971TIP3   OH214869   6.654   5.929   1.697
 4971TIP3    H114870   6.690   5.993   1.758
 4971TIP3    H214871   6.644   5.849   1.748
 4972TIP3   OH214872   6.246   5.456   1.278
 4972TIP3    H114873   6.324   5.481   1.327
 4972TIP3    H214874   6.279   5.417   1.197
 4973TIP3   OH214875   6.222   5.440   0.802
 4973TIP3    H114876   6.270   5.467   0.724
 4973TIP3    H214877   6.156   5.508   0.815
 4974TIP3   OH214878   7.360   6.146   1.388
 4974TIP3    H114879   7.403   6.083   1.331
 4974TIP3    H214880   7.337   6.096   1.467
 4975TIP3   OH214881   7.043   5.610   1.057
 4975TIP3    H114882   6.964   5.609   1.112
 4975TIP3    H214883   7.115   5.608   1.119
 4976TIP3   OH214884   6.479   5.665   1.065
 4976TIP3    H114885   6.388   5.677   1.040
 4976TIP3    H214886   6.497   5.573   1.048
 4977TIP3   OH214887   6.752   5.673   0.743
 4977TIP3    H114888   6.847   5.675   0.756
 4977TIP3    H214889   6.736   5.743   0.680
 4978TIP3   OH214890   7.537   5.685   1.257
 4978TIP3    H114891   7.517   5.699   1.349
 4978TIP3    H214892   7.469   5.625   1.227
 4979TIP3   OH214893   6.668   6.487   1.907
 4979TIP3    H114894   6.749   6.513   1.949
 4979TIP3    H214895   6.604   6.484   1.978
 4980TIP3   OH214896   7.128   5.935   1.164
 4980TIP3    H114897   7.210   5.906   1.124
 4980TIP3    H214898   7.130   5.898   1.252
 4981TIP3   OH214899   6.656   5.418   1.043
 4981TIP3    H114900   6.609   5.352   1.095
 4981TIP3    H214901   6.710   5.367   0.983
 4982TIP3   OH214902   7.107   5.845   1.445
 4982TIP3    H114903   7.019   5.878   1.464
 4982TIP3    H214904   7.165   5.900   1.497
 4983TIP3   OH214905   7.753   6.365   1.152
 4983TIP3    H114906   7.746   6.460   1.149
 4983TIP3    H214907   7.662   6.335   1.155
 4984TIP3   OH214908   7.236   6.531   1.552
 4984TIP3    H114909   7.277   6.520   1.638
 4984TIP3    H214910   7.208   6.623   1.551
 4985TIP3   OH214911   6.534   6.245   1.218
 4985TIP3    H114912   6.574   6.218   1.135
 4985TIP3    H214913   6.579   6.193   1.284
 4986TIP3   OH214914   6.417   6.168   1.837
 4986TIP3    H114915   6.438   6.156   1.929
 4986TIP3    H214916   6.350   6.102   1.818
 4987TIP3   OH214917   7.148   6.281   1.853
 4987TIP3    H114918   7.088   6.224   1.804
 4987TIP3    H214919   7.235   6.251   1.827
 4988TIP3   OH214920   7.384   6.779   1.470
 4988TIP3    H114921   7.292   6.794   1.452
 4988TIP3    H214922   7.402   6.828   1.549
 4989TIP3   OH214923   7.487   6.304   1.116
 4989TIP3    H114924   7.392   6.295   1.110
 4989TIP3    H214925   7.521   6.237   1.056
 4990TIP3   OH214926   6.635   6.559   0.882
 4990TIP3    H114927   6.648   6.608   0.801
 4990TIP3    H214928   6.554   6.594   0.919
 4991TIP3   OH214929   6.196   5.856   0.568
 4991TIP3    H114930   6.242   5.932   0.605
 4991TIP3    H214931   6.118   5.846   0.623
 4992TIP3   OH214932   6.755   6.330   0.797
 4992TIP3    H114933   6.735   6.414   0.839
 4992TIP3    H214934   6.742   6.265   0.865
 4993TIP3   OH214935   6.907   6.882   1.320
 4993TIP3    H114936   6.942   6.949   1.262
 4993TIP3    H214937   6.983   6.850   1.369
 4994TIP3   OH214938   7.293   6.516   1.280
 4994TIP3    H114939   7.280   6.514   1.375
 4994TIP3    H214940   7.377   6.473   1.266
 4995TIP3   OH214941   6.625   5.672   1.839
 4995TIP3    H114942   6.530   5.677   1.849
 4995TIP3    H214943   6.654   5.617   1.912
 4996TIP3   OH214944   6.346   6.757   1.474
 4996TIP3    H114945   6.398   6.685   1.509
 4996TIP3    H214946   6.376   6.834   1.521
 4997TIP3   OH214947   6.318   6.099   0.652
 4997TIP3    H114948   6.243   6.131   0.702
 4997TIP3    H214949   6.357   6.177   0.614
 4998TIP3   OH214950   7.475   5.728   1.514
 4998TIP3    H114951   7.544   5.781   1.553
 4998TIP3    H214952   7.462   5.656   1.576
 4999TIP3   OH214953   7.027   5.665   0.792
 4999TIP3    H114954   7.095   5.731   0.777
 4999TIP3    H214955   7.029   5.649   0.886
 5000TIP3   OH214956   7.306   5.984   1.601
 5000TIP3    H114957   7.326   6.043   1.673
 5000TIP3    H214958   7.362   5.908   1.616
 5001TIP3   OH214959   7.195   5.406   0.904
 5001TIP3    H114960   7.184   5.458   0.984
 5001TIP3    H214961   7.271   5.446   0.861
 5002TIP3   OH214962   6.698   5.390   0.663
 5002TIP3    H114963   6.678   5.475   0.701
 5002TIP3    H214964   6.784   5.367   0.699
 5003TIP3   OH214965   7.939   5.904   1.564
 5003TIP3    H114966   7.844   5.899   1.578
 5003TIP3    H214967   7.953   5.861   1.479
 5004TIP3   OH214968   7.586   6.086   0.977
 5004TIP3    H114969   7.519   6.020   0.995
 5004TIP3    H214970   7.667   6.048   1.010
 5005TIP3   OH214971   6.260   5.585   0.567
 5005TIP3    H114972   6.239   5.678   0.569
 5005TIP3    H214973   6.182   5.543   0.532
 5006TIP3   OH214974   6.640   5.303   1.440
 5006TIP3    H114975   6.609   5.270   1.355
 5006TIP3    H214976   6.630   5.229   1.500
 5007TIP3   OH214977   6.165   6.507   0.829
 5007TIP3    H114978   6.116   6.543   0.902
 5007TIP3    H214979   6.242   6.563   0.822
 5008TIP3   OH214980   6.329   7.066   1.923
 5008TIP3    H114981   6.414   7.079   1.964
 5008TIP3    H214982   6.325   6.973   1.902
 5009TIP3   OH214983   6.805   7.029   1.939
 5009TIP3    H114984   6.899   7.024   1.957
 5009TIP3    H214985   6.792   6.965   1.868
 5010TIP3   OH214986   7.458   6.926   1.686
 5010TIP3    H114987   7.456   6.862   1.757
 5010TIP3    H214988   7.536   6.978   1.703
 5011TIP3   OH214989   6.463   6.473   2.095
 5011TIP3    H114990   6.482   6.379   2.104
 5011TIP3    H214991   6.379   6.476   2.049
 5012TIP3   OH214992   7.065   6.553   1.873
 5012TIP3    H114993   7.036   6.582   1.786
 5012TIP3    H214994   7.102   6.466   1.858
 5013TIP3   OH214995   7.560   6.568   1.468
 5013TIP3    H114996   7.627   6.629   1.438
 5013TIP3    H214997   7.480   6.621   1.471
 5014TIP3   OH214998   6.587   6.210   2.080
 5014TIP3    H114999   6.665   6.164   2.049
 5014TIP3    H215000   6.613   6.243   2.167
 5015TIP3   OH215001   6.917   6.089   1.733
 5015TIP3    H115002   6.843   6.150   1.738
 5015TIP3    H215003   6.971   6.122   1.662
 5016TIP3   OH215004   7.435   6.487   1.865
 5016TIP3    H115005   7.521   6.470   1.826
 5016TIP3    H215006   7.433   6.433   1.944
 5017TIP3   OH215007   7.042   5.883   1.863
 5017TIP3    H115008   7.045   5.804   1.808
 5017TIP3    H215009   7.000   5.949   1.808
 5018TIP3   OH215010   7.046   5.669   1.671
 5018TIP3    H115011   7.075   5.711   1.590
 5018TIP3    H215012   6.954   5.647   1.654
 5019TIP3   OH215013   7.069   6.199   1.542
 5019TIP3    H115014   7.157   6.217   1.510
 5019TIP3    H215015   7.015   6.266   1.501
 5020TIP3   OH215016   7.659   6.170   1.925
 5020TIP3    H115017   7.712   6.090   1.928
 5020TIP3    H215018   7.718   6.237   1.892
 5021TIP3   OH215019   7.668   6.420   1.668
 5021TIP3    H115020   7.613   6.471   1.609
 5021TIP3    H215021   7.756   6.428   1.632
 5022TIP3   OH215022   6.919   5.986   2.097
 5022TIP3    H115023   6.853   5.919   2.113
 5022TIP3    H215024   6.955   5.965   2.010
 5023TIP3   OH215025   7.175   5.430   1.742
 5023TIP3    H115026   7.128   5.510   1.720
 5023TIP3    H215027   7.109   5.361   1.732
 5024TIP3   OH215028   7.304   5.929   1.959
 5024TIP3    H115029   7.295   5.921   2.054
 5024TIP3    H215030   7.217   5.909   1.925
 5025TIP3   OH215031   7.540   5.877   1.811
 5025TIP3    H115032   7.468   5.885   1.873
 5025TIP3    H215033   7.616   5.854   1.865
 5026TIP3   OH215034   7.770   5.826   1.964
 5026TIP3    H115035   7.782   5.732   1.978
 5026TIP3    H215036   7.767   5.864   2.052
 5027TIP3   OH215037   6.761   5.766   2.154
 5027TIP3    H115038   6.764   5.677   2.119
 5027TIP3    H215039   6.798   5.759   2.242
 5028TIP3   OH215040   7.270   5.436   1.999
 5028TIP3    H115041   7.337   5.369   1.994
 5028TIP3    H215042   7.229   5.436   1.912
 5029TIP3   OH215043   7.334   5.652   2.161
 5029TIP3    H115044   7.317   5.584   2.096
 5029TIP3    H215045   7.260   5.712   2.153
 5030TIP3   OH215046   5.952   6.877   0.895
 5030TIP3    H115047   5.886   6.827   0.848
 5030TIP3    H215048   5.991   6.814   0.956
 5031TIP3   OH215049   6.108   6.717   1.069
 5031TIP3    H115050   6.080   6.650   1.130
 5031TIP3    H215051   6.149   6.784   1.123
 5032TIP3   OH215052   6.277   6.136   1.446
 5032TIP3    H115053   6.271   6.103   1.356
 5032TIP3    H215054   6.371   6.138   1.465
 5033TIP3   OH215055   7.897   6.463   1.532
 5033TIP3    H115056   7.984   6.433   1.560
 5033TIP3    H215057   7.914   6.526   1.462
 5034TIP3   OH215058   7.809   5.950   1.075
 5034TIP3    H115059   7.888   5.987   1.037
 5034TIP3    H215060   7.808   5.981   1.166
 5035TIP3   OH215061   7.851   6.078   1.309
 5035TIP3    H115062   7.784   6.119   1.364
 5035TIP3    H215063   7.917   6.145   1.297
 5036TIP3   OH215064   6.495   5.819   2.123
 5036TIP3    H115065   6.591   5.817   2.124
 5036TIP3    H215066   6.469   5.735   2.159
 5037TIP3   OH215067   6.459   5.514   1.447
 5037TIP3    H115068   6.517   5.438   1.458
 5037TIP3    H215069   6.519   5.588   1.442
 5038TIP3   OH215070   6.257   5.788   1.522
 5038TIP3    H115071   6.304   5.783   1.439
 5038TIP3    H215072   6.286   5.870   1.561
 5039TIP3   OH215073   6.240   5.303   1.034
 5039TIP3    H115074   6.148   5.286   1.054
 5039TIP3    H215075   6.238   5.353   0.953
 5040TIP3   OH215076   6.460   5.373   1.838
 5040TIP3    H115077   6.412   5.366   1.921
 5040TIP3    H215078   6.397   5.409   1.776
 5041TIP3   OH215079   6.496   6.808   1.910
 5041TIP3    H115080   6.408   6.771   1.900
 5041TIP3    H215081   6.525   6.781   1.997
 5042TIP3   OH215082   6.679   6.836   1.459
 5042TIP3    H115083   6.633   6.911   1.421
 5042TIP3    H215084   6.767   6.840   1.421
 5043TIP3   OH215085   7.140   7.093   1.596
 5043TIP3    H115086   7.167   7.080   1.687
 5043TIP3    H215087   7.210   7.144   1.557
 5044TIP3   OH215088   8.078   5.558   1.577
 5044TIP3    H115089   8.012   5.606   1.527
 5044TIP3    H215090   8.132   5.516   1.511
 5045TIP3   OH215091   6.350   7.092   1.489
 5045TIP3    H115092   6.261   7.120   1.468
 5045TIP3    H215093   6.373   7.143   1.566
 5046TIP3   OH215094   6.581   7.061   1.342
 5046TIP3    H115095   6.496   7.073   1.385
 5046TIP3    H215096   6.568   7.093   1.253
 5047TIP3   OH215097   6.994   7.073   1.159
 5047TIP3    H115098   6.965   7.114   1.078
 5047TIP3    H215099   7.027   7.145   1.212
 5048TIP3   OH215100   6.271   6.878   1.229
 5048TIP3    H115101   6.288   6.856   1.321
 5048TIP3    H215102   6.343   6.838   1.180
 5049TIP3   OH215103   6.469   6.749   1.089
 5049TIP3    H115104   6.478   6.671   1.143
 5049TIP3    H215105   6.555   6.790   1.091
 5050TIP3   OH215106   6.728   6.841   1.105
 5050TIP3    H115107   6.761   6.751   1.097
 5050TIP3    H215108   6.778   6.878   1.177
 5051TIP3   OH215109   7.290   5.490   1.161
 5051TIP3    H115110   7.256   5.429   1.226
 5051TIP3    H215111   7.375   5.452   1.135
 5052TIP3   OH215112   7.828   5.381   1.083
 5052TIP3    H115113   7.869   5.431   1.013
 5052TIP3    H215114   7.736   5.408   1.080
 5053TIP3   OH215115   0.640   7.851   2.095
 5053TIP3    H115116   0.693   7.807   2.030
 5053TIP3    H215117   0.645   7.944   2.072
 5054TIP3   OH215118   6.550   5.210   1.192
 5054TIP3    H115119   6.458   5.184   1.195
 5054TIP3    H215120   6.598   5.128   1.188
 5055TIP3   OH215121   6.354   5.086   0.851
 5055TIP3    H115122   6.379   5.141   0.777
 5055TIP3    H215123   6.315   5.147   0.914
 5056TIP3   OH215124   6.995   5.247   1.078
 5056TIP3    H115125   7.062   5.294   1.028
 5056TIP3    H215126   7.009   5.276   1.169
 5057TIP3   OH215127   7.538   5.387   1.057
 5057TIP3    H115128   7.556   5.343   0.974
 5057TIP3    H215129   7.527   5.317   1.120
 5058TIP3   OH215130   6.459   5.238   0.645
 5058TIP3    H115131   6.460   5.185   0.565
 5058TIP3    H215132   6.543   5.283   0.646
 5059TIP3   OH215133   6.953   5.399   0.754
 5059TIP3    H115134   7.015   5.341   0.799
 5059TIP3    H215135   6.975   5.487   0.786
 5060TIP3   OH215136   6.760   5.493   2.088
 5060TIP3    H115137   6.721   5.423   2.141
 5060TIP3    H215138   6.852   5.494   2.114
 5061TIP3   OH215139   7.009   5.491   2.205
 5061TIP3    H115140   7.093   5.469   2.165
 5061TIP3    H215141   6.995   5.423   2.271
 5062TIP3   OH215142   7.833   5.554   1.994
 5062TIP3    H115143   7.851   5.524   2.083
 5062TIP3    H215144   7.919   5.553   1.951
 5063TIP3   OH215145   0.512   6.557   2.882
 5063TIP3    H115146   0.536   6.638   2.927
 5063TIP3    H215147   0.529   6.576   2.789
 5064TIP3   OH215148   8.442   6.456   2.497
 5064TIP3    H115149   8.505   6.469   2.568
 5064TIP3    H215150   8.466   6.521   2.431
 5065TIP3   OH215151   0.574   6.767   3.058
 5065TIP3    H115152   0.491   6.812   3.040
 5065TIP3    H215153   0.605   6.805   3.140
 5066TIP3   OH215154   0.145   6.504   2.670
 5066TIP3    H115155   0.151   6.427   2.726
 5066TIP3    H215156   0.201   6.569   2.714
 5067TIP3   OH215157   0.306   6.465   3.048
 5067TIP3    H115158   0.225   6.505   3.016
 5067TIP3    H215159   0.372   6.489   2.982
 5068TIP3   OH215160   0.223   7.481   3.030
 5068TIP3    H115161   0.208   7.397   2.988
 5068TIP3    H215162   0.260   7.536   2.961
 5069TIP3   OH215163   0.430   7.104   2.869
 5069TIP3    H115164   0.349   7.154   2.881
 5069TIP3    H215165   0.462   7.130   2.783
 5070TIP3   OH215166   0.237   6.043   2.139
 5070TIP3    H115167   0.158   6.062   2.189
 5070TIP3    H215168   0.266   6.128   2.106
 5071TIP3   OH215169   0.377   6.941   3.355
 5071TIP3    H115170   0.298   6.972   3.310
 5071TIP3    H215171   0.376   6.846   3.344
 5072TIP3   OH215172   0.200   7.254   2.868
 5072TIP3    H115173   0.234   7.303   2.794
 5072TIP3    H215174   0.109   7.236   2.845
 5073TIP3   OH215175   0.473   7.504   3.125
 5073TIP3    H115176   0.379   7.516   3.113
 5073TIP3    H215177   0.508   7.491   3.037
 5074TIP3   OH215178   0.372   6.676   3.276
 5074TIP3    H115179   0.291   6.631   3.299
 5074TIP3    H215180   0.393   6.644   3.188
 5075TIP3   OH215181   0.047   6.847   2.648
 5075TIP3    H115182  -0.022   6.784   2.672
 5075TIP3    H215183   0.124   6.816   2.695
 5076TIP3   OH215184   0.302   6.595   3.697
 5076TIP3    H115185   0.303   6.499   3.691
 5076TIP3    H215186   0.210   6.619   3.699
 5077TIP3   OH215187   0.300   6.991   2.227
 5077TIP3    H115188   0.232   6.952   2.282
 5077TIP3    H215189   0.363   7.027   2.289
 5078TIP3   OH215190   0.332   7.383   2.674
 5078TIP3    H115191   0.394   7.329   2.626
 5078TIP3    H215192   0.331   7.466   2.627
 5079TIP3   OH215193   0.131   6.835   2.385
 5079TIP3    H115194   0.124   6.739   2.380
 5079TIP3    H215195   0.102   6.856   2.474
 5080TIP3   OH215196   0.385   7.266   3.248
 5080TIP3    H115197   0.459   7.206   3.238
 5080TIP3    H215198   0.406   7.340   3.190
 5081TIP3   OH215199   0.583   7.075   3.250
 5081TIP3    H115200   0.509   7.036   3.297
 5081TIP3    H215201   0.656   7.016   3.265
 5082TIP3   OH215202   0.135   6.564   2.310
 5082TIP3    H115203   0.147   6.478   2.352
 5082TIP3    H215204   0.159   6.549   2.219
 5083TIP3   OH215205   0.264   6.741   2.786
 5083TIP3    H115206   0.344   6.762   2.739
 5083TIP3    H215207   0.274   6.783   2.871
 5084TIP3   OH215208   0.319   6.890   3.010
 5084TIP3    H115209   0.238   6.917   3.052
 5084TIP3    H215210   0.355   6.970   2.971
 5085TIP3   OH215211   0.787   6.482   3.561
 5085TIP3    H115212   0.843   6.416   3.521
 5085TIP3    H215213   0.751   6.531   3.487
 5086TIP3   OH215214   0.220   6.301   2.320
 5086TIP3    H115215   0.262   6.293   2.406
 5086TIP3    H215216   0.148   6.238   2.322
 5087TIP3   OH215217   0.643   6.613   3.370
 5087TIP3    H115218   0.567   6.659   3.405
 5087TIP3    H215219   0.605   6.545   3.313
 5088TIP3   OH215220   0.346   6.251   1.991
 5088TIP3    H115221   0.361   6.192   1.917
 5088TIP3    H215222   0.356   6.338   1.955
 5089TIP3   OH215223   0.548   6.373   3.248
 5089TIP3    H115224   0.459   6.360   3.216
 5089TIP3    H215225   0.588   6.286   3.243
 5090TIP3   OH215226   0.297   6.169   2.767
 5090TIP3    H115227   0.334   6.219   2.695
 5090TIP3    H215228   0.204   6.188   2.766
 5091TIP3   OH215229   0.382   6.281   2.537
 5091TIP3    H115230   0.452   6.229   2.498
 5091TIP3    H215231   0.408   6.372   2.522
 5092TIP3   OH215232   0.037   6.213   2.740
 5092TIP3    H115233  -0.037   6.222   2.679
 5092TIP3    H215234   0.017   6.135   2.791
 5093TIP3   OH215235   8.529   6.099   2.310
 5093TIP3    H115236   8.446   6.132   2.276
 5093TIP3    H215237   8.506   6.015   2.351
 5094TIP3   OH215238   0.299   6.324   3.682
 5094TIP3    H115239   0.315   6.301   3.773
 5094TIP3    H215240   0.385   6.320   3.641
 5095TIP3   OH215241   1.492   7.253   1.947
 5095TIP3    H115242   1.454   7.339   1.932
 5095TIP3    H215243   1.426   7.191   1.914
 5096TIP3   OH215244   1.496   7.262   2.323
 5096TIP3    H115245   1.528   7.245   2.412
 5096TIP3    H215246   1.450   7.182   2.298
 5097TIP3   OH215247   0.790   7.160   2.687
 5097TIP3    H115248   0.817   7.091   2.748
 5097TIP3    H215249   0.860   7.225   2.692
 5098TIP3   OH215250   1.714   7.569   2.011
 5098TIP3    H115251   1.708   7.499   2.076
 5098TIP3    H215252   1.766   7.637   2.053
 5099TIP3   OH215253   0.817   7.509   2.483
 5099TIP3    H115254   0.787   7.424   2.452
 5099TIP3    H215255   0.900   7.524   2.436
 5100TIP3   OH215256   0.455   6.750   2.186
 5100TIP3    H115257   0.421   6.838   2.173
 5100TIP3    H215258   0.410   6.718   2.264
 5101TIP3   OH215259   0.532   7.062   2.368
 5101TIP3    H115260   0.574   6.983   2.403
 5101TIP3    H215261   0.604   7.119   2.345
 5102TIP3   OH215262   1.310   7.481   2.366
 5102TIP3    H115263   1.354   7.404   2.329
 5102TIP3    H215264   1.382   7.538   2.394
 5103TIP3   OH215265   2.305   6.814   2.368
 5103TIP3    H115266   2.333   6.894   2.412
 5103TIP3    H215267   2.328   6.827   2.276
 5104TIP3   OH215268   1.701   6.990   2.400
 5104TIP3    H115269   1.745   6.908   2.423
 5104TIP3    H215270   1.670   6.975   2.310
 5105TIP3   OH215271   1.041   6.652   2.363
 5105TIP3    H115272   1.024   6.727   2.306
 5105TIP3    H215273   0.994   6.579   2.323
 5106TIP3   OH215274   1.741   6.743   1.986
 5106TIP3    H115275   1.806   6.728   2.055
 5106TIP3    H215276   1.791   6.779   1.913
 5107TIP3   OH215277   0.675   6.851   2.473
 5107TIP3    H115278   0.754   6.839   2.526
 5107TIP3    H215279   0.691   6.800   2.394
 5108TIP3   OH215280   1.116   7.051   2.268
 5108TIP3    H115281   1.208   7.029   2.281
 5108TIP3    H215282   1.075   6.969   2.238
 5109TIP3   OH215283   2.375   7.022   2.542
 5109TIP3    H115284   2.293   7.066   2.520
 5109TIP3    H215285   2.400   7.057   2.627
 5110TIP3   OH215286   1.034   6.637   2.802
 5110TIP3    H115287   0.978   6.675   2.734
 5110TIP3    H215288   0.985   6.652   2.884
 5111TIP3   OH215289   1.364   7.463   1.824
 5111TIP3    H115290   1.348   7.447   1.731
 5111TIP3    H215291   1.402   7.551   1.827
 5112TIP3   OH215292   1.139   7.419   2.594
 5112TIP3    H115293   1.076   7.483   2.629
 5112TIP3    H215294   1.174   7.461   2.515
 5113TIP3   OH215295   1.941   6.751   2.168
 5113TIP3    H115296   1.922   6.710   2.253
 5113TIP3    H215297   1.993   6.828   2.189
 5114TIP3   OH215298   0.912   6.753   2.584
 5114TIP3    H115299   0.968   6.826   2.611
 5114TIP3    H215300   0.959   6.712   2.511
 5115TIP3   OH215301   0.967   7.628   2.698
 5115TIP3    H115302   0.926   7.626   2.611
 5115TIP3    H215303   0.894   7.626   2.759
 5116TIP3   OH215304   2.098   6.708   2.531
 5116TIP3    H115305   2.012   6.739   2.502
 5116TIP3    H215306   2.159   6.743   2.466
 5117TIP3   OH215307   1.387   6.355   2.518
 5117TIP3    H115308   1.374   6.261   2.533
 5117TIP3    H215309   1.314   6.397   2.564
 5118TIP3   OH215310   1.740   7.575   1.728
 5118TIP3    H115311   1.704   7.497   1.687
 5118TIP3    H215312   1.752   7.551   1.820
 5119TIP3   OH215313   2.022   7.721   2.515
 5119TIP3    H115314   2.011   7.644   2.460
 5119TIP3    H215315   2.051   7.790   2.455
 5120TIP3   OH215316   1.334   7.108   1.775
 5120TIP3    H115317   1.259   7.167   1.771
 5120TIP3    H215318   1.377   7.118   1.689
 5121TIP3   OH215319   1.308   6.897   1.507
 5121TIP3    H115320   1.371   6.953   1.554
 5121TIP3    H215321   1.363   6.838   1.454
 5122TIP3   OH215322   2.226   7.362   2.357
 5122TIP3    H115323   2.143   7.410   2.366
 5122TIP3    H215324   2.258   7.386   2.270
 5123TIP3   OH215325   1.673   7.194   1.752
 5123TIP3    H115326   1.616   7.215   1.826
 5123TIP3    H215327   1.757   7.170   1.791
 5124TIP3   OH215328   1.901   7.240   2.660
 5124TIP3    H115329   1.904   7.321   2.711
 5124TIP3    H215330   1.817   7.244   2.614
 5125TIP3   OH215331   0.908   7.193   2.151
 5125TIP3    H115332   0.867   7.131   2.091
 5125TIP3    H215333   0.984   7.146   2.186
 5126TIP3   OH215334   1.043   7.561   2.354
 5126TIP3    H115335   1.018   7.549   2.262
 5126TIP3    H215336   1.137   7.577   2.350
 5127TIP3   OH215337   1.037   7.175   2.510
 5127TIP3    H115338   1.072   7.151   2.424
 5127TIP3    H215339   1.079   7.258   2.531
 5128TIP3   OH215340   1.216   7.627   2.838
 5128TIP3    H115341   1.187   7.716   2.859
 5128TIP3    H215342   1.145   7.591   2.785
 5129TIP3   OH215343   1.521   7.056   1.569
 5129TIP3    H115344   1.572   7.118   1.620
 5129TIP3    H215345   1.543   7.075   1.478
 5130TIP3   OH215346   0.930   7.280   2.941
 5130TIP3    H115347   0.941   7.367   2.979
 5130TIP3    H215348   0.839   7.257   2.959
 5131TIP3   OH215349   2.023   6.300   1.618
 5131TIP3    H115350   1.944   6.321   1.668
 5131TIP3    H215351   2.042   6.380   1.568
 5132TIP3   OH215352   0.761   7.033   1.958
 5132TIP3    H115353   0.701   7.091   1.911
 5132TIP3    H215354   0.717   6.948   1.958
 5133TIP3   OH215355   0.565   7.425   2.881
 5133TIP3    H115356   0.497   7.408   2.816
 5133TIP3    H215357   0.599   7.338   2.903
 5134TIP3   OH215358   2.156   7.196   2.837
 5134TIP3    H115359   2.074   7.211   2.790
 5134TIP3    H215360   2.173   7.103   2.829
 5135TIP3   OH215361   0.757   7.623   2.872
 5135TIP3    H115362   0.810   7.590   2.945
 5135TIP3    H215363   0.683   7.562   2.867
 5136TIP3   OH215364   1.150   6.432   2.649
 5136TIP3    H115365   1.065   6.400   2.618
 5136TIP3    H215366   1.130   6.512   2.696
 5137TIP3   OH215367   1.689   6.543   2.842
 5137TIP3    H115368   1.758   6.518   2.904
 5137TIP3    H215369   1.607   6.527   2.890
 5138TIP3   OH215370   1.920   6.975   2.758
 5138TIP3    H115371   1.873   6.972   2.841
 5138TIP3    H215372   1.901   7.062   2.723
 5139TIP3   OH215373   1.580   7.089   1.309
 5139TIP3    H115374   1.555   7.068   1.219
 5139TIP3    H215375   1.646   7.158   1.300
 5140TIP3   OH215376   1.286   6.484   1.612
 5140TIP3    H115377   1.265   6.483   1.706
 5140TIP3    H215378   1.256   6.400   1.579
 5141TIP3   OH215379   1.082   6.953   2.662
 5141TIP3    H115380   1.035   6.971   2.744
 5141TIP3    H215381   1.068   7.032   2.609
 5142TIP3   OH215382   0.966   6.832   2.178
 5142TIP3    H115383   0.875   6.812   2.198
 5142TIP3    H215384   0.980   6.796   2.091
 5143TIP3   OH215385   1.464   6.910   1.907
 5143TIP3    H115386   1.413   6.979   1.864
 5143TIP3    H215387   1.521   6.877   1.838
 5144TIP3   OH215388   1.638   7.189   2.988
 5144TIP3    H115389   1.614   7.120   3.050
 5144TIP3    H215390   1.729   7.210   3.010
 5145TIP3   OH215391   1.615   6.942   2.142
 5145TIP3    H115392   1.553   6.975   2.077
 5145TIP3    H215393   1.652   6.863   2.101
 5146TIP3   OH215394   0.905   6.974   2.872
 5146TIP3    H115395   0.927   7.043   2.936
 5146TIP3    H215396   0.894   6.895   2.925
 5147TIP3   OH215397   0.935   6.437   1.576
 5147TIP3    H115398   0.951   6.435   1.670
 5147TIP3    H215399   0.863   6.500   1.565
 5148TIP3   OH215400   0.495   6.509   2.452
 5148TIP3    H115401   0.574   6.529   2.502
 5148TIP3    H215402   0.527   6.471   2.370
 5149TIP3   OH215403   0.462   6.512   1.956
 5149TIP3    H115404   0.544   6.526   1.910
 5149TIP3    H215405   0.455   6.585   2.017
 5150TIP3   OH215406   1.623   7.188   2.565
 5150TIP3    H115407   1.658   7.121   2.506
 5150TIP3    H215408   1.593   7.139   2.641
 5151TIP3   OH215409   1.298   6.650   2.239
 5151TIP3    H115410   1.218   6.653   2.292
 5151TIP3    H215411   1.369   6.650   2.303
 5152TIP3   OH215412   0.726   6.711   2.242
 5152TIP3    H115413   0.636   6.714   2.210
 5152TIP3    H215414   0.754   6.621   2.228
 5153TIP3   OH215415   1.004   6.709   1.937
 5153TIP3    H115416   1.099   6.721   1.928
 5153TIP3    H215417   0.971   6.713   1.847
 5154TIP3   OH215418   1.786   6.729   2.440
 5154TIP3    H115419   1.761   6.745   2.531
 5154TIP3    H215420   1.719   6.671   2.406
 5155TIP3   OH215421   0.867   6.691   1.703
 5155TIP3    H115422   0.777   6.715   1.727
 5155TIP3    H215423   0.890   6.750   1.631
 5156TIP3   OH215424   0.922   7.526   3.079
 5156TIP3    H115425   1.000   7.555   3.127
 5156TIP3    H215426   0.855   7.514   3.146
 5157TIP3   OH215427   1.378   6.982   2.336
 5157TIP3    H115428   1.454   6.948   2.289
 5157TIP3    H215429   1.384   6.942   2.422
 5158TIP3   OH215430   0.896   6.470   2.218
 5158TIP3    H115431   0.858   6.397   2.268
 5158TIP3    H215432   0.940   6.429   2.145
 5159TIP3   OH215433   1.353   6.885   2.628
 5159TIP3    H115434   1.265   6.921   2.640
 5159TIP3    H215435   1.410   6.945   2.675
 5160TIP3   OH215436   1.120   7.271   1.753
 5160TIP3    H115437   1.059   7.197   1.756
 5160TIP3    H215438   1.096   7.324   1.829
 5161TIP3   OH215439   1.992   7.502   2.349
 5161TIP3    H115440   2.020   7.552   2.272
 5161TIP3    H215441   1.909   7.462   2.322
 5162TIP3   OH215442   1.543   6.586   1.579
 5162TIP3    H115443   1.450   6.570   1.591
 5162TIP3    H215444   1.556   6.675   1.610
 5163TIP3   OH215445   1.500   7.612   2.720
 5163TIP3    H115446   1.535   7.564   2.794
 5163TIP3    H215447   1.419   7.651   2.752
 5164TIP3   OH215448   1.622   6.829   1.689
 5164TIP3    H115449   1.716   6.834   1.707
 5164TIP3    H215450   1.602   6.910   1.643
 5165TIP3   OH215451   0.762   7.239   2.384
 5165TIP3    H115452   0.815   7.237   2.304
 5165TIP3    H215453   0.820   7.208   2.453
 5166TIP3   OH215454   1.292   7.379   1.562
 5166TIP3    H115455   1.240   7.442   1.513
 5166TIP3    H215456   1.230   7.337   1.622
 5167TIP3   OH215457   0.671   7.201   3.012
 5167TIP3    H115458   0.684   7.191   3.106
 5167TIP3    H215459   0.597   7.143   2.992
 5168TIP3   OH215460   1.398   7.315   3.034
 5168TIP3    H115461   1.333   7.266   2.984
 5168TIP3    H215462   1.483   7.283   3.001
 5169TIP3   OH215463   2.053   6.926   1.523
 5169TIP3    H115464   1.995   6.878   1.464
 5169TIP3    H215465   2.056   7.015   1.488
 5170TIP3   OH215466   2.278   7.760   2.604
 5170TIP3    H115467   2.184   7.775   2.599
 5170TIP3    H215468   2.305   7.746   2.513
 5171TIP3   OH215469   1.755   7.373   2.253
 5171TIP3    H115470   1.664   7.352   2.275
 5171TIP3    H215471   1.790   7.292   2.216
 5172TIP3   OH215472   1.021   7.384   1.983
 5172TIP3    H115473   0.988   7.465   2.021
 5172TIP3    H215474   0.991   7.316   2.043
 5173TIP3   OH215475   1.547   7.570   2.451
 5173TIP3    H115476   1.532   7.585   2.544
 5173TIP3    H215477   1.635   7.532   2.446
 5174TIP3   OH215478   1.516   7.405   1.338
 5174TIP3    H115479   1.575   7.398   1.413
 5174TIP3    H215480   1.428   7.406   1.376
 5175TIP3   OH215481   0.874   6.714   3.017
 5175TIP3    H115482   0.779   6.720   3.031
 5175TIP3    H215483   0.906   6.663   3.092
 5176TIP3   OH215484   1.685   7.368   1.546
 5176TIP3    H115485   1.678   7.302   1.615
 5176TIP3    H215486   1.779   7.378   1.531
 5177TIP3   OH215487   1.720   6.778   2.699
 5177TIP3    H115488   1.794   6.823   2.739
 5177TIP3    H215489   1.706   6.701   2.754
 5178TIP3   OH215490   1.599   6.533   1.868
 5178TIP3    H115491   1.586   6.557   1.777
 5178TIP3    H215492   1.638   6.611   1.908
 5179TIP3   OH215493   1.281   6.716   1.971
 5179TIP3    H115494   1.344   6.785   1.952
 5179TIP3    H215495   1.286   6.704   2.066
 5180TIP3   OH215496   1.553   7.030   2.774
 5180TIP3    H115497   1.575   7.085   2.849
 5180TIP3    H215498   1.605   6.950   2.787
 5181TIP3   OH215499   1.427   6.436   2.068
 5181TIP3    H115500   1.419   6.508   2.130
 5181TIP3    H215501   1.487   6.467   2.001
 5182TIP3   OH215502   0.954   6.438   1.858
 5182TIP3    H115503   0.940   6.528   1.886
 5182TIP3    H215504   1.049   6.424   1.865
 5183TIP3   OH215505   2.187   6.931   2.759
 5183TIP3    H115506   2.092   6.929   2.765
 5183TIP3    H215507   2.206   6.895   2.672
 5184TIP3   OH215508   1.842   7.125   2.147
 5184TIP3    H115509   1.767   7.068   2.160
 5184TIP3    H215510   1.914   7.081   2.193
 5185TIP3   OH215511   0.890   6.349   2.617
 5185TIP3    H115512   0.858   6.318   2.532
 5185TIP3    H215513   0.878   6.274   2.675
 5186TIP3   OH215514   0.714   7.491   3.253
 5186TIP3    H115515   0.736   7.399   3.266
 5186TIP3    H215516   0.625   7.490   3.218
 5187TIP3   OH215517   1.341   7.579   3.076
 5187TIP3    H115518   1.306   7.597   2.989
 5187TIP3    H215519   1.374   7.489   3.070
 5188TIP3   OH215520   1.810   7.606   2.649
 5188TIP3    H115521   1.880   7.658   2.609
 5188TIP3    H215522   1.734   7.665   2.649
 5189TIP3   OH215523   0.844   7.245   3.260
 5189TIP3    H115524   0.922   7.195   3.235
 5189TIP3    H215525   0.866   7.282   3.345
 5190TIP3   OH215526   0.944   7.066   1.744
 5190TIP3    H115527   0.891   7.036   1.818
 5190TIP3    H215528   0.936   6.996   1.679
 5191TIP3   OH215529   1.169   7.137   2.913
 5191TIP3    H115530   1.091   7.193   2.916
 5191TIP3    H215531   1.220   7.171   2.839
 5192TIP3   OH215532   1.031   6.854   1.510
 5192TIP3    H115533   1.046   6.819   1.422
 5192TIP3    H215534   1.117   6.885   1.539
 5193TIP3   OH215535   1.690   7.525   3.049
 5193TIP3    H115536   1.773   7.507   3.004
 5193TIP3    H215537   1.689   7.465   3.122
 5194TIP3   OH215538   1.825   7.202   1.187
 5194TIP3    H115539   1.805   7.161   1.103
 5194TIP3    H215540   1.795   7.293   1.178
 5195TIP3   OH215541   1.293   6.927   3.037
 5195TIP3    H115542   1.293   6.849   2.982
 5195TIP3    H215543   1.250   6.994   2.984
 5196TIP3   OH215544   1.294   6.711   2.847
 5196TIP3    H115545   1.323   6.755   2.767
 5196TIP3    H215546   1.202   6.691   2.832
 5197TIP3   OH215547   1.316   7.250   2.719
 5197TIP3    H115548   1.401   7.264   2.677
 5197TIP3    H215549   1.259   7.315   2.679
 5198TIP3   OH215550   1.903   7.213   3.101
 5198TIP3    H115551   1.954   7.133   3.111
 5198TIP3    H215552   1.966   7.278   3.069
 5199TIP3   OH215553   1.944   7.465   2.835
 5199TIP3    H115554   1.884   7.517   2.780
 5199TIP3    H215555   2.031   7.485   2.801
 5200TIP3   OH215556   1.171   7.030   3.274
 5200TIP3    H115557   1.103   6.966   3.292
 5200TIP3    H215558   1.203   7.008   3.186
 5201TIP3   OH215559   1.423   6.473   2.918
 5201TIP3    H115560   1.378   6.555   2.896
 5201TIP3    H215561   1.357   6.405   2.908
 5202TIP3   OH215562   1.551   6.975   3.135
 5202TIP3    H115563   1.540   6.964   3.230
 5202TIP3    H215564   1.465   6.954   3.099
 5203TIP3   OH215565   1.789   6.924   2.989
 5203TIP3    H115566   1.716   6.929   3.050
 5203TIP3    H215567   1.864   6.898   3.043
 5204TIP3   OH215568   2.019   6.869   3.139
 5204TIP3    H115569   2.033   6.776   3.153
 5204TIP3    H215570   2.016   6.907   3.227
 5205TIP3   OH215571   1.009   6.811   3.329
 5205TIP3    H115572   1.014   6.722   3.296
 5205TIP3    H215573   1.044   6.805   3.419
 5206TIP3   OH215574   1.519   6.482   3.176
 5206TIP3    H115575   1.586   6.413   3.172
 5206TIP3    H215576   1.479   6.480   3.089
 5207TIP3   OH215577   1.585   6.699   3.335
 5207TIP3    H115578   1.565   6.629   3.273
 5207TIP3    H215579   1.509   6.757   3.330
 5208TIP3   OH215580   2.174   7.889   2.886
 5208TIP3    H115581   2.098   7.871   2.942
 5208TIP3    H215582   2.209   7.971   2.919
 5209TIP3   OH215583   1.956   7.373   1.531
 5209TIP3    H115584   2.022   7.433   1.496
 5209TIP3    H215585   1.996   7.336   1.609
 5210TIP3   OH215586   2.084   7.247   1.732
 5210TIP3    H115587   2.023   7.208   1.794
 5210TIP3    H215588   2.155   7.281   1.787
 5211TIP3   OH215589   2.126   7.638   2.156
 5211TIP3    H115590   2.188   7.582   2.111
 5211TIP3    H215591   2.130   7.721   2.109
 5212TIP3   OH215592   2.022   7.158   1.376
 5212TIP3    H115593   1.955   7.159   1.307
 5212TIP3    H215594   1.997   7.230   1.434
 5213TIP3   OH215595   1.891   6.828   1.330
 5213TIP3    H115596   1.849   6.870   1.254
 5213TIP3    H215597   1.871   6.735   1.320
 5214TIP3   OH215598   1.898   7.107   1.881
 5214TIP3    H115599   1.909   7.013   1.870
 5214TIP3    H215600   1.883   7.119   1.975
 5215TIP3   OH215601   0.526   7.184   2.622
 5215TIP3    H115602   0.520   7.152   2.532
 5215TIP3    H215603   0.620   7.185   2.641
 5216TIP3   OH215604   2.188   7.529   2.734
 5216TIP3    H115605   2.259   7.466   2.723
 5216TIP3    H215606   2.212   7.601   2.676
 5217TIP3   OH215607   2.372   7.330   2.743
 5217TIP3    H115608   2.297   7.286   2.784
 5217TIP3    H215609   2.446   7.271   2.759
 5218TIP3   OH215610   1.839   6.562   1.310
 5218TIP3    H115611   1.914   6.536   1.363
 5218TIP3    H215612   1.769   6.503   1.337
 5219TIP3   OH215613   1.898   6.823   1.766
 5219TIP3    H115614   1.936   6.736   1.782
 5219TIP3    H215615   1.953   6.860   1.697
 5220TIP3   OH215616   2.057   6.997   2.266
 5220TIP3    H115617   2.139   7.018   2.221
 5220TIP3    H215618   2.068   7.032   2.354
 5221TIP3   OH215619   2.126   7.143   2.495
 5221TIP3    H115620   2.050   7.175   2.544
 5221TIP3    H215621   2.160   7.220   2.450
 5222TIP3   OH215622   0.743   6.858   3.287
 5222TIP3    H115623   0.839   6.859   3.296
 5222TIP3    H215624   0.716   6.778   3.331
 5223TIP3   OH215625   2.577   6.734   3.049
 5223TIP3    H115626   2.637   6.671   3.011
 5223TIP3    H215627   2.546   6.786   2.975
 5224TIP3   OH215628   2.003   6.573   1.809
 5224TIP3    H115629   2.053   6.561   1.889
 5224TIP3    H215630   1.944   6.498   1.806
 5225TIP3   OH215631   0.708   6.558   2.623
 5225TIP3    H115632   0.768   6.484   2.635
 5225TIP3    H215633   0.765   6.634   2.619
 5226TIP3   OH215634   0.506   6.830   2.700
 5226TIP3    H115635   0.554   6.830   2.617
 5226TIP3    H215636   0.528   6.914   2.741
 5227TIP3   OH215637   2.442   6.869   2.854
 5227TIP3    H115638   2.361   6.915   2.876
 5227TIP3    H215639   2.415   6.797   2.798
 5228TIP3   OH215640   2.082   6.508   1.439
 5228TIP3    H115641   2.124   6.438   1.389
 5228TIP3    H215642   2.146   6.579   1.442
 5229TIP3   OH215643   0.486   6.369   2.208
 5229TIP3    H115644   0.402   6.335   2.239
 5229TIP3    H215645   0.472   6.388   2.115
 5230TIP3   OH215646   0.706   6.410   3.011
 5230TIP3    H115647   0.660   6.409   3.095
 5230TIP3    H215648   0.646   6.454   2.951
 5231TIP3   OH215649   2.346   6.631   2.736
 5231TIP3    H115650   2.257   6.626   2.700
 5231TIP3    H215651   2.381   6.542   2.727
 5232TIP3   OH215652   1.550   6.547   2.353
 5232TIP3    H115653   1.509   6.479   2.406
 5232TIP3    H215654   1.627   6.505   2.314
 5233TIP3   OH215655   2.070   6.426   2.256
 5233TIP3    H115656   2.109   6.478   2.186
 5233TIP3    H215657   1.977   6.452   2.255
 5234TIP3   OH215658   2.171   6.528   2.022
 5234TIP3    H115659   2.241   6.474   1.986
 5234TIP3    H215660   2.201   6.618   2.010
 5235TIP3   OH215661   0.799   6.256   2.370
 5235TIP3    H115662   0.707   6.229   2.372
 5235TIP3    H215663   0.848   6.174   2.362
 5236TIP3   OH215664   0.619   6.121   2.035
 5236TIP3    H115665   0.647   6.173   1.959
 5236TIP3    H215666   0.553   6.175   2.078
 5237TIP3   OH215667   1.251   6.278   2.254
 5237TIP3    H115668   1.300   6.328   2.189
 5237TIP3    H215669   1.265   6.324   2.337
 5238TIP3   OH215670   1.784   6.436   2.237
 5238TIP3    H115671   1.792   6.399   2.149
 5238TIP3    H215672   1.773   6.359   2.294
 5239TIP3   OH215673   1.818   6.361   1.800
 5239TIP3    H115674   1.736   6.407   1.818
 5239TIP3    H215675   1.807   6.276   1.843
 5240TIP3   OH215676   0.720   6.280   1.826
 5240TIP3    H115677   0.746   6.217   1.759
 5240TIP3    H215678   0.799   6.331   1.844
 5241TIP3   OH215679   1.226   6.467   1.880
 5241TIP3    H115680   1.281   6.417   1.940
 5241TIP3    H215681   1.243   6.559   1.903
 5242TIP3   OH215682   1.009   6.535   3.262
 5242TIP3    H115683   0.969   6.468   3.317
 5242TIP3    H215684   1.101   6.537   3.290
 5243TIP3   OH215685   1.258   6.533   3.382
 5243TIP3    H115686   1.343   6.513   3.343
 5243TIP3    H215687   1.245   6.465   3.447
 5244TIP3   OH215688   2.086   6.598   3.170
 5244TIP3    H115689   2.101   6.568   3.259
 5244TIP3    H215690   2.173   6.595   3.129
 5245TIP3   OH215691   3.269   7.505   1.458
 5245TIP3    H115692   3.240   7.591   1.426
 5245TIP3    H215693   3.234   7.443   1.395
 5246TIP3   OH215694   3.293   7.530   1.809
 5246TIP3    H115695   3.318   7.487   1.891
 5246TIP3    H215696   3.256   7.460   1.755
 5247TIP3   OH215697   2.584   7.417   2.179
 5247TIP3    H115698   2.615   7.349   2.239
 5247TIP3    H215699   2.660   7.473   2.165
 5248TIP3   OH215700   3.509   7.825   1.490
 5248TIP3    H115701   3.501   7.748   1.546
 5248TIP3    H215702   3.559   7.887   1.542
 5249TIP3   OH215703   2.622   7.756   1.985
 5249TIP3    H115704   2.584   7.678   1.946
 5249TIP3    H215705   2.699   7.775   1.932
 5250TIP3   OH215706   2.263   7.023   1.679
 5250TIP3    H115707   2.227   7.109   1.700
 5250TIP3    H215708   2.191   6.977   1.636
 5251TIP3   OH215709   2.322   7.315   1.856
 5251TIP3    H115710   2.369   7.239   1.889
 5251TIP3    H215711   2.391   7.374   1.825
 5252TIP3   OH215712   3.106   7.740   1.856
 5252TIP3    H115713   3.149   7.663   1.818
 5252TIP3    H215714   3.177   7.798   1.881
 5253TIP3   OH215715   4.108   7.079   1.856
 5253TIP3    H115716   4.132   7.170   1.872
 5253TIP3    H215717   4.122   7.066   1.762
 5254TIP3   OH215718   3.494   7.244   1.887
 5254TIP3    H115719   3.539   7.162   1.908
 5254TIP3    H215720   3.466   7.234   1.797
 5255TIP3   OH215721   2.837   6.909   1.851
 5255TIP3    H115722   2.821   6.983   1.792
 5255TIP3    H215723   2.790   6.836   1.810
 5256TIP3   OH215724   3.533   7.003   1.474
 5256TIP3    H115725   3.601   6.988   1.540
 5256TIP3    H215726   3.581   7.036   1.398
 5257TIP3   OH215727   2.471   7.109   1.961
 5257TIP3    H115728   2.552   7.095   2.011
 5257TIP3    H215729   2.483   7.058   1.881
 5258TIP3   OH215730   2.909   7.306   1.761
 5258TIP3    H115731   3.002   7.287   1.769
 5258TIP3    H215732   2.871   7.226   1.725
 5259TIP3   OH215733   4.168   7.318   2.039
 5259TIP3    H115734   4.085   7.342   1.999
 5259TIP3    H215735   4.144   7.264   2.114
 5260TIP3   OH215736   2.830   6.895   2.289
 5260TIP3    H115737   2.774   6.930   2.219
 5260TIP3    H215738   2.780   6.911   2.369
 5261TIP3   OH215739   3.164   7.713   1.302
 5261TIP3    H115740   3.151   7.693   1.209
 5261TIP3    H215741   3.200   7.802   1.302
 5262TIP3   OH215742   2.937   7.676   2.080
 5262TIP3    H115743   2.871   7.739   2.110
 5262TIP3    H215744   2.973   7.715   2.000
 5263TIP3   OH215745   3.737   7.006   1.652
 5263TIP3    H115746   3.728   6.958   1.735
 5263TIP3    H215747   3.788   7.084   1.675
 5264TIP3   OH215748   2.707   7.009   2.071
 5264TIP3    H115749   2.765   7.081   2.096
 5264TIP3    H215750   2.752   6.967   1.997
 5265TIP3   OH215751   2.761   7.890   2.189
 5265TIP3    H115752   2.724   7.879   2.101
 5265TIP3    H215753   2.685   7.887   2.248
 5266TIP3   OH215754   2.163   7.519   1.429
 5266TIP3    H115755   2.131   7.550   1.344
 5266TIP3    H215756   2.186   7.599   1.476
 5267TIP3   OH215757   3.893   6.979   2.024
 5267TIP3    H115758   3.805   6.993   1.990
 5267TIP3    H215759   3.951   7.006   1.953
 5268TIP3   OH215760   3.182   6.607   2.004
 5268TIP3    H115761   3.171   6.514   2.021
 5268TIP3    H215762   3.109   6.649   2.049
 5269TIP3   OH215763   3.511   7.802   1.199
 5269TIP3    H115764   3.496   7.713   1.166
 5269TIP3    H215765   3.538   7.790   1.290
 5270TIP3   OH215766   3.818   7.975   2.002
 5270TIP3    H115767   3.806   7.899   1.946
 5270TIP3    H215768   3.843   8.045   1.942
 5271TIP3   OH215769   3.132   7.374   1.258
 5271TIP3    H115770   3.051   7.421   1.237
 5271TIP3    H215771   3.191   7.394   1.186
 5272TIP3   OH215772   3.074   7.157   0.976
 5272TIP3    H115773   3.125   7.219   1.028
 5272TIP3    H215774   3.141   7.106   0.930
 5273TIP3   OH215775   4.034   7.632   1.855
 5273TIP3    H115776   3.950   7.679   1.861
 5273TIP3    H215777   4.063   7.647   1.765
 5274TIP3   OH215778   3.698   7.498   2.143
 5274TIP3    H115779   3.696   7.580   2.192
 5274TIP3    H215780   3.613   7.494   2.098
 5275TIP3   OH215781   2.704   7.453   1.641
 5275TIP3    H115782   2.662   7.396   1.577
 5275TIP3    H215783   2.779   7.403   1.673
 5276TIP3   OH215784   2.839   7.818   1.845
 5276TIP3    H115785   2.801   7.821   1.757
 5276TIP3    H215786   2.933   7.821   1.831
 5277TIP3   OH215787   2.827   7.433   1.999
 5277TIP3    H115788   2.862   7.403   1.915
 5277TIP3    H215789   2.872   7.515   2.016
 5278TIP3   OH215790   3.013   7.886   2.323
 5278TIP3    H115791   2.980   7.973   2.344
 5278TIP3    H215792   2.945   7.846   2.270
 5279TIP3   OH215793   2.728   7.536   2.433
 5279TIP3    H115794   2.736   7.623   2.470
 5279TIP3    H215795   2.636   7.514   2.443
 5280TIP3   OH215796   3.822   6.558   1.107
 5280TIP3    H115797   3.741   6.579   1.154
 5280TIP3    H215798   3.839   6.636   1.053
 5281TIP3   OH215799   2.564   7.296   1.453
 5281TIP3    H115800   2.503   7.339   1.392
 5281TIP3    H215801   2.528   7.209   1.467
 5282TIP3   OH215802   2.363   7.680   2.360
 5282TIP3    H115803   2.294   7.662   2.295
 5282TIP3    H215804   2.396   7.594   2.384
 5283TIP3   OH215805   3.964   7.466   2.308
 5283TIP3    H115806   3.876   7.480   2.274
 5283TIP3    H215807   3.978   7.372   2.303
 5284TIP3   OH215808   2.547   7.886   2.368
 5284TIP3    H115809   2.605   7.846   2.433
 5284TIP3    H215810   2.478   7.820   2.354
 5285TIP3   OH215811   2.946   6.687   2.135
 5285TIP3    H115812   2.861   6.655   2.104
 5285TIP3    H215813   2.925   6.768   2.182
 5286TIP3   OH215814   3.485   6.801   2.328
 5286TIP3    H115815   3.553   6.773   2.389
 5286TIP3    H215816   3.403   6.782   2.374
 5287TIP3   OH215817   3.729   7.240   2.255
 5287TIP3    H115818   3.673   7.231   2.332
 5287TIP3    H215819   3.699   7.320   2.212
 5288TIP3   OH215820   3.090   6.733   1.105
 5288TIP3    H115821   3.060   6.733   1.195
 5288TIP3    H215822   3.056   6.652   1.067
 5289TIP3   OH215823   2.879   7.210   2.149
 5289TIP3    H115824   2.831   7.227   2.230
 5289TIP3    H215825   2.863   7.288   2.095
 5290TIP3   OH215826   2.764   7.088   1.663
 5290TIP3    H115827   2.674   7.066   1.684
 5290TIP3    H215828   2.779   7.050   1.577
 5291TIP3   OH215829   3.257   7.168   1.381
 5291TIP3    H115830   3.204   7.240   1.346
 5291TIP3    H215831   3.316   7.144   1.310
 5292TIP3   OH215832   3.435   7.446   2.477
 5292TIP3    H115833   3.409   7.377   2.538
 5292TIP3    H215834   3.527   7.463   2.498
 5293TIP3   OH215835   3.409   7.204   1.626
 5293TIP3    H115836   3.350   7.242   1.560
 5293TIP3    H215837   3.443   7.125   1.584
 5294TIP3   OH215838   2.702   7.231   2.360
 5294TIP3    H115839   2.729   7.297   2.423
 5294TIP3    H215840   2.692   7.151   2.411
 5295TIP3   OH215841   2.743   6.708   1.071
 5295TIP3    H115842   2.740   6.708   1.166
 5295TIP3    H215843   2.673   6.768   1.044
 5296TIP3   OH215844   2.297   6.749   1.942
 5296TIP3    H115845   2.365   6.786   1.998
 5296TIP3    H215846   2.341   6.728   1.860
 5297TIP3   OH215847   2.257   6.735   1.459
 5297TIP3    H115848   2.305   6.765   1.382
 5297TIP3    H215849   2.198   6.807   1.481
 5298TIP3   OH215850   3.431   7.442   2.057
 5298TIP3    H115851   3.459   7.376   1.995
 5298TIP3    H215852   3.394   7.393   2.130
 5299TIP3   OH215853   3.097   6.908   1.727
 5299TIP3    H115854   3.016   6.909   1.779
 5299TIP3    H215855   3.167   6.906   1.791
 5300TIP3   OH215856   2.526   6.968   1.733
 5300TIP3    H115857   2.435   6.975   1.704
 5300TIP3    H215858   2.552   6.879   1.709
 5301TIP3   OH215859   2.791   6.962   1.422
 5301TIP3    H115860   2.884   6.977   1.405
 5301TIP3    H215861   2.748   6.984   1.339
 5302TIP3   OH215862   3.587   6.986   1.934
 5302TIP3    H115863   3.553   7.001   2.022
 5302TIP3    H215864   3.524   6.928   1.893
 5303TIP3   OH215865   2.641   6.995   1.193
 5303TIP3    H115866   2.572   6.953   1.142
 5303TIP3    H215867   2.696   7.038   1.128
 5304TIP3   OH215868   2.716   7.783   2.568
 5304TIP3    H115869   2.795   7.811   2.615
 5304TIP3    H215870   2.650   7.773   2.636
 5305TIP3   OH215871   3.173   7.237   1.823
 5305TIP3    H115872   3.247   7.207   1.769
 5305TIP3    H215873   3.185   7.192   1.906
 5306TIP3   OH215874   2.693   6.727   1.704
 5306TIP3    H115875   2.660   6.651   1.752
 5306TIP3    H215876   2.743   6.690   1.632
 5307TIP3   OH215877   3.149   7.138   2.118
 5307TIP3    H115878   3.062   7.174   2.126
 5307TIP3    H215879   3.206   7.200   2.163
 5308TIP3   OH215880   2.891   7.510   1.216
 5308TIP3    H115881   2.815   7.455   1.199
 5308TIP3    H215882   2.872   7.554   1.299
 5309TIP3   OH215883   3.791   7.755   1.837
 5309TIP3    H115884   3.817   7.805   1.759
 5309TIP3    H215885   3.708   7.714   1.812
 5310TIP3   OH215886   3.346   6.847   1.086
 5310TIP3    H115887   3.252   6.830   1.082
 5310TIP3    H215888   3.353   6.942   1.090
 5311TIP3   OH215889   3.299   7.869   2.206
 5311TIP3    H115890   3.329   7.816   2.280
 5311TIP3    H215891   3.215   7.904   2.234
 5312TIP3   OH215892   3.414   7.123   1.155
 5312TIP3    H115893   3.507   7.113   1.177
 5312TIP3    H215894   3.408   7.207   1.110
 5313TIP3   OH215895   2.558   7.496   1.870
 5313TIP3    H115896   2.606   7.492   1.787
 5313TIP3    H215897   2.620   7.464   1.935
 5314TIP3   OH215898   2.985   7.704   1.047
 5314TIP3    H115899   2.949   7.768   1.108
 5314TIP3    H215900   2.966   7.619   1.087
 5315TIP3   OH215901   2.465   7.460   2.500
 5315TIP3    H115902   2.480   7.447   2.594
 5315TIP3    H215903   2.394   7.399   2.479
 5316TIP3   OH215904   3.194   7.572   2.521
 5316TIP3    H115905   3.129   7.525   2.469
 5316TIP3    H215906   3.278   7.539   2.489
 5317TIP3   OH215907   3.856   7.182   1.008
 5317TIP3    H115908   3.796   7.134   0.952
 5317TIP3    H215909   3.854   7.272   0.975
 5318TIP3   OH215910   4.075   8.010   2.094
 5318TIP3    H115911   3.982   8.033   2.081
 5318TIP3    H215912   4.106   7.989   2.006
 5319TIP3   OH215913   3.553   7.629   1.749
 5319TIP3    H115914   3.461   7.609   1.768
 5319TIP3    H215915   3.586   7.549   1.708
 5320TIP3   OH215916   2.245   7.158   1.212
 5320TIP3    H115917   2.295   7.238   1.230
 5320TIP3    H215918   2.173   7.160   1.275
 5321TIP3   OH215919   2.810   7.629   1.452
 5321TIP3    H115920   2.782   7.714   1.486
 5321TIP3    H215921   2.787   7.568   1.522
 5322TIP3   OH215922   3.344   7.833   1.934
 5322TIP3    H115923   3.334   7.842   2.029
 5322TIP3    H215924   3.422   7.778   1.924
 5323TIP3   OH215925   3.365   7.665   0.816
 5323TIP3    H115926   3.363   7.589   0.874
 5323TIP3    H215927   3.280   7.708   0.830
 5324TIP3   OH215928   2.670   6.974   2.505
 5324TIP3    H115929   2.575   6.976   2.515
 5324TIP3    H215930   2.701   6.919   2.576
 5325TIP3   OH215931   2.657   7.676   0.841
 5325TIP3    H115932   2.717   7.629   0.783
 5325TIP3    H215933   2.705   7.684   0.923
 5326TIP3   OH215934   2.362   7.395   1.290
 5326TIP3    H115935   2.300   7.432   1.353
 5326TIP3    H215936   2.373   7.464   1.225
 5327TIP3   OH215937   3.512   7.041   2.194
 5327TIP3    H115938   3.594   7.074   2.232
 5327TIP3    H215939   3.496   6.960   2.243
 5328TIP3   OH215940   3.391   6.789   1.357
 5328TIP3    H115941   3.376   6.808   1.264
 5328TIP3    H215942   3.429   6.869   1.392
 5329TIP3   OH215943   3.074   6.974   1.455
 5329TIP3    H115944   3.137   7.041   1.431
 5329TIP3    H215945   3.083   6.965   1.550
 5330TIP3   OH215946   3.348   7.286   2.261
 5330TIP3    H115947   3.374   7.337   2.338
 5330TIP3    H215948   3.398   7.205   2.268
 5331TIP3   OH215949   3.220   6.694   1.553
 5331TIP3    H115950   3.210   6.769   1.612
 5331TIP3    H215951   3.281   6.723   1.486
 5332TIP3   OH215952   2.736   6.700   1.347
 5332TIP3    H115953   2.731   6.789   1.383
 5332TIP3    H215954   2.829   6.677   1.352
 5333TIP3   OH215955   3.988   7.186   2.214
 5333TIP3    H115956   3.899   7.203   2.244
 5333TIP3    H215957   3.980   7.112   2.153
 5334TIP3   OH215958   3.635   7.386   1.636
 5334TIP3    H115959   3.560   7.326   1.639
 5334TIP3    H215960   3.706   7.336   1.676
 5335TIP3   OH215961   2.351   7.606   1.105
 5335TIP3    H115962   2.378   7.698   1.098
 5335TIP3    H215963   2.408   7.560   1.044
 5336TIP3   OH215964   2.290   6.888   1.238
 5336TIP3    H115965   2.302   6.983   1.235
 5336TIP3    H215966   2.211   6.872   1.187
 5337TIP3   OH215967   2.681   6.607   2.105
 5337TIP3    H115968   2.654   6.575   2.019
 5337TIP3    H215969   2.673   6.531   2.163
 5338TIP3   OH215970   2.511   7.752   2.744
 5338TIP3    H115971   2.533   7.660   2.753
 5338TIP3    H215972   2.423   7.753   2.706
 5339TIP3   OH215973   2.494   7.423   0.962
 5339TIP3    H115974   2.545   7.387   1.034
 5339TIP3    H215975   2.557   7.432   0.890
 5340TIP3   OH215976   3.135   7.836   2.563
 5340TIP3    H115977   3.101   7.853   2.475
 5340TIP3    H215978   3.168   7.746   2.558
 5341TIP3   OH215979   2.917   7.585   0.769
 5341TIP3    H115980   2.970   7.616   0.842
 5341TIP3    H215981   2.952   7.498   0.750
 5342TIP3   OH215982   3.607   7.862   2.142
 5342TIP3    H115983   3.673   7.917   2.099
 5342TIP3    H215984   3.526   7.912   2.136
 5343TIP3   OH215985   2.635   7.504   2.747
 5343TIP3    H115986   2.713   7.458   2.716
 5343TIP3    H215987   2.661   7.539   2.832
 5344TIP3   OH215988   2.681   7.326   1.167
 5344TIP3    H115989   2.667   7.285   1.252
 5344TIP3    H215990   2.727   7.260   1.115
 5345TIP3   OH215991   2.965   7.394   2.400
 5345TIP3    H115992   2.887   7.450   2.404
 5345TIP3    H215993   3.016   7.428   2.327
 5346TIP3   OH215994   2.800   7.125   1.015
 5346TIP3    H115995   2.773   7.128   0.923
 5346TIP3    H215996   2.896   7.127   1.012
 5347TIP3   OH215997   3.489   7.785   2.538
 5347TIP3    H115998   3.565   7.758   2.486
 5347TIP3    H215999   3.485   7.721   2.609
 5348TIP3   OH216000   3.645   7.485   0.684
 5348TIP3    H116001   3.599   7.416   0.636
 5348TIP3    H216002   3.593   7.564   0.667
 5349TIP3   OH216003   3.088   7.184   2.525
 5349TIP3    H116004   3.089   7.106   2.470
 5349TIP3    H216005   3.046   7.251   2.471
 5350TIP3   OH216006   3.089   6.969   2.337
 5350TIP3    H116007   3.119   7.012   2.257
 5350TIP3    H216008   2.998   6.947   2.320
 5351TIP3   OH216009   3.113   7.511   2.211
 5351TIP3    H116010   3.195   7.517   2.162
 5351TIP3    H216011   3.055   7.574   2.167
 5352TIP3   OH216012   3.696   7.470   2.589
 5352TIP3    H116013   3.745   7.388   2.601
 5352TIP3    H216014   3.762   7.533   2.561
 5353TIP3   OH216015   3.742   7.723   2.327
 5353TIP3    H116016   3.682   7.774   2.272
 5353TIP3    H216017   3.828   7.739   2.290
 5354TIP3   OH216018   2.967   7.287   2.762
 5354TIP3    H116019   2.900   7.221   2.778
 5354TIP3    H216020   3.000   7.268   2.674
 5355TIP3   OH216021   3.221   6.731   2.405
 5355TIP3    H116022   3.174   6.811   2.383
 5355TIP3    H216023   3.156   6.662   2.395
 5356TIP3   OH216024   3.346   7.232   2.622
 5356TIP3    H116025   3.335   7.218   2.716
 5356TIP3    H216026   3.260   7.212   2.584
 5357TIP3   OH216027   3.587   7.184   2.478
 5357TIP3    H116028   3.513   7.186   2.538
 5357TIP3    H216029   3.660   7.154   2.532
 5358TIP3   OH216030   3.820   7.127   2.625
 5358TIP3    H116031   3.832   7.033   2.639
 5358TIP3    H216032   3.814   7.163   2.714
 5359TIP3   OH216033   2.806   7.068   2.817
 5359TIP3    H116034   2.809   6.979   2.782
 5359TIP3    H216035   2.843   7.060   2.905
 5360TIP3   OH216036   3.315   6.740   2.663
 5360TIP3    H116037   3.381   6.670   2.660
 5360TIP3    H216038   3.275   6.738   2.576
 5361TIP3   OH216039   3.383   6.957   2.820
 5361TIP3    H116040   3.364   6.886   2.759
 5361TIP3    H216041   3.306   7.014   2.815
 5362TIP3   OH216042   2.079   7.528   1.107
 5362TIP3    H116043   2.166   7.569   1.104
 5362TIP3    H216044   2.093   7.441   1.070
 5363TIP3   OH216045   6.804   0.130   2.375
 5363TIP3    H116046   6.729   0.114   2.431
 5363TIP3    H216047   6.840   0.214   2.406
 5364TIP3   OH216048   3.769   7.641   1.012
 5364TIP3    H116049   3.848   7.695   1.006
 5364TIP3    H216050   3.780   7.592   1.094
 5365TIP3   OH216051   3.884   7.507   1.218
 5365TIP3    H116052   3.825   7.456   1.273
 5365TIP3    H216053   3.949   7.542   1.279
 5366TIP3   OH216054   3.928   7.901   1.649
 5366TIP3    H116055   3.984   7.843   1.598
 5366TIP3    H216056   3.917   7.978   1.594
 5367TIP3   OH216057   3.824   7.416   0.870
 5367TIP3    H116058   3.761   7.421   0.799
 5367TIP3    H216059   3.799   7.487   0.929
 5368TIP3   OH216060   3.695   7.085   0.818
 5368TIP3    H116061   3.667   7.128   0.737
 5368TIP3    H216062   3.666   6.994   0.808
 5369TIP3   OH216063   3.730   7.354   1.375
 5369TIP3    H116064   3.699   7.266   1.351
 5369TIP3    H216065   3.686   7.374   1.457
 5370TIP3   OH216066   2.321   7.440   2.109
 5370TIP3    H116067   2.316   7.408   2.019
 5370TIP3    H216068   2.415   7.443   2.128
 5371TIP3   OH216069   3.987   7.781   2.217
 5371TIP3    H116070   4.062   7.731   2.187
 5371TIP3    H216071   3.990   7.862   2.167
 5372TIP3   OH216072   4.183   7.583   2.209
 5372TIP3    H116073   4.095   7.564   2.241
 5372TIP3    H216074   4.241   7.566   2.283
 5373TIP3   OH216075   3.632   6.822   0.802
 5373TIP3    H116076   3.705   6.790   0.854
 5373TIP3    H216077   3.561   6.760   0.820
 5374TIP3   OH216078   3.687   7.079   1.255
 5374TIP3    H116079   3.726   6.993   1.268
 5374TIP3    H216080   3.741   7.119   1.186
 5375TIP3   OH216081   3.855   7.251   1.752
 5375TIP3    H116082   3.936   7.275   1.707
 5375TIP3    H216083   3.864   7.289   1.839
 5376TIP3   OH216084   3.922   7.407   1.976
 5376TIP3    H116085   3.846   7.433   2.028
 5376TIP3    H216086   3.952   7.488   1.935
 5377TIP3   OH216087   2.540   7.118   2.781
 5377TIP3    H116088   2.635   7.117   2.785
 5377TIP3    H216089   2.514   7.035   2.821
 5378TIP3   OH216090   4.370   6.992   2.531
 5378TIP3    H116091   4.432   6.928   2.498
 5378TIP3    H216092   4.348   7.046   2.455
 5379TIP3   OH216093   3.800   6.830   1.296
 5379TIP3    H116094   3.848   6.816   1.378
 5379TIP3    H216095   3.739   6.757   1.291
 5380TIP3   OH216096   2.501   6.818   2.117
 5380TIP3    H116097   2.559   6.742   2.124
 5380TIP3    H216098   2.560   6.892   2.106
 5381TIP3   OH216099   2.300   7.089   2.184
 5381TIP3    H116100   2.350   7.086   2.102
 5381TIP3    H216101   2.326   7.172   2.225
 5382TIP3   OH216102   4.244   7.135   2.331
 5382TIP3    H116103   4.164   7.173   2.367
 5382TIP3    H216104   4.214   7.058   2.283
 5383TIP3   OH216105   3.880   6.762   0.930
 5383TIP3    H116106   3.911   6.693   0.872
 5383TIP3    H216107   3.945   6.832   0.921
 5384TIP3   OH216108   2.285   6.586   1.683
 5384TIP3    H116109   2.195   6.587   1.717
 5384TIP3    H216110   2.283   6.647   1.610
 5385TIP3   OH216111   2.505   6.673   2.502
 5385TIP3    H116112   2.456   6.669   2.585
 5385TIP3    H216113   2.442   6.710   2.439
 5386TIP3   OH216114   4.142   6.886   2.224
 5386TIP3    H116115   4.053   6.874   2.191
 5386TIP3    H216116   4.181   6.799   2.219
 5387TIP3   OH216117   3.350   6.805   1.846
 5387TIP3    H116118   3.306   6.735   1.894
 5387TIP3    H216119   3.422   6.762   1.800
 5388TIP3   OH216120   3.866   6.697   1.752
 5388TIP3    H116121   3.903   6.739   1.675
 5388TIP3    H216122   3.771   6.706   1.741
 5389TIP3   OH216123   3.966   6.784   1.513
 5389TIP3    H116124   4.035   6.730   1.475
 5389TIP3    H216125   3.995   6.874   1.499
 5390TIP3   OH216126   2.594   6.511   1.858
 5390TIP3    H116127   2.503   6.482   1.862
 5390TIP3    H216128   2.645   6.429   1.854
 5391TIP3   OH216129   2.378   6.387   1.505
 5391TIP3    H116130   2.413   6.441   1.434
 5391TIP3    H216131   2.355   6.450   1.573
 5392TIP3   OH216132   3.043   6.547   1.742
 5392TIP3    H116133   3.094   6.591   1.675
 5392TIP3    H216134   3.072   6.586   1.824
 5393TIP3   OH216135   3.583   6.692   1.723
 5393TIP3    H116136   3.587   6.656   1.634
 5393TIP3    H216137   3.571   6.615   1.779
 5394TIP3   OH216138   3.614   6.619   1.288
 5394TIP3    H116139   3.531   6.664   1.300
 5394TIP3    H216140   3.602   6.534   1.330
 5395TIP3   OH216141   2.505   6.542   1.269
 5395TIP3    H116142   2.551   6.481   1.211
 5395TIP3    H216143   2.575   6.597   1.305
 5396TIP3   OH216144   3.012   6.722   1.371
 5396TIP3    H116145   3.073   6.673   1.426
 5396TIP3    H216146   3.030   6.814   1.391
 5397TIP3   OH216147   2.805   6.793   2.751
 5397TIP3    H116148   2.766   6.724   2.805
 5397TIP3    H216149   2.897   6.795   2.777
 5398TIP3   OH216150   3.055   6.791   2.869
 5398TIP3    H116151   3.139   6.769   2.827
 5398TIP3    H216152   3.042   6.723   2.935
 5399TIP3   OH216153   3.883   6.856   2.657
 5399TIP3    H116154   3.896   6.825   2.746
 5399TIP3    H216155   3.969   6.851   2.616
 5400TIP3   OH216156   5.074   7.773   0.922
 5400TIP3    H116157   5.053   7.862   0.895
 5400TIP3    H216158   5.010   7.718   0.877
 5401TIP3   OH216159   5.086   7.778   1.298
 5401TIP3    H116160   5.120   7.756   1.385
 5401TIP3    H216161   5.046   7.698   1.266
 5402TIP3   OH216162   4.392   7.687   1.686
 5402TIP3    H116163   4.459   7.618   1.688
 5402TIP3    H216164   4.435   7.760   1.642
 5403TIP3   OH216165   8.135   0.068   0.987
 5403TIP3    H116166   8.142  -0.012   1.040
 5403TIP3    H216167   8.193   0.130   1.030
 5404TIP3   OH216168   4.417   8.013   1.472
 5404TIP3    H116169   4.383   7.932   1.434
 5404TIP3    H216170   4.495   8.034   1.421
 5405TIP3   OH216171   4.059   7.287   1.166
 5405TIP3    H116172   4.013   7.369   1.185
 5405TIP3    H216173   3.993   7.231   1.125
 5406TIP3   OH216174   4.115   7.572   1.352
 5406TIP3    H116175   4.163   7.494   1.378
 5406TIP3    H216176   4.173   7.617   1.290
 5407TIP3   OH216177   4.902   7.992   1.343
 5407TIP3    H116178   4.947   7.916   1.306
 5407TIP3    H216179   4.972   8.051   1.370
 5408TIP3   OH216180   5.898   7.328   1.344
 5408TIP3    H116181   5.926   7.408   1.388
 5408TIP3    H216182   5.914   7.344   1.251
 5409TIP3   OH216183   5.292   7.502   1.375
 5409TIP3    H116184   5.337   7.420   1.397
 5409TIP3    H216185   5.263   7.490   1.285
 5410TIP3   OH216186   4.633   7.165   1.336
 5410TIP3    H116187   4.615   7.238   1.276
 5410TIP3    H216188   4.591   7.089   1.296
 5411TIP3   OH216189   5.329   7.262   0.957
 5411TIP3    H116190   5.396   7.244   1.023
 5411TIP3    H216191   5.378   7.287   0.879
 5412TIP3   OH216192   4.267   7.363   1.447
 5412TIP3    H116193   4.348   7.344   1.494
 5412TIP3    H216194   4.274   7.313   1.366
 5413TIP3   OH216195   4.702   7.561   1.253
 5413TIP3    H116196   4.795   7.542   1.259
 5413TIP3    H216197   4.663   7.482   1.216
 5414TIP3   OH216198   5.970   7.537   1.514
 5414TIP3    H116199   5.885   7.579   1.496
 5414TIP3    H216200   5.997   7.573   1.599
 5415TIP3   OH216201   4.627   7.153   1.778
 5415TIP3    H116202   4.569   7.185   1.709
 5415TIP3    H216203   4.580   7.171   1.860
 5416TIP3   OH216204   4.956   7.976   0.743
 5416TIP3    H116205   4.876   7.925   0.731
 5416TIP3    H216206   4.928   8.054   0.791
 5417TIP3   OH216207   4.732   7.929   1.567
 5417TIP3    H116208   4.671   7.997   1.598
 5417TIP3    H216209   4.771   7.967   1.488
 5418TIP3   OH216210   5.531   7.266   1.139
 5418TIP3    H116211   5.518   7.215   1.220
 5418TIP3    H216212   5.582   7.342   1.167
 5419TIP3   OH216213   4.504   7.264   1.557
 5419TIP3    H116214   4.564   7.333   1.584
 5419TIP3    H216215   4.548   7.222   1.483
 5420TIP3   OH216216   7.391   0.133   1.676
 5420TIP3    H116217   7.352   0.125   1.589
 5420TIP3    H216218   7.316   0.128   1.736
 5421TIP3   OH216219   3.980   7.790   0.922
 5421TIP3    H116220   3.914   7.765   0.857
 5421TIP3    H216221   3.983   7.886   0.918
 5422TIP3   OH216222   5.687   7.224   1.506
 5422TIP3    H116223   5.601   7.249   1.473
 5422TIP3    H216224   5.749   7.255   1.440
 5423TIP3   OH216225   4.980   6.863   1.493
 5423TIP3    H116226   4.967   6.770   1.507
 5423TIP3    H216227   4.906   6.905   1.537
 5424TIP3   OH216228   8.449   0.221   1.488
 5424TIP3    H116229   8.437   0.143   1.434
 5424TIP3    H216230   8.478   0.289   1.427
 5425TIP3   OH216231   4.919   7.634   0.738
 5425TIP3    H116232   4.835   7.680   0.736
 5425TIP3    H216233   4.950   7.636   0.648
 5426TIP3   OH216234   5.815   7.874   1.328
 5426TIP3    H116235   5.732   7.921   1.339
 5426TIP3    H216236   5.844   7.898   1.240
 5427TIP3   OH216237   5.262   7.720   0.729
 5427TIP3    H116238   5.207   7.742   0.804
 5427TIP3    H216239   5.345   7.691   0.767
 5428TIP3   OH216240   5.494   7.752   1.634
 5428TIP3    H116241   5.498   7.832   1.686
 5428TIP3    H216242   5.411   7.758   1.588
 5429TIP3   OH216243   4.495   7.707   1.126
 5429TIP3    H116244   4.456   7.651   1.060
 5429TIP3    H216245   4.571   7.658   1.158
 5430TIP3   OH216246   7.467   0.059   1.332
 5430TIP3    H116247   7.430   0.061   1.244
 5430TIP3    H216248   7.561   0.063   1.318
 5431TIP3   OH216249   4.616   7.688   1.487
 5431TIP3    H116250   4.653   7.659   1.404
 5431TIP3    H216251   4.660   7.771   1.505
 5432TIP3   OH216252   7.640   0.126   1.813
 5432TIP3    H116253   7.611   0.215   1.835
 5432TIP3    H216254   7.568   0.091   1.760
 5433TIP3   OH216255   4.360   7.550   0.939
 5433TIP3    H116256   4.295   7.592   0.883
 5433TIP3    H216257   4.328   7.460   0.951
 5434TIP3   OH216258   4.146   7.920   1.846
 5434TIP3    H116259   4.077   7.957   1.790
 5434TIP3    H216260   4.148   7.827   1.824
 5435TIP3   OH216261   5.754   7.706   1.802
 5435TIP3    H116262   5.668   7.723   1.764
 5435TIP3    H216263   5.768   7.612   1.791
 5436TIP3   OH216264   7.177   0.113   1.851
 5436TIP3    H116265   7.236   0.084   1.920
 5436TIP3    H216266   7.112   0.043   1.844
 5437TIP3   OH216267   4.742   6.945   1.621
 5437TIP3    H116268   4.658   6.911   1.589
 5437TIP3    H216269   4.719   7.024   1.670
 5438TIP3   OH216270   5.279   7.059   1.814
 5438TIP3    H116271   5.347   7.030   1.875
 5438TIP3    H216272   5.197   7.039   1.859
 5439TIP3   OH216273   5.518   7.489   1.733
 5439TIP3    H116274   5.467   7.485   1.814
 5439TIP3    H216275   5.497   7.575   1.696
 5440TIP3   OH216276   4.904   6.998   0.593
 5440TIP3    H116277   4.862   6.985   0.679
 5440TIP3    H216278   4.874   6.925   0.540
 5441TIP3   OH216279   4.675   7.470   1.641
 5441TIP3    H116280   4.691   7.514   1.725
 5441TIP3    H216281   4.657   7.541   1.580
 5442TIP3   OH216282   4.558   7.345   1.151
 5442TIP3    H116283   4.468   7.321   1.171
 5442TIP3    H216284   4.574   7.308   1.065
 5443TIP3   OH216285   5.050   7.438   0.878
 5443TIP3    H116286   4.991   7.503   0.839
 5443TIP3    H216287   5.124   7.434   0.818
 5444TIP3   OH216288   5.234   7.703   1.964
 5444TIP3    H116289   5.212   7.633   2.025
 5444TIP3    H216290   5.325   7.725   1.984
 5445TIP3   OH216291   5.208   7.458   1.115
 5445TIP3    H116292   5.146   7.492   1.050
 5445TIP3    H216293   5.246   7.381   1.073
 5446TIP3   OH216294   4.532   6.939   0.578
 5446TIP3    H116295   4.525   6.947   0.673
 5446TIP3    H216296   4.487   7.016   0.544
 5447TIP3   OH216297   4.089   7.007   1.434
 5447TIP3    H116298   4.168   7.038   1.478
 5447TIP3    H216299   4.119   6.980   1.347
 5448TIP3   OH216300   4.058   6.993   0.944
 5448TIP3    H116301   4.107   7.025   0.868
 5448TIP3    H216302   3.996   7.064   0.963
 5449TIP3   OH216303   5.213   7.699   1.539
 5449TIP3    H116304   5.249   7.633   1.479
 5449TIP3    H216305   5.187   7.649   1.616
 5450TIP3   OH216306   4.894   7.169   1.214
 5450TIP3    H116307   4.812   7.165   1.264
 5450TIP3    H216308   4.963   7.161   1.280
 5451TIP3   OH216309   4.320   7.224   1.219
 5451TIP3    H116310   4.228   7.234   1.192
 5451TIP3    H216311   4.342   7.134   1.196
 5452TIP3   OH216312   4.590   7.224   0.911
 5452TIP3    H116313   4.682   7.232   0.888
 5452TIP3    H216314   4.543   7.252   0.831
 5453TIP3   OH216315   5.379   7.243   1.419
 5453TIP3    H116316   5.347   7.258   1.509
 5453TIP3    H216317   5.315   7.183   1.381
 5454TIP3   OH216318   4.421   7.271   0.697
 5454TIP3    H116319   4.340   7.228   0.669
 5454TIP3    H216320   4.486   7.248   0.631
 5455TIP3   OH216321   7.342   0.039   2.058
 5455TIP3    H116322   7.424   0.055   2.106
 5455TIP3    H216323   7.279   0.016   2.127
 5456TIP3   OH216324   4.972   7.496   1.310
 5456TIP3    H116325   5.043   7.462   1.255
 5456TIP3    H216326   4.981   7.450   1.393
 5457TIP3   OH216327   4.494   6.980   1.191
 5457TIP3    H116328   4.457   6.906   1.240
 5457TIP3    H216329   4.529   6.940   1.111
 5458TIP3   OH216330   4.950   7.392   1.600
 5458TIP3    H116331   4.863   7.430   1.608
 5458TIP3    H216332   5.007   7.452   1.647
 5459TIP3   OH216333   4.698   7.785   0.708
 5459TIP3    H116334   4.630   7.720   0.686
 5459TIP3    H216335   4.668   7.825   0.789
 5460TIP3   OH216336   8.415   0.000   1.325
 5460TIP3    H116337   8.443   0.050   1.248
 5460TIP3    H216338   8.333  -0.040   1.299
 5461TIP3   OH216339   7.927   0.108   1.694
 5461TIP3    H116340   7.965   0.067   1.771
 5461TIP3    H216341   7.845   0.147   1.726
 5462TIP3   OH216342   4.372   7.760   1.362
 5462TIP3    H116343   4.399   7.757   1.270
 5462TIP3    H216344   4.444   7.719   1.409
 5463TIP3   OH216345   4.994   7.826   1.993
 5463TIP3    H116346   4.955   7.806   1.908
 5463TIP3    H216347   5.085   7.797   1.985
 5464TIP3   OH216348   0.205   0.258   1.578
 5464TIP3    H116349   0.111   0.272   1.571
 5464TIP3    H216350   0.234   0.245   1.488
 5465TIP3   OH216351   5.349   7.886   1.232
 5465TIP3    H116352   5.257   7.866   1.250
 5465TIP3    H216353   5.384   7.805   1.195
 5466TIP3   OH216354   4.049   7.406   0.714
 5466TIP3    H116355   4.091   7.491   0.726
 5466TIP3    H216356   3.970   7.410   0.768
 5467TIP3   OH216357   4.616   7.879   0.946
 5467TIP3    H116358   4.587   7.968   0.965
 5467TIP3    H216359   4.581   7.826   1.017
 5468TIP3   OH216360   7.973   0.071   1.424
 5468TIP3    H116361   7.961   0.083   1.518
 5468TIP3    H216362   8.059   0.030   1.415
 5469TIP3   OH216363   4.469   7.219   2.002
 5469TIP3    H116364   4.374   7.207   2.004
 5469TIP3    H216365   4.503   7.161   2.070
 5470TIP3   OH216366   4.165   7.654   0.780
 5470TIP3    H116367   4.107   7.693   0.846
 5470TIP3    H216368   4.180   7.724   0.717
 5471TIP3   OH216369   5.305   7.299   1.679
 5471TIP3    H116370   5.387   7.336   1.712
 5471TIP3    H216371   5.293   7.219   1.730
 5472TIP3   OH216372   5.176   7.050   0.847
 5472TIP3    H116373   5.141   7.079   0.762
 5472TIP3    H216374   5.227   7.125   0.878
 5473TIP3   OH216375   4.874   7.230   0.944
 5473TIP3    H116376   4.936   7.300   0.924
 5473TIP3    H216377   4.879   7.220   1.039
 5474TIP3   OH216378   5.143   7.543   1.749
 5474TIP3    H116379   5.171   7.594   1.825
 5474TIP3    H216380   5.195   7.463   1.754
 5475TIP3   OH216381   5.016   6.952   1.043
 5475TIP3    H116382   5.006   7.028   1.100
 5475TIP3    H216383   5.077   6.980   0.975
 5476TIP3   OH216384   4.532   6.959   0.852
 5476TIP3    H116385   4.532   7.049   0.883
 5476TIP3    H216386   4.624   6.934   0.848
 5477TIP3   OH216387   5.786   7.439   1.733
 5477TIP3    H116388   5.690   7.440   1.739
 5477TIP3    H216389   5.805   7.402   1.647
 5478TIP3   OH216390   5.436   7.642   1.128
 5478TIP3    H116391   5.361   7.583   1.130
 5478TIP3    H216392   5.507   7.594   1.171
 5479TIP3   OH216393   4.163   7.868   0.598
 5479TIP3    H116394   4.190   7.957   0.623
 5479TIP3    H216395   4.147   7.874   0.504
 5480TIP3   OH216396   4.098   7.142   0.716
 5480TIP3    H116397   4.094   7.237   0.724
 5480TIP3    H216398   4.010   7.117   0.687
 5481TIP3   OH216399   4.477   6.863   1.591
 5481TIP3    H116400   4.450   6.831   1.505
 5481TIP3    H216401   4.469   6.787   1.649
 5482TIP3   OH216402   4.309   8.008   2.240
 5482TIP3    H116403   4.308   7.940   2.308
 5482TIP3    H216404   4.223   8.000   2.198
 5483TIP3   OH216405   7.765   0.076   2.050
 5483TIP3    H116406   7.729   0.095   1.964
 5483TIP3    H216407   7.801  -0.013   2.042
 5484TIP3   OH216408   8.237   0.108   1.623
 5484TIP3    H116409   8.308   0.157   1.582
 5484TIP3    H216410   8.161   0.167   1.618
 5485TIP3   OH216411   4.513   7.579   0.681
 5485TIP3    H116412   4.462   7.550   0.756
 5485TIP3    H216413   4.531   7.498   0.632
 5486TIP3   OH216414   4.738   7.628   1.854
 5486TIP3    H116415   4.712   7.695   1.917
 5486TIP3    H216416   4.803   7.672   1.798
 5487TIP3   OH216417   8.115   0.024   2.021
 5487TIP3    H116418   8.201   0.012   1.980
 5487TIP3    H216419   8.117  -0.034   2.097
 5488TIP3   OH216420   4.881   7.439   2.008
 5488TIP3    H116421   4.890   7.356   1.962
 5488TIP3    H216422   4.833   7.496   1.947
 5489TIP3   OH216423   4.887   7.226   1.825
 5489TIP3    H116424   4.919   7.264   1.743
 5489TIP3    H216425   4.796   7.203   1.807
 5490TIP3   OH216426   4.910   7.773   1.711
 5490TIP3    H116427   4.992   7.769   1.663
 5490TIP3    H216428   4.855   7.833   1.661
 5491TIP3   OH216429   5.497   7.731   2.074
 5491TIP3    H116430   5.547   7.651   2.088
 5491TIP3    H216431   5.562   7.798   2.052
 5492TIP3   OH216432   5.538   7.977   1.805
 5492TIP3    H116433   5.478   8.029   1.751
 5492TIP3    H216434   5.625   7.997   1.771
 5493TIP3   OH216435   4.767   7.543   2.243
 5493TIP3    H116436   4.697   7.481   2.264
 5493TIP3    H216437   4.800   7.514   2.158
 5494TIP3   OH216438   5.017   6.987   1.892
 5494TIP3    H116439   4.969   7.068   1.871
 5494TIP3    H216440   4.952   6.918   1.881
 5495TIP3   OH216441   5.144   7.488   2.109
 5495TIP3    H116442   5.136   7.476   2.204
 5495TIP3    H216443   5.057   7.469   2.075
 5496TIP3   OH216444   5.383   7.440   1.963
 5496TIP3    H116445   5.309   7.443   2.024
 5496TIP3    H216446   5.457   7.413   2.017
 5497TIP3   OH216447   5.610   7.383   2.117
 5497TIP3    H116448   5.615   7.289   2.135
 5497TIP3    H216449   5.602   7.424   2.203
 5498TIP3   OH216450   4.610   7.323   2.308
 5498TIP3    H116451   4.612   7.235   2.271
 5498TIP3    H216452   4.649   7.314   2.394
 5499TIP3   OH216453   5.112   6.996   2.149
 5499TIP3    H116454   5.176   6.926   2.147
 5499TIP3    H216455   5.071   6.994   2.062
 5500TIP3   OH216456   5.178   7.212   2.308
 5500TIP3    H116457   5.160   7.142   2.246
 5500TIP3    H216458   5.102   7.270   2.302
 5501TIP3   OH216459   3.889   7.802   0.593
 5501TIP3    H116460   3.983   7.816   0.609
 5501TIP3    H216461   3.882   7.709   0.573
 5502TIP3   OH216462   0.091   0.396   1.853
 5502TIP3    H116463   0.020   0.378   1.914
 5502TIP3    H216464   0.147   0.458   1.900
 5503TIP3   OH216465   0.053   0.135   1.133
 5503TIP3    H116466   0.113   0.080   1.083
 5503TIP3    H216467   0.052   0.219   1.086
 5504TIP3   OH216468   5.471   7.610   0.857
 5504TIP3    H116469   5.501   7.519   0.851
 5504TIP3    H216470   5.474   7.630   0.950
 5505TIP3   OH216471   4.122   7.687   1.601
 5505TIP3    H116472   4.113   7.656   1.511
 5505TIP3    H216473   4.216   7.698   1.613
 5506TIP3   OH216474   0.115   0.025   1.702
 5506TIP3    H116475   0.188  -0.036   1.696
 5506TIP3    H216476   0.141   0.100   1.648
 5507TIP3   OH216477   5.972   7.843   1.721
 5507TIP3    H116478   5.893   7.801   1.755
 5507TIP3    H216479   6.042   7.780   1.737
 5508TIP3   OH216480   5.480   7.322   0.732
 5508TIP3    H116481   5.518   7.237   0.751
 5508TIP3    H216482   5.550   7.370   0.687
 5509TIP3   OH216483   5.650   7.507   1.242
 5509TIP3    H116484   5.732   7.529   1.198
 5509TIP3    H216485   5.659   7.542   1.330
 5510TIP3   OH216486   5.718   7.655   1.470
 5510TIP3    H116487   5.643   7.687   1.519
 5510TIP3    H216488   5.750   7.732   1.422
 5511TIP3   OH216489   4.357   7.381   2.256
 5511TIP3    H116490   4.451   7.376   2.276
 5511TIP3    H216491   4.320   7.302   2.295
 5512TIP3   OH216492   5.582   7.084   0.793
 5512TIP3    H116493   5.639   7.066   0.868
 5512TIP3    H216494   5.529   7.005   0.784
 5513TIP3   OH216495   4.299   7.074   1.611
 5513TIP3    H116496   4.354   6.995   1.612
 5513TIP3    H216497   4.360   7.146   1.594
 5514TIP3   OH216498   4.104   7.351   1.678
 5514TIP3    H116499   4.146   7.328   1.595
 5514TIP3    H216500   4.113   7.446   1.683
 5515TIP3   OH216501   6.036   7.348   1.877
 5515TIP3    H116502   5.961   7.407   1.885
 5515TIP3    H216503   6.012   7.289   1.805
 5516TIP3   OH216504   4.081   6.864   1.181
 5516TIP3    H116505   3.989   6.847   1.201
 5516TIP3    H216506   4.078   6.913   1.099
 5517TIP3   OH216507   4.304   6.939   1.995
 5517TIP3    H116508   4.251   6.922   2.073
 5517TIP3    H216509   4.240   6.970   1.930
 5518TIP3   OH216510   5.947   7.148   1.703
 5518TIP3    H116511   5.854   7.145   1.682
 5518TIP3    H216512   5.976   7.057   1.696
 5519TIP3   OH216513   5.145   7.061   1.333
 5519TIP3    H116514   5.102   6.991   1.382
 5519TIP3    H216515   5.216   7.018   1.286
 5520TIP3   OH216516   5.662   6.948   1.237
 5520TIP3    H116517   5.698   6.997   1.164
 5520TIP3    H216518   5.567   6.961   1.231
 5521TIP3   OH216519   5.762   7.044   1.002
 5521TIP3    H116520   5.832   6.992   0.965
 5521TIP3    H216521   5.786   7.135   0.984
 5522TIP3   OH216522   4.390   6.768   1.346
 5522TIP3    H116523   4.298   6.741   1.347
 5522TIP3    H216524   4.439   6.686   1.340
 5523TIP3   OH216525   4.192   6.646   1.001
 5523TIP3    H116526   4.214   6.694   0.921
 5523TIP3    H216527   4.159   6.712   1.061
 5524TIP3   OH216528   4.841   6.803   1.228
 5524TIP3    H116529   4.894   6.847   1.162
 5524TIP3    H216530   4.868   6.843   1.311
 5525TIP3   OH216531   5.381   6.949   1.207
 5525TIP3    H116532   5.381   6.914   1.118
 5525TIP3    H216533   5.368   6.872   1.263
 5526TIP3   OH216534   5.412   6.875   0.815
 5526TIP3    H116535   5.323   6.908   0.801
 5526TIP3    H216536   5.399   6.785   0.847
 5527TIP3   OH216537   4.299   6.802   0.760
 5527TIP3    H116538   4.338   6.739   0.699
 5527TIP3    H216539   4.373   6.849   0.797
 5528TIP3   OH216540   4.807   6.979   0.857
 5528TIP3    H116541   4.864   6.925   0.911
 5528TIP3    H216542   4.831   7.069   0.879
 5529TIP3   OH216543   4.600   7.051   2.241
 5529TIP3    H116544   4.563   6.979   2.292
 5529TIP3    H216545   4.692   7.052   2.264
 5530TIP3   OH216546   4.851   7.048   2.355
 5530TIP3    H116547   4.935   7.025   2.315
 5530TIP3    H216548   4.837   6.981   2.422
 5531TIP3   OH216549   5.667   7.105   2.152
 5531TIP3    H116550   5.671   7.080   2.244
 5531TIP3    H216551   5.754   7.082   2.118
 5532TIP3   OH216552   6.174   7.923   1.138
 5532TIP3    H116553   6.225   7.883   1.208
 5532TIP3    H216554   6.239   7.954   1.075
 5533TIP3   OH216555   6.054   7.620   0.947
 5533TIP3    H116556   6.143   7.596   0.972
 5533TIP3    H216557   6.042   7.580   0.861
 5534TIP3   OH216558   6.410   7.403   1.269
 5534TIP3    H116559   6.357   7.439   1.198
 5534TIP3    H216560   6.358   7.418   1.348
 5535TIP3   OH216561   6.304   7.512   1.031
 5535TIP3    H116562   6.349   7.590   1.062
 5535TIP3    H216563   6.363   7.474   0.966
 5536TIP3   OH216564   6.767   7.126   0.983
 5536TIP3    H116565   6.761   7.032   0.997
 5536TIP3    H216566   6.688   7.162   1.023
 5537TIP3   OH216567   0.612   0.049   1.404
 5537TIP3    H116568   0.603   0.125   1.461
 5537TIP3    H216569   0.527   0.005   1.408
 5538TIP3   OH216570   0.277   0.174   1.336
 5538TIP3    H116571   0.210   0.161   1.269
 5538TIP3    H216572   0.309   0.086   1.356
 5539TIP3   OH216573   6.529   7.206   1.114
 5539TIP3    H116574   6.446   7.170   1.083
 5539TIP3    H216575   6.503   7.279   1.170
 5540TIP3   OH216576   7.050   7.277   1.333
 5540TIP3    H116577   7.087   7.313   1.414
 5540TIP3    H216578   6.956   7.269   1.351
 5541TIP3   OH216579   6.453   7.715   1.123
 5541TIP3    H116580   6.409   7.745   1.202
 5541TIP3    H216581   6.494   7.794   1.087
 5542TIP3   OH216582   6.310   7.753   1.353
 5542TIP3    H116583   6.289   7.818   1.419
 5542TIP3    H216584   6.292   7.669   1.395
 5543TIP3   OH216585   5.890   7.264   0.917
 5543TIP3    H116586   5.957   7.295   0.978
 5543TIP3    H216587   5.935   7.260   0.833
 5544TIP3   OH216588   6.040   7.960   1.478
 5544TIP3    H116589   6.047   7.946   1.572
 5544TIP3    H216590   5.963   7.909   1.451
 5545TIP3   OH216591   6.261   7.487   1.480
 5545TIP3    H116592   6.166   7.491   1.493
 5545TIP3    H216593   6.293   7.437   1.555
 5546TIP3   OH216594   6.272   7.122   1.087
 5546TIP3    H116595   6.241   7.092   1.002
 5546TIP3    H216596   6.264   7.045   1.143
 5547TIP3   OH216597   0.449   0.258   1.700
 5547TIP3    H116598   0.483   0.169   1.702
 5547TIP3    H216599   0.361   0.250   1.663
 5548TIP3   OH216600   6.240   8.024   1.715
 5548TIP3    H116601   6.279   7.937   1.721
 5548TIP3    H216602   6.251   8.062   1.802
 5549TIP3   OH216603   6.647   7.708   1.497
 5549TIP3    H116604   6.685   7.622   1.476
 5549TIP3    H216605   6.595   7.730   1.420
 5550TIP3   OH216606   6.659   7.506   1.280
 5550TIP3    H116607   6.639   7.539   1.192
 5550TIP3    H216608   6.577   7.465   1.309
 5551TIP3   OH216609   6.559   7.799   1.742
 5551TIP3    H116610   6.484   7.742   1.756
 5551TIP3    H216611   6.591   7.774   1.655
 5552TIP3   OH216612   6.780   7.248   1.386
 5552TIP3    H116613   6.728   7.321   1.353
 5552TIP3    H216614   6.725   7.171   1.373
 5553TIP3   OH216615   6.393   7.577   1.787
 5553TIP3    H116616   6.406   7.489   1.753
 5553TIP3    H216617   6.434   7.576   1.874
 5554TIP3   OH216618   6.904   7.244   1.633
 5554TIP3    H116619   6.977   7.183   1.626
 5554TIP3    H216620   6.857   7.234   1.550
 5555TIP3   OH216621   6.969   7.452   1.800
 5555TIP3    H116622   6.951   7.388   1.732
 5555TIP3    H216623   6.903   7.520   1.787
 5556TIP3   OH216624   5.915   7.948   1.079
 5556TIP3    H116625   5.918   7.905   0.994
 5556TIP3    H216626   6.006   7.951   1.108
 5557TIP3   OH216627   6.125   7.615   1.748
 5557TIP3    H116628   6.219   7.631   1.756
 5557TIP3    H216629   6.108   7.540   1.805
 5558TIP3   OH216630   6.092   7.330   1.090
 5558TIP3    H116631   6.149   7.253   1.100
 5558TIP3    H216632   6.153   7.403   1.078
 5559TIP3   OH216633   5.893   7.603   1.168
 5559TIP3    H116634   5.942   7.604   1.086
 5559TIP3    H216635   5.915   7.686   1.210
 5560TIP3   OH216636   6.095   7.183   1.471
 5560TIP3    H116637   6.050   7.181   1.555
 5560TIP3    H216638   6.032   7.222   1.411
 5561TIP3   OH216639   6.180   7.025   0.852
 5561TIP3    H116640   6.089   6.996   0.850
 5561TIP3    H216641   6.230   6.947   0.830
 5562TIP3   OH216642   6.398   7.305   1.720
 5562TIP3    H116643   6.354   7.244   1.780
 5562TIP3    H216644   6.490   7.302   1.746
 5563TIP3   OH216645   6.645   7.298   1.839
 5563TIP3    H116646   6.734   7.299   1.802
 5563TIP3    H216647   6.647   7.226   1.903
 5564TIP3   OH216648   1.850   0.490   5.755
 5564TIP3    H116649   1.787   0.461   5.821
 5564TIP3    H216650   1.872   0.579   5.780
 5565TIP3   OH216651   1.491   0.959   5.761
 5565TIP3    H116652   1.549   0.893   5.723
 5565TIP3    H216653   1.473   0.927   5.849
 5566TIP3   OH216654   8.099   7.954   6.311
 5566TIP3    H116655   8.029   8.008   6.276
 5566TIP3    H216656   8.165   8.017   6.340
 5567TIP3   OH216657   1.526   0.424   5.522
 5567TIP3    H116658   1.439   0.389   5.500
 5567TIP3    H216659   1.507   0.499   5.578
 5568TIP3   OH216660   1.905   0.742   5.911
 5568TIP3    H116661   1.815   0.739   5.944
 5568TIP3    H216662   1.908   0.820   5.857
 5569TIP3   OH216663   1.655   0.789   5.623
 5569TIP3    H116664   1.685   0.708   5.582
 5569TIP3    H216665   1.690   0.859   5.568
 5570TIP3   OH216666   1.761   0.572   5.496
 5570TIP3    H116667   1.693   0.512   5.465
 5570TIP3    H216668   1.804   0.526   5.567
 5571TIP3   OH216669   2.127   0.653   6.259
 5571TIP3    H116670   2.125   0.577   6.201
 5571TIP3    H216671   2.090   0.724   6.207
 5572TIP3   OH216672   2.322   0.296   6.102
 5572TIP3    H116673   2.243   0.348   6.104
 5572TIP3    H216674   2.361   0.314   6.016
 5573TIP3   OH216675   1.765   0.151   5.491
 5573TIP3    H116676   1.704   0.157   5.564
 5573TIP3    H216677   1.842   0.107   5.528
 5574TIP3   OH216678   1.661   0.766   6.018
 5574TIP3    H116679   1.641   0.849   6.062
 5574TIP3    H216680   1.641   0.699   6.083
 5575TIP3   OH216681   1.365   0.735   5.528
 5575TIP3    H116682   1.418   0.749   5.607
 5575TIP3    H216683   1.284   0.697   5.561
 5576TIP3   OH216684   1.928   0.595   4.901
 5576TIP3    H116685   1.931   0.690   4.890
 5576TIP3    H216686   2.019   0.567   4.896
 5577TIP3   OH216687   1.518   0.796   6.426
 5577TIP3    H116688   1.496   0.889   6.436
 5577TIP3    H216689   1.435   0.750   6.439
 5578TIP3   OH216690   1.165   0.915   5.380
 5578TIP3    H116691   1.187   0.907   5.287
 5578TIP3    H216692   1.195   1.003   5.404
 5579TIP3   OH216693   1.469   0.914   5.354
 5579TIP3    H116694   1.403   0.875   5.411
 5579TIP3    H216695   1.526   0.841   5.330
 5580TIP3   OH216696   2.261   0.114   6.582
 5580TIP3    H116697   2.181   0.167   6.572
 5580TIP3    H216698   2.235   0.026   6.556
 5581TIP3   OH216699   1.693   0.009   5.051
 5581TIP3    H116700   1.658  -0.001   4.963
 5581TIP3    H216701   1.735   0.095   5.050
 5582TIP3   OH216702   2.072   1.303   6.389
 5582TIP3    H116703   2.053   1.355   6.311
 5582TIP3    H216704   2.144   1.349   6.432
 5583TIP3   OH216705   2.091   0.447   6.082
 5583TIP3    H116706   2.129   0.497   6.009
 5583TIP3    H216707   2.011   0.408   6.045
 5584TIP3   OH216708   1.374   0.399   5.217
 5584TIP3    H116709   1.325   0.479   5.240
 5584TIP3    H216710   1.370   0.345   5.296
 5585TIP3   OH216711   1.786   0.790   6.382
 5585TIP3    H116712   1.694   0.781   6.360
 5585TIP3    H216713   1.787   0.848   6.459
 5586TIP3   OH216714   7.838   7.876   5.249
 5586TIP3    H116715   7.778   7.817   5.202
 5586TIP3    H216716   7.817   7.963   5.215
 5587TIP3   OH216717   2.388   0.701   6.345
 5587TIP3    H116718   2.292   0.706   6.339
 5587TIP3    H216719   2.416   0.684   6.255
 5588TIP3   OH216720   1.882   0.665   5.178
 5588TIP3    H116721   1.831   0.610   5.238
 5588TIP3    H216722   1.869   0.625   5.092
 5589TIP3   OH216723   1.871   0.285   5.998
 5589TIP3    H116724   1.776   0.275   6.006
 5589TIP3    H216725   1.892   0.250   5.912
 5590TIP3   OH216726   1.294   0.924   6.289
 5590TIP3    H116727   1.212   0.935   6.240
 5590TIP3    H216728   1.332   0.844   6.255
 5591TIP3   OH216729   1.692   0.546   6.193
 5591TIP3    H116730   1.658   0.525   6.280
 5591TIP3    H216731   1.787   0.542   6.203
 5592TIP3   OH216732   1.601   0.366   5.072
 5592TIP3    H116733   1.665   0.354   5.142
 5592TIP3    H216734   1.520   0.389   5.118
 5593TIP3   OH216735   1.957   0.873   4.893
 5593TIP3    H116736   1.991   0.946   4.841
 5593TIP3    H216737   1.876   0.907   4.932
 5594TIP3   OH216738   1.781   0.328   5.275
 5594TIP3    H116739   1.760   0.269   5.348
 5594TIP3    H216740   1.876   0.328   5.271
 5595TIP3   OH216741   1.191   0.596   5.273
 5595TIP3    H116742   1.143   0.598   5.355
 5595TIP3    H216743   1.221   0.686   5.260
 5596TIP3   OH216744   1.919   1.017   5.836
 5596TIP3    H116745   1.868   1.059   5.767
 5596TIP3    H216746   2.010   1.040   5.816
 5597TIP3   OH216747   1.144   0.556   4.998
 5597TIP3    H116748   1.151   0.548   5.093
 5597TIP3    H216749   1.231   0.535   4.965
 5598TIP3   OH216750   1.811   0.915   6.630
 5598TIP3    H116751   1.844   0.832   6.665
 5598TIP3    H216752   1.886   0.974   6.633
 5599TIP3   OH216753   1.916   0.552   6.403
 5599TIP3    H116754   2.001   0.574   6.363
 5599TIP3    H216755   1.866   0.634   6.400
 5600TIP3   OH216756   1.933   0.134   4.920
 5600TIP3    H116757   1.902   0.088   4.842
 5600TIP3    H216758   1.891   0.220   4.915
 5601TIP3   OH216759   2.078   0.383   6.565
 5601TIP3    H116760   2.019   0.435   6.510
 5601TIP3    H216761   2.166   0.405   6.533
 5602TIP3   OH216762   0.920   0.871   5.150
 5602TIP3    H116763   1.014   0.857   5.159
 5602TIP3    H216764   0.911   0.923   5.070
 5603TIP3   OH216765   2.175   1.121   5.810
 5603TIP3    H116766   2.205   1.206   5.842
 5603TIP3    H216767   2.217   1.112   5.725
 5604TIP3   OH216768   2.205   1.097   6.126
 5604TIP3    H116769   2.161   1.043   6.060
 5604TIP3    H216770   2.292   1.112   6.089
 5605TIP3   OH216771   2.235   0.806   6.642
 5605TIP3    H116772   2.166   0.811   6.709
 5605TIP3    H216773   2.279   0.891   6.647
 5606TIP3   OH216774   2.061   0.313   5.265
 5606TIP3    H116775   2.121   0.380   5.234
 5606TIP3    H216776   2.104   0.275   5.341
 5607TIP3   OH216777   2.183   0.178   5.467
 5607TIP3    H116778   2.116   0.148   5.528
 5607TIP3    H216779   2.250   0.218   5.522
 5608TIP3   OH216780   2.244   0.574   5.900
 5608TIP3    H116781   2.295   0.508   5.853
 5608TIP3    H216782   2.243   0.650   5.840
 5609TIP3   OH216783   2.017   0.889   6.122
 5609TIP3    H116784   1.924   0.909   6.110
 5609TIP3    H216785   2.039   0.832   6.048
 5610TIP3   OH216786   2.115   0.092   5.114
 5610TIP3    H116787   2.051   0.096   5.042
 5610TIP3    H216788   2.092   0.165   5.171
 5611TIP3   OH216789   7.665   7.766   5.058
 5611TIP3    H116790   7.621   7.847   5.031
 5611TIP3    H216791   7.602   7.697   5.037
 5612TIP3   OH216792   1.994   0.037   5.631
 5612TIP3    H116793   2.018  -0.051   5.602
 5612TIP3    H216794   2.015   0.038   5.724
 5613TIP3   OH216795   2.311   0.466   6.463
 5613TIP3    H116796   2.380   0.400   6.457
 5613TIP3    H216797   2.343   0.538   6.409
 5614TIP3   OH216798   2.476   0.256   6.489
 5614TIP3    H116799   2.401   0.208   6.526
 5614TIP3    H216800   2.552   0.200   6.508
 5615TIP3   OH216801   7.818   7.950   6.018
 5615TIP3    H116802   7.898   7.971   5.969
 5615TIP3    H216803   7.831   7.993   6.103
 5616TIP3   OH216804   2.203   0.092   6.241
 5616TIP3    H116805   2.119   0.130   6.266
 5616TIP3    H216806   2.250   0.163   6.197
 5617TIP3   OH216807   1.767   0.974   5.458
 5617TIP3    H116808   1.795   0.950   5.369
 5617TIP3    H216809   1.825   1.047   5.482
 5618TIP3   OH216810   1.474   1.060   6.533
 5618TIP3    H116811   1.518   1.055   6.618
 5618TIP3    H216812   1.534   1.111   6.479
 5619TIP3   OH216813   1.646   1.205   6.380
 5619TIP3    H116814   1.692   1.168   6.306
 5619TIP3    H216815   1.712   1.255   6.428
 5620TIP3   OH216816   1.388   1.091   6.029
 5620TIP3    H116817   1.303   1.087   5.987
 5620TIP3    H216818   1.381   1.163   6.092
 5621TIP3   OH216819   1.639   1.021   6.122
 5621TIP3    H116820   1.546   1.036   6.100
 5621TIP3    H216821   1.686   1.088   6.071
 5622TIP3   OH216822   1.862   1.206   6.030
 5622TIP3    H116823   1.834   1.285   5.982
 5622TIP3    H216824   1.875   1.141   5.961
 5623TIP3   OH216825   1.195   0.831   5.115
 5623TIP3    H116826   1.288   0.840   5.097
 5623TIP3    H216827   1.166   0.759   5.057
 5624TIP3   OH216828   1.896   0.933   5.218
 5624TIP3    H116829   1.898   0.838   5.209
 5624TIP3    H216830   1.849   0.964   5.141
 5625TIP3   OH216831   3.383   0.452   5.168
 5625TIP3    H116832   3.361   0.544   5.150
 5625TIP3    H216833   3.310   0.402   5.134
 5626TIP3   OH216834   3.398   0.450   5.549
 5626TIP3    H116835   3.420   0.430   5.640
 5626TIP3    H216836   3.345   0.376   5.520
 5627TIP3   OH216837   2.683   0.354   5.932
 5627TIP3    H116838   2.723   0.280   5.978
 5627TIP3    H216839   2.756   0.406   5.900
 5628TIP3   OH216840   3.635   0.753   5.236
 5628TIP3    H116841   3.611   0.691   5.304
 5628TIP3    H216842   3.662   0.832   5.284
 5629TIP3   OH216843   8.012   7.975   5.442
 5629TIP3    H116844   7.973   8.062   5.448
 5629TIP3    H216845   7.955   7.926   5.383
 5630TIP3   OH216846   2.415   0.256   5.597
 5630TIP3    H116847   2.454   0.174   5.625
 5630TIP3    H216848   2.489   0.314   5.581
 5631TIP3   OH216849   3.284   1.217   5.250
 5631TIP3    H116850   3.327   1.149   5.199
 5631TIP3    H216851   3.265   1.176   5.334
 5632TIP3   OH216852   3.186   0.675   5.605
 5632TIP3    H116853   3.218   0.606   5.547
 5632TIP3    H216854   3.265   0.722   5.632
 5633TIP3   OH216855   3.605   0.177   5.646
 5633TIP3    H116856   3.614   0.085   5.672
 5633TIP3    H216857   3.565   0.173   5.559
 5634TIP3   OH216858   0.080   7.817   5.571
 5634TIP3    H116859   0.066   7.902   5.529
 5634TIP3    H216860  -0.001   7.768   5.554
 5635TIP3   OH216861   0.762   7.972   5.270
 5635TIP3    H116862   0.821   7.923   5.327
 5635TIP3    H216863   0.808   7.976   5.186
 5636TIP3   OH216864   2.546   0.035   5.696
 5636TIP3    H116865   2.634   0.044   5.731
 5636TIP3    H216866   2.556  -0.023   5.620
 5637TIP3   OH216867   3.005   0.238   5.506
 5637TIP3    H116868   3.097   0.215   5.518
 5637TIP3    H216869   2.964   0.156   5.476
 5638TIP3   OH216870   4.238   0.194   5.795
 5638TIP3    H116871   4.163   0.243   5.760
 5638TIP3    H216872   4.292   0.261   5.838
 5639TIP3   OH216873   3.278   0.675   5.034
 5639TIP3    H116874   3.236   0.659   4.950
 5639TIP3    H216875   3.237   0.755   5.067
 5640TIP3   OH216876   3.038   0.601   5.828
 5640TIP3    H116877   2.978   0.665   5.865
 5640TIP3    H216878   3.077   0.645   5.752
 5641TIP3   OH216879  -0.030   8.021   5.765
 5641TIP3    H116880   0.039   8.063   5.816
 5641TIP3    H216881   0.003   7.933   5.746
 5642TIP3   OH216882   2.854   0.789   5.928
 5642TIP3    H116883   2.814   0.818   5.846
 5642TIP3    H216884   2.783   0.791   5.992
 5643TIP3   OH216885   2.260   0.487   5.158
 5643TIP3    H116886   2.215   0.512   5.077
 5643TIP3    H216887   2.291   0.569   5.195
 5644TIP3   OH216888   3.700   1.002   5.397
 5644TIP3    H116889   3.615   0.991   5.439
 5644TIP3    H216890   3.694   1.086   5.352
 5645TIP3   OH216891   3.407   1.044   5.072
 5645TIP3    H116892   3.450   0.960   5.054
 5645TIP3    H216893   3.466   1.110   5.036
 5646TIP3   OH216894   3.545   0.825   4.985
 5646TIP3    H116895   3.496   0.751   4.950
 5646TIP3    H216896   3.584   0.792   5.066
 5647TIP3   OH216897   3.926   0.909   5.742
 5647TIP3    H116898   3.912   0.833   5.685
 5647TIP3    H216899   3.905   0.985   5.687
 5648TIP3   OH216900   3.217   0.310   4.998
 5648TIP3    H116901   3.136   0.360   4.986
 5648TIP3    H216902   3.258   0.308   4.912
 5649TIP3   OH216903   3.177   0.088   4.716
 5649TIP3    H116904   3.244   0.142   4.759
 5649TIP3    H216905   3.227   0.022   4.667
 5650TIP3   OH216906   4.121   0.554   5.588
 5650TIP3    H116907   4.037   0.600   5.594
 5650TIP3    H216908   4.154   0.576   5.501
 5651TIP3   OH216909   3.564   0.387   4.974
 5651TIP3    H116910   3.508   0.411   5.047
 5651TIP3    H216911   3.650   0.370   5.014
 5652TIP3   OH216912   3.796   0.430   5.888
 5652TIP3    H116913   3.793   0.511   5.939
 5652TIP3    H216914   3.711   0.427   5.844
 5653TIP3   OH216915   2.807   0.388   5.377
 5653TIP3    H116916   2.762   0.328   5.317
 5653TIP3    H216917   2.877   0.335   5.416
 5654TIP3   OH216918   2.958   0.827   5.514
 5654TIP3    H116919   2.898   0.767   5.470
 5654TIP3    H216920   3.034   0.773   5.536
 5655TIP3   OH216921   2.928   0.357   5.750
 5655TIP3    H116922   2.957   0.328   5.663
 5655TIP3    H216923   2.973   0.440   5.764
 5656TIP3   OH216924   3.465   0.994   5.524
 5656TIP3    H116925   3.446   1.075   5.572
 5656TIP3    H216926   3.442   0.924   5.585
 5657TIP3   OH216927   3.066   0.910   6.068
 5657TIP3    H116928   3.011   0.973   6.115
 5657TIP3    H216929   3.005   0.861   6.013
 5658TIP3   OH216930   3.408   0.243   4.796
 5658TIP3    H116931   3.460   0.306   4.846
 5658TIP3    H216932   3.432   0.260   4.705
 5659TIP3   OH216933   2.822   0.470   6.177
 5659TIP3    H116934   2.829   0.554   6.221
 5659TIP3    H216935   2.728   0.450   6.177
 5660TIP3   OH216936   3.154   0.920   5.072
 5660TIP3    H116937   3.231   0.976   5.084
 5660TIP3    H216938   3.090   0.977   5.030
 5661TIP3   OH216939   2.863   1.080   6.158
 5661TIP3    H116940   2.848   1.088   6.063
 5661TIP3    H216941   2.777   1.062   6.194
 5662TIP3   OH216942   2.664   0.223   5.184
 5662TIP3    H116943   2.600   0.275   5.136
 5662TIP3    H216944   2.616   0.144   5.210
 5663TIP3   OH216945   3.722   0.855   4.396
 5663TIP3    H116946   3.725   0.949   4.379
 5663TIP3    H216947   3.812   0.825   4.386
 5664TIP3   OH216948   2.450   0.615   6.098
 5664TIP3    H116949   2.395   0.600   6.021
 5664TIP3    H216950   2.487   0.529   6.117
 5665TIP3   OH216951   2.289   0.801   5.747
 5665TIP3    H116952   2.382   0.785   5.732
 5665TIP3    H216953   2.285   0.886   5.790
 5666TIP3   OH216954   4.163   1.259   5.797
 5666TIP3    H116955   4.161   1.164   5.806
 5666TIP3    H216956   4.081   1.288   5.838
 5667TIP3   OH216957   3.270   1.038   5.932
 5667TIP3    H116958   3.268   1.130   5.957
 5667TIP3    H216959   3.197   0.998   5.979
 5668TIP3   OH216960   3.032   1.169   4.877
 5668TIP3    H116961   2.989   1.152   4.794
 5668TIP3    H216962   3.000   1.255   4.903
 5669TIP3   OH216963   2.465   1.016   5.258
 5669TIP3    H116964   2.516   1.012   5.339
 5669TIP3    H216965   2.418   0.933   5.255
 5670TIP3   OH216966   3.231   1.074   4.520
 5670TIP3    H116967   3.285   1.008   4.477
 5670TIP3    H216968   3.268   1.082   4.607
 5671TIP3   OH216969   3.284   1.119   4.793
 5671TIP3    H116970   3.195   1.130   4.827
 5671TIP3    H216971   3.333   1.081   4.865
 5672TIP3   OH216972   4.049   0.369   6.068
 5672TIP3    H116973   3.974   0.414   6.029
 5672TIP3    H216974   4.029   0.276   6.057
 5673TIP3   OH216975   2.642   0.815   6.137
 5673TIP3    H116976   2.704   0.762   6.187
 5673TIP3    H216977   2.578   0.752   6.103
 5674TIP3   OH216978   3.843   0.179   6.014
 5674TIP3    H116979   3.789   0.196   6.092
 5674TIP3    H216980   3.815   0.245   5.950
 5675TIP3   OH216981   3.486   0.277   4.539
 5675TIP3    H116982   3.445   0.261   4.454
 5675TIP3    H216983   3.557   0.338   4.520
 5676TIP3   OH216984   3.002   0.143   5.908
 5676TIP3    H116985   2.943   0.155   5.982
 5676TIP3    H216986   2.986   0.218   5.851
 5677TIP3   OH216987   2.865   0.017   5.413
 5677TIP3    H116988   2.770   0.007   5.425
 5677TIP3    H216989   2.881  -0.010   5.322
 5678TIP3   OH216990   3.350   0.113   5.135
 5678TIP3    H116991   3.302   0.183   5.091
 5678TIP3    H216992   3.415   0.084   5.071
 5679TIP3   OH216993   3.540   0.409   6.208
 5679TIP3    H116994   3.512   0.331   6.256
 5679TIP3    H216995   3.632   0.419   6.229
 5680TIP3   OH216996   3.490   0.175   5.394
 5680TIP3    H116997   3.436   0.225   5.333
 5680TIP3    H216998   3.515   0.097   5.345
 5681TIP3   OH216999   2.809   0.166   6.103
 5681TIP3    H117000   2.817   0.235   6.169
 5681TIP3    H217001   2.785   0.087   6.153
 5682TIP3   OH217002   8.105   7.794   5.233
 5682TIP3    H117003   8.116   7.791   5.138
 5682TIP3    H217004   8.013   7.819   5.246
 5683TIP3   OH217005   3.522   0.380   5.798
 5683TIP3    H117006   3.559   0.314   5.739
 5683TIP3    H217007   3.494   0.331   5.875
 5684TIP3   OH217008   8.271   7.905   5.454
 5684TIP3    H117009   8.183   7.942   5.451
 5684TIP3    H217010   8.270   7.834   5.390
 5685TIP3   OH217011   0.074   7.928   5.164
 5685TIP3    H117012   0.161   7.918   5.125
 5685TIP3    H217013   0.014   7.920   5.090
 5686TIP3   OH217014   8.408   7.909   4.938
 5686TIP3    H117015   8.331   7.896   4.883
 5686TIP3    H217016   8.469   7.958   4.883
 5687TIP3   OH217017   3.859   1.606   5.890
 5687TIP3    H117018   3.852   1.629   5.797
 5687TIP3    H217019   3.935   1.654   5.922
 5688TIP3   OH217020   2.819   0.708   6.321
 5688TIP3    H117021   2.898   0.741   6.362
 5688TIP3    H217022   2.753   0.708   6.390
 5689TIP3   OH217023   3.262   0.167   5.569
 5689TIP3    H117024   3.346   0.147   5.529
 5689TIP3    H217025   3.269   0.134   5.659
 5690TIP3   OH217026   3.274   0.098   5.832
 5690TIP3    H117027   3.185   0.095   5.864
 5690TIP3    H217028   3.323   0.145   5.899
 5691TIP3   OH217029   2.988   0.453   4.952
 5691TIP3    H117030   2.915   0.392   4.938
 5691TIP3    H217031   2.971   0.492   5.038
 5692TIP3   OH217032   3.886   0.691   5.576
 5692TIP3    H117033   3.909   0.744   5.499
 5692TIP3    H217034   3.803   0.650   5.553
 5693TIP3   OH217035   0.591   7.854   4.772
 5693TIP3    H117036   0.532   7.802   4.826
 5693TIP3    H217037   0.627   7.919   4.832
 5694TIP3   OH217038   3.389   0.779   5.948
 5694TIP3    H117039   3.410   0.761   6.039
 5694TIP3    H217040   3.349   0.866   5.949
 5695TIP3   OH217041   3.524   0.035   4.934
 5695TIP3    H117042   3.619   0.047   4.942
 5695TIP3    H217043   3.495   0.110   4.882
 5696TIP3   OH217044   2.653   0.388   5.616
 5696TIP3    H117045   2.691   0.427   5.537
 5696TIP3    H217046   2.724   0.385   5.679
 5697TIP3   OH217047   3.132   0.608   4.777
 5697TIP3    H117048   3.086   0.692   4.776
 5697TIP3    H217049   3.079   0.553   4.835
 5698TIP3   OH217050   2.560   0.398   6.243
 5698TIP3    H117051   2.580   0.382   6.335
 5698TIP3    H217052   2.490   0.337   6.223
 5699TIP3   OH217053   3.287   0.517   6.262
 5699TIP3    H117054   3.223   0.466   6.213
 5699TIP3    H217055   3.372   0.489   6.228
 5700TIP3   OH217056   3.547   1.033   5.850
 5700TIP3    H117057   3.451   1.032   5.858
 5700TIP3    H217058   3.576   1.087   5.923
 5701TIP3   OH217059   3.954   0.109   4.739
 5701TIP3    H117060   3.899   0.055   4.682
 5701TIP3    H217061   3.942   0.198   4.707
 5702TIP3   OH217062   4.175   0.965   5.830
 5702TIP3    H117063   4.079   0.963   5.825
 5702TIP3    H217064   4.205   0.937   5.744
 5703TIP3   OH217065   3.666   0.925   4.663
 5703TIP3    H117066   3.627   0.859   4.721
 5703TIP3    H217067   3.673   0.882   4.578
 5704TIP3   OH217068   3.653   0.556   5.496
 5704TIP3    H117069   3.561   0.533   5.511
 5704TIP3    H217070   3.689   0.481   5.448
 5705TIP3   OH217071   2.776   0.781   5.240
 5705TIP3    H117072   2.775   0.863   5.190
 5705TIP3    H217073   2.685   0.770   5.269
 5706TIP3   OH217074   2.343   0.090   4.959
 5706TIP3    H117075   2.388   0.172   4.976
 5706TIP3    H217076   2.266   0.092   5.016
 5707TIP3   OH217077   2.921   0.553   5.191
 5707TIP3    H117078   2.885   0.640   5.207
 5707TIP3    H217079   2.886   0.499   5.261
 5708TIP3   OH217080   3.054   1.130   5.720
 5708TIP3    H117081   3.092   1.200   5.667
 5708TIP3    H217082   3.129   1.089   5.764
 5709TIP3   OH217083   2.698   1.027   5.102
 5709TIP3    H117084   2.613   1.033   5.146
 5709TIP3    H217085   2.732   1.116   5.103
 5710TIP3   OH217086   3.436   0.757   5.682
 5710TIP3    H117087   3.425   0.760   5.777
 5710TIP3    H217088   3.517   0.707   5.668
 5711TIP3   OH217089   3.416   0.646   4.563
 5711TIP3    H117090   3.466   0.624   4.642
 5711TIP3    H217091   3.325   0.630   4.588
 5712TIP3   OH217092   3.685   1.293   5.724
 5712TIP3    H117093   3.606   1.240   5.720
 5712TIP3    H217094   3.673   1.359   5.656
 5713TIP3   OH217095   3.749   1.132   4.375
 5713TIP3    H117096   3.776   1.197   4.310
 5713TIP3    H217097   3.673   1.171   4.417
 5714TIP3   OH217098   3.578   0.582   4.777
 5714TIP3    H117099   3.566   0.521   4.850
 5714TIP3    H217100   3.673   0.584   4.764
 5715TIP3   OH217101   2.458   1.018   5.932
 5715TIP3    H117102   2.487   0.942   5.881
 5715TIP3    H217103   2.539   1.058   5.963
 5716TIP3   OH217104   2.781   0.632   4.563
 5716TIP3    H117105   2.792   0.540   4.536
 5716TIP3    H217106   2.760   0.627   4.656
 5717TIP3   OH217107   2.726   0.642   4.835
 5717TIP3    H117108   2.793   0.616   4.897
 5717TIP3    H217109   2.725   0.738   4.838
 5718TIP3   OH217110   2.456   0.336   5.039
 5718TIP3    H117111   2.391   0.376   5.096
 5718TIP3    H217112   2.470   0.401   4.969
 5719TIP3   OH217113   2.991   0.839   4.782
 5719TIP3    H117114   2.905   0.859   4.819
 5719TIP3    H217115   3.008   0.911   4.722
 5720TIP3   OH217116   0.368   7.903   5.158
 5720TIP3    H117117   0.416   7.985   5.152
 5720TIP3    H217118   0.355   7.889   5.252
 5721TIP3   OH217119   3.464   0.222   6.010
 5721TIP3    H117120   3.455   0.290   6.077
 5721TIP3    H217121   3.503   0.148   6.056
 5722TIP3   OH217122   2.736   0.913   4.853
 5722TIP3    H117123   2.707   0.980   4.790
 5722TIP3    H217124   2.720   0.953   4.938
 5723TIP3   OH217125   3.742   0.312   5.375
 5723TIP3    H117126   3.661   0.266   5.396
 5723TIP3    H217127   3.809   0.265   5.424
 5724TIP3   OH217128   2.458   0.537   4.842
 5724TIP3    H117129   2.520   0.609   4.853
 5724TIP3    H217130   2.498   0.482   4.775
 5725TIP3   OH217131   8.058   7.832   4.960
 5725TIP3    H117132   8.056   7.928   4.955
 5725TIP3    H217133   7.965   7.807   4.963
 5726TIP3   OH217134   3.710   1.271   5.319
 5726TIP3    H117135   3.663   1.317   5.249
 5726TIP3    H217136   3.803   1.287   5.300
 5727TIP3   OH217137   2.316   0.759   5.226
 5727TIP3    H117138   2.247   0.781   5.288
 5727TIP3    H217139   2.287   0.798   5.143
 5728TIP3   OH217140   2.500   1.301   6.306
 5728TIP3    H117141   2.574   1.329   6.360
 5728TIP3    H217142   2.515   1.208   6.293
 5729TIP3   OH217143   2.956   1.255   6.350
 5729TIP3    H117144   3.052   1.250   6.353
 5729TIP3    H217145   2.931   1.197   6.279
 5730TIP3   OH217146   2.941   0.835   4.471
 5730TIP3    H117147   2.886   0.766   4.508
 5730TIP3    H217148   3.018   0.789   4.438
 5731TIP3   OH217149   3.600   1.170   6.083
 5731TIP3    H117150   3.592   1.103   6.150
 5731TIP3    H217151   3.674   1.224   6.111
 5732TIP3   OH217152   3.375   0.878   4.387
 5732TIP3    H117153   3.427   0.817   4.441
 5732TIP3    H217154   3.423   0.883   4.305
 5733TIP3   OH217155   2.612   0.703   6.503
 5733TIP3    H117156   2.628   0.609   6.508
 5733TIP3    H217157   2.529   0.711   6.456
 5734TIP3   OH217158   2.592   0.352   4.696
 5734TIP3    H117159   2.645   0.326   4.772
 5734TIP3    H217160   2.655   0.358   4.624
 5735TIP3   OH217161   3.214   0.793   6.274
 5735TIP3    H117162   3.172   0.815   6.191
 5735TIP3    H217163   3.241   0.702   6.264
 5736TIP3   OH217164   3.106   0.555   4.508
 5736TIP3    H117165   3.104   0.570   4.602
 5736TIP3    H217166   3.103   0.460   4.499
 5737TIP3   OH217167   3.710   0.804   5.884
 5737TIP3    H117168   3.784   0.845   5.840
 5737TIP3    H217169   3.638   0.866   5.871
 5738TIP3   OH217170   2.735   0.442   6.488
 5738TIP3    H117171   2.816   0.404   6.455
 5738TIP3    H217172   2.757   0.474   6.576
 5739TIP3   OH217173   2.791   0.260   4.918
 5739TIP3    H117174   2.764   0.225   5.003
 5739TIP3    H217175   2.828   0.185   4.872
 5740TIP3   OH217176   3.069   0.359   6.145
 5740TIP3    H117177   2.985   0.403   6.141
 5740TIP3    H217178   3.113   0.383   6.063
 5741TIP3   OH217179   2.896   0.051   4.763
 5741TIP3    H117180   2.866   0.061   4.673
 5741TIP3    H217181   2.992   0.055   4.757
 5742TIP3   OH217182   3.587   0.728   6.283
 5742TIP3    H117183   3.650   0.691   6.221
 5742TIP3    H217184   3.571   0.658   6.346
 5743TIP3   OH217185   3.719   0.381   4.418
 5743TIP3    H117186   3.697   0.338   4.336
 5743TIP3    H217187   3.689   0.471   4.407
 5744TIP3   OH217188   3.149   0.134   6.263
 5744TIP3    H117189   3.101   0.073   6.207
 5744TIP3    H217190   3.128   0.221   6.227
 5745TIP3   OH217191   3.228   0.444   5.944
 5745TIP3    H117192   3.309   0.456   5.894
 5745TIP3    H217193   3.166   0.505   5.904
 5746TIP3   OH217194   3.790   0.403   6.312
 5746TIP3    H117195   3.823   0.349   6.384
 5746TIP3    H217196   3.865   0.459   6.289
 5747TIP3   OH217197   3.841   0.657   6.065
 5747TIP3    H117198   3.779   0.708   6.012
 5747TIP3    H217199   3.927   0.680   6.030
 5748TIP3   OH217200   3.036   0.254   6.499
 5748TIP3    H117201   2.988   0.177   6.528
 5748TIP3    H217202   3.094   0.221   6.430
 5749TIP3   OH217203   3.428   0.183   6.302
 5749TIP3    H117204   3.451   0.154   6.391
 5749TIP3    H217205   3.332   0.174   6.299
 5750TIP3   OH217206   2.707   1.115   4.663
 5750TIP3    H117207   2.801   1.105   4.649
 5750TIP3    H217208   2.676   1.166   4.588
 5751TIP3   OH217209   2.188   0.498   4.877
 5751TIP3    H117210   2.281   0.520   4.865
 5751TIP3    H217211   2.178   0.411   4.837
 5752TIP3   OH217212   2.098   1.108   5.296
 5752TIP3    H117213   2.034   1.049   5.254
 5752TIP3    H217214   2.143   1.052   5.359
 5753TIP3   OH217215   2.230   0.960   5.486
 5753TIP3    H117216   2.225   0.881   5.539
 5753TIP3    H217217   2.297   1.014   5.529
 5754TIP3   OH217218   3.967   1.352   5.283
 5754TIP3    H117219   3.988   1.391   5.368
 5754TIP3    H217220   4.020   1.401   5.221
 5755TIP3   OH217221   3.988   1.378   5.566
 5755TIP3    H117222   3.943   1.294   5.558
 5755TIP3    H217223   4.066   1.359   5.618
 5756TIP3   OH217224   4.040   1.056   6.141
 5756TIP3    H117225   3.966   1.065   6.201
 5756TIP3    H217226   4.081   1.142   6.140
 5757TIP3   OH217227   3.857   0.567   4.752
 5757TIP3    H117228   3.916   0.636   4.721
 5757TIP3    H217229   3.900   0.534   4.831
 5758TIP3   OH217230   3.982   0.443   4.960
 5758TIP3    H117231   3.914   0.403   5.015
 5758TIP3    H217232   4.043   0.482   5.023
 5759TIP3   OH217233   4.042   0.833   5.393
 5759TIP3    H117234   4.087   0.767   5.341
 5759TIP3    H217235   4.034   0.909   5.334
 5760TIP3   OH217236   3.863   1.129   5.586
 5760TIP3    H117237   3.794   1.174   5.635
 5760TIP3    H217238   3.817   1.086   5.514
 5761TIP3   OH217239   3.910   0.344   4.604
 5761TIP3    H117240   3.846   0.350   4.533
 5761TIP3    H217241   3.891   0.418   4.661
 5762TIP3   OH217242   3.780   0.000   4.542
 5762TIP3    H117243   3.769   0.089   4.507
 5762TIP3    H217244   3.722  -0.054   4.489
 5763TIP3   OH217245   3.795   0.309   5.104
 5763TIP3    H117246   3.794   0.217   5.078
 5763TIP3    H217247   3.780   0.308   5.198
 5764TIP3   OH217248   2.421   0.360   5.855
 5764TIP3    H117249   2.417   0.336   5.763
 5764TIP3    H217250   2.515   0.367   5.873
 5765TIP3   OH217251   4.085   0.721   5.961
 5765TIP3    H117252   4.155   0.657   5.949
 5765TIP3    H217253   4.105   0.790   5.898
 5766TIP3   OH217254   4.263   0.514   5.974
 5766TIP3    H117255   4.189   0.465   6.010
 5766TIP3    H217256   4.340   0.459   5.993
 5767TIP3   OH217257   3.797   0.057   4.974
 5767TIP3    H117258   3.825  -0.020   5.023
 5767TIP3    H217259   3.856   0.060   4.899
 5768TIP3   OH217260   3.955   0.187   5.503
 5768TIP3    H117261   4.037   0.209   5.458
 5768TIP3    H217262   3.965   0.224   5.591
 5769TIP3   OH217263   4.016   0.339   5.727
 5769TIP3    H117264   3.940   0.370   5.775
 5769TIP3    H217265   4.049   0.417   5.681
 5770TIP3   OH217266   2.641   0.046   6.523
 5770TIP3    H117267   2.734   0.031   6.505
 5770TIP3    H217268   2.609  -0.039   6.553
 5771TIP3   OH217269   2.395   0.023   5.927
 5771TIP3    H117270   2.440   0.018   5.843
 5771TIP3    H217271   2.422   0.108   5.963
 5772TIP3   OH217272   3.553   1.227   4.939
 5772TIP3    H117273   3.595   1.214   4.854
 5772TIP3    H217274   3.600   1.301   4.978
 5773TIP3   OH217275   2.607   1.036   6.317
 5773TIP3    H117276   2.606   0.952   6.271
 5773TIP3    H217277   2.643   1.015   6.404
 5774TIP3   OH217278   2.831   1.095   5.887
 5774TIP3    H117279   2.781   1.160   5.836
 5774TIP3    H217280   2.912   1.083   5.837
 5775TIP3   OH217281   3.268   1.307   6.007
 5775TIP3    H117282   3.307   1.308   6.095
 5775TIP3    H217283   3.329   1.358   5.953
 5776TIP3   OH217284   3.447   1.462   5.870
 5776TIP3    H117285   3.513   1.413   5.821
 5776TIP3    H217286   3.497   1.518   5.929
 5777TIP3   OH217287   2.501   1.336   5.888
 5777TIP3    H117288   2.408   1.354   5.871
 5777TIP3    H217289   2.519   1.380   5.971
 5778TIP3   OH217290   2.735   1.307   5.747
 5778TIP3    H117291   2.651   1.318   5.791
 5778TIP3    H217292   2.719   1.335   5.657
 5779TIP3   OH217293   3.162   1.327   5.549
 5779TIP3    H117294   3.093   1.339   5.484
 5779TIP3    H217295   3.173   1.413   5.589
 5780TIP3   OH217296   3.430   1.266   5.603
 5780TIP3    H117297   3.337   1.281   5.585
 5780TIP3    H217298   3.476   1.336   5.556
 5781TIP3   OH217299   3.638   1.458   5.511
 5781TIP3    H117300   3.623   1.541   5.467
 5781TIP3    H217301   3.664   1.398   5.441
 5782TIP3   OH217302   2.413   1.107   5.638
 5782TIP3    H117303   2.441   1.098   5.730
 5782TIP3    H217304   2.484   1.067   5.588
 5783TIP3   OH217305   2.613   0.993   5.486
 5783TIP3    H117306   2.616   0.928   5.556
 5783TIP3    H217307   2.702   1.027   5.481
 5784TIP3   OH217308   2.880   1.084   5.500
 5784TIP3    H117309   2.908   0.994   5.482
 5784TIP3    H217310   2.919   1.105   5.584
 5785TIP3   OH217311   2.198   0.890   5.022
 5785TIP3    H117312   2.115   0.852   4.994
 5785TIP3    H217313   2.192   0.983   4.998
 5786TIP3   OH217314   2.974   1.070   4.610
 5786TIP3    H117315   3.060   1.097   4.578
 5786TIP3    H217316   2.948   0.999   4.551
 5787TIP3   OH217317   3.690   1.194   4.703
 5787TIP3    H117318   3.686   1.099   4.694
 5787TIP3    H217319   3.643   1.227   4.627
 5788TIP3   OH217320   2.276   0.908   4.665
 5788TIP3    H117321   2.274   0.928   4.758
 5788TIP3    H217322   2.361   0.867   4.651
 5789TIP3   OH217323   3.912   1.337   5.890
 5789TIP3    H117324   3.838   1.305   5.839
 5789TIP3    H217325   3.897   1.431   5.897
 5790TIP3   OH217326   5.178   0.706   4.657
 5790TIP3    H117327   5.157   0.798   4.641
 5790TIP3    H217328   5.107   0.657   4.617
 5791TIP3   OH217329   5.187   0.711   5.039
 5791TIP3    H117330   5.216   0.690   5.128
 5791TIP3    H217331   5.144   0.631   5.008
 5792TIP3   OH217332   4.486   0.600   5.400
 5792TIP3    H117333   4.513   0.540   5.470
 5792TIP3    H217334   4.554   0.667   5.398
 5793TIP3   OH217335   5.428   1.013   4.724
 5793TIP3    H117336   5.413   0.947   4.793
 5793TIP3    H217337   5.459   1.090   4.771
 5794TIP3   OH217338   4.458   1.012   5.127
 5794TIP3    H117339   4.447   0.917   5.129
 5794TIP3    H217340   4.552   1.025   5.116
 5795TIP3   OH217341   4.144   0.227   4.933
 5795TIP3    H117342   4.096   0.309   4.941
 5795TIP3    H217343   4.092   0.175   4.871
 5796TIP3   OH217344   4.220   0.508   5.090
 5796TIP3    H117345   4.269   0.430   5.116
 5796TIP3    H217346   4.276   0.550   5.024
 5797TIP3   OH217347   5.079   1.474   4.738
 5797TIP3    H117348   5.120   1.405   4.685
 5797TIP3    H217349   5.069   1.435   4.825
 5798TIP3   OH217350   4.984   0.934   5.089
 5798TIP3    H117351   5.021   0.860   5.040
 5798TIP3    H217352   5.060   0.985   5.116
 5799TIP3   OH217353   5.391   0.433   5.135
 5799TIP3    H117354   5.425   0.346   5.157
 5799TIP3    H217355   5.360   0.423   5.045
 5800TIP3   OH217356   4.669   0.023   5.034
 5800TIP3    H117357   4.667   0.113   5.000
 5800TIP3    H217358   4.675  -0.032   4.956
 5801TIP3   OH217359   5.390   0.209   4.755
 5801TIP3    H117360   5.448   0.165   4.817
 5801TIP3    H217361   5.442   0.218   4.675
 5802TIP3   OH217362   4.372   0.294   5.186
 5802TIP3    H117363   4.460   0.288   5.224
 5802TIP3    H217364   4.374   0.234   5.111
 5803TIP3   OH217365   4.805   0.491   4.984
 5803TIP3    H117366   4.898   0.474   5.000
 5803TIP3    H217367   4.769   0.406   4.958
 5804TIP3   OH217368   6.026   0.448   5.291
 5804TIP3    H117369   5.957   0.500   5.250
 5804TIP3    H217370   6.093   0.513   5.315
 5805TIP3   OH217371   5.069   0.928   4.525
 5805TIP3    H117372   5.034   0.917   4.437
 5805TIP3    H217373   5.029   1.010   4.556
 5806TIP3   OH217374   4.832   0.856   5.309
 5806TIP3    H117375   4.775   0.923   5.346
 5806TIP3    H217376   4.876   0.900   5.236
 5807TIP3   OH217377   4.641   0.184   5.293
 5807TIP3    H117378   4.633   0.257   5.355
 5807TIP3    H217379   4.733   0.187   5.264
 5808TIP3   OH217380   4.662   1.054   5.410
 5808TIP3    H117381   4.643   1.139   5.370
 5808TIP3    H217382   4.586   1.034   5.464
 5809TIP3   OH217383   4.055   0.742   4.644
 5809TIP3    H117384   4.013   0.766   4.561
 5809TIP3    H217385   4.084   0.825   4.681
 5810TIP3   OH217386   5.494   1.258   4.884
 5810TIP3    H117387   5.407   1.248   4.924
 5810TIP3    H217388   5.489   1.343   4.839
 5811TIP3   OH217389   5.199   1.300   4.556
 5811TIP3    H117390   5.244   1.217   4.539
 5811TIP3    H217391   5.258   1.366   4.520
 5812TIP3   OH217392   5.340   1.083   4.472
 5812TIP3    H117393   5.307   1.004   4.428
 5812TIP3    H217394   5.377   1.050   4.554
 5813TIP3   OH217395   5.720   1.165   5.229
 5813TIP3    H117396   5.710   1.090   5.171
 5813TIP3    H217397   5.703   1.241   5.173
 5814TIP3   OH217398   5.013   0.567   4.485
 5814TIP3    H117399   4.934   0.619   4.470
 5814TIP3    H217400   5.055   0.562   4.399
 5815TIP3   OH217401   4.973   0.343   4.207
 5815TIP3    H117402   5.040   0.398   4.247
 5815TIP3    H217403   5.023   0.280   4.153
 5816TIP3   OH217404   5.917   0.811   5.075
 5816TIP3    H117405   5.834   0.859   5.080
 5816TIP3    H217406   5.951   0.831   4.988
 5817TIP3   OH217407   5.360   0.644   4.460
 5817TIP3    H117408   5.305   0.668   4.535
 5817TIP3    H217409   5.446   0.626   4.497
 5818TIP3   OH217410   5.592   0.685   5.379
 5818TIP3    H117411   5.592   0.765   5.432
 5818TIP3    H217412   5.509   0.688   5.331
 5819TIP3   OH217413   4.592   0.637   4.879
 5819TIP3    H117414   4.551   0.583   4.811
 5819TIP3    H217415   4.670   0.589   4.905
 5820TIP3   OH217416   4.722   1.046   5.025
 5820TIP3    H117417   4.703   1.021   4.935
 5820TIP3    H217418   4.810   1.012   5.041
 5821TIP3   OH217419   4.740   0.604   5.234
 5821TIP3    H117420   4.766   0.586   5.144
 5821TIP3    H217421   4.774   0.692   5.251
 5822TIP3   OH217422   5.256   1.250   5.009
 5822TIP3    H117423   5.242   1.332   5.057
 5822TIP3    H217424   5.237   1.181   5.073
 5823TIP3   OH217425   4.867   1.167   5.557
 5823TIP3    H117426   4.810   1.229   5.602
 5823TIP3    H217427   4.807   1.114   5.504
 5824TIP3   OH217428   5.202   0.502   4.283
 5824TIP3    H117429   5.255   0.563   4.333
 5824TIP3    H217430   5.226   0.518   4.192
 5825TIP3   OH217431   4.611   0.730   5.654
 5825TIP3    H117432   4.623   0.816   5.696
 5825TIP3    H217433   4.521   0.707   5.674
 5826TIP3   OH217434   4.948   1.179   4.563
 5826TIP3    H117435   5.029   1.230   4.570
 5826TIP3    H217436   4.887   1.237   4.518
 5827TIP3   OH217437   4.662   1.332   5.642
 5827TIP3    H117438   4.629   1.339   5.552
 5827TIP3    H217439   4.584   1.311   5.694
 5828TIP3   OH217440   4.454   0.479   4.684
 5828TIP3    H117441   4.399   0.536   4.630
 5828TIP3    H217442   4.409   0.395   4.682
 5829TIP3   OH217443   5.520   1.109   3.883
 5829TIP3    H117444   5.525   1.204   3.868
 5829TIP3    H217445   5.610   1.078   3.872
 5830TIP3   OH217446   4.239   0.866   5.589
 5830TIP3    H117447   4.172   0.854   5.522
 5830TIP3    H217448   4.276   0.779   5.603
 5831TIP3   OH217449   4.096   1.061   5.227
 5831TIP3    H117450   4.190   1.063   5.213
 5831TIP3    H217451   4.077   1.143   5.273
 5832TIP3   OH217452   5.959   1.515   5.282
 5832TIP3    H117453   5.959   1.420   5.293
 5832TIP3    H217454   5.878   1.543   5.324
 5833TIP3   OH217455   5.064   1.297   5.415
 5833TIP3    H117456   5.064   1.388   5.443
 5833TIP3    H217457   4.995   1.256   5.467
 5834TIP3   OH217458   4.830   1.426   4.364
 5834TIP3    H117459   4.784   1.409   4.282
 5834TIP3    H217460   4.797   1.511   4.393
 5835TIP3   OH217461   4.266   1.274   4.751
 5835TIP3    H117462   4.312   1.267   4.834
 5835TIP3    H217463   4.205   1.200   4.750
 5836TIP3   OH217464   5.030   1.328   4.002
 5836TIP3    H117465   5.086   1.260   3.966
 5836TIP3    H217466   5.062   1.340   4.091
 5837TIP3   OH217467   5.079   1.377   4.273
 5837TIP3    H117468   4.992   1.388   4.310
 5837TIP3    H217469   5.132   1.341   4.344
 5838TIP3   OH217470   5.845   0.626   5.558
 5838TIP3    H117471   5.770   0.663   5.510
 5838TIP3    H217472   5.841   0.533   5.539
 5839TIP3   OH217473   4.446   1.048   5.573
 5839TIP3    H117474   4.493   1.037   5.656
 5839TIP3    H217475   4.371   0.989   5.581
 5840TIP3   OH217476   5.609   0.425   5.497
 5840TIP3    H117477   5.596   0.462   5.584
 5840TIP3    H217478   5.601   0.500   5.438
 5841TIP3   OH217479   5.282   0.537   4.028
 5841TIP3    H117480   5.240   0.520   3.943
 5841TIP3    H217481   5.359   0.590   4.006
 5842TIP3   OH217482   4.781   0.392   5.399
 5842TIP3    H117483   4.729   0.422   5.473
 5842TIP3    H217484   4.774   0.462   5.335
 5843TIP3   OH217485   4.665   0.263   4.905
 5843TIP3    H117486   4.571   0.280   4.905
 5843TIP3    H217487   4.685   0.241   4.814
 5844TIP3   OH217488   5.143   0.366   4.619
 5844TIP3    H117489   5.098   0.438   4.576
 5844TIP3    H217490   5.210   0.339   4.556
 5845TIP3   OH217491   5.336   0.662   5.690
 5845TIP3    H117492   5.310   0.585   5.740
 5845TIP3    H217493   5.428   0.676   5.713
 5846TIP3   OH217494   5.285   0.429   4.878
 5846TIP3    H117495   5.236   0.482   4.815
 5846TIP3    H217496   5.308   0.350   4.830
 5847TIP3   OH217497   4.594   0.420   5.598
 5847TIP3    H117498   4.613   0.493   5.657
 5847TIP3    H217499   4.569   0.348   5.656
 5848TIP3   OH217500   4.232   0.040   4.728
 5848TIP3    H117501   4.250   0.040   4.634
 5848TIP3    H217502   4.138   0.057   4.734
 5849TIP3   OH217503   5.309   0.636   5.284
 5849TIP3    H117504   5.347   0.571   5.227
 5849TIP3    H217505   5.284   0.588   5.363
 5850TIP3   OH217506   4.393   0.137   4.959
 5850TIP3    H117507   4.302   0.169   4.957
 5850TIP3    H217508   4.401   0.081   4.882
 5851TIP3   OH217509   4.701   0.172   4.654
 5851TIP3    H117510   4.791   0.162   4.622
 5851TIP3    H217511   4.647   0.163   4.576
 5852TIP3   OH217512   4.537   0.156   4.425
 5852TIP3    H117513   4.464   0.135   4.366
 5852TIP3    H217514   4.599   0.203   4.370
 5853TIP3   OH217515   5.655   1.863   5.377
 5853TIP3    H117516   5.650   1.887   5.285
 5853TIP3    H217517   5.731   1.911   5.411
 5854TIP3   OH217518   4.609   0.971   5.801
 5854TIP3    H117519   4.689   1.001   5.843
 5854TIP3    H217520   4.542   0.975   5.870
 5855TIP3   OH217521   5.059   0.420   5.055
 5855TIP3    H117522   5.143   0.406   5.011
 5855TIP3    H217523   5.072   0.384   5.143
 5856TIP3   OH217524   5.057   0.337   5.327
 5856TIP3    H117525   4.970   0.362   5.359
 5856TIP3    H217526   5.118   0.385   5.383
 5857TIP3   OH217527   4.782   0.713   4.441
 5857TIP3    H117528   4.711   0.651   4.425
 5857TIP3    H217529   4.764   0.748   4.528
 5858TIP3   OH217530   5.682   0.950   5.062
 5858TIP3    H117531   5.708   1.001   4.985
 5858TIP3    H217532   5.599   0.909   5.037
 5859TIP3   OH217533   5.223   0.095   4.258
 5859TIP3    H117534   5.163   0.045   4.312
 5859TIP3    H217535   5.258   0.162   4.317
 5860TIP3   OH217536   5.177   1.031   5.438
 5860TIP3    H117537   5.217   1.021   5.524
 5860TIP3    H217538   5.144   1.121   5.436
 5861TIP3   OH217539   5.320   0.292   4.420
 5861TIP3    H117540   5.415   0.302   4.429
 5861TIP3    H217541   5.293   0.367   4.368
 5862TIP3   OH217542   4.479   0.733   5.113
 5862TIP3    H117543   4.513   0.709   5.027
 5862TIP3    H217544   4.524   0.674   5.174
 5863TIP3   OH217545   4.928   0.865   4.263
 5863TIP3    H117546   4.882   0.949   4.263
 5863TIP3    H217547   4.876   0.810   4.322
 5864TIP3   OH217548   4.359   0.646   5.727
 5864TIP3    H117549   4.373   0.636   5.821
 5864TIP3    H217550   4.283   0.592   5.707
 5865TIP3   OH217551   5.088   0.770   5.748
 5865TIP3    H117552   5.029   0.722   5.689
 5865TIP3    H217553   5.176   0.747   5.718
 5866TIP3   OH217554   5.340   1.286   5.338
 5866TIP3    H117555   5.245   1.290   5.346
 5866TIP3    H217556   5.373   1.341   5.409
 5867TIP3   OH217557   5.747   0.366   4.225
 5867TIP3    H117558   5.693   0.313   4.167
 5867TIP3    H217559   5.738   0.455   4.192
 5868TIP3   OH217560   5.970   1.222   5.317
 5868TIP3    H117561   5.875   1.219   5.311
 5868TIP3    H217562   6.000   1.193   5.230
 5869TIP3   OH217563   5.455   1.183   4.148
 5869TIP3    H117564   5.427   1.113   4.207
 5869TIP3    H217565   5.468   1.139   4.063
 5870TIP3   OH217566   5.448   0.814   4.982
 5870TIP3    H117567   5.356   0.792   4.995
 5870TIP3    H217568   5.484   0.738   4.935
 5871TIP3   OH217569   4.579   1.044   4.738
 5871TIP3    H117570   4.579   1.124   4.684
 5871TIP3    H217571   4.486   1.025   4.751
 5872TIP3   OH217572   4.141   0.346   4.448
 5872TIP3    H117573   4.186   0.429   4.463
 5872TIP3    H217574   4.065   0.349   4.505
 5873TIP3   OH217575   4.707   0.804   4.682
 5873TIP3    H117576   4.678   0.894   4.696
 5873TIP3    H217577   4.672   0.756   4.758
 5874TIP3   OH217578   4.851   1.384   5.205
 5874TIP3    H117579   4.888   1.457   5.155
 5874TIP3    H217580   4.925   1.348   5.253
 5875TIP3   OH217581   4.497   1.280   4.592
 5875TIP3    H117582   4.412   1.288   4.635
 5875TIP3    H217583   4.533   1.369   4.591
 5876TIP3   OH217584   5.231   1.015   5.171
 5876TIP3    H117585   5.220   1.015   5.266
 5876TIP3    H217586   5.314   0.970   5.156
 5877TIP3   OH217587   5.212   0.909   4.052
 5877TIP3    H117588   5.264   0.886   4.129
 5877TIP3    H217589   5.122   0.886   4.076
 5878TIP3   OH217590   5.480   1.549   5.211
 5878TIP3    H117591   5.400   1.496   5.205
 5878TIP3    H217592   5.470   1.615   5.143
 5879TIP3   OH217593   5.547   1.386   3.868
 5879TIP3    H117594   5.587   1.453   3.812
 5879TIP3    H217595   5.468   1.427   3.903
 5880TIP3   OH217596   5.375   0.843   4.267
 5880TIP3    H117597   5.362   0.779   4.337
 5880TIP3    H217598   5.469   0.842   4.251
 5881TIP3   OH217599   4.288   1.246   5.365
 5881TIP3    H117600   4.342   1.176   5.401
 5881TIP3    H217601   4.312   1.323   5.416
 5882TIP3   OH217602   4.576   0.889   4.049
 5882TIP3    H117603   4.588   0.799   4.022
 5882TIP3    H217604   4.555   0.884   4.143
 5883TIP3   OH217605   4.522   0.899   4.321
 5883TIP3    H117606   4.595   0.874   4.378
 5883TIP3    H217607   4.519   0.994   4.325
 5884TIP3   OH217608   4.254   0.594   4.527
 5884TIP3    H117609   4.188   0.636   4.583
 5884TIP3    H217610   4.268   0.657   4.456
 5885TIP3   OH217611   4.786   1.095   4.269
 5885TIP3    H117612   4.700   1.115   4.306
 5885TIP3    H217613   4.804   1.168   4.209
 5886TIP3   OH217614   4.988   0.150   4.650
 5886TIP3    H117615   5.034   0.232   4.632
 5886TIP3    H217616   5.011   0.128   4.740
 5887TIP3   OH217617   5.252   0.473   5.493
 5887TIP3    H117618   5.251   0.538   5.564
 5887TIP3    H217619   5.313   0.406   5.524
 5888TIP3   OH217620   4.532   1.170   4.339
 5888TIP3    H117621   4.503   1.235   4.276
 5888TIP3    H217622   4.516   1.210   4.425
 5889TIP3   OH217623   5.536   0.571   4.863
 5889TIP3    H117624   5.458   0.520   4.884
 5889TIP3    H217625   5.607   0.526   4.909
 5890TIP3   OH217626   4.251   0.792   4.329
 5890TIP3    H117627   4.310   0.867   4.339
 5890TIP3    H217628   4.292   0.738   4.262
 5891TIP3   OH217629   4.188   0.073   4.459
 5891TIP3    H117630   4.189   0.168   4.448
 5891TIP3    H217631   4.102   0.046   4.426
 5892TIP3   OH217632   5.506   1.529   4.805
 5892TIP3    H117633   5.460   1.573   4.734
 5892TIP3    H217634   5.599   1.545   4.787
 5893TIP3   OH217635   4.109   1.007   4.711
 5893TIP3    H117636   4.049   1.039   4.778
 5893TIP3    H217637   4.081   1.051   4.630
 5894TIP3   OH217638   4.279   1.559   5.790
 5894TIP3    H117639   4.363   1.563   5.836
 5894TIP3    H217640   4.258   1.466   5.787
 5895TIP3   OH217641   4.753   1.512   5.835
 5895TIP3    H117642   4.848   1.507   5.840
 5895TIP3    H217643   4.729   1.453   5.764
 5896TIP3   OH217644   4.738   1.091   3.957
 5896TIP3    H117645   4.683   1.023   3.995
 5896TIP3    H217646   4.814   1.044   3.924
 5897TIP3   OH217647   5.398   1.425   5.567
 5897TIP3    H117648   5.389   1.359   5.636
 5897TIP3    H217649   5.472   1.479   5.595
 5898TIP3   OH217650   5.174   1.132   3.872
 5898TIP3    H117651   5.219   1.072   3.932
 5898TIP3    H217652   5.227   1.131   3.793
 5899TIP3   OH217653   4.404   0.960   5.988
 5899TIP3    H117654   4.419   0.865   5.993
 5899TIP3    H217655   4.320   0.969   5.943
 5900TIP3   OH217656   4.387   0.609   4.184
 5900TIP3    H117657   4.442   0.583   4.258
 5900TIP3    H217658   4.449   0.615   4.110
 5901TIP3   OH217659   5.012   1.048   5.763
 5901TIP3    H117660   4.973   1.072   5.678
 5901TIP3    H217661   5.042   0.958   5.751
 5902TIP3   OH217662   4.901   0.811   3.994
 5902TIP3    H117663   4.900   0.826   4.088
 5902TIP3    H217664   4.901   0.716   3.985
 5903TIP3   OH217665   5.504   1.062   5.368
 5903TIP3    H117666   5.582   1.099   5.325
 5903TIP3    H217667   5.436   1.129   5.355
 5904TIP3   OH217668   4.534   0.692   5.975
 5904TIP3    H117669   4.617   0.656   5.946
 5904TIP3    H217670   4.553   0.731   6.061
 5905TIP3   OH217671   4.589   0.516   4.404
 5905TIP3    H117672   4.564   0.474   4.486
 5905TIP3    H217673   4.628   0.445   4.352
 5906TIP3   OH217674   4.854   0.606   5.621
 5906TIP3    H117675   4.775   0.660   5.618
 5906TIP3    H217676   4.906   0.636   5.546
 5907TIP3   OH217677   4.693   0.309   4.250
 5907TIP3    H117678   4.664   0.317   4.159
 5907TIP3    H217679   4.788   0.311   4.244
 5908TIP3   OH217680   5.379   0.982   5.767
 5908TIP3    H117681   5.452   0.953   5.713
 5908TIP3    H217682   5.370   0.916   5.835
 5909TIP3   OH217683   5.510   0.638   3.907
 5909TIP3    H117684   5.493   0.595   3.823
 5909TIP3    H217685   5.482   0.728   3.894
 5910TIP3   OH217686   4.947   0.396   5.753
 5910TIP3    H117687   4.901   0.336   5.694
 5910TIP3    H217688   4.925   0.483   5.720
 5911TIP3   OH217689   5.021   0.698   5.431
 5911TIP3    H117690   5.106   0.712   5.390
 5911TIP3    H217691   4.963   0.760   5.387
 5912TIP3   OH217692   5.587   0.660   5.798
 5912TIP3    H117693   5.619   0.606   5.870
 5912TIP3    H217694   5.661   0.714   5.773
 5913TIP3   OH217695   5.637   0.913   5.549
 5913TIP3    H117696   5.575   0.965   5.496
 5913TIP3    H217697   5.723   0.936   5.514
 5914TIP3   OH217698   4.823   0.511   5.986
 5914TIP3    H117699   4.787   0.430   6.021
 5914TIP3    H217700   4.888   0.482   5.921
 5915TIP3   OH217701   5.228   0.439   5.791
 5915TIP3    H117702   5.258   0.406   5.876
 5915TIP3    H217703   5.133   0.430   5.794
 5916TIP3   OH217704   4.503   1.369   4.149
 5916TIP3    H117705   4.597   1.363   4.132
 5916TIP3    H217706   4.469   1.422   4.076
 5917TIP3   OH217707   3.981   0.751   4.367
 5917TIP3    H117708   4.073   0.774   4.353
 5917TIP3    H217709   3.971   0.666   4.325
 5918TIP3   OH217710   3.896   1.363   4.781
 5918TIP3    H117711   3.831   1.307   4.739
 5918TIP3    H217712   3.941   1.305   4.843
 5919TIP3   OH217713   4.035   1.209   4.966
 5919TIP3    H117714   4.014   1.142   5.031
 5919TIP3    H217715   4.085   1.275   5.015
 5920TIP3   OH217716   5.761   1.614   4.770
 5920TIP3    H117717   5.785   1.648   4.856
 5920TIP3    H217718   5.822   1.657   4.709
 5921TIP3   OH217719   5.785   1.634   5.053
 5921TIP3    H117720   5.741   1.550   5.045
 5921TIP3    H217721   5.863   1.616   5.106
 5922TIP3   OH217722   5.834   1.312   5.627
 5922TIP3    H117723   5.761   1.322   5.688
 5922TIP3    H217724   5.876   1.398   5.626
 5923TIP3   OH217725   5.652   0.825   4.239
 5923TIP3    H117726   5.713   0.892   4.207
 5923TIP3    H217727   5.695   0.790   4.317
 5924TIP3   OH217728   5.776   0.698   4.445
 5924TIP3    H117729   5.711   0.661   4.504
 5924TIP3    H217730   5.841   0.738   4.503
 5925TIP3   OH217731   5.836   1.088   4.876
 5925TIP3    H117732   5.885   1.020   4.830
 5925TIP3    H217733   5.832   1.161   4.815
 5926TIP3   OH217734   5.659   1.385   5.073
 5926TIP3    H117735   5.590   1.430   5.122
 5926TIP3    H217736   5.613   1.342   5.000
 5927TIP3   OH217737   5.705   0.601   4.091
 5927TIP3    H117738   5.641   0.608   4.021
 5927TIP3    H217739   5.687   0.675   4.149
 5928TIP3   OH217740   5.574   0.256   4.027
 5928TIP3    H117741   5.568   0.344   3.991
 5928TIP3    H217742   5.517   0.203   3.971
 5929TIP3   OH217743   5.588   0.566   4.591
 5929TIP3    H117744   5.593   0.474   4.567
 5929TIP3    H217745   5.577   0.566   4.686
 5930TIP3   OH217746   4.220   0.616   5.341
 5930TIP3    H117747   4.211   0.590   5.250
 5930TIP3    H217748   4.315   0.620   5.355
 5931TIP3   OH217749   5.882   0.977   5.447
 5931TIP3    H117750   5.952   0.912   5.436
 5931TIP3    H217751   5.904   1.046   5.384
 5932TIP3   OH217752   6.059   0.772   5.464
 5932TIP3    H117753   5.986   0.722   5.501
 5932TIP3    H217754   6.136   0.717   5.480
 5933TIP3   OH217755   5.592   0.313   4.459
 5933TIP3    H117756   5.622   0.237   4.509
 5933TIP3    H217757   5.652   0.317   4.385
 5934TIP3   OH217758   5.747   0.446   4.991
 5934TIP3    H117759   5.828   0.466   4.945
 5934TIP3    H217760   5.759   0.482   5.079
 5935TIP3   OH217761   5.811   0.598   5.213
 5935TIP3    H117762   5.734   0.632   5.259
 5935TIP3    H217763   5.847   0.673   5.166
 5936TIP3   OH217764   4.431   0.303   6.017
 5936TIP3    H117765   4.524   0.283   6.003
 5936TIP3    H217766   4.393   0.222   6.050
 5937TIP3   OH217767   4.201   0.279   5.413
 5937TIP3    H117768   4.247   0.289   5.330
 5937TIP3    H217769   4.207   0.365   5.455
 5938TIP3   OH217770   5.345   1.484   4.424
 5938TIP3    H117771   5.392   1.473   4.341
 5938TIP3    H217772   5.393   1.552   4.471
 5939TIP3   OH217773   4.441   1.283   5.806
 5939TIP3    H117774   4.349   1.264   5.791
 5939TIP3    H217775   4.452   1.277   5.901
 5940TIP3   OH217776   4.624   1.326   5.353
 5940TIP3    H117777   4.572   1.397   5.317
 5940TIP3    H217778   4.710   1.336   5.311
 5941TIP3   OH217779   5.063   1.564   5.492
 5941TIP3    H117780   5.102   1.563   5.580
 5941TIP3    H217781   5.125   1.615   5.439
 5942TIP3   OH217782   5.244   1.719   5.356
 5942TIP3    H117783   5.313   1.669   5.311
 5942TIP3    H217784   5.291   1.775   5.417
 5943TIP3   OH217785   4.294   1.577   5.385
 5943TIP3    H117786   4.207   1.604   5.357
 5943TIP3    H217787   4.311   1.627   5.465
 5944TIP3   OH217788   4.530   1.556   5.238
 5944TIP3    H117789   4.446   1.568   5.282
 5944TIP3    H217790   4.515   1.588   5.149
 5945TIP3   OH217791   4.957   1.584   5.037
 5945TIP3    H117792   4.888   1.598   4.972
 5945TIP3    H217793   4.970   1.669   5.078
 5946TIP3   OH217794   5.227   1.521   5.088
 5946TIP3    H117795   5.134   1.539   5.071
 5946TIP3    H217796   5.273   1.593   5.045
 5947TIP3   OH217797   5.433   1.713   4.999
 5947TIP3    H117798   5.419   1.797   4.955
 5947TIP3    H217799   5.460   1.654   4.928
 5948TIP3   OH217800   4.210   1.368   5.123
 5948TIP3    H117801   4.231   1.344   5.213
 5948TIP3    H217802   4.279   1.329   5.070
 5949TIP3   OH217803   4.404   1.241   4.985
 5949TIP3    H117804   4.418   1.161   5.034
 5949TIP3    H217805   4.492   1.280   4.978
 5950TIP3   OH217806   4.670   1.334   4.990
 5950TIP3    H117807   4.700   1.244   4.974
 5950TIP3    H217808   4.715   1.361   5.070
 5951TIP3   OH217809   3.992   1.150   4.513
 5951TIP3    H117810   3.907   1.117   4.482
 5951TIP3    H217811   3.995   1.240   4.483
 5952TIP3   OH217812   4.772   1.325   4.096
 5952TIP3    H117813   4.857   1.353   4.063
 5952TIP3    H217814   4.745   1.254   4.038
 5953TIP3   OH217815   5.486   1.449   4.190
 5953TIP3    H117816   5.481   1.354   4.182
 5953TIP3    H217817   5.442   1.483   4.112
 5954TIP3   OH217818   4.069   1.162   4.151
 5954TIP3    H117819   4.066   1.199   4.239
 5954TIP3    H217820   4.158   1.126   4.143
 5955TIP3   OH217821   5.709   1.594   5.376
 5955TIP3    H117822   5.634   1.562   5.326
 5955TIP3    H217823   5.694   1.688   5.384
 5956TIP3   OH217824   6.975   0.965   4.143
 5956TIP3    H117825   6.952   1.056   4.123
 5956TIP3    H217826   6.903   0.914   4.106
 5957TIP3   OH217827   6.984   0.967   4.527
 5957TIP3    H117828   7.012   0.943   4.615
 5957TIP3    H217829   6.939   0.889   4.494
 5958TIP3   OH217830   6.277   0.862   4.893
 5958TIP3    H117831   6.307   0.790   4.949
 5958TIP3    H217832   6.356   0.911   4.873
 5959TIP3   OH217833   7.227   1.264   4.209
 5959TIP3    H117834   7.205   1.202   4.278
 5959TIP3    H217835   7.251   1.344   4.256
 5960TIP3   OH217836   6.254   1.269   4.614
 5960TIP3    H117837   6.243   1.174   4.615
 5960TIP3    H217838   6.348   1.282   4.602
 5961TIP3   OH217839   5.941   0.482   4.413
 5961TIP3    H117840   5.892   0.563   4.425
 5961TIP3    H217841   5.887   0.429   4.355
 5962TIP3   OH217842   6.010   0.770   4.572
 5962TIP3    H117843   6.049   0.688   4.601
 5962TIP3    H217844   6.074   0.808   4.512
 5963TIP3   OH217845   6.870   1.723   4.233
 5963TIP3    H117846   6.910   1.666   4.168
 5963TIP3    H217847   6.877   1.675   4.316
 5964TIP3   OH217848   6.779   1.192   4.574
 5964TIP3    H117849   6.813   1.117   4.526
 5964TIP3    H217850   6.857   1.241   4.601
 5965TIP3   OH217851   7.195   0.691   4.619
 5965TIP3    H117852   7.213   0.601   4.646
 5965TIP3    H217853   7.158   0.683   4.531
 5966TIP3   OH217854   6.508   0.314   4.545
 5966TIP3    H117855   6.490   0.400   4.508
 5966TIP3    H217856   6.431   0.261   4.520
 5967TIP3   OH217857   7.185   0.466   4.244
 5967TIP3    H117858   7.240   0.421   4.308
 5967TIP3    H217859   7.237   0.468   4.164
 5968TIP3   OH217860   6.139   0.550   4.667
 5968TIP3    H117861   6.227   0.558   4.704
 5968TIP3    H217862   6.150   0.491   4.593
 5969TIP3   OH217863   6.598   0.752   4.477
 5969TIP3    H117864   6.690   0.731   4.490
 5969TIP3    H217865   6.559   0.669   4.449
 5970TIP3   OH217866   7.821   0.704   4.769
 5970TIP3    H117867   7.749   0.758   4.738
 5970TIP3    H217868   7.886   0.766   4.801
 5971TIP3   OH217869   6.869   1.189   4.009
 5971TIP3    H117870   6.830   1.176   3.923
 5971TIP3    H217871   6.827   1.268   4.043
 5972TIP3   OH217872   6.632   1.114   4.796
 5972TIP3    H117873   6.572   1.179   4.833
 5972TIP3    H217874   6.673   1.158   4.722
 5973TIP3   OH217875   6.395   0.523   4.738
 5973TIP3    H117876   6.464   0.565   4.790
 5973TIP3    H217877   6.424   0.432   4.729
 5974TIP3   OH217878   6.459   1.311   4.898
 5974TIP3    H117879   6.438   1.395   4.858
 5974TIP3    H217880   6.383   1.289   4.952
 5975TIP3   OH217881   5.849   0.999   4.131
 5975TIP3    H117882   5.812   1.024   4.047
 5975TIP3    H217883   5.882   1.081   4.168
 5976TIP3   OH217884   7.293   1.519   4.373
 5976TIP3    H117885   7.207   1.505   4.414
 5976TIP3    H217886   7.281   1.599   4.321
 5977TIP3   OH217887   6.991   1.542   4.052
 5977TIP3    H117888   7.045   1.469   4.021
 5977TIP3    H217889   7.043   1.620   4.032
 5978TIP3   OH217890   7.142   1.332   3.954
 5978TIP3    H117891   7.086   1.261   3.925
 5978TIP3    H217892   7.178   1.302   4.038
 5979TIP3   OH217893   7.520   1.423   4.715
 5979TIP3    H117894   7.505   1.346   4.659
 5979TIP3    H217895   7.499   1.498   4.659
 5980TIP3   OH217896   6.809   0.824   3.972
 5980TIP3    H117897   6.729   0.875   3.957
 5980TIP3    H217898   6.851   0.820   3.886
 5981TIP3   OH217899   6.769   0.601   3.691
 5981TIP3    H117900   6.836   0.654   3.734
 5981TIP3    H217901   6.819   0.534   3.643
 5982TIP3   OH217902   7.705   1.061   4.556
 5982TIP3    H117903   7.625   1.112   4.563
 5982TIP3    H217904   7.743   1.086   4.472
 5983TIP3   OH217905   7.157   0.901   3.948
 5983TIP3    H117906   7.100   0.924   4.022
 5983TIP3    H217907   7.242   0.882   3.988
 5984TIP3   OH217908   7.386   0.943   4.865
 5984TIP3    H117909   7.384   1.024   4.916
 5984TIP3    H217910   7.302   0.942   4.820
 5985TIP3   OH217911   6.389   0.895   4.364
 5985TIP3    H117912   6.349   0.840   4.297
 5985TIP3    H217913   6.464   0.846   4.395
 5986TIP3   OH217914   6.517   1.304   4.512
 5986TIP3    H117915   6.498   1.278   4.422
 5986TIP3    H217916   6.605   1.270   4.528
 5987TIP3   OH217917   6.526   0.867   4.725
 5987TIP3    H117918   6.554   0.838   4.637
 5987TIP3    H217919   6.569   0.952   4.737
 5988TIP3   OH217920   7.056   1.507   4.499
 5988TIP3    H117921   7.039   1.587   4.549
 5988TIP3    H217922   7.036   1.436   4.559
 5989TIP3   OH217923   6.663   1.425   5.044
 5989TIP3    H117924   6.605   1.487   5.088
 5989TIP3    H217925   6.604   1.371   4.991
 5990TIP3   OH217926   7.000   0.758   3.770
 5990TIP3    H117927   7.052   0.819   3.820
 5990TIP3    H217928   7.024   0.774   3.679
 5991TIP3   OH217929   6.411   0.990   5.145
 5991TIP3    H117930   6.418   1.075   5.189
 5991TIP3    H217931   6.319   0.965   5.154
 5992TIP3   OH217932   6.740   1.435   4.055
 5992TIP3    H117933   6.825   1.479   4.059
 5992TIP3    H217934   6.685   1.495   4.003
 5993TIP3   OH217935   6.457   1.591   5.129
 5993TIP3    H117936   6.425   1.596   5.039
 5993TIP3    H217937   6.379   1.569   5.181
 5994TIP3   OH217938   6.254   0.740   4.167
 5994TIP3    H117939   6.191   0.789   4.113
 5994TIP3    H217940   6.215   0.653   4.176
 5995TIP3   OH217941   7.306   1.368   3.364
 5995TIP3    H117942   7.313   1.463   3.354
 5995TIP3    H217943   7.396   1.337   3.358
 5996TIP3   OH217944   6.036   1.125   5.075
 5996TIP3    H117945   5.971   1.107   5.007
 5996TIP3    H217946   6.075   1.039   5.093
 5997TIP3   OH217947   5.893   1.317   4.712
 5997TIP3    H117948   5.988   1.312   4.697
 5997TIP3    H217949   5.881   1.397   4.763
 5998TIP3   OH217950   7.758   1.774   4.769
 5998TIP3    H117951   7.760   1.679   4.778
 5998TIP3    H217952   7.676   1.800   4.811
 5999TIP3   OH217953   6.861   1.554   4.903
 5999TIP3    H117954   6.859   1.645   4.931
 5999TIP3    H217955   6.790   1.512   4.953
 6000TIP3   OH217956   6.624   1.677   3.852
 6000TIP3    H117957   6.582   1.661   3.768
 6000TIP3    H217958   6.595   1.765   3.876
 6001TIP3   OH217959   6.060   1.531   4.239
 6001TIP3    H117960   6.108   1.524   4.322
 6001TIP3    H217961   6.008   1.450   4.236
 6002TIP3   OH217962   6.824   1.587   3.489
 6002TIP3    H117963   6.881   1.519   3.455
 6002TIP3    H217964   6.854   1.600   3.579
 6003TIP3   OH217965   6.878   1.633   3.760
 6003TIP3    H117966   6.792   1.639   3.802
 6003TIP3    H217967   6.940   1.629   3.832
 6004TIP3   OH217968   7.638   0.882   5.042
 6004TIP3    H117969   7.563   0.918   4.995
 6004TIP3    H217970   7.629   0.787   5.031
 6005TIP3   OH217971   6.241   1.307   5.061
 6005TIP3    H117972   6.290   1.293   5.142
 6005TIP3    H217973   6.167   1.246   5.067
 6006TIP3   OH217974   7.424   0.686   4.985
 6006TIP3    H117975   7.385   0.713   5.069
 6006TIP3    H217976   7.401   0.757   4.925
 6007TIP3   OH217977   7.078   0.793   3.514
 6007TIP3    H117978   7.037   0.774   3.429
 6007TIP3    H217979   7.152   0.850   3.493
 6008TIP3   OH217980   6.592   0.655   4.885
 6008TIP3    H117981   6.531   0.671   4.957
 6008TIP3    H217982   6.580   0.730   4.827
 6009TIP3   OH217983   6.456   0.531   4.388
 6009TIP3    H117984   6.362   0.517   4.399
 6009TIP3    H217985   6.474   0.504   4.298
 6010TIP3   OH217986   6.941   0.625   4.107
 6010TIP3    H117987   6.894   0.695   4.063
 6010TIP3    H217988   7.007   0.596   4.044
 6011TIP3   OH217989   7.132   0.924   5.183
 6011TIP3    H117990   7.105   0.846   5.230
 6011TIP3    H217991   7.226   0.933   5.203
 6012TIP3   OH217992   7.083   0.688   4.365
 6012TIP3    H117993   7.029   0.736   4.303
 6012TIP3    H217994   7.107   0.608   4.319
 6013TIP3   OH217995   6.393   0.681   5.076
 6013TIP3    H117996   6.414   0.745   5.144
 6013TIP3    H217997   6.378   0.599   5.124
 6014TIP3   OH217998   6.025   0.294   4.212
 6014TIP3    H117999   6.045   0.297   4.119
 6014TIP3    H218000   5.931   0.312   4.217
 6015TIP3   OH218001   7.111   0.893   4.771
 6015TIP3    H118002   7.149   0.828   4.713
 6015TIP3    H218003   7.085   0.844   4.849
 6016TIP3   OH218004   6.199   0.409   4.428
 6016TIP3    H118005   6.111   0.445   4.420
 6016TIP3    H218006   6.199   0.332   4.371
 6017TIP3   OH218007   6.497   0.430   4.139
 6017TIP3    H118008   6.587   0.417   4.108
 6017TIP3    H218009   6.444   0.419   4.060
 6018TIP3   OH218010   6.332   0.412   3.910
 6018TIP3    H118011   6.259   0.393   3.851
 6018TIP3    H218012   6.394   0.460   3.856
 6019TIP3   OH218013   7.451   2.120   4.863
 6019TIP3    H118014   7.444   2.141   4.770
 6019TIP3    H218015   7.527   2.169   4.894
 6020TIP3   OH218016   6.403   1.232   5.288
 6020TIP3    H118017   6.484   1.260   5.330
 6020TIP3    H218018   6.338   1.232   5.358
 6021TIP3   OH218019   6.854   0.682   4.541
 6021TIP3    H118020   6.938   0.660   4.502
 6021TIP3    H218021   6.860   0.650   4.631
 6022TIP3   OH218022   6.865   0.614   4.803
 6022TIP3    H118023   6.777   0.608   4.839
 6022TIP3    H218024   6.916   0.658   4.872
 6023TIP3   OH218025   6.577   0.968   3.928
 6023TIP3    H118026   6.505   0.907   3.912
 6023TIP3    H218027   6.559   1.004   4.015
 6024TIP3   OH218028   7.475   1.207   4.550
 6024TIP3    H118029   7.499   1.258   4.473
 6024TIP3    H218030   7.393   1.164   4.527
 6025TIP3   OH218031   7.012   0.354   3.747
 6025TIP3    H118032   6.956   0.302   3.804
 6025TIP3    H218033   7.052   0.420   3.805
 6026TIP3   OH218034   6.980   1.292   4.921
 6026TIP3    H118035   7.006   1.272   5.011
 6026TIP3    H218036   6.941   1.379   4.927
 6027TIP3   OH218037   7.117   0.549   3.907
 6027TIP3    H118038   7.212   0.558   3.915
 6027TIP3    H218039   7.090   0.624   3.855
 6028TIP3   OH218040   6.274   0.990   4.597
 6028TIP3    H118041   6.309   0.966   4.511
 6028TIP3    H218042   6.320   0.932   4.659
 6029TIP3   OH218043   6.726   1.121   3.754
 6029TIP3    H118044   6.681   1.206   3.754
 6029TIP3    H218045   6.673   1.066   3.812
 6030TIP3   OH218046   6.154   0.911   5.216
 6030TIP3    H118047   6.173   0.897   5.308
 6030TIP3    H218048   6.083   0.851   5.196
 6031TIP3   OH218049   6.881   1.031   5.235
 6031TIP3    H118050   6.818   0.979   5.185
 6031TIP3    H218051   6.966   1.003   5.202
 6032TIP3   OH218052   7.139   1.549   4.823
 6032TIP3    H118053   7.043   1.545   4.831
 6032TIP3    H218054   7.167   1.602   4.897
 6033TIP3   OH218055   7.546   0.620   3.709
 6033TIP3    H118056   7.488   0.570   3.652
 6033TIP3    H218057   7.536   0.710   3.680
 6034TIP3   OH218058   7.770   1.486   4.799
 6034TIP3    H118059   7.675   1.477   4.794
 6034TIP3    H218060   7.802   1.457   4.714
 6035TIP3   OH218061   7.256   1.433   3.640
 6035TIP3    H118062   7.212   1.377   3.705
 6035TIP3    H218063   7.252   1.383   3.559
 6036TIP3   OH218064   7.244   1.069   4.469
 6036TIP3    H118065   7.152   1.047   4.484
 6036TIP3    H218066   7.280   0.994   4.423
 6037TIP3   OH218067   6.377   1.301   4.229
 6037TIP3    H118068   6.380   1.379   4.172
 6037TIP3    H218069   6.284   1.279   4.233
 6038TIP3   OH218070   5.936   0.604   3.933
 6038TIP3    H118071   5.983   0.685   3.948
 6038TIP3    H218072   5.861   0.607   3.992
 6039TIP3   OH218073   6.505   1.061   4.169
 6039TIP3    H118074   6.477   1.151   4.185
 6039TIP3    H218075   6.470   1.011   4.244
 6040TIP3   OH218076   6.646   1.641   4.693
 6040TIP3    H118077   6.683   1.713   4.641
 6040TIP3    H218078   6.721   1.602   4.737
 6041TIP3   OH218079   6.292   1.539   4.078
 6041TIP3    H118080   6.207   1.547   4.123
 6041TIP3    H218081   6.327   1.628   4.078
 6042TIP3   OH218082   7.029   1.272   4.655
 6042TIP3    H118083   7.017   1.273   4.750
 6042TIP3    H218084   7.107   1.220   4.640
 6043TIP3   OH218085   7.008   1.168   3.534
 6043TIP3    H118086   7.057   1.143   3.613
 6043TIP3    H218087   6.918   1.143   3.553
 6044TIP3   OH218088   7.277   1.808   4.699
 6044TIP3    H118089   7.199   1.753   4.695
 6044TIP3    H218090   7.266   1.872   4.629
 6045TIP3   OH218091   7.343   1.644   3.344
 6045TIP3    H118092   7.374   1.723   3.299
 6045TIP3    H218093   7.269   1.674   3.396
 6046TIP3   OH218094   7.168   1.092   3.746
 6046TIP3    H118095   7.156   1.033   3.820
 6046TIP3    H218096   7.263   1.098   3.735
 6047TIP3   OH218097   6.082   1.502   4.852
 6047TIP3    H118098   6.136   1.429   4.884
 6047TIP3    H218099   6.109   1.577   4.905
 6048TIP3   OH218100   6.371   1.154   3.543
 6048TIP3    H118101   6.372   1.070   3.498
 6048TIP3    H218102   6.347   1.133   3.633
 6049TIP3   OH218103   6.314   1.154   3.818
 6049TIP3    H118104   6.394   1.132   3.866
 6049TIP3    H218105   6.313   1.249   3.814
 6050TIP3   OH218106   6.048   0.848   4.013
 6050TIP3    H118107   5.983   0.892   4.068
 6050TIP3    H218108   6.066   0.911   3.943
 6051TIP3   OH218109   6.582   1.347   3.761
 6051TIP3    H118110   6.497   1.376   3.795
 6051TIP3    H218111   6.598   1.403   3.685
 6052TIP3   OH218112   6.784   0.405   4.131
 6052TIP3    H118113   6.834   0.487   4.124
 6052TIP3    H218114   6.794   0.380   4.223
 6053TIP3   OH218115   7.056   0.735   4.983
 6053TIP3    H118116   7.049   0.798   5.055
 6053TIP3    H218117   7.101   0.660   5.021
 6054TIP3   OH218118   6.327   1.426   3.824
 6054TIP3    H118119   6.298   1.492   3.761
 6054TIP3    H218120   6.313   1.468   3.910
 6055TIP3   OH218121   7.333   0.828   4.349
 6055TIP3    H118122   7.253   0.779   4.368
 6055TIP3    H218123   7.401   0.781   4.396
 6056TIP3   OH218124   6.047   1.050   3.816
 6056TIP3    H118125   6.113   1.119   3.828
 6056TIP3    H218126   6.084   0.994   3.748
 6057TIP3   OH218127   5.984   0.333   3.945
 6057TIP3    H118128   5.987   0.428   3.932
 6057TIP3    H218129   5.897   0.307   3.915
 6058TIP3   OH218130   7.287   1.790   4.274
 6058TIP3    H118131   7.241   1.792   4.190
 6058TIP3    H218132   7.377   1.815   4.253
 6059TIP3   OH218133   5.909   1.267   4.199
 6059TIP3    H118134   5.846   1.298   4.263
 6059TIP3    H218135   5.883   1.308   4.117
 6060TIP3   OH218136   6.075   1.815   5.276
 6060TIP3    H118137   6.160   1.818   5.321
 6060TIP3    H218138   6.053   1.722   5.272
 6061TIP3   OH218139   6.552   1.769   5.320
 6061TIP3    H118140   6.646   1.754   5.325
 6061TIP3    H218141   6.522   1.712   5.250
 6062TIP3   OH218142   6.547   1.345   3.460
 6062TIP3    H118143   6.485   1.279   3.491
 6062TIP3    H218144   6.609   1.296   3.406
 6063TIP3   OH218145   7.190   1.684   5.057
 6063TIP3    H118146   7.183   1.615   5.123
 6063TIP3    H218147   7.266   1.736   5.085
 6064TIP3   OH218148   6.974   1.390   3.362
 6064TIP3    H118149   7.009   1.326   3.423
 6064TIP3    H218150   7.033   1.386   3.287
 6065TIP3   OH218151   6.200   1.216   5.475
 6065TIP3    H118152   6.217   1.122   5.480
 6065TIP3    H218153   6.116   1.223   5.429
 6066TIP3   OH218154   6.181   0.865   3.672
 6066TIP3    H118155   6.240   0.841   3.744
 6066TIP3    H218156   6.239   0.870   3.595
 6067TIP3   OH218157   6.808   1.305   5.248
 6067TIP3    H118158   6.768   1.326   5.164
 6067TIP3    H218159   6.837   1.214   5.239
 6068TIP3   OH218160   6.709   1.069   3.482
 6068TIP3    H118161   6.701   1.084   3.576
 6068TIP3    H218162   6.700   0.974   3.472
 6069TIP3   OH218163   7.302   1.319   4.857
 6069TIP3    H118164   7.378   1.358   4.814
 6069TIP3    H218165   7.231   1.381   4.843
 6070TIP3   OH218166   6.328   0.950   5.462
 6070TIP3    H118167   6.410   0.912   5.431
 6070TIP3    H218168   6.349   0.987   5.547
 6071TIP3   OH218169   6.384   0.772   3.890
 6071TIP3    H118170   6.362   0.734   3.975
 6071TIP3    H218171   6.423   0.700   3.840
 6072TIP3   OH218172   6.657   0.870   5.117
 6072TIP3    H118173   6.574   0.918   5.112
 6072TIP3    H218174   6.703   0.894   5.037
 6073TIP3   OH218175   6.489   0.565   3.737
 6073TIP3    H118176   6.460   0.573   3.646
 6073TIP3    H218177   6.585   0.568   3.732
 6074TIP3   OH218178   7.179   1.240   5.254
 6074TIP3    H118179   7.246   1.204   5.196
 6074TIP3    H218180   7.163   1.172   5.319
 6075TIP3   OH218181   7.310   0.896   3.391
 6075TIP3    H118182   7.290   0.851   3.309
 6075TIP3    H218183   7.278   0.985   3.379
 6076TIP3   OH218184   6.741   0.647   5.236
 6076TIP3    H118185   6.695   0.586   5.179
 6076TIP3    H218186   6.719   0.733   5.202
 6077TIP3   OH218187   6.819   0.956   4.920
 6077TIP3    H118188   6.901   0.964   4.872
 6077TIP3    H218189   6.759   1.017   4.876
 6078TIP3   OH218190   7.383   0.916   5.286
 6078TIP3    H118191   7.415   0.862   5.358
 6078TIP3    H218192   7.460   0.966   5.258
 6079TIP3   OH218193   7.434   1.172   5.039
 6079TIP3    H118194   7.373   1.223   4.985
 6079TIP3    H218195   7.521   1.193   5.003
 6080TIP3   OH218196   6.623   0.768   5.470
 6080TIP3    H118197   6.584   0.689   5.508
 6080TIP3    H218198   6.683   0.736   5.403
 6081TIP3   OH218199   7.021   0.699   5.277
 6081TIP3    H118200   7.048   0.666   5.362
 6081TIP3    H218201   6.926   0.686   5.275
 6082TIP3   OH218202   6.300   1.632   3.637
 6082TIP3    H118203   6.393   1.619   3.622
 6082TIP3    H218204   6.269   1.679   3.559
 6083TIP3   OH218205   5.778   1.009   3.853
 6083TIP3    H118206   5.869   1.033   3.839
 6083TIP3    H218207   5.769   0.923   3.812
 6084TIP3   OH218208   5.692   1.621   4.269
 6084TIP3    H118209   5.627   1.563   4.228
 6084TIP3    H218210   5.737   1.564   4.332
 6085TIP3   OH218211   5.828   1.468   4.456
 6085TIP3    H118212   5.813   1.398   4.519
 6085TIP3    H218213   5.880   1.533   4.504
 6086TIP3   OH218214   7.553   1.868   4.254
 6086TIP3    H118215   7.579   1.903   4.340
 6086TIP3    H218216   7.616   1.905   4.193
 6087TIP3   OH218217   7.582   1.892   4.540
 6087TIP3    H118218   7.533   1.811   4.530
 6087TIP3    H218219   7.660   1.868   4.589
 6088TIP3   OH218220   7.630   1.570   5.114
 6088TIP3    H118221   7.557   1.578   5.175
 6088TIP3    H218222   7.670   1.657   5.112
 6089TIP3   OH218223   7.449   1.084   3.725
 6089TIP3    H118224   7.510   1.152   3.696
 6089TIP3    H218225   7.487   1.050   3.806
 6090TIP3   OH218226   7.566   0.965   3.939
 6090TIP3    H118227   7.497   0.919   3.987
 6090TIP3    H218228   7.620   1.004   4.008
 6091TIP3   OH218229   7.632   1.344   4.366
 6091TIP3    H118230   7.674   1.279   4.309
 6091TIP3    H218231   7.626   1.423   4.313
 6092TIP3   OH218232   7.455   1.644   4.559
 6092TIP3    H118233   7.386   1.687   4.609
 6092TIP3    H218234   7.410   1.600   4.487
 6093TIP3   OH218235   7.501   0.858   3.579
 6093TIP3    H118236   7.436   0.862   3.509
 6093TIP3    H218237   7.481   0.933   3.635
 6094TIP3   OH218238   7.374   0.519   3.519
 6094TIP3    H118239   7.352   0.598   3.471
 6094TIP3    H218240   7.328   0.449   3.472
 6095TIP3   OH218241   7.386   0.821   4.077
 6095TIP3    H118242   7.388   0.729   4.050
 6095TIP3    H218243   7.373   0.818   4.171
 6096TIP3   OH218244   6.013   0.877   4.826
 6096TIP3    H118245   6.007   0.850   4.735
 6096TIP3    H218246   6.107   0.881   4.844
 6097TIP3   OH218247   7.681   1.234   4.934
 6097TIP3    H118248   7.750   1.168   4.925
 6097TIP3    H218249   7.701   1.299   4.867
 6098TIP3   OH218250   7.854   1.026   4.959
 6098TIP3    H118251   7.779   0.976   4.992
 6098TIP3    H218252   7.929   0.968   4.972
 6099TIP3   OH218253   7.390   0.572   3.944
 6099TIP3    H118254   7.415   0.496   3.996
 6099TIP3    H218255   7.451   0.572   3.871
 6100TIP3   OH218256   7.544   0.705   4.476
 6100TIP3    H118257   7.625   0.727   4.429
 6100TIP3    H218258   7.559   0.738   4.565
 6101TIP3   OH218259   7.604   0.854   4.703
 6101TIP3    H118260   7.527   0.886   4.749
 6101TIP3    H218261   7.637   0.929   4.654
 6102TIP3   OH218262   6.227   0.560   5.502
 6102TIP3    H118263   6.318   0.540   5.480
 6102TIP3    H218264   6.192   0.479   5.538
 6103TIP3   OH218265   5.990   0.533   4.901
 6103TIP3    H118266   6.034   0.533   4.816
 6103TIP3    H218267   6.017   0.615   4.942
 6104TIP3   OH218268   6.237   1.544   5.295
 6104TIP3    H118269   6.146   1.521   5.277
 6104TIP3    H218270   6.248   1.529   5.389
 6105TIP3   OH218271   6.420   1.584   4.841
 6105TIP3    H118272   6.369   1.656   4.805
 6105TIP3    H218273   6.506   1.592   4.799
 6106TIP3   OH218274   6.860   1.821   4.982
 6106TIP3    H118275   6.900   1.820   5.069
 6106TIP3    H218276   6.921   1.872   4.928
 6107TIP3   OH218277   7.038   1.976   4.844
 6107TIP3    H118278   7.103   1.925   4.794
 6107TIP3    H218279   7.090   2.031   4.902
 6108TIP3   OH218280   6.089   1.834   4.869
 6108TIP3    H118281   6.002   1.864   4.844
 6108TIP3    H218282   6.106   1.879   4.953
 6109TIP3   OH218283   6.327   1.814   4.726
 6109TIP3    H118284   6.242   1.826   4.769
 6109TIP3    H218285   6.313   1.844   4.636
 6110TIP3   OH218286   6.752   1.838   4.528
 6110TIP3    H118287   6.691   1.850   4.455
 6110TIP3    H218288   6.763   1.926   4.564
 6111TIP3   OH218289   7.022   1.780   4.578
 6111TIP3    H118290   6.929   1.794   4.560
 6111TIP3    H218291   7.067   1.846   4.524
 6112TIP3   OH218292   7.235   1.970   4.482
 6112TIP3    H118293   7.214   2.054   4.440
 6112TIP3    H218294   7.253   1.911   4.409
 6113TIP3   OH218295   6.006   1.624   4.611
 6113TIP3    H118296   6.028   1.600   4.701
 6113TIP3    H218297   6.074   1.584   4.558
 6114TIP3   OH218298   6.200   1.498   4.472
 6114TIP3    H118299   6.214   1.416   4.519
 6114TIP3    H218300   6.288   1.536   4.465
 6115TIP3   OH218301   6.466   1.591   4.477
 6115TIP3    H118302   6.496   1.503   4.457
 6115TIP3    H218303   6.512   1.615   4.557
 6116TIP3   OH218304   5.787   1.406   4.001
 6116TIP3    H118305   5.704   1.370   3.970
 6116TIP3    H218306   5.785   1.498   3.975
 6117TIP3   OH218307   6.565   1.588   3.581
 6117TIP3    H118308   6.652   1.613   3.551
 6117TIP3    H218309   6.541   1.513   3.526
 6118TIP3   OH218310   7.331   1.701   3.639
 6118TIP3    H118311   7.307   1.610   3.660
 6118TIP3    H218312   7.251   1.739   3.603
 6119TIP3   OH218313   5.869   1.417   3.639
 6119TIP3    H118314   5.876   1.445   3.730
 6119TIP3    H218315   5.954   1.377   3.619
 6120TIP3   OH218316   7.507   1.850   4.863
 6120TIP3    H118317   7.433   1.816   4.813
 6120TIP3    H218318   7.489   1.944   4.871
 6121TIP3   OH218319   8.030   1.502   4.146
 6121TIP3    H118320   7.988   1.440   4.086
 6121TIP3    H218321   8.120   1.510   4.113
 6122TIP3   OH218322   7.754   0.764   3.919
 6122TIP3    H118323   7.679   0.823   3.906
 6122TIP3    H218324   7.735   0.688   3.863
 6123TIP3   OH218325   7.833   1.012   4.058
 6123TIP3    H118326   7.835   0.918   4.038
 6123TIP3    H218327   7.865   1.054   3.977
 6124TIP3   OH218328   7.649   1.253   3.616
 6124TIP3    H118329   7.597   1.280   3.541
 6124TIP3    H218330   7.675   1.335   3.659
 6125TIP3   OH218331   8.216   1.879   4.585
 6125TIP3    H118332   8.179   1.884   4.496
 6125TIP3    H218333   8.139   1.875   4.642
 6126TIP3   OH218334   7.840   1.388   4.556
 6126TIP3    H118335   7.767   1.364   4.498
 6126TIP3    H218336   7.870   1.305   4.592
 6127TIP3   OH218337   7.692   1.573   4.206
 6127TIP3    H118338   7.787   1.584   4.197
 6127TIP3    H218339   7.663   1.653   4.250
 6128TIP3   OH218340   7.826   1.780   3.720
 6128TIP3    H118341   7.909   1.787   3.767
 6128TIP3    H218342   7.769   1.729   3.778
 6129TIP3   OH218343   8.044   1.568   4.538
 6129TIP3    H118344   8.095   1.538   4.613
 6129TIP3    H218345   7.966   1.512   4.537
 6130TIP3   OH218346   7.814   0.547   3.687
 6130TIP3    H118347   7.830   0.554   3.592
 6130TIP3    H218348   7.720   0.562   3.696
 6131TIP3   OH218349   8.185   1.470   4.750
 6131TIP3    H118350   8.257   1.530   4.771
 6131TIP3    H218351   8.137   1.460   4.833
 6132TIP3   OH218352   7.929   1.179   4.705
 6132TIP3    H118353   7.974   1.169   4.789
 6132TIP3    H218354   7.873   1.102   4.699
 6133TIP3   OH218355   7.726   0.850   3.422
 6133TIP3    H118356   7.775   0.931   3.439
 6133TIP3    H218357   7.651   0.855   3.481
 6134TIP3   OH218358   7.878   1.759   4.339
 6134TIP3    H118359   7.932   1.689   4.375
 6134TIP3    H218360   7.907   1.838   4.385
 6135TIP3   OH218361   7.826   1.095   3.483
 6135TIP3    H118362   7.767   1.135   3.547
 6135TIP3    H218363   7.834   1.161   3.414
 6136TIP3   OH218364   7.832   1.295   3.290
 6136TIP3    H118365   7.894   1.358   3.325
 6136TIP3    H218366   7.870   1.269   3.206
 6137TIP3   OH218367   7.791   0.587   3.404
 6137TIP3    H118368   7.776   0.681   3.411
 6137TIP3    H218369   7.703   0.548   3.406
 6138TIP3   OH218370   7.686   1.507   3.688
 6138TIP3    H118371   7.633   1.551   3.754
 6138TIP3    H218372   7.678   1.562   3.610
 6139TIP3   OH218373   7.868   2.066   4.763
 6139TIP3    H118374   7.954   2.059   4.804
 6139TIP3    H218375   7.836   1.975   4.760
 6140TIP3   OH218376   7.993   1.472   4.966
 6140TIP3    H118377   8.012   1.378   4.967
 6140TIP3    H218378   7.912   1.479   4.916
 6141TIP3   OH218379   8.108   1.215   4.947
 6141TIP3    H118380   8.176   1.152   4.922
 6141TIP3    H218381   8.136   1.246   5.033
 6142TIP3   OH218382   7.561   1.262   3.330
 6142TIP3    H118383   7.654   1.281   3.322
 6142TIP3    H218384   7.551   1.173   3.298
 6143TIP3   OH218385   7.491   1.888   3.759
 6143TIP3    H118386   7.427   1.835   3.712
 6143TIP3    H218387   7.529   1.828   3.824
 6144TIP3   OH218388   7.636   1.720   3.931
 6144TIP3    H118389   7.594   1.661   3.994
 6144TIP3    H218390   7.682   1.784   3.986
 6145TIP3   OH218391   7.822   1.127   4.310
 6145TIP3    H118392   7.814   1.086   4.224
 6145TIP3    H218393   7.911   1.161   4.312
 6146TIP3   OH218394   8.026   0.817   4.992
 6146TIP3    H118395   8.119   0.797   4.988
 6146TIP3    H218396   7.986   0.735   5.022
 6147TIP3   OH218397   7.788   0.787   4.376
 6147TIP3    H118398   7.857   0.769   4.312
 6147TIP3    H218399   7.812   0.873   4.411
 6148TIP3   OH218400   8.037   1.799   4.791
 6148TIP3    H118401   7.951   1.772   4.759
 6148TIP3    H218402   8.037   1.774   4.883
 6149TIP3   OH218403   7.879   2.082   4.361
 6149TIP3    H118404   7.795   2.116   4.329
 6149TIP3    H218405   7.897   2.132   4.440
 6150TIP3   OH218406   8.139   2.070   4.228
 6150TIP3    H118407   8.050   2.073   4.263
 6150TIP3    H218408   8.130   2.103   4.138
 6151TIP3   OH218409   7.795   1.885   4.101
 6151TIP3    H118410   7.821   1.865   4.191
 6151TIP3    H218411   7.864   1.847   4.046
 6152TIP3   OH218412   7.982   1.752   3.957
 6152TIP3    H118413   7.987   1.659   3.981
 6152TIP3    H218414   8.071   1.772   3.927
 6153TIP3   OH218415   7.597   1.650   3.468
 6153TIP3    H118416   7.508   1.621   3.452
 6153TIP3    H218417   7.590   1.743   3.486
 6154TIP3   OH218418   7.672   1.697   3.154
 6154TIP3    H118419   7.624   1.737   3.226
 6154TIP3    H218420   7.714   1.620   3.193
 6155TIP3   OH218421   1.225   2.021   5.344
 6155TIP3    H118422   1.199   2.108   5.312
 6155TIP3    H218423   1.161   1.961   5.306
 6156TIP3   OH218424   0.532   1.910   6.068
 6156TIP3    H118425   0.564   1.842   6.127
 6156TIP3    H218426   0.611   1.956   6.039
 6157TIP3   OH218427   1.464   2.325   5.383
 6157TIP3    H118428   1.521   2.254   5.413
 6157TIP3    H218429   1.493   2.402   5.432
 6158TIP3   OH218430   0.501   2.317   5.794
 6158TIP3    H118431   0.492   2.222   5.793
 6158TIP3    H218432   0.595   2.333   5.784
 6159TIP3   OH218433   0.272   1.824   5.767
 6159TIP3    H118434   0.325   1.753   5.804
 6159TIP3    H218435   0.297   1.828   5.675
 6160TIP3   OH218436   1.124   2.776   5.402
 6160TIP3    H118437   1.165   2.707   5.350
 6160TIP3    H218438   1.111   2.736   5.488
 6161TIP3   OH218439   1.015   2.251   5.751
 6161TIP3    H118440   1.020   2.186   5.681
 6161TIP3    H218441   1.106   2.274   5.769
 6162TIP3   OH218442   2.046   1.558   5.745
 6162TIP3    H118443   2.074   1.639   5.786
 6162TIP3    H218444   2.072   1.567   5.653
 6163TIP3   OH218445   1.435   1.740   5.759
 6163TIP3    H118446   1.481   1.669   5.805
 6163TIP3    H218447   1.403   1.699   5.678
 6164TIP3   OH218448   0.792   1.416   5.733
 6164TIP3    H118449   0.771   1.485   5.671
 6164TIP3    H218450   0.767   1.335   5.688
 6165TIP3   OH218451   1.477   1.495   5.364
 6165TIP3    H118452   1.541   1.474   5.432
 6165TIP3    H218453   1.529   1.522   5.289
 6166TIP3   OH218454   0.420   1.614   5.868
 6166TIP3    H118455   0.499   1.579   5.908
 6166TIP3    H218456   0.399   1.553   5.798
 6167TIP3   OH218457   0.854   1.800   5.654
 6167TIP3    H118458   0.947   1.779   5.664
 6167TIP3    H218459   0.815   1.721   5.617
 6168TIP3   OH218460   2.117   1.766   5.921
 6168TIP3    H118461   2.033   1.807   5.902
 6168TIP3    H218462   2.142   1.800   6.007
 6169TIP3   OH218463   0.796   1.381   6.171
 6169TIP3    H118464   0.737   1.420   6.107
 6169TIP3    H218465   0.745   1.376   6.251
 6170TIP3   OH218466   1.113   2.228   5.193
 6170TIP3    H118467   1.080   2.212   5.105
 6170TIP3    H218468   1.073   2.311   5.219
 6171TIP3   OH218469   0.878   2.160   5.975
 6171TIP3    H118470   0.816   2.221   6.016
 6171TIP3    H218471   0.918   2.211   5.904
 6172TIP3   OH218472   1.675   1.498   5.544
 6172TIP3    H118473   1.680   1.431   5.612
 6172TIP3    H218474   1.734   1.567   5.573
 6173TIP3   OH218475   0.664   1.503   5.961
 6173TIP3    H118476   0.720   1.575   5.991
 6173TIP3    H218477   0.710   1.467   5.885
 6174TIP3   OH218478   0.704   2.355   6.077
 6174TIP3    H118479   0.684   2.440   6.037
 6174TIP3    H218480   0.628   2.334   6.131
 6175TIP3   OH218481   0.115   2.039   5.307
 6175TIP3    H118482   0.063   2.063   5.229
 6175TIP3    H218483   0.137   2.123   5.347
 6176TIP3   OH218484   1.534   2.554   5.545
 6176TIP3    H118485   1.448   2.546   5.587
 6176TIP3    H218486   1.532   2.639   5.501
 6177TIP3   OH218487   1.833   1.462   5.914
 6177TIP3    H118488   1.746   1.481   5.881
 6177TIP3    H218489   1.892   1.489   5.844
 6178TIP3   OH218490   1.132   1.100   5.907
 6178TIP3    H118491   1.107   1.018   5.948
 6178TIP3    H218492   1.059   1.160   5.927
 6179TIP3   OH218493   1.244   2.602   5.221
 6179TIP3    H118494   1.286   2.519   5.202
 6179TIP3    H218495   1.303   2.668   5.185
 6180TIP3   OH218496   1.378   2.386   5.129
 6180TIP3    H118497   1.363   2.307   5.077
 6180TIP3    H218498   1.406   2.353   5.214
 6181TIP3   OH218499   1.764   2.474   5.898
 6181TIP3    H118500   1.765   2.398   5.840
 6181TIP3    H218501   1.749   2.548   5.840
 6182TIP3   OH218502   1.069   1.875   5.157
 6182TIP3    H118503   0.988   1.923   5.139
 6182TIP3    H218504   1.110   1.863   5.072
 6183TIP3   OH218505   1.020   1.650   4.864
 6183TIP3    H118506   1.085   1.704   4.910
 6183TIP3    H218507   1.072   1.585   4.817
 6184TIP3   OH218508   1.964   2.103   5.738
 6184TIP3    H118509   1.885   2.157   5.746
 6184TIP3    H218510   1.999   2.125   5.652
 6185TIP3   OH218511   1.403   1.950   5.130
 6185TIP3    H118512   1.353   1.973   5.208
 6185TIP3    H218513   1.488   1.920   5.164
 6186TIP3   OH218514   1.638   1.985   6.042
 6186TIP3    H118515   1.643   2.062   6.098
 6186TIP3    H218516   1.554   1.992   5.999
 6187TIP3   OH218517   0.641   1.942   5.538
 6187TIP3    H118518   0.596   1.886   5.475
 6187TIP3    H218519   0.713   1.888   5.570
 6188TIP3   OH218520   0.760   2.361   5.685
 6188TIP3    H118521   0.740   2.323   5.600
 6188TIP3    H218522   0.846   2.326   5.707
 6189TIP3   OH218523   0.775   1.914   5.898
 6189TIP3    H118524   0.803   1.887   5.810
 6189TIP3    H218525   0.815   2.000   5.911
 6190TIP3   OH218526   1.302   2.552   5.682
 6190TIP3    H118527   1.288   2.641   5.714
 6190TIP3    H218528   1.284   2.496   5.757
 6191TIP3   OH218529   0.912   2.471   6.216
 6191TIP3    H118530   0.855   2.532   6.263
 6191TIP3    H218531   0.852   2.416   6.166
 6192TIP3   OH218532   1.245   1.808   4.947
 6192TIP3    H118533   1.300   1.866   4.998
 6192TIP3    H218534   1.269   1.826   4.856
 6193TIP3   OH218535   0.687   2.038   6.315
 6193TIP3    H118536   0.682   2.124   6.358
 6193TIP3    H218537   0.598   2.004   6.318
 6194TIP3   OH218538   0.994   2.480   5.227
 6194TIP3    H118539   1.074   2.532   5.234
 6194TIP3    H218540   0.932   2.538   5.182
 6195TIP3   OH218541   0.705   2.636   6.306
 6195TIP3    H118542   0.673   2.641   6.216
 6195TIP3    H218543   0.627   2.619   6.359
 6196TIP3   OH218544   1.766   1.040   4.998
 6196TIP3    H118545   1.678   1.036   5.034
 6196TIP3    H218546   1.771   1.124   4.953
 6197TIP3   OH218547   0.504   1.789   5.347
 6197TIP3    H118548   0.435   1.823   5.290
 6197TIP3    H218549   0.482   1.697   5.358
 6198TIP3   OH218550   1.566   2.412   4.547
 6198TIP3    H118551   1.572   2.506   4.531
 6198TIP3    H218552   1.655   2.379   4.535
 6199TIP3   OH218553   0.307   2.153   6.246
 6199TIP3    H118554   0.247   2.138   6.174
 6199TIP3    H218555   0.336   2.065   6.272
 6200TIP3   OH218556   0.148   2.390   5.867
 6200TIP3    H118557   0.224   2.333   5.853
 6200TIP3    H218558   0.175   2.447   5.940
 6201TIP3   OH218559   2.002   2.814   5.944
 6201TIP3    H118560   2.005   2.719   5.959
 6201TIP3    H218561   1.922   2.842   5.987
 6202TIP3   OH218562   1.107   2.603   6.076
 6202TIP3    H118563   1.106   2.693   6.107
 6202TIP3    H218564   1.039   2.559   6.127
 6203TIP3   OH218565   0.873   2.727   5.027
 6203TIP3    H118566   0.828   2.709   4.945
 6203TIP3    H218567   0.840   2.812   5.055
 6204TIP3   OH218568   0.310   2.575   5.415
 6204TIP3    H118569   0.356   2.570   5.499
 6204TIP3    H218570   0.264   2.492   5.409
 6205TIP3   OH218571   1.073   2.629   4.666
 6205TIP3    H118572   1.129   2.561   4.628
 6205TIP3    H218573   1.106   2.641   4.755
 6206TIP3   OH218574   1.123   2.679   4.936
 6206TIP3    H118575   1.037   2.688   4.976
 6206TIP3    H218576   1.177   2.640   5.005
 6207TIP3   OH218577   1.891   1.939   6.214
 6207TIP3    H118578   1.810   1.947   6.165
 6207TIP3    H218579   1.913   1.846   6.211
 6208TIP3   OH218580   0.487   2.357   6.248
 6208TIP3    H118581   0.545   2.333   6.321
 6208TIP3    H218582   0.419   2.290   6.248
 6209TIP3   OH218583   0.899   1.212   5.979
 6209TIP3    H118584   0.857   1.127   5.993
 6209TIP3    H218585   0.871   1.265   6.053
 6210TIP3   OH218586   1.442   1.300   6.217
 6210TIP3    H118587   1.504   1.263   6.280
 6210TIP3    H218588   1.356   1.277   6.250
 6211TIP3   OH218589   1.659   1.720   6.140
 6211TIP3    H118590   1.611   1.715   6.223
 6211TIP3    H218591   1.638   1.807   6.106
 6212TIP3   OH218592   1.325   1.851   4.694
 6212TIP3    H118593   1.285   1.826   4.610
 6212TIP3    H218594   1.409   1.889   4.669
 6213TIP3   OH218595   1.033   1.224   4.994
 6213TIP3    H118596   1.007   1.219   5.086
 6213TIP3    H218597   0.996   1.145   4.954
 6214TIP3   OH218598   0.834   1.699   6.047
 6214TIP3    H118599   0.786   1.716   6.128
 6214TIP3    H218600   0.816   1.775   5.992
 6215TIP3   OH218601   0.714   1.589   5.542
 6215TIP3    H118602   0.625   1.557   5.558
 6215TIP3    H218603   0.738   1.549   5.458
 6216TIP3   OH218604   1.200   1.668   5.288
 6216TIP3    H118605   1.150   1.737   5.243
 6216TIP3    H218606   1.254   1.629   5.218
 6217TIP3   OH218607   1.372   1.938   6.374
 6217TIP3    H118608   1.346   1.867   6.432
 6217TIP3    H218609   1.465   1.953   6.394
 6218TIP3   OH218610   1.353   1.690   5.508
 6218TIP3    H118611   1.284   1.705   5.443
 6218TIP3    H218612   1.397   1.611   5.478
 6219TIP3   OH218613   0.650   1.734   6.241
 6219TIP3    H118614   0.675   1.783   6.319
 6219TIP3    H218615   0.599   1.660   6.275
 6220TIP3   OH218616   0.693   1.189   4.965
 6220TIP3    H118617   0.683   1.183   5.060
 6220TIP3    H218618   0.622   1.246   4.937
 6221TIP3   OH218619   1.369   1.937   5.917
 6221TIP3    H118620   1.404   1.854   5.885
 6221TIP3    H218621   1.334   1.917   6.004
 6222TIP3   OH218622   1.054   1.420   5.624
 6222TIP3    H118623   0.972   1.408   5.671
 6222TIP3    H218624   1.121   1.383   5.681
 6223TIP3   OH218625   0.486   1.447   5.576
 6223TIP3    H118626   0.394   1.438   5.599
 6223TIP3    H218627   0.528   1.369   5.611
 6224TIP3   OH218628   0.739   1.463   5.308
 6224TIP3    H118629   0.832   1.466   5.284
 6224TIP3    H218630   0.692   1.477   5.226
 6225TIP3   OH218631   1.518   1.484   5.827
 6225TIP3    H118632   1.485   1.491   5.917
 6225TIP3    H218633   1.465   1.415   5.787
 6226TIP3   OH218634   0.572   1.500   5.091
 6226TIP3    H118635   0.505   1.444   5.052
 6226TIP3    H218636   0.628   1.526   5.017
 6227TIP3   OH218637   1.700   3.166   6.040
 6227TIP3    H118638   1.696   3.188   5.947
 6227TIP3    H218639   1.778   3.210   6.073
 6228TIP3   OH218640   0.653   2.279   6.462
 6228TIP3    H118641   0.735   2.303   6.506
 6228TIP3    H218642   0.589   2.276   6.533
 6229TIP3   OH218643   1.132   1.745   5.725
 6229TIP3    H118644   1.161   1.671   5.671
 6229TIP3    H218645   1.114   1.706   5.810
 6230TIP3   OH218646   0.723   1.221   5.557
 6230TIP3    H118647   0.665   1.151   5.585
 6230TIP3    H218648   0.807   1.178   5.539
 6231TIP3   OH218649   1.095   1.649   5.978
 6231TIP3    H118650   1.005   1.661   6.007
 6231TIP3    H218651   1.148   1.691   6.046
 6232TIP3   OH218652   0.825   2.014   5.104
 6232TIP3    H118653   0.757   1.949   5.090
 6232TIP3    H218654   0.809   2.048   5.192
 6233TIP3   OH218655   1.743   2.264   5.725
 6233TIP3    H118656   1.777   2.312   5.650
 6233TIP3    H218657   1.652   2.245   5.702
 6234TIP3   OH218658   1.284   1.329   4.969
 6234TIP3    H118659   1.192   1.305   4.977
 6234TIP3    H218660   1.288   1.421   4.996
 6235TIP3   OH218661   1.216   2.332   6.084
 6235TIP3    H118662   1.251   2.305   6.169
 6235TIP3    H218663   1.187   2.422   6.098
 6236TIP3   OH218664   1.355   1.581   5.073
 6236TIP3    H118665   1.450   1.580   5.084
 6236TIP3    H218666   1.338   1.656   5.017
 6237TIP3   OH218667   0.532   2.048   5.773
 6237TIP3    H118668   0.561   2.014   5.688
 6237TIP3    H218669   0.549   1.977   5.835
 6238TIP3   OH218670   0.972   2.165   4.927
 6238TIP3    H118671   0.927   2.249   4.928
 6238TIP3    H218672   0.921   2.109   4.986
 6239TIP3   OH218673   0.445   1.925   6.398
 6239TIP3    H118674   0.481   1.948   6.483
 6239TIP3    H218675   0.350   1.924   6.412
 6240TIP3   OH218676   1.132   2.074   6.408
 6240TIP3    H118677   1.067   2.015   6.370
 6240TIP3    H218678   1.216   2.038   6.382
 6241TIP3   OH218679   1.381   2.587   5.999
 6241TIP3    H118680   1.286   2.591   6.013
 6241TIP3    H218681   1.417   2.640   6.069
 6242TIP3   OH218682   1.792   1.670   4.900
 6242TIP3    H118683   1.733   1.622   4.842
 6242TIP3    H218684   1.794   1.759   4.864
 6243TIP3   OH218685   2.015   2.523   5.983
 6243TIP3    H118686   1.920   2.520   5.980
 6243TIP3    H218687   2.042   2.495   5.895
 6244TIP3   OH218688   1.498   2.483   4.810
 6244TIP3    H118689   1.472   2.412   4.869
 6244TIP3    H218690   1.513   2.441   4.726
 6245TIP3   OH218691   0.623   2.344   5.402
 6245TIP3    H118692   0.620   2.423   5.347
 6245TIP3    H218693   0.531   2.321   5.416
 6246TIP3   OH218694   0.165   1.653   5.127
 6246TIP3    H118695   0.234   1.719   5.121
 6246TIP3    H218696   0.110   1.682   5.200
 6247TIP3   OH218697   0.760   2.108   5.349
 6247TIP3    H118698   0.725   2.195   5.365
 6247TIP3    H218699   0.722   2.053   5.419
 6248TIP3   OH218700   0.895   2.686   5.870
 6248TIP3    H118701   0.933   2.758   5.820
 6248TIP3    H218702   0.968   2.650   5.920
 6249TIP3   OH218703   0.539   2.584   5.254
 6249TIP3    H118704   0.455   2.591   5.300
 6249TIP3    H218705   0.574   2.674   5.254
 6250TIP3   OH218706   1.305   2.269   5.840
 6250TIP3    H118707   1.256   2.275   5.922
 6250TIP3    H218708   1.395   2.291   5.864
 6251TIP3   OH218709   1.258   2.215   4.716
 6251TIP3    H118710   1.311   2.192   4.793
 6251TIP3    H218711   1.170   2.184   4.738
 6252TIP3   OH218712   1.523   2.850   5.874
 6252TIP3    H118713   1.444   2.798   5.868
 6252TIP3    H218714   1.514   2.916   5.806
 6253TIP3   OH218715   1.593   2.689   4.531
 6253TIP3    H118716   1.635   2.760   4.482
 6253TIP3    H218717   1.512   2.728   4.565
 6254TIP3   OH218718   1.419   2.152   4.936
 6254TIP3    H118719   1.404   2.084   5.001
 6254TIP3    H218720   1.513   2.146   4.917
 6255TIP3   OH218721   0.324   2.542   6.033
 6255TIP3    H118722   0.387   2.476   6.063
 6255TIP3    H218723   0.350   2.623   6.078
 6256TIP3   OH218724   0.617   2.191   4.714
 6256TIP3    H118725   0.633   2.101   4.685
 6256TIP3    H218726   0.598   2.183   4.807
 6257TIP3   OH218727   0.564   2.200   4.986
 6257TIP3    H118728   0.639   2.169   5.037
 6257TIP3    H218729   0.567   2.295   4.993
 6258TIP3   OH218730   0.301   1.887   5.181
 6258TIP3    H118731   0.238   1.929   5.240
 6258TIP3    H218732   0.320   1.954   5.115
 6259TIP3   OH218733   1.447   1.539   6.086
 6259TIP3    H118734   1.531   1.573   6.116
 6259TIP3    H218735   1.436   1.457   6.134
 6260TIP3   OH218736   1.317   1.292   5.249
 6260TIP3    H118737   1.317   1.302   5.154
 6260TIP3    H218738   1.366   1.367   5.281
 6261TIP3   OH218739   0.830   2.396   4.933
 6261TIP3    H118740   0.745   2.419   4.971
 6261TIP3    H218741   0.849   2.467   4.871
 6262TIP3   OH218742   1.021   1.465   5.352
 6262TIP3    H118743   1.085   1.534   5.333
 6262TIP3    H218744   1.025   1.454   5.447
 6263TIP3   OH218745   1.304   1.791   6.138
 6263TIP3    H118746   1.319   1.831   6.224
 6263TIP3    H218747   1.342   1.704   6.146
 6264TIP3   OH218748   1.172   1.188   5.453
 6264TIP3    H118749   1.169   1.262   5.513
 6264TIP3    H218750   1.225   1.219   5.379
 6265TIP3   OH218751   0.577   2.473   5.003
 6265TIP3    H118752   0.547   2.540   4.941
 6265TIP3    H218753   0.561   2.512   5.089
 6266TIP3   OH218754   0.696   1.200   5.240
 6266TIP3    H118755   0.698   1.286   5.283
 6266TIP3    H218756   0.787   1.169   5.244
 6267TIP3   OH218757   1.924   1.673   6.137
 6267TIP3    H118758   1.829   1.675   6.146
 6267TIP3    H218759   1.940   1.632   6.052
 6268TIP3   OH218760   1.554   1.882   5.545
 6268TIP3    H118761   1.503   1.804   5.523
 6268TIP3    H218762   1.637   1.848   5.577
 6269TIP3   OH218763   0.301   2.098   4.986
 6269TIP3    H118764   0.370   2.163   5.002
 6269TIP3    H218765   0.340   2.038   4.922
 6270TIP3   OH218766   0.280   1.406   5.040
 6270TIP3    H118767   0.278   1.489   5.088
 6270TIP3    H218768   0.225   1.347   5.091
 6271TIP3   OH218769   1.551   2.826   5.469
 6271TIP3    H118770   1.505   2.871   5.398
 6271TIP3    H218771   1.644   2.844   5.452
 6272TIP3   OH218772   0.163   2.324   5.378
 6272TIP3    H118773   0.098   2.352   5.443
 6272TIP3    H218774   0.132   2.361   5.295
 6273TIP3   OH218775   0.348   2.876   6.429
 6273TIP3    H118776   0.424   2.886   6.486
 6273TIP3    H218777   0.320   2.786   6.442
 6274TIP3   OH218778   0.801   2.816   6.497
 6274TIP3    H118779   0.895   2.801   6.505
 6274TIP3    H218780   0.774   2.758   6.425
 6275TIP3   OH218781   0.783   2.392   4.623
 6275TIP3    H118782   0.727   2.323   4.660
 6275TIP3    H218783   0.859   2.345   4.589
 6276TIP3   OH218784   1.446   2.722   6.227
 6276TIP3    H118785   1.434   2.657   6.296
 6276TIP3    H218786   1.519   2.776   6.257
 6277TIP3   OH218787   1.219   2.432   4.537
 6277TIP3    H118788   1.258   2.370   4.598
 6277TIP3    H218789   1.275   2.429   4.460
 6278TIP3   OH218790   0.446   2.253   6.648
 6278TIP3    H118791   0.480   2.163   6.649
 6278TIP3    H218792   0.352   2.243   6.637
 6279TIP3   OH218793   0.432   1.906   4.847
 6279TIP3    H118794   0.484   1.876   4.921
 6279TIP3    H218795   0.495   1.914   4.775
 6280TIP3   OH218796   1.056   2.349   6.425
 6280TIP3    H118797   1.018   2.368   6.339
 6280TIP3    H218798   1.089   2.259   6.417
 6281TIP3   OH218799   0.944   2.111   4.658
 6281TIP3    H118800   0.946   2.124   4.752
 6281TIP3    H218801   0.946   2.015   4.647
 6282TIP3   OH218802   1.540   2.357   6.007
 6282TIP3    H118803   1.622   2.398   5.979
 6282TIP3    H218804   1.478   2.430   6.013
 6283TIP3   OH218805   0.559   2.001   6.642
 6283TIP3    H118806   0.625   1.934   6.625
 6283TIP3    H218807   0.572   2.025   6.734
 6284TIP3   OH218808   0.634   1.816   5.066
 6284TIP3    H118809   0.609   1.775   5.149
 6284TIP3    H218810   0.673   1.745   5.015
 6285TIP3   OH218811   0.911   1.883   6.298
 6285TIP3    H118812   0.835   1.941   6.300
 6285TIP3    H218813   0.963   1.915   6.225
 6286TIP3   OH218814   0.741   1.616   4.905
 6286TIP3    H118815   0.713   1.618   4.813
 6286TIP3    H218816   0.836   1.614   4.901
 6287TIP3   OH218817   1.426   2.283   6.429
 6287TIP3    H118818   1.508   2.256   6.388
 6287TIP3    H218819   1.412   2.221   6.500
 6288TIP3   OH218820   1.555   1.942   4.572
 6288TIP3    H118821   1.539   1.894   4.491
 6288TIP3    H218822   1.522   2.030   4.555
 6289TIP3   OH218823   1.034   1.665   6.409
 6289TIP3    H118824   1.039   1.589   6.351
 6289TIP3    H218825   0.990   1.732   6.357
 6290TIP3   OH218826   1.050   1.470   6.217
 6290TIP3    H118827   1.067   1.487   6.125
 6290TIP3    H218828   0.964   1.428   6.219
 6291TIP3   OH218829   1.054   1.997   6.107
 6291TIP3    H118830   1.131   1.988   6.051
 6291TIP3    H218831   0.998   2.059   6.062
 6292TIP3   OH218832   1.641   1.958   6.480
 6292TIP3    H118833   1.682   1.872   6.490
 6292TIP3    H218834   1.711   2.015   6.451
 6293TIP3   OH218835   1.677   2.218   6.205
 6293TIP3    H118836   1.619   2.268   6.148
 6293TIP3    H218837   1.765   2.237   6.173
 6294TIP3   OH218838   0.940   1.775   6.645
 6294TIP3    H118839   0.848   1.760   6.668
 6294TIP3    H218840   0.950   1.734   6.560
 6295TIP3   OH218841   1.185   1.226   6.270
 6295TIP3    H118842   1.123   1.299   6.269
 6295TIP3    H218843   1.137   1.152   6.233
 6296TIP3   OH218844   1.283   1.722   6.515
 6296TIP3    H118845   1.271   1.708   6.609
 6296TIP3    H218846   1.200   1.697   6.476
 6297TIP3   OH218847   1.529   1.679   6.373
 6297TIP3    H118848   1.453   1.675   6.431
 6297TIP3    H218849   1.602   1.645   6.426
 6298TIP3   OH218850   1.756   1.612   6.520
 6298TIP3    H118851   1.769   1.519   6.536
 6298TIP3    H218852   1.753   1.651   6.608
 6299TIP3   OH218853   1.248   1.210   6.539
 6299TIP3    H118854   1.322   1.148   6.539
 6299TIP3    H218855   1.227   1.222   6.447
 6300TIP3   OH218856   1.323   1.441   6.693
 6300TIP3    H118857   1.293   1.368   6.638
 6300TIP3    H218858   1.247   1.499   6.699
 6301TIP3   OH218859   0.549   2.676   4.813
 6301TIP3    H118860   0.642   2.664   4.798
 6301TIP3    H218861   0.518   2.725   4.737
 6302TIP3   OH218862   0.036   2.044   5.029
 6302TIP3    H118863   0.127   2.071   5.017
 6302TIP3    H218864   0.030   1.959   4.985
 6303TIP3   OH218865   8.431   2.664   5.450
 6303TIP3    H118866   8.381   2.601   5.399
 6303TIP3    H218867   8.475   2.612   5.517
 6304TIP3   OH218868   0.068   2.521   5.641
 6304TIP3    H118869   0.073   2.450   5.706
 6304TIP3    H218870   0.121   2.591   5.678
 6305TIP3   OH218871   1.803   2.919   5.434
 6305TIP3    H118872   1.831   2.952   5.519
 6305TIP3    H218873   1.866   2.956   5.372
 6306TIP3   OH218874   1.832   2.936   5.717
 6306TIP3    H118875   1.788   2.851   5.709
 6306TIP3    H218876   1.909   2.918   5.771
 6307TIP3   OH218877   1.875   2.617   6.286
 6307TIP3    H118878   1.806   2.624   6.352
 6307TIP3    H218879   1.920   2.701   6.289
 6308TIP3   OH218880   1.695   2.129   4.907
 6308TIP3    H118881   1.759   2.193   4.873
 6308TIP3    H218882   1.739   2.091   4.983
 6309TIP3   OH218883   1.820   1.997   5.113
 6309TIP3    H118884   1.757   1.954   5.170
 6309TIP3    H218885   1.889   2.028   5.172
 6310TIP3   OH218886   1.873   2.386   5.526
 6310TIP3    H118887   1.930   2.321   5.487
 6310TIP3    H218888   1.880   2.463   5.469
 6311TIP3   OH218889   1.703   2.687   5.735
 6311TIP3    H118890   1.635   2.732   5.784
 6311TIP3    H218891   1.656   2.645   5.663
 6312TIP3   OH218892   1.756   1.906   4.755
 6312TIP3    H118893   1.689   1.903   4.686
 6312TIP3    H218894   1.731   1.980   4.810
 6313TIP3   OH218895   1.625   1.576   4.709
 6313TIP3    H118896   1.587   1.608   4.627
 6313TIP3    H218897   1.607   1.482   4.709
 6314TIP3   OH218898   1.631   1.851   5.259
 6314TIP3    H118899   1.641   1.757   5.241
 6314TIP3    H218900   1.621   1.856   5.354
 6315TIP3   OH218901   0.263   1.927   6.025
 6315TIP3    H118902   0.252   1.907   5.932
 6315TIP3    H218903   0.358   1.929   6.037
 6316TIP3   OH218904   1.927   2.278   6.109
 6316TIP3    H118905   1.995   2.210   6.104
 6316TIP3    H218906   1.958   2.348   6.052
 6317TIP3   OH218907   2.107   2.076   6.125
 6317TIP3    H118908   2.033   2.028   6.163
 6317TIP3    H218909   2.183   2.020   6.140
 6318TIP3   OH218910   1.573   1.312   4.694
 6318TIP3    H118911   1.646   1.279   4.746
 6318TIP3    H218912   1.501   1.253   4.714
 6319TIP3   OH218913   1.638   1.569   5.145
 6319TIP3    H118914   1.673   1.482   5.164
 6319TIP3    H218915   1.692   1.600   5.072
 6320TIP3   OH218916   1.788   1.759   5.640
 6320TIP3    H118917   1.872   1.774   5.596
 6320TIP3    H218918   1.804   1.783   5.731
 6321TIP3   OH218919   1.865   1.885   5.876
 6321TIP3    H118920   1.792   1.920   5.927
 6321TIP3    H218921   1.902   1.962   5.832
 6322TIP3   OH218922   2.299   1.456   6.425
 6322TIP3    H118923   2.369   1.405   6.385
 6322TIP3    H218924   2.275   1.521   6.360
 6323TIP3   OH218925   1.738   1.319   5.191
 6323TIP3    H118926   1.786   1.301   5.273
 6323TIP3    H218927   1.678   1.244   5.182
 6324TIP3   OH218928   2.181   1.615   6.237
 6324TIP3    H118929   2.102   1.664   6.261
 6324TIP3    H218930   2.149   1.544   6.182
 6325TIP3   OH218931   1.820   1.254   4.817
 6325TIP3    H118932   1.855   1.180   4.768
 6325TIP3    H218933   1.888   1.321   4.814
 6326TIP3   OH218934   1.387   2.788   5.086
 6326TIP3    H118935   1.435   2.774   5.004
 6326TIP3    H218936   1.439   2.853   5.133
 6327TIP3   OH218937   0.482   2.592   6.476
 6327TIP3    H118938   0.433   2.514   6.451
 6327TIP3    H218939   0.498   2.580   6.570
 6328TIP3   OH218940   0.666   2.627   6.016
 6328TIP3    H118941   0.617   2.701   5.981
 6328TIP3    H218942   0.753   2.635   5.975
 6329TIP3   OH218943   1.110   2.867   6.156
 6329TIP3    H118944   1.148   2.864   6.244
 6329TIP3    H218945   1.173   2.917   6.104
 6330TIP3   OH218946   1.292   3.020   6.019
 6330TIP3    H118947   1.361   2.969   5.977
 6330TIP3    H218948   1.337   3.077   6.080
 6331TIP3   OH218949   2.074   1.383   6.117
 6331TIP3    H118950   1.985   1.384   6.080
 6331TIP3    H218951   2.101   1.292   6.111
 6332TIP3   OH218952   0.338   2.878   6.047
 6332TIP3    H118953   0.249   2.904   6.022
 6332TIP3    H218954   0.354   2.921   6.131
 6333TIP3   OH218955   0.576   2.859   5.903
 6333TIP3    H118956   0.491   2.870   5.947
 6333TIP3    H218957   0.560   2.889   5.814
 6334TIP3   OH218958   1.002   2.886   5.701
 6334TIP3    H118959   0.934   2.900   5.635
 6334TIP3    H218960   1.014   2.971   5.742
 6335TIP3   OH218961   1.272   2.818   5.745
 6335TIP3    H118962   1.180   2.839   5.730
 6335TIP3    H218963   1.319   2.891   5.705
 6336TIP3   OH218964   1.475   3.013   5.661
 6336TIP3    H118965   1.462   3.097   5.618
 6336TIP3    H218966   1.504   2.954   5.590
 6337TIP3   OH218967   0.256   2.671   5.782
 6337TIP3    H118968   0.266   2.647   5.874
 6337TIP3    H218969   0.325   2.623   5.736
 6338TIP3   OH218970   0.451   2.541   5.646
 6338TIP3    H118971   0.463   2.460   5.696
 6338TIP3    H218972   0.539   2.578   5.641
 6339TIP3   OH218973   0.718   2.637   5.653
 6339TIP3    H118974   0.741   2.545   5.639
 6339TIP3    H218975   0.762   2.662   5.734
 6340TIP3   OH218976   1.284   1.288   5.735
 6340TIP3    H118977   1.244   1.222   5.792
 6340TIP3    H218978   1.355   1.242   5.691
 6341TIP3   OH218979   1.809   1.194   5.654
 6341TIP3    H118980   1.846   1.231   5.574
 6341TIP3    H218981   1.715   1.185   5.636
 6342TIP3   OH218982   1.909   1.273   5.408
 6342TIP3    H118983   1.976   1.219   5.367
 6342TIP3    H218984   1.937   1.363   5.393
 6343TIP3   OH218985   0.952   1.074   5.602
 6343TIP3    H118986   1.034   1.086   5.555
 6343TIP3    H218987   0.977   1.059   5.693
 6344TIP3   OH218988   1.531   1.173   5.605
 6344TIP3    H118989   1.528   1.130   5.519
 6344TIP3    H218990   1.515   1.102   5.667
 6345TIP3   OH218991   1.556   1.107   5.181
 6345TIP3    H118992   1.465   1.134   5.170
 6345TIP3    H218993   1.552   1.028   5.235
 6346TIP3   OH218994   0.029   2.447   5.178
 6346TIP3    H118995  -0.040   2.396   5.135
 6346TIP3    H218996   0.022   2.534   5.139
 6347TIP3   OH218997   0.972   1.211   5.261
 6347TIP3    H118998   1.023   1.157   5.320
 6347TIP3    H218999   0.991   1.301   5.288
 6348TIP3   OH219000   0.815   2.628   4.758
 6348TIP3    H119001   0.901   2.654   4.726
 6348TIP3    H219002   0.789   2.555   4.702
 6349TIP3   OH219003   1.529   2.749   4.853
 6349TIP3    H119004   1.524   2.654   4.845
 6349TIP3    H219005   1.486   2.783   4.775
 6350TIP3   OH219006   0.120   2.471   4.817
 6350TIP3    H119007   0.121   2.497   4.909
 6350TIP3    H219008   0.205   2.427   4.804
 6351TIP3   OH219009   1.833   1.340   6.546
 6351TIP3    H119010   1.844   1.313   6.637
 6351TIP3    H219011   1.919   1.329   6.507
 6352TIP3   OH219012   1.753   2.896   6.040
 6352TIP3    H119013   1.678   2.864   5.990
 6352TIP3    H219014   1.738   2.990   6.048
 6353TIP3   OH219015   3.021   2.268   4.808
 6353TIP3    H119016   2.993   2.357   4.788
 6353TIP3    H219017   2.952   2.213   4.771
 6354TIP3   OH219018   3.023   2.270   5.194
 6354TIP3    H119019   3.058   2.241   5.278
 6354TIP3    H219020   2.985   2.192   5.155
 6355TIP3   OH219021   2.320   2.160   5.560
 6355TIP3    H119022   2.348   2.092   5.620
 6355TIP3    H219023   2.400   2.210   5.541
 6356TIP3   OH219024   3.268   2.573   4.873
 6356TIP3    H119025   3.253   2.501   4.934
 6356TIP3    H219026   3.300   2.644   4.928
 6357TIP3   OH219027   2.297   2.570   5.276
 6357TIP3    H119028   2.287   2.475   5.277
 6357TIP3    H219029   2.391   2.583   5.268
 6358TIP3   OH219030   1.998   1.773   5.058
 6358TIP3    H119031   1.953   1.857   5.074
 6358TIP3    H219032   1.932   1.718   5.017
 6359TIP3   OH219033   2.058   2.059   5.241
 6359TIP3    H119034   2.105   1.983   5.273
 6359TIP3    H219035   2.116   2.097   5.175
 6360TIP3   OH219036   2.921   3.032   4.889
 6360TIP3    H119037   2.960   2.964   4.834
 6360TIP3    H219038   2.910   2.990   4.974
 6361TIP3   OH219039   2.825   2.495   5.238
 6361TIP3    H119040   2.859   2.416   5.194
 6361TIP3    H219041   2.903   2.544   5.263
 6362TIP3   OH219042   3.841   1.813   5.234
 6362TIP3    H119043   3.868   1.896   5.273
 6362TIP3    H219044   3.860   1.823   5.141
 6363TIP3   OH219045   3.233   1.990   5.266
 6363TIP3    H119046   3.278   1.909   5.287
 6363TIP3    H219047   3.202   1.977   5.176
 6364TIP3   OH219048   2.574   1.654   5.229
 6364TIP3    H119049   2.557   1.727   5.170
 6364TIP3    H219050   2.529   1.579   5.190
 6365TIP3   OH219051   3.273   1.750   4.854
 6365TIP3    H119052   3.341   1.733   4.919
 6365TIP3    H219053   3.321   1.781   4.777
 6366TIP3   OH219054   2.209   1.852   5.339
 6366TIP3    H119055   2.289   1.837   5.388
 6366TIP3    H219056   2.219   1.801   5.259
 6367TIP3   OH219057   2.646   2.051   5.141
 6367TIP3    H119058   2.739   2.031   5.150
 6367TIP3    H219059   2.608   1.970   5.106
 6368TIP3   OH219060   3.911   2.025   5.406
 6368TIP3    H119061   3.829   2.067   5.381
 6368TIP3    H219062   3.927   2.054   5.496
 6369TIP3   OH219063   2.568   1.639   5.667
 6369TIP3    H119064   2.511   1.674   5.598
 6369TIP3    H219065   2.518   1.653   5.748
 6370TIP3   OH219066   2.903   2.485   4.681
 6370TIP3    H119067   2.878   2.473   4.590
 6370TIP3    H219068   2.864   2.568   4.706
 6371TIP3   OH219069   2.676   2.415   5.458
 6371TIP3    H119070   2.617   2.481   5.496
 6371TIP3    H219071   2.719   2.460   5.386
 6372TIP3   OH219072   3.476   1.751   5.033
 6372TIP3    H119073   3.464   1.704   5.116
 6372TIP3    H219074   3.528   1.828   5.056
 6373TIP3   OH219075   2.444   1.753   5.450
 6373TIP3    H119076   2.503   1.824   5.476
 6373TIP3    H219077   2.488   1.711   5.376
 6374TIP3   OH219078   2.503   2.612   5.562
 6374TIP3    H119079   2.482   2.697   5.523
 6374TIP3    H219080   2.427   2.591   5.616
 6375TIP3   OH219081   1.893   2.301   4.795
 6375TIP3    H119082   1.856   2.326   4.710
 6375TIP3    H219083   1.927   2.382   4.832
 6376TIP3   OH219084   3.335   2.818   5.039
 6376TIP3    H119085   3.248   2.806   5.077
 6376TIP3    H219086   3.329   2.901   4.991
 6377TIP3   OH219087   3.630   1.714   5.400
 6377TIP3    H119088   3.543   1.737   5.367
 6377TIP3    H219089   3.690   1.745   5.332
 6378TIP3   OH219090   2.921   1.349   5.386
 6378TIP3    H119091   2.908   1.255   5.404
 6378TIP3    H219092   2.847   1.391   5.429
 6379TIP3   OH219093   3.037   2.859   4.705
 6379TIP3    H119094   3.080   2.775   4.690
 6379TIP3    H219095   3.097   2.924   4.669
 6380TIP3   OH219096   3.176   2.642   4.622
 6380TIP3    H119097   3.166   2.564   4.567
 6380TIP3    H219098   3.214   2.609   4.703
 6381TIP3   OH219099   3.562   2.724   5.378
 6381TIP3    H119100   3.550   2.647   5.322
 6381TIP3    H219101   3.545   2.799   5.320
 6382TIP3   OH219102   2.856   2.122   4.638
 6382TIP3    H119103   2.779   2.175   4.617
 6382TIP3    H219104   2.904   2.115   4.556
 6383TIP3   OH219105   2.816   1.906   4.349
 6383TIP3    H119106   2.878   1.961   4.397
 6383TIP3    H219107   2.870   1.841   4.305
 6384TIP3   OH219108   3.757   2.369   5.228
 6384TIP3    H119109   3.673   2.415   5.233
 6384TIP3    H219110   3.789   2.388   5.140
 6385TIP3   OH219111   3.201   2.202   4.611
 6385TIP3    H119112   3.149   2.225   4.688
 6385TIP3    H219113   3.286   2.178   4.646
 6386TIP3   OH219114   3.434   2.241   5.525
 6386TIP3    H119115   3.433   2.323   5.574
 6386TIP3    H219116   3.351   2.240   5.479
 6387TIP3   OH219117   2.435   2.197   5.028
 6387TIP3    H119118   2.393   2.142   4.963
 6387TIP3    H219119   2.510   2.146   5.059
 6388TIP3   OH219120   2.564   2.608   5.174
 6388TIP3    H119121   2.544   2.577   5.086
 6388TIP3    H219122   2.651   2.573   5.192
 6389TIP3   OH219123   2.564   2.173   5.381
 6389TIP3    H119124   2.599   2.143   5.297
 6389TIP3    H219125   2.610   2.255   5.399
 6390TIP3   OH219126   3.095   2.810   5.160
 6390TIP3    H119127   3.084   2.887   5.215
 6390TIP3    H219128   3.080   2.736   5.219
 6391TIP3   OH219129   2.707   2.728   5.706
 6391TIP3    H119130   2.649   2.788   5.751
 6391TIP3    H219131   2.649   2.673   5.654
 6392TIP3   OH219132   3.037   2.070   4.432
 6392TIP3    H119133   3.097   2.123   4.484
 6392TIP3    H219134   3.064   2.085   4.342
 6393TIP3   OH219135   2.465   2.285   5.811
 6393TIP3    H119136   2.472   2.370   5.854
 6393TIP3    H219137   2.373   2.261   5.820
 6394TIP3   OH219138   2.787   2.741   4.711
 6394TIP3    H119139   2.870   2.787   4.719
 6394TIP3    H219140   2.728   2.804   4.669
 6395TIP3   OH219141   2.501   2.893   5.792
 6395TIP3    H119142   2.469   2.897   5.702
 6395TIP3    H219143   2.423   2.872   5.844
 6396TIP3   OH219144   3.558   1.296   4.486
 6396TIP3    H119145   3.476   1.321   4.528
 6396TIP3    H219146   3.583   1.374   4.435
 6397TIP3   OH219147   2.298   2.043   4.834
 6397TIP3    H119148   2.232   2.085   4.779
 6397TIP3    H219149   2.270   1.952   4.841
 6398TIP3   OH219150   3.364   2.667   4.032
 6398TIP3    H119151   3.373   2.761   4.016
 6398TIP3    H219152   3.452   2.632   4.020
 6399TIP3   OH219153   2.080   2.423   5.741
 6399TIP3    H119154   2.027   2.398   5.665
 6399TIP3    H219155   2.123   2.342   5.768
 6400TIP3   OH219156   1.940   2.616   5.378
 6400TIP3    H119157   2.034   2.609   5.359
 6400TIP3    H219158   1.933   2.696   5.430
 6401TIP3   OH219159   3.798   3.072   5.430
 6401TIP3    H119160   3.800   2.977   5.440
 6401TIP3    H219161   3.717   3.099   5.474
 6402TIP3   OH219162   2.904   2.856   5.565
 6402TIP3    H119163   2.903   2.947   5.594
 6402TIP3    H219164   2.835   2.814   5.615
 6403TIP3   OH219165   2.670   2.984   4.514
 6403TIP3    H119166   2.623   2.968   4.432
 6403TIP3    H219167   2.638   3.069   4.544
 6404TIP3   OH219168   2.106   2.829   4.903
 6404TIP3    H119169   2.154   2.825   4.985
 6404TIP3    H219170   2.055   2.749   4.900
 6405TIP3   OH219171   2.870   2.884   4.152
 6405TIP3    H119172   2.927   2.816   4.116
 6405TIP3    H219173   2.902   2.897   4.241
 6406TIP3   OH219174   2.920   2.936   4.422
 6406TIP3    H119175   2.833   2.946   4.462
 6406TIP3    H219176   2.973   2.895   4.490
 6407TIP3   OH219177   3.687   2.197   5.702
 6407TIP3    H119178   3.606   2.211   5.653
 6407TIP3    H219179   3.706   2.104   5.693
 6408TIP3   OH219180   2.285   2.608   5.726
 6408TIP3    H119181   2.336   2.593   5.805
 6408TIP3    H219182   2.211   2.547   5.733
 6409TIP3   OH219183   2.681   1.434   5.510
 6409TIP3    H119184   2.597   1.401   5.479
 6409TIP3    H219185   2.660   1.513   5.560
 6410TIP3   OH219186   3.221   1.546   5.708
 6410TIP3    H119187   3.288   1.518   5.770
 6410TIP3    H219188   3.138   1.527   5.752
 6411TIP3   OH219189   3.457   1.978   5.628
 6411TIP3    H119190   3.406   1.974   5.709
 6411TIP3    H219191   3.434   2.062   5.589
 6412TIP3   OH219192   3.119   2.105   4.177
 6412TIP3    H119193   3.086   2.081   4.091
 6412TIP3    H219194   3.205   2.145   4.159
 6413TIP3   OH219195   2.818   1.483   4.477
 6413TIP3    H119196   2.794   1.483   4.570
 6413TIP3    H219197   2.789   1.398   4.444
 6414TIP3   OH219198   2.616   1.952   5.531
 6414TIP3    H119199   2.569   1.970   5.612
 6414TIP3    H219200   2.602   2.030   5.477
 6415TIP3   OH219201   2.499   1.833   5.043
 6415TIP3    H119202   2.409   1.809   5.064
 6415TIP3    H219203   2.515   1.796   4.957
 6416TIP3   OH219204   2.992   1.919   4.774
 6416TIP3    H119205   2.943   1.989   4.731
 6416TIP3    H219206   3.050   1.885   4.705
 6417TIP3   OH219207   3.168   2.194   5.860
 6417TIP3    H119208   3.143   2.124   5.919
 6417TIP3    H219209   3.261   2.210   5.879
 6418TIP3   OH219210   3.147   1.945   5.006
 6418TIP3    H119211   3.084   1.975   4.940
 6418TIP3    H219212   3.187   1.868   4.967
 6419TIP3   OH219213   2.436   1.976   5.741
 6419TIP3    H119214   2.474   2.037   5.805
 6419TIP3    H219215   2.427   1.894   5.789
 6420TIP3   OH219216   2.481   1.452   4.449
 6420TIP3    H119217   2.478   1.451   4.545
 6420TIP3    H219218   2.407   1.506   4.423
 6421TIP3   OH219219   2.028   1.497   5.325
 6421TIP3    H119220   2.106   1.527   5.371
 6421TIP3    H219221   2.061   1.466   5.240
 6422TIP3   OH219222   1.998   1.479   4.838
 6422TIP3    H119223   2.046   1.510   4.761
 6422TIP3    H219224   1.935   1.549   4.857
 6423TIP3   OH219225   3.161   2.188   5.432
 6423TIP3    H119226   3.193   2.121   5.372
 6423TIP3    H219227   3.129   2.138   5.508
 6424TIP3   OH219228   2.835   1.656   5.107
 6424TIP3    H119229   2.754   1.654   5.158
 6424TIP3    H219230   2.905   1.649   5.172
 6425TIP3   OH219231   2.262   1.710   5.112
 6425TIP3    H119232   2.171   1.718   5.084
 6425TIP3    H219233   2.287   1.621   5.090
 6426TIP3   OH219234   2.528   1.709   4.803
 6426TIP3    H119235   2.621   1.720   4.784
 6426TIP3    H219236   2.484   1.729   4.720
 6427TIP3   OH219237   3.321   1.731   5.313
 6427TIP3    H119238   3.288   1.746   5.402
 6427TIP3    H219239   3.258   1.672   5.273
 6428TIP3   OH219240   2.377   1.745   4.576
 6428TIP3    H119241   2.307   1.699   4.530
 6428TIP3    H219242   2.430   1.782   4.505
 6429TIP3   OH219243   3.496   3.422   5.528
 6429TIP3    H119244   3.491   3.442   5.434
 6429TIP3    H219245   3.574   3.467   5.559
 6430TIP3   OH219246   2.448   2.535   5.949
 6430TIP3    H119247   2.529   2.561   5.992
 6430TIP3    H219248   2.384   2.529   6.020
 6431TIP3   OH219249   2.911   1.984   5.202
 6431TIP3    H119250   2.983   1.948   5.150
 6431TIP3    H219251   2.919   1.939   5.287
 6432TIP3   OH219252   2.431   1.470   5.085
 6432TIP3    H119253   2.395   1.395   5.134
 6432TIP3    H219254   2.478   1.430   5.012
 6433TIP3   OH219255   2.887   1.884   5.494
 6433TIP3    H119256   2.799   1.919   5.506
 6433TIP3    H219257   2.943   1.945   5.541
 6434TIP3   OH219258   2.620   2.272   4.587
 6434TIP3    H119259   2.552   2.206   4.574
 6434TIP3    H219260   2.605   2.306   4.675
 6435TIP3   OH219261   3.522   2.508   5.212
 6435TIP3    H119262   3.547   2.558   5.135
 6435TIP3    H219263   3.440   2.465   5.188
 6436TIP3   OH219264   3.079   1.582   4.474
 6436TIP3    H119265   2.988   1.561   4.455
 6436TIP3    H219266   3.081   1.678   4.480
 6437TIP3   OH219267   3.024   2.592   5.585
 6437TIP3    H119268   3.053   2.572   5.674
 6437TIP3    H219269   2.985   2.679   5.592
 6438TIP3   OH219270   3.152   1.844   4.561
 6438TIP3    H119271   3.247   1.839   4.571
 6438TIP3    H219272   3.138   1.919   4.504
 6439TIP3   OH219273   2.318   2.292   5.260
 6439TIP3    H119274   2.352   2.268   5.174
 6439TIP3    H219275   2.367   2.239   5.322
 6440TIP3   OH219276   2.766   2.421   4.407
 6440TIP3    H119277   2.721   2.505   4.411
 6440TIP3    H219278   2.718   2.366   4.469
 6441TIP3   OH219279   2.200   2.217   5.880
 6441TIP3    H119280   2.225   2.207   5.972
 6441TIP3    H219281   2.137   2.147   5.865
 6442TIP3   OH219282   2.928   2.330   5.893
 6442TIP3    H119283   2.864   2.272   5.851
 6442TIP3    H219284   3.013   2.295   5.867
 6443TIP3   OH219285   3.182   2.855   5.483
 6443TIP3    H119286   3.087   2.848   5.494
 6443TIP3    H219287   3.211   2.905   5.559
 6444TIP3   OH219288   3.586   1.911   4.395
 6444TIP3    H119289   3.535   1.857   4.335
 6444TIP3    H219290   3.576   2.000   4.362
 6445TIP3   OH219291   3.812   2.784   5.465
 6445TIP3    H119292   3.717   2.778   5.461
 6445TIP3    H219293   3.841   2.752   5.379
 6446TIP3   OH219294   3.287   2.739   4.294
 6446TIP3    H119295   3.281   2.669   4.358
 6446TIP3    H219296   3.312   2.696   4.212
 6447TIP3   OH219297   3.289   2.369   5.132
 6447TIP3    H119298   3.196   2.348   5.146
 6447TIP3    H219299   3.324   2.291   5.088
 6448TIP3   OH219300   2.420   2.603   4.891
 6448TIP3    H119301   2.421   2.681   4.835
 6448TIP3    H219302   2.328   2.579   4.899
 6449TIP3   OH219303   1.982   1.904   4.595
 6449TIP3    H119304   2.029   1.985   4.614
 6449TIP3    H219305   1.907   1.904   4.654
 6450TIP3   OH219306   2.547   2.362   4.830
 6450TIP3    H119307   2.520   2.451   4.850
 6450TIP3    H219308   2.517   2.311   4.905
 6451TIP3   OH219309   2.691   2.942   5.356
 6451TIP3    H119310   2.730   3.014   5.306
 6451TIP3    H219311   2.765   2.902   5.402
 6452TIP3   OH219312   2.336   2.840   4.740
 6452TIP3    H119313   2.252   2.848   4.786
 6452TIP3    H219314   2.372   2.929   4.741
 6453TIP3   OH219315   3.074   2.576   5.318
 6453TIP3    H119316   3.064   2.574   5.413
 6453TIP3    H219317   3.150   2.520   5.301
 6454TIP3   OH219318   3.053   2.472   4.205
 6454TIP3    H119319   3.110   2.451   4.279
 6454TIP3    H219320   2.967   2.440   4.232
 6455TIP3   OH219321   3.321   3.109   5.366
 6455TIP3    H119322   3.244   3.052   5.362
 6455TIP3    H219323   3.308   3.172   5.295
 6456TIP3   OH219324   3.390   2.948   4.015
 6456TIP3    H119325   3.437   3.024   3.981
 6456TIP3    H219326   3.308   2.984   4.048
 6457TIP3   OH219327   2.406   1.717   5.882
 6457TIP3    H119328   2.312   1.726   5.898
 6457TIP3    H219329   2.440   1.671   5.958
 6458TIP3   OH219330   3.207   2.408   4.424
 6458TIP3    H119331   3.195   2.338   4.488
 6458TIP3    H219332   3.301   2.407   4.406
 6459TIP3   OH219333   2.126   2.803   5.517
 6459TIP3    H119334   2.180   2.730   5.549
 6459TIP3    H219335   2.154   2.878   5.569
 6460TIP3   OH219336   2.412   2.448   4.201
 6460TIP3    H119337   2.430   2.359   4.173
 6460TIP3    H219338   2.393   2.441   4.295
 6461TIP3   OH219339   2.360   2.457   4.473
 6461TIP3    H119340   2.436   2.426   4.522
 6461TIP3    H219341   2.364   2.552   4.481
 6462TIP3   OH219342   2.092   2.148   4.676
 6462TIP3    H119343   2.027   2.191   4.733
 6462TIP3    H219344   2.110   2.213   4.608
 6463TIP3   OH219345   3.247   1.786   5.573
 6463TIP3    H119346   3.329   1.822   5.606
 6463TIP3    H219347   3.234   1.706   5.623
 6464TIP3   OH219348   3.120   1.535   4.738
 6464TIP3    H119349   3.108   1.547   4.644
 6464TIP3    H219350   3.162   1.616   4.768
 6465TIP3   OH219351   2.625   2.652   4.418
 6465TIP3    H119352   2.540   2.673   4.457
 6465TIP3    H219353   2.646   2.728   4.363
 6466TIP3   OH219354   2.812   1.719   4.837
 6466TIP3    H119355   2.875   1.787   4.815
 6466TIP3    H219356   2.819   1.708   4.932
 6467TIP3   OH219357   3.086   2.031   5.640
 6467TIP3    H119358   3.110   2.081   5.718
 6467TIP3    H219359   3.137   1.950   5.647
 6468TIP3   OH219360   2.957   1.439   4.936
 6468TIP3    H119361   2.946   1.516   4.991
 6468TIP3    H219362   3.016   1.468   4.866
 6469TIP3   OH219363   2.371   2.729   4.489
 6469TIP3    H119364   2.343   2.797   4.427
 6469TIP3    H219365   2.357   2.769   4.575
 6470TIP3   OH219366   2.475   1.445   4.726
 6470TIP3    H119367   2.469   1.532   4.764
 6470TIP3    H219368   2.568   1.422   4.731
 6471TIP3   OH219369   3.723   1.932   5.622
 6471TIP3    H119370   3.628   1.933   5.633
 6471TIP3    H219371   3.737   1.891   5.537
 6472TIP3   OH219372   3.375   2.126   5.014
 6472TIP3    H119373   3.300   2.067   5.020
 6472TIP3    H219374   3.446   2.079   5.059
 6473TIP3   OH219375   2.094   2.353   4.476
 6473TIP3    H119376   2.162   2.418   4.490
 6473TIP3    H219377   2.131   2.292   4.412
 6474TIP3   OH219378   2.029   1.633   4.616
 6474TIP3    H119379   2.032   1.728   4.612
 6474TIP3    H219380   1.954   1.608   4.561
 6475TIP3   OH219381   3.346   3.090   4.957
 6475TIP3    H119382   3.301   3.135   4.886
 6475TIP3    H219383   3.439   3.106   4.939
 6476TIP3   OH219384   2.417   1.349   5.485
 6476TIP3    H119385   2.391   1.318   5.399
 6476TIP3    H219386   2.411   1.272   5.541
 6477TIP3   OH219387   1.955   2.570   4.863
 6477TIP3    H119388   1.889   2.601   4.926
 6477TIP3    H219389   1.928   2.610   4.780
 6478TIP3   OH219390   2.121   3.116   5.941
 6478TIP3    H119391   2.205   3.120   5.986
 6478TIP3    H219392   2.101   3.023   5.936
 6479TIP3   OH219393   2.595   3.071   5.982
 6479TIP3    H119394   2.690   3.057   5.990
 6479TIP3    H219395   2.568   3.013   5.912
 6480TIP3   OH219396   2.577   2.647   4.107
 6480TIP3    H119397   2.521   2.580   4.147
 6480TIP3    H219398   2.656   2.599   4.080
 6481TIP3   OH219399   3.235   2.985   5.720
 6481TIP3    H119400   3.228   2.915   5.786
 6481TIP3    H219401   3.312   3.035   5.747
 6482TIP3   OH219402   3.017   2.687   4.025
 6482TIP3    H119403   3.052   2.626   4.090
 6482TIP3    H219404   3.078   2.682   3.952
 6483TIP3   OH219405   2.246   2.520   6.139
 6483TIP3    H119406   2.267   2.427   6.148
 6483TIP3    H219407   2.162   2.522   6.094
 6484TIP3   OH219408   2.228   2.166   4.335
 6484TIP3    H119409   2.281   2.135   4.409
 6484TIP3    H219410   2.290   2.171   4.263
 6485TIP3   OH219411   2.853   2.606   5.912
 6485TIP3    H119412   2.813   2.627   5.827
 6485TIP3    H219413   2.884   2.516   5.902
 6486TIP3   OH219414   2.734   2.366   4.141
 6486TIP3    H119415   2.740   2.381   4.235
 6486TIP3    H219416   2.738   2.271   4.131
 6487TIP3   OH219417   3.347   2.620   5.521
 6487TIP3    H119418   3.423   2.658   5.477
 6487TIP3    H219419   3.276   2.682   5.505
 6488TIP3   OH219420   2.370   2.260   6.121
 6488TIP3    H119421   2.437   2.193   6.104
 6488TIP3    H219422   2.389   2.290   6.210
 6489TIP3   OH219423   2.429   2.073   4.551
 6489TIP3    H119424   2.406   2.033   4.635
 6489TIP3    H219425   2.469   2.002   4.500
 6490TIP3   OH219426   2.699   2.137   5.779
 6490TIP3    H119427   2.624   2.196   5.783
 6490TIP3    H219428   2.752   2.171   5.707
 6491TIP3   OH219429   2.537   1.871   4.392
 6491TIP3    H119430   2.511   1.877   4.300
 6491TIP3    H219431   2.633   1.871   4.389
 6492TIP3   OH219432   3.222   2.540   5.917
 6492TIP3    H119433   3.295   2.508   5.864
 6492TIP3    H219434   3.212   2.476   5.987
 6493TIP3   OH219435   3.347   2.200   4.055
 6493TIP3    H119436   3.331   2.153   3.973
 6493TIP3    H219437   3.317   2.289   4.038
 6494TIP3   OH219438   2.826   1.927   5.901
 6494TIP3    H119439   2.827   1.849   5.846
 6494TIP3    H219440   2.783   1.993   5.848
 6495TIP3   OH219441   2.827   1.714   5.715
 6495TIP3    H119442   2.857   1.755   5.634
 6495TIP3    H219443   2.736   1.690   5.698
 6496TIP3   OH219444   2.851   2.249   5.589
 6496TIP3    H119445   2.937   2.259   5.548
 6496TIP3    H219446   2.795   2.312   5.544
 6497TIP3   OH219447   3.436   2.213   5.968
 6497TIP3    H119448   3.481   2.129   5.976
 6497TIP3    H219449   3.502   2.272   5.930
 6498TIP3   OH219450   3.477   2.472   5.705
 6498TIP3    H119451   3.418   2.524   5.650
 6498TIP3    H219452   3.564   2.490   5.670
 6499TIP3   OH219453   2.711   2.033   6.136
 6499TIP3    H119454   2.636   1.980   6.159
 6499TIP3    H219455   2.737   2.002   6.049
 6500TIP3   OH219456   2.958   1.477   5.786
 6500TIP3    H119457   2.910   1.556   5.763
 6500TIP3    H219458   2.894   1.406   5.774
 6501TIP3   OH219459   3.082   1.976   6.000
 6501TIP3    H119460   3.068   1.964   6.094
 6501TIP3    H219461   2.998   1.955   5.960
 6502TIP3   OH219462   3.325   1.932   5.859
 6502TIP3    H119463   3.250   1.932   5.918
 6502TIP3    H219464   3.398   1.901   5.912
 6503TIP3   OH219465   3.557   1.872   6.006
 6503TIP3    H119466   3.568   1.778   6.020
 6503TIP3    H219467   3.552   1.909   6.095
 6504TIP3   OH219468   2.541   1.814   6.191
 6504TIP3    H119469   2.547   1.723   6.160
 6504TIP3    H219470   2.576   1.810   6.281
 6505TIP3   OH219471   3.051   1.481   6.043
 6505TIP3    H119472   3.117   1.412   6.037
 6505TIP3    H219473   3.010   1.483   5.957
 6506TIP3   OH219474   3.119   1.700   6.201
 6506TIP3    H119475   3.100   1.629   6.139
 6506TIP3    H219476   3.044   1.759   6.194
 6507TIP3   OH219477   2.344   2.930   4.297
 6507TIP3    H119478   2.438   2.919   4.284
 6507TIP3    H219479   2.315   2.984   4.223
 6508TIP3   OH219480   1.823   2.311   4.514
 6508TIP3    H119481   1.915   2.334   4.501
 6508TIP3    H219482   1.814   2.224   4.475
 6509TIP3   OH219483   1.736   2.919   4.932
 6509TIP3    H119484   1.671   2.861   4.892
 6509TIP3    H219485   1.781   2.864   4.996
 6510TIP3   OH219486   1.872   2.770   5.120
 6510TIP3    H119487   1.859   2.698   5.183
 6510TIP3    H219488   1.925   2.834   5.167
 6511TIP3   OH219489   3.599   3.182   4.919
 6511TIP3    H119490   3.632   3.207   5.006
 6511TIP3    H219491   3.669   3.207   4.859
 6512TIP3   OH219492   3.630   3.192   5.204
 6512TIP3    H119493   3.580   3.111   5.195
 6512TIP3    H219494   3.705   3.169   5.258
 6513TIP3   OH219495   3.674   2.872   5.776
 6513TIP3    H119496   3.603   2.880   5.839
 6513TIP3    H219497   3.717   2.958   5.778
 6514TIP3   OH219498   3.476   2.404   4.407
 6514TIP3    H119499   3.539   2.466   4.372
 6514TIP3    H219500   3.528   2.347   4.464
 6515TIP3   OH219501   3.620   2.249   4.595
 6515TIP3    H119502   3.550   2.209   4.646
 6515TIP3    H219503   3.677   2.291   4.659
 6516TIP3   OH219504   3.677   2.646   5.028
 6516TIP3    H119505   3.725   2.577   4.983
 6516TIP3    H219506   3.672   2.717   4.964
 6517TIP3   OH219507   3.501   2.947   5.221
 6517TIP3    H119508   3.430   2.986   5.273
 6517TIP3    H219509   3.456   2.900   5.151
 6518TIP3   OH219510   3.524   2.133   4.260
 6518TIP3    H119511   3.465   2.151   4.188
 6518TIP3    H219512   3.584   2.208   4.262
 6519TIP3   OH219513   3.426   1.802   4.202
 6519TIP3    H119514   3.394   1.862   4.134
 6519TIP3    H219515   3.386   1.718   4.180
 6520TIP3   OH219516   3.429   2.111   4.741
 6520TIP3    H119517   3.438   2.017   4.727
 6520TIP3    H219518   3.416   2.119   4.836
 6521TIP3   OH219519   2.058   2.186   5.488
 6521TIP3    H119520   2.053   2.150   5.400
 6521TIP3    H219521   2.152   2.188   5.508
 6522TIP3   OH219522   3.724   2.534   5.600
 6522TIP3    H119523   3.792   2.468   5.590
 6522TIP3    H219524   3.744   2.600   5.533
 6523TIP3   OH219525   3.904   2.332   5.612
 6523TIP3    H119526   3.828   2.287   5.649
 6523TIP3    H219527   3.978   2.273   5.627
 6524TIP3   OH219528   3.434   1.826   4.632
 6524TIP3    H119529   3.469   1.739   4.650
 6524TIP3    H219530   3.487   1.859   4.560
 6525TIP3   OH219531   3.592   1.997   5.134
 6525TIP3    H119532   3.673   2.018   5.088
 6525TIP3    H219533   3.603   2.033   5.222
 6526TIP3   OH219534   3.662   2.145   5.362
 6526TIP3    H119535   3.584   2.176   5.409
 6526TIP3    H219536   3.695   2.223   5.317
 6527TIP3   OH219537   2.275   1.863   6.154
 6527TIP3    H119538   2.370   1.871   6.164
 6527TIP3    H219539   2.252   1.782   6.201
 6528TIP3   OH219540   4.112   1.737   5.916
 6528TIP3    H119541   4.172   1.673   5.876
 6528TIP3    H219542   4.079   1.788   5.842
 6529TIP3   OH219543   3.533   1.576   4.680
 6529TIP3    H119544   3.583   1.559   4.760
 6529TIP3    H219545   3.474   1.501   4.672
 6530TIP3   OH219546   2.239   1.561   5.501
 6530TIP3    H119547   2.296   1.484   5.504
 6530TIP3    H219548   2.299   1.635   5.487
 6531TIP3   OH219549   2.038   1.835   5.562
 6531TIP3    H119550   2.086   1.825   5.480
 6531TIP3    H219551   2.076   1.912   5.603
 6532TIP3   OH219552   3.975   1.870   5.721
 6532TIP3    H119553   3.894   1.916   5.740
 6532TIP3    H219554   3.949   1.798   5.664
 6533TIP3   OH219555   3.658   1.500   4.333
 6533TIP3    H119556   3.670   1.441   4.259
 6533TIP3    H219557   3.693   1.584   4.304
 6534TIP3   OH219558   2.022   1.348   5.075
 6534TIP3    H119559   1.930   1.331   5.096
 6534TIP3    H219560   2.018   1.399   4.994
 6535TIP3   OH219561   3.185   3.045   4.573
 6535TIP3    H119562   3.230   3.027   4.490
 6535TIP3    H219563   3.241   3.107   4.619
 6536TIP3   OH219564   2.228   1.394   5.881
 6536TIP3    H119565   2.188   1.419   5.965
 6536TIP3    H219566   2.179   1.443   5.816
 6537TIP3   OH219567   2.281   2.850   5.958
 6537TIP3    H119568   2.191   2.822   5.941
 6537TIP3    H219569   2.297   2.826   6.049
 6538TIP3   OH219570   2.463   2.885   5.503
 6538TIP3    H119571   2.414   2.959   5.467
 6538TIP3    H219572   2.550   2.892   5.463
 6539TIP3   OH219573   2.905   3.123   5.645
 6539TIP3    H119574   2.944   3.121   5.732
 6539TIP3    H219575   2.967   3.173   5.592
 6540TIP3   OH219576   3.084   3.276   5.507
 6540TIP3    H119577   3.150   3.225   5.460
 6540TIP3    H219578   3.135   3.332   5.566
 6541TIP3   OH219579   3.877   1.633   5.602
 6541TIP3    H119580   3.789   1.629   5.565
 6541TIP3    H219581   3.911   1.544   5.593
 6542TIP3   OH219582   2.134   3.135   5.533
 6542TIP3    H119583   2.046   3.165   5.508
 6542TIP3    H219584   2.152   3.181   5.615
 6543TIP3   OH219585   2.371   3.116   5.389
 6543TIP3    H119586   2.286   3.127   5.432
 6543TIP3    H219587   2.357   3.146   5.300
 6544TIP3   OH219588   2.798   3.142   5.188
 6544TIP3    H119589   2.732   3.156   5.121
 6544TIP3    H219590   2.810   3.228   5.228
 6545TIP3   OH219591   3.067   3.083   5.241
 6545TIP3    H119592   2.974   3.096   5.222
 6545TIP3    H219593   3.112   3.153   5.192
 6546TIP3   OH219594   3.279   3.275   5.150
 6546TIP3    H119595   3.260   3.356   5.103
 6546TIP3    H219596   3.304   3.212   5.081
 6547TIP3   OH219597   2.049   2.924   5.275
 6547TIP3    H119598   2.073   2.901   5.365
 6547TIP3    H219599   2.118   2.885   5.221
 6548TIP3   OH219600   2.246   2.800   5.136
 6548TIP3    H119601   2.259   2.718   5.183
 6548TIP3    H219602   2.334   2.837   5.129
 6549TIP3   OH219603   2.512   2.891   5.141
 6549TIP3    H119604   2.540   2.801   5.125
 6549TIP3    H219605   2.558   2.916   5.221
 6550TIP3   OH219606   3.085   1.550   5.228
 6550TIP3    H119607   3.042   1.479   5.276
 6550TIP3    H219608   3.156   1.507   5.180
 6551TIP3   OH219609   3.605   1.437   5.132
 6551TIP3    H119610   3.642   1.483   5.057
 6551TIP3    H219611   3.510   1.450   5.123
 6552TIP3   OH219612   3.705   1.526   4.894
 6552TIP3    H119613   3.774   1.475   4.852
 6552TIP3    H219614   3.730   1.617   4.881
 6553TIP3   OH219615   2.331   1.256   5.238
 6553TIP3    H119616   2.239   1.229   5.241
 6553TIP3    H219617   2.380   1.174   5.231
 6554TIP3   OH219618   2.124   1.132   4.887
 6554TIP3    H119619   2.152   1.186   4.813
 6554TIP3    H219620   2.096   1.195   4.953
 6555TIP3   OH219621   2.780   1.292   5.120
 6555TIP3    H119622   2.833   1.337   5.055
 6555TIP3    H219623   2.808   1.328   5.204
 6556TIP3   OH219624   3.323   1.438   5.102
 6556TIP3    H119625   3.319   1.406   5.012
 6556TIP3    H219626   3.310   1.361   5.156
 6557TIP3   OH219627   3.355   1.360   4.669
 6557TIP3    H119628   3.269   1.400   4.660
 6557TIP3    H219629   3.339   1.277   4.714
 6558TIP3   OH219630   1.834   2.706   4.663
 6558TIP3    H119631   1.751   2.670   4.632
 6558TIP3    H219632   1.829   2.800   4.643
 6559TIP3   OH219633   2.242   1.289   4.647
 6559TIP3    H119634   2.285   1.224   4.591
 6559TIP3    H219635   2.314   1.341   4.682
 6560TIP3   OH219636   2.751   1.468   4.749
 6560TIP3    H119637   2.809   1.416   4.804
 6560TIP3    H219638   2.772   1.559   4.771
 6561TIP3   OH219639   2.611   2.884   4.245
 6561TIP3    H119640   2.698   2.908   4.213
 6561TIP3    H219641   2.585   2.810   4.189
 6562TIP3   OH219642   3.323   3.003   4.338
 6562TIP3    H119643   3.317   2.908   4.331
 6562TIP3    H219644   3.281   3.036   4.259
 6563TIP3   OH219645   2.543   1.537   6.126
 6563TIP3    H119646   2.505   1.471   6.185
 6563TIP3    H219647   2.635   1.540   6.150
 6564TIP3   OH219648   2.794   1.532   6.241
 6564TIP3    H119649   2.878   1.512   6.200
 6564TIP3    H219650   2.783   1.466   6.309
 6565TIP3   OH219651   1.914   2.724   4.303
 6565TIP3    H119652   1.916   2.745   4.396
 6565TIP3    H219653   1.999   2.683   4.285
 6566TIP3   OH219654   3.620   1.600   6.035
 6566TIP3    H119655   3.634   1.570   6.125
 6566TIP3    H219656   3.706   1.595   5.994
 6567TIP3   OH219657   3.549   3.152   5.528
 6567TIP3    H119658   3.475   3.119   5.477
 6567TIP3    H219659   3.532   3.246   5.536
 6568TIP3   OH219660   4.818   2.527   4.291
 6568TIP3    H119661   4.791   2.616   4.270
 6568TIP3    H219662   4.748   2.472   4.258
 6569TIP3   OH219663   4.824   2.525   4.679
 6569TIP3    H119664   4.855   2.498   4.765
 6569TIP3    H219665   4.780   2.447   4.644
 6570TIP3   OH219666   4.119   2.419   5.043
 6570TIP3    H119667   4.147   2.349   5.102
 6570TIP3    H219668   4.200   2.468   5.024
 6571TIP3   OH219669   5.068   2.826   4.359
 6571TIP3    H119670   5.046   2.758   4.422
 6571TIP3    H219671   5.096   2.901   4.413
 6572TIP3   OH219672   4.095   2.830   4.767
 6572TIP3    H119673   4.084   2.735   4.766
 6572TIP3    H219674   4.189   2.844   4.755
 6573TIP3   OH219675   3.794   2.029   4.547
 6573TIP3    H119676   3.746   2.112   4.560
 6573TIP3    H219677   3.731   1.973   4.502
 6574TIP3   OH219678   3.858   2.321   4.729
 6574TIP3    H119679   3.905   2.243   4.758
 6574TIP3    H219680   3.898   2.343   4.645
 6575TIP3   OH219681   4.717   3.287   4.376
 6575TIP3    H119682   4.758   3.220   4.322
 6575TIP3    H219683   4.703   3.245   4.460
 6576TIP3   OH219684   4.620   2.751   4.725
 6576TIP3    H119685   4.652   2.675   4.677
 6576TIP3    H219686   4.699   2.799   4.750
 6577TIP3   OH219687   5.636   2.071   4.721
 6577TIP3    H119688   5.664   2.152   4.763
 6577TIP3    H219689   5.656   2.083   4.629
 6578TIP3   OH219690   5.031   2.248   4.752
 6578TIP3    H119691   5.074   2.165   4.774
 6578TIP3    H219692   4.998   2.234   4.663
 6579TIP3   OH219693   4.373   1.911   4.715
 6579TIP3    H119694   4.352   1.984   4.657
 6579TIP3    H219695   4.328   1.836   4.677
 6580TIP3   OH219696   5.069   2.004   4.340
 6580TIP3    H119697   5.136   1.988   4.407
 6580TIP3    H219698   5.118   2.038   4.265
 6581TIP3   OH219699   4.004   2.108   4.828
 6581TIP3    H119700   4.086   2.092   4.875
 6581TIP3    H219701   4.012   2.056   4.748
 6582TIP3   OH219702   4.441   2.307   4.626
 6582TIP3    H119703   4.534   2.286   4.635
 6582TIP3    H219704   4.402   2.227   4.591
 6583TIP3   OH219705   5.706   2.281   4.892
 6583TIP3    H119706   5.624   2.324   4.869
 6583TIP3    H219707   5.721   2.307   4.983
 6584TIP3   OH219708   4.363   1.896   5.156
 6584TIP3    H119709   4.308   1.931   5.086
 6584TIP3    H219710   4.313   1.912   5.236
 6585TIP3   OH219711   4.707   2.745   4.161
 6585TIP3    H119712   4.670   2.728   4.075
 6585TIP3    H219713   4.664   2.826   4.191
 6586TIP3   OH219714   4.474   2.673   4.946
 6586TIP3    H119715   4.414   2.738   4.983
 6586TIP3    H219716   4.514   2.717   4.872
 6587TIP3   OH219717   5.271   2.007   4.519
 6587TIP3    H119718   5.253   1.964   4.602
 6587TIP3    H219719   5.322   2.085   4.544
 6588TIP3   OH219720   4.242   2.009   4.936
 6588TIP3    H119721   4.300   2.080   4.962
 6588TIP3    H219722   4.286   1.968   4.861
 6589TIP3   OH219723   4.299   2.868   5.050
 6589TIP3    H119724   4.278   2.952   5.009
 6589TIP3    H219725   4.223   2.847   5.103
 6590TIP3   OH219726   3.672   2.566   4.304
 6590TIP3    H119727   3.697   2.529   4.220
 6590TIP3    H219728   3.733   2.639   4.318
 6591TIP3   OH219729   5.133   3.075   4.525
 6591TIP3    H119730   5.046   3.062   4.564
 6591TIP3    H219731   5.125   3.157   4.477
 6592TIP3   OH219732   5.427   1.969   4.887
 6592TIP3    H119733   5.340   1.994   4.855
 6592TIP3    H219734   5.486   2.001   4.819
 6593TIP3   OH219735   4.719   1.611   4.875
 6593TIP3    H119736   4.702   1.517   4.885
 6593TIP3    H219737   4.644   1.653   4.918
 6594TIP3   OH219738   4.836   3.116   4.194
 6594TIP3    H119739   4.879   3.032   4.178
 6594TIP3    H219740   4.896   3.181   4.157
 6595TIP3   OH219741   4.975   2.900   4.110
 6595TIP3    H119742   4.943   2.823   4.064
 6595TIP3    H219743   5.014   2.865   4.190
 6596TIP3   OH219744   5.359   2.981   4.865
 6596TIP3    H119745   5.346   2.904   4.809
 6596TIP3    H219746   5.341   3.055   4.807
 6597TIP3   OH219747   4.652   2.377   4.125
 6597TIP3    H119748   4.572   2.428   4.111
 6597TIP3    H219749   4.695   2.374   4.040
 6598TIP3   OH219750   4.613   2.161   3.837
 6598TIP3    H119751   4.675   2.216   3.886
 6598TIP3    H219752   4.669   2.098   3.790
 6599TIP3   OH219753   5.553   2.625   4.714
 6599TIP3    H119754   5.469   2.671   4.720
 6599TIP3    H219755   5.585   2.645   4.626
 6600TIP3   OH219756   5.000   2.458   4.097
 6600TIP3    H119757   4.944   2.482   4.171
 6600TIP3    H219758   5.084   2.435   4.138
 6601TIP3   OH219759   5.231   2.498   5.012
 6601TIP3    H119760   5.230   2.579   5.062
 6601TIP3    H219761   5.147   2.497   4.967
 6602TIP3   OH219762   4.226   2.452   4.511
 6602TIP3    H119763   4.181   2.399   4.446
 6602TIP3    H219764   4.301   2.399   4.539
 6603TIP3   OH219765   4.360   2.868   4.660
 6603TIP3    H119766   4.337   2.836   4.573
 6603TIP3    H219767   4.447   2.831   4.677
 6604TIP3   OH219768   4.369   2.426   4.872
 6604TIP3    H119769   4.395   2.401   4.783
 6604TIP3    H219770   4.409   2.512   4.885
 6605TIP3   OH219771   4.894   3.066   4.647
 6605TIP3    H119772   4.880   3.144   4.700
 6605TIP3    H219773   4.876   2.993   4.707
 6606TIP3   OH219774   4.503   2.984   5.193
 6606TIP3    H119775   4.445   3.045   5.238
 6606TIP3    H219776   4.444   2.930   5.141
 6607TIP3   OH219777   4.842   2.317   3.918
 6607TIP3    H119778   4.895   2.377   3.969
 6607TIP3    H219779   4.865   2.334   3.827
 6608TIP3   OH219780   4.261   2.538   5.302
 6608TIP3    H119781   4.267   2.626   5.340
 6608TIP3    H219782   4.168   2.516   5.307
 6609TIP3   OH219783   4.585   2.994   4.203
 6609TIP3    H119784   4.665   3.047   4.208
 6609TIP3    H219785   4.524   3.047   4.152
 6610TIP3   OH219786   4.297   3.150   5.279
 6610TIP3    H119787   4.266   3.153   5.189
 6610TIP3    H219788   4.219   3.128   5.331
 6611TIP3   OH219789   5.354   1.557   3.972
 6611TIP3    H119790   5.274   1.578   4.021
 6611TIP3    H219791   5.372   1.636   3.921
 6612TIP3   OH219792   4.069   2.303   4.310
 6612TIP3    H119793   4.009   2.346   4.249
 6612TIP3    H219794   4.039   2.212   4.314
 6613TIP3   OH219795   5.157   2.934   3.519
 6613TIP3    H119796   5.164   3.028   3.503
 6613TIP3    H219797   5.246   2.901   3.509
 6614TIP3   OH219798   3.878   2.683   5.224
 6614TIP3    H119799   3.812   2.664   5.158
 6614TIP3    H219800   3.916   2.597   5.245
 6615TIP3   OH219801   3.735   2.875   4.860
 6615TIP3    H119802   3.828   2.864   4.843
 6615TIP3    H219803   3.729   2.953   4.915
 6616TIP3   OH219804   5.594   3.329   4.916
 6616TIP3    H119805   5.597   3.234   4.928
 6616TIP3    H219806   5.514   3.356   4.960
 6617TIP3   OH219807   4.701   3.112   5.053
 6617TIP3    H119808   4.700   3.203   5.081
 6617TIP3    H219809   4.631   3.070   5.102
 6618TIP3   OH219810   4.465   3.244   3.997
 6618TIP3    H119811   4.422   3.216   3.917
 6618TIP3    H219812   4.425   3.329   4.018
 6619TIP3   OH219813   3.905   3.091   4.387
 6619TIP3    H119814   3.947   3.084   4.472
 6619TIP3    H219815   3.859   3.008   4.376
 6620TIP3   OH219816   4.667   3.142   3.639
 6620TIP3    H119817   4.723   3.075   3.601
 6620TIP3    H219818   4.699   3.152   3.729
 6621TIP3   OH219819   4.717   3.193   3.912
 6621TIP3    H119820   4.629   3.204   3.948
 6621TIP3    H219821   4.765   3.147   3.980
 6622TIP3   OH219822   5.485   2.455   5.188
 6622TIP3    H119823   5.402   2.468   5.142
 6622TIP3    H219824   5.503   2.362   5.181
 6623TIP3   OH219825   4.081   2.865   5.213
 6623TIP3    H119826   4.131   2.849   5.293
 6623TIP3    H219827   4.008   2.804   5.217
 6624TIP3   OH219828   4.480   1.689   5.001
 6624TIP3    H119829   4.396   1.656   4.970
 6624TIP3    H219830   4.458   1.770   5.049
 6625TIP3   OH219831   5.018   1.802   5.195
 6625TIP3    H119832   5.085   1.776   5.258
 6625TIP3    H219833   4.935   1.784   5.240
 6626TIP3   OH219834   5.253   2.235   5.114
 6626TIP3    H119835   5.203   2.230   5.195
 6626TIP3    H219836   5.230   2.320   5.077
 6627TIP3   OH219837   4.913   2.355   3.659
 6627TIP3    H119838   4.876   2.338   3.572
 6627TIP3    H219839   4.987   2.413   3.642
 6628TIP3   OH219840   4.627   1.732   3.972
 6628TIP3    H119841   4.593   1.733   4.062
 6628TIP3    H219842   4.587   1.655   3.932
 6629TIP3   OH219843   4.415   2.206   5.020
 6629TIP3    H119844   4.364   2.224   5.099
 6629TIP3    H219845   4.402   2.284   4.966
 6630TIP3   OH219846   4.295   2.089   4.530
 6630TIP3    H119847   4.204   2.068   4.550
 6630TIP3    H219848   4.310   2.052   4.444
 6631TIP3   OH219849   4.790   2.178   4.260
 6631TIP3    H119850   4.738   2.247   4.218
 6631TIP3    H219851   4.843   2.142   4.189
 6632TIP3   OH219852   4.965   2.451   5.346
 6632TIP3    H119853   4.941   2.379   5.405
 6632TIP3    H219854   5.057   2.467   5.365
 6633TIP3   OH219855   4.943   2.201   4.494
 6633TIP3    H119856   4.881   2.233   4.428
 6633TIP3    H219857   4.982   2.123   4.454
 6634TIP3   OH219858   4.235   2.232   5.226
 6634TIP3    H119859   4.261   2.297   5.292
 6634TIP3    H219860   4.222   2.152   5.276
 6635TIP3   OH219861   4.281   1.712   3.938
 6635TIP3    H119862   4.272   1.710   4.033
 6635TIP3    H219863   4.208   1.767   3.908
 6636TIP3   OH219864   3.822   1.752   4.818
 6636TIP3    H119865   3.903   1.785   4.857
 6636TIP3    H219866   3.847   1.728   4.728
 6637TIP3   OH219867   3.807   1.749   4.324
 6637TIP3    H119868   3.847   1.785   4.245
 6637TIP3    H219869   3.740   1.812   4.348
 6638TIP3   OH219870   4.958   2.444   4.920
 6638TIP3    H119871   4.990   2.378   4.859
 6638TIP3    H219872   4.926   2.395   4.995
 6639TIP3   OH219873   4.630   1.908   4.593
 6639TIP3    H119874   4.547   1.910   4.640
 6639TIP3    H219875   4.696   1.909   4.662
 6640TIP3   OH219876   4.055   1.968   4.599
 6640TIP3    H119877   3.965   1.981   4.572
 6640TIP3    H219878   4.076   1.878   4.574
 6641TIP3   OH219879   4.328   1.965   4.291
 6641TIP3    H119880   4.419   1.981   4.265
 6641TIP3    H219881   4.277   1.983   4.212
 6642TIP3   OH219882   5.115   1.987   4.796
 6642TIP3    H119883   5.087   2.003   4.886
 6642TIP3    H219884   5.049   1.928   4.760
 6643TIP3   OH219885   4.182   1.988   4.067
 6643TIP3    H119886   4.099   1.960   4.030
 6643TIP3    H219887   4.228   2.029   3.993
 6644TIP3   OH219888   5.292   3.678   5.014
 6644TIP3    H119889   5.286   3.700   4.921
 6644TIP3    H219890   5.369   3.725   5.045
 6645TIP3   OH219891   4.245   2.789   5.436
 6645TIP3    H119892   4.325   2.817   5.481
 6645TIP3    H219893   4.179   2.785   5.506
 6646TIP3   OH219894   4.708   2.240   4.691
 6646TIP3    H119895   4.781   2.204   4.640
 6646TIP3    H219896   4.713   2.197   4.776
 6647TIP3   OH219897   4.235   1.724   4.572
 6647TIP3    H119898   4.193   1.652   4.619
 6647TIP3    H219899   4.263   1.686   4.489
 6648TIP3   OH219900   4.684   2.141   4.980
 6648TIP3    H119901   4.595   2.174   4.992
 6648TIP3    H219902   4.739   2.202   5.028
 6649TIP3   OH219903   4.422   2.528   4.080
 6649TIP3    H119904   4.356   2.460   4.066
 6649TIP3    H219905   4.402   2.563   4.167
 6650TIP3   OH219906   5.318   2.764   4.699
 6650TIP3    H119907   5.342   2.815   4.622
 6650TIP3    H219908   5.236   2.721   4.675
 6651TIP3   OH219909   4.878   1.837   3.943
 6651TIP3    H119910   4.784   1.818   3.949
 6651TIP3    H219911   4.885   1.930   3.966
 6652TIP3   OH219912   4.823   2.850   5.071
 6652TIP3    H119913   4.848   2.828   5.160
 6652TIP3    H219914   4.781   2.936   5.079
 6653TIP3   OH219915   4.947   2.091   4.043
 6653TIP3    H119916   5.042   2.096   4.057
 6653TIP3    H219917   4.926   2.169   3.993
 6654TIP3   OH219918   4.121   2.557   4.747
 6654TIP3    H119919   4.150   2.527   4.661
 6654TIP3    H219920   4.151   2.490   4.808
 6655TIP3   OH219921   4.567   2.678   3.902
 6655TIP3    H119922   4.522   2.763   3.902
 6655TIP3    H219923   4.514   2.624   3.961
 6656TIP3   OH219924   3.995   2.468   5.364
 6656TIP3    H119925   4.011   2.454   5.458
 6656TIP3    H219926   3.925   2.407   5.342
 6657TIP3   OH219927   4.724   2.585   5.381
 6657TIP3    H119928   4.660   2.529   5.338
 6657TIP3    H219929   4.809   2.551   5.354
 6658TIP3   OH219930   4.979   3.112   4.969
 6658TIP3    H119931   4.884   3.104   4.980
 6658TIP3    H219932   5.008   3.161   5.046
 6659TIP3   OH219933   5.386   2.183   3.874
 6659TIP3    H119934   5.327   2.136   3.814
 6659TIP3    H219935   5.386   2.273   3.841
 6660TIP3   OH219936   5.608   3.040   4.952
 6660TIP3    H119937   5.513   3.034   4.948
 6660TIP3    H219938   5.637   3.009   4.866
 6661TIP3   OH219939   5.101   2.995   3.788
 6661TIP3    H119940   5.058   2.929   3.843
 6661TIP3    H219941   5.101   2.956   3.701
 6662TIP3   OH219942   5.086   2.625   4.619
 6662TIP3    H119943   4.993   2.604   4.634
 6662TIP3    H219944   5.120   2.548   4.574
 6663TIP3   OH219945   4.214   2.860   4.380
 6663TIP3    H119946   4.212   2.937   4.323
 6663TIP3    H219947   4.123   2.830   4.383
 6664TIP3   OH219948   4.349   2.621   4.323
 6664TIP3    H119949   4.317   2.710   4.340
 6664TIP3    H219950   4.311   2.568   4.392
 6665TIP3   OH219951   4.487   3.199   4.843
 6665TIP3    H119952   4.526   3.271   4.793
 6665TIP3    H219953   4.561   3.159   4.889
 6666TIP3   OH219954   4.132   3.100   4.227
 6666TIP3    H119955   4.048   3.104   4.273
 6666TIP3    H219956   4.164   3.190   4.228
 6667TIP3   OH219957   4.871   2.831   4.805
 6667TIP3    H119958   4.860   2.831   4.900
 6667TIP3    H219959   4.947   2.775   4.789
 6668TIP3   OH219960   4.838   2.745   3.693
 6668TIP3    H119961   4.895   2.712   3.762
 6668TIP3    H219962   4.753   2.705   3.712
 6669TIP3   OH219963   5.118   3.364   4.852
 6669TIP3    H119964   5.041   3.307   4.850
 6669TIP3    H219965   5.103   3.427   4.781
 6670TIP3   OH219966   5.188   3.209   3.503
 6670TIP3    H119967   5.224   3.282   3.453
 6670TIP3    H219968   5.106   3.242   3.539
 6671TIP3   OH219969   4.201   1.976   5.370
 6671TIP3    H119970   4.106   1.980   5.378
 6671TIP3    H219971   4.229   1.919   5.442
 6672TIP3   OH219972   5.010   2.661   3.905
 6672TIP3    H119973   4.997   2.595   3.974
 6672TIP3    H219974   5.104   2.658   3.887
 6673TIP3   OH219975   3.922   3.060   5.004
 6673TIP3    H119976   3.973   2.983   5.030
 6673TIP3    H219977   3.954   3.130   5.061
 6674TIP3   OH219978   4.207   2.704   3.687
 6674TIP3    H119979   4.226   2.615   3.658
 6674TIP3    H219980   4.184   2.695   3.779
 6675TIP3   OH219981   4.154   2.715   3.959
 6675TIP3    H119982   4.226   2.682   4.013
 6675TIP3    H219983   4.161   2.810   3.967
 6676TIP3   OH219984   5.047   2.039   5.056
 6676TIP3    H119985   5.125   2.079   5.094
 6676TIP3    H219986   5.032   1.960   5.108
 6677TIP3   OH219987   4.927   1.788   4.222
 6677TIP3    H119988   4.910   1.807   4.130
 6677TIP3    H219989   4.964   1.870   4.257
 6678TIP3   OH219990   4.426   2.909   3.910
 6678TIP3    H119991   4.341   2.934   3.945
 6678TIP3    H219992   4.437   2.964   3.832
 6679TIP3   OH219993   4.616   1.972   4.323
 6679TIP3    H119994   4.675   2.045   4.304
 6679TIP3    H219995   4.616   1.964   4.418
 6680TIP3   OH219996   4.883   2.288   5.128
 6680TIP3    H119997   4.906   2.340   5.205
 6680TIP3    H219998   4.934   2.208   5.138
 6681TIP3   OH219999   4.754   1.696   4.422
 6681TIP3    H120000   4.737   1.773   4.476
 6681TIP3    H220001   4.815   1.727   4.355
 6682TIP3   OH220002   4.173   2.989   3.976
 6682TIP3    H120003   4.142   3.055   3.914
 6682TIP3    H220004   4.155   3.026   4.062
 6683TIP3   OH220005   4.270   1.699   4.215
 6683TIP3    H120006   4.260   1.789   4.247
 6683TIP3    H220007   4.364   1.682   4.220
 6684TIP3   OH220008   5.519   2.189   5.108
 6684TIP3    H120009   5.424   2.191   5.120
 6684TIP3    H220010   5.531   2.144   5.024
 6685TIP3   OH220011   5.172   2.382   4.498
 6685TIP3    H120012   5.095   2.326   4.508
 6685TIP3    H220013   5.242   2.336   4.545
 6686TIP3   OH220014   3.883   2.635   3.948
 6686TIP3    H120015   3.964   2.683   3.964
 6686TIP3    H220016   3.911   2.556   3.901
 6687TIP3   OH220017   3.825   1.910   4.104
 6687TIP3    H120018   3.838   2.005   4.111
 6687TIP3    H220019   3.741   1.900   4.060
 6688TIP3   OH220020   5.143   3.346   4.443
 6688TIP3    H120021   5.096   3.391   4.373
 6688TIP3    H220022   5.235   3.361   4.425
 6689TIP3   OH220023   4.218   1.607   4.970
 6689TIP3    H120024   4.188   1.578   4.884
 6689TIP3    H220025   4.205   1.531   5.027
 6690TIP3   OH220026   3.768   2.849   4.351
 6690TIP3    H120027   3.694   2.847   4.411
 6690TIP3    H220028   3.732   2.878   4.267
 6691TIP3   OH220029   3.915   3.372   5.427
 6691TIP3    H120030   4.001   3.374   5.471
 6691TIP3    H220031   3.893   3.279   5.422
 6692TIP3   OH220032   4.393   3.328   5.468
 6692TIP3    H120033   4.486   3.311   5.476
 6692TIP3    H220034   4.363   3.270   5.399
 6693TIP3   OH220035   4.372   2.911   3.604
 6693TIP3    H120036   4.324   2.833   3.633
 6693TIP3    H220037   4.449   2.875   3.560
 6694TIP3   OH220038   5.032   3.241   5.207
 6694TIP3    H120039   5.024   3.172   5.273
 6694TIP3    H220040   5.108   3.292   5.235
 6695TIP3   OH220041   4.824   2.955   3.513
 6695TIP3    H120042   4.842   2.880   3.571
 6695TIP3    H220043   4.881   2.940   3.438
 6696TIP3   OH220044   4.041   2.775   5.625
 6696TIP3    H120045   4.059   2.682   5.633
 6696TIP3    H220046   3.957   2.780   5.580
 6697TIP3   OH220047   4.011   2.434   3.813
 6697TIP3    H120048   4.039   2.386   3.891
 6697TIP3    H220049   4.088   2.434   3.756
 6698TIP3   OH220050   4.649   2.862   5.399
 6698TIP3    H120051   4.609   2.883   5.314
 6698TIP3    H220052   4.680   2.772   5.389
 6699TIP3   OH220053   4.524   2.615   3.633
 6699TIP3    H120054   4.532   2.631   3.728
 6699TIP3    H220055   4.527   2.520   3.625
 6700TIP3   OH220056   5.144   2.876   5.008
 6700TIP3    H120057   5.219   2.916   4.964
 6700TIP3    H220058   5.071   2.937   4.992
 6701TIP3   OH220059   4.164   2.515   5.612
 6701TIP3    H120060   4.239   2.465   5.579
 6701TIP3    H220061   4.192   2.546   5.698
 6702TIP3   OH220062   4.243   2.326   4.053
 6702TIP3    H120063   4.187   2.287   4.120
 6702TIP3    H220064   4.268   2.253   3.996
 6703TIP3   OH220065   4.499   2.398   5.271
 6703TIP3    H120066   4.421   2.452   5.271
 6703TIP3    H220067   4.550   2.429   5.196
 6704TIP3   OH220068   4.330   2.125   3.877
 6704TIP3    H120069   4.302   2.135   3.786
 6704TIP3    H220070   4.426   2.129   3.873
 6705TIP3   OH220071   5.018   2.797   5.405
 6705TIP3    H120072   5.091   2.765   5.352
 6705TIP3    H220073   5.009   2.733   5.475
 6706TIP3   OH220074   5.164   2.446   3.544
 6706TIP3    H120075   5.132   2.402   3.465
 6706TIP3    H220076   5.133   2.536   3.536
 6707TIP3   OH220077   4.621   2.185   5.392
 6707TIP3    H120078   4.622   2.107   5.336
 6707TIP3    H220079   4.579   2.252   5.338
 6708TIP3   OH220080   4.623   1.970   5.202
 6708TIP3    H120081   4.652   2.012   5.121
 6708TIP3    H220082   4.531   1.948   5.186
 6709TIP3   OH220083   4.648   2.507   5.077
 6709TIP3    H120084   4.733   2.518   5.034
 6709TIP3    H220085   4.590   2.569   5.032
 6710TIP3   OH220086   5.229   2.470   5.453
 6710TIP3    H120087   5.275   2.391   5.479
 6710TIP3    H220088   5.297   2.527   5.417
 6711TIP3   OH220089   5.273   2.729   5.192
 6711TIP3    H120090   5.214   2.780   5.136
 6711TIP3    H220091   5.360   2.746   5.156
 6712TIP3   OH220092   4.500   2.289   5.628
 6712TIP3    H120093   4.433   2.223   5.645
 6712TIP3    H220094   4.533   2.268   5.540
 6713TIP3   OH220095   4.753   1.732   5.272
 6713TIP3    H120096   4.707   1.813   5.249
 6713TIP3    H220097   4.688   1.663   5.260
 6714TIP3   OH220098   4.880   2.233   5.488
 6714TIP3    H120099   4.870   2.219   5.583
 6714TIP3    H220100   4.793   2.212   5.452
 6715TIP3   OH220101   5.119   2.184   5.343
 6715TIP3    H120102   5.047   2.187   5.405
 6715TIP3    H220103   5.194   2.156   5.395
 6716TIP3   OH220104   5.351   2.125   5.488
 6716TIP3    H120105   5.363   2.032   5.507
 6716TIP3    H220106   5.345   2.167   5.574
 6717TIP3   OH220107   4.339   2.069   5.683
 6717TIP3    H120108   4.342   1.981   5.647
 6717TIP3    H220109   4.376   2.060   5.771
 6718TIP3   OH220110   4.847   1.739   5.530
 6718TIP3    H120111   4.914   1.670   5.525
 6718TIP3    H220112   4.807   1.739   5.443
 6719TIP3   OH220113   4.914   1.957   5.689
 6719TIP3    H120114   4.896   1.887   5.626
 6719TIP3    H220115   4.839   2.015   5.682
 6720TIP3   OH220116   4.142   3.195   3.789
 6720TIP3    H120117   4.236   3.179   3.773
 6720TIP3    H220118   4.112   3.239   3.710
 6721TIP3   OH220119   3.618   2.576   3.984
 6721TIP3    H120120   3.709   2.605   3.982
 6721TIP3    H220121   3.621   2.485   3.954
 6722TIP3   OH220122   3.526   3.175   4.418
 6722TIP3    H120123   3.463   3.113   4.380
 6722TIP3    H220124   3.575   3.123   4.481
 6723TIP3   OH220125   3.661   3.034   4.610
 6723TIP3    H120126   3.653   2.956   4.666
 6723TIP3    H220127   3.718   3.093   4.659
 6724TIP3   OH220128   5.398   3.431   4.406
 6724TIP3    H120129   5.425   3.460   4.493
 6724TIP3    H220130   5.462   3.470   4.347
 6725TIP3   OH220131   5.425   3.447   4.689
 6725TIP3    H120132   5.376   3.366   4.681
 6725TIP3    H220133   5.499   3.425   4.746
 6726TIP3   OH220134   5.470   3.130   5.262
 6726TIP3    H120135   5.398   3.137   5.325
 6726TIP3    H220136   5.513   3.215   5.264
 6727TIP3   OH220137   5.290   2.638   3.881
 6727TIP3    H120138   5.351   2.705   3.849
 6727TIP3    H220139   5.332   2.602   3.959
 6728TIP3   OH220140   5.417   2.507   4.087
 6728TIP3    H120141   5.349   2.467   4.141
 6728TIP3    H220142   5.478   2.545   4.150
 6729TIP3   OH220143   5.474   2.903   4.515
 6729TIP3    H120144   5.523   2.834   4.470
 6729TIP3    H220145   5.466   2.973   4.450
 6730TIP3   OH220146   5.296   3.203   4.708
 6730TIP3    H120147   5.226   3.243   4.759
 6730TIP3    H220148   5.251   3.156   4.638
 6731TIP3   OH220149   5.353   2.417   3.732
 6731TIP3    H120150   5.287   2.412   3.663
 6731TIP3    H220151   5.325   2.490   3.787
 6732TIP3   OH220152   5.226   2.087   3.678
 6732TIP3    H120153   5.176   2.128   3.607
 6732TIP3    H220154   5.203   1.994   3.672
 6733TIP3   OH220155   5.228   2.366   4.230
 6733TIP3    H120156   5.234   2.271   4.219
 6733TIP3    H220157   5.213   2.378   4.324
 6734TIP3   OH220158   3.854   2.435   4.978
 6734TIP3    H120159   3.848   2.403   4.889
 6734TIP3    H220160   3.948   2.439   4.996
 6735TIP3   OH220161   5.520   2.790   5.086
 6735TIP3    H120162   5.589   2.725   5.076
 6735TIP3    H220163   5.541   2.857   5.020
 6736TIP3   OH220164   5.702   2.589   5.096
 6736TIP3    H120165   5.626   2.545   5.134
 6736TIP3    H220166   5.775   2.529   5.112
 6737TIP3   OH220167   5.166   1.822   3.667
 6737TIP3    H120168   5.236   1.790   3.723
 6737TIP3    H220169   5.092   1.765   3.686
 6738TIP3   OH220170   5.228   2.082   4.120
 6738TIP3    H120171   5.265   1.995   4.137
 6738TIP3    H220172   5.282   2.117   4.049
 6739TIP3   OH220173   5.387   2.253   4.620
 6739TIP3    H120174   5.469   2.275   4.576
 6739TIP3    H220175   5.397   2.289   4.708
 6740TIP3   OH220176   5.457   2.401   4.848
 6740TIP3    H120177   5.380   2.432   4.897
 6740TIP3    H220178   5.490   2.480   4.804
 6741TIP3   OH220179   4.073   2.122   5.654
 6741TIP3    H120180   4.169   2.119   5.654
 6741TIP3    H220181   4.047   2.038   5.690
 6742TIP3   OH220182   5.908   1.994   5.402
 6742TIP3    H120183   5.968   1.929   5.363
 6742TIP3    H220184   5.876   2.045   5.328
 6743TIP3   OH220185   5.334   1.831   4.162
 6743TIP3    H120186   5.382   1.817   4.243
 6743TIP3    H220187   5.272   1.758   4.158
 6744TIP3   OH220188   4.038   1.818   4.988
 6744TIP3    H120189   4.096   1.742   4.990
 6744TIP3    H220190   4.097   1.892   4.973
 6745TIP3   OH220191   3.836   2.091   5.053
 6745TIP3    H120192   3.881   2.081   4.969
 6745TIP3    H220193   3.862   2.177   5.084
 6746TIP3   OH220194   5.772   2.127   5.207
 6746TIP3    H120195   5.692   2.173   5.231
 6746TIP3    H220196   5.743   2.055   5.151
 6747TIP3   OH220197   5.413   1.762   3.796
 6747TIP3    H120198   5.450   1.694   3.740
 6747TIP3    H220199   5.477   1.833   3.792
 6748TIP3   OH220200   3.818   1.617   4.565
 6748TIP3    H120201   3.726   1.590   4.574
 6748TIP3    H220202   3.822   1.661   4.481
 6749TIP3   OH220203   4.984   3.300   4.062
 6749TIP3    H120204   5.027   3.285   3.977
 6749TIP3    H220205   5.039   3.367   4.104
 6750TIP3   OH220206   4.038   1.672   5.368
 6750TIP3    H120207   3.989   1.670   5.450
 6750TIP3    H220208   3.978   1.712   5.304
 6751TIP3   OH220209   4.076   3.107   5.446
 6751TIP3    H120210   3.987   3.080   5.426
 6751TIP3    H220211   4.090   3.082   5.537
 6752TIP3   OH220212   4.260   3.142   4.991
 6752TIP3    H120213   4.210   3.215   4.954
 6752TIP3    H220214   4.346   3.150   4.950
 6753TIP3   OH220215   4.701   3.380   5.132
 6753TIP3    H120216   4.741   3.379   5.219
 6753TIP3    H220217   4.763   3.430   5.079
 6754TIP3   OH220218   4.881   3.534   4.994
 6754TIP3    H120219   4.946   3.481   4.947
 6754TIP3    H220220   4.931   3.589   5.053
 6755TIP3   OH220221   5.674   1.890   5.089
 6755TIP3    H120222   5.586   1.885   5.053
 6755TIP3    H220223   5.709   1.801   5.081
 6756TIP3   OH220224   3.930   3.395   5.017
 6756TIP3    H120225   3.844   3.428   4.991
 6756TIP3    H220226   3.945   3.431   5.105
 6757TIP3   OH220227   4.168   3.373   4.875
 6757TIP3    H120228   4.084   3.385   4.919
 6757TIP3    H220229   4.153   3.401   4.785
 6758TIP3   OH220230   4.594   3.399   4.674
 6758TIP3    H120231   4.526   3.411   4.607
 6758TIP3    H220232   4.605   3.485   4.713
 6759TIP3   OH220233   4.863   3.339   4.728
 6759TIP3    H120234   4.770   3.353   4.708
 6759TIP3    H220235   4.908   3.409   4.679
 6760TIP3   OH220236   5.074   3.529   4.636
 6760TIP3    H120237   5.057   3.612   4.590
 6760TIP3    H220238   5.099   3.468   4.567
 6761TIP3   OH220239   3.845   3.182   4.766
 6761TIP3    H120240   3.872   3.157   4.855
 6761TIP3    H220241   3.912   3.144   4.709
 6762TIP3   OH220242   4.040   3.059   4.625
 6762TIP3    H120243   4.053   2.976   4.671
 6762TIP3    H220244   4.128   3.095   4.615
 6763TIP3   OH220245   4.310   3.149   4.627
 6763TIP3    H120246   4.336   3.059   4.609
 6763TIP3    H220247   4.355   3.172   4.708
 6764TIP3   OH220248   4.886   1.808   4.717
 6764TIP3    H120249   4.839   1.739   4.764
 6764TIP3    H220250   4.955   1.762   4.668
 6765TIP3   OH220251   5.400   1.689   4.614
 6765TIP3    H120252   5.438   1.739   4.541
 6765TIP3    H220253   5.306   1.707   4.608
 6766TIP3   OH220254   5.499   1.786   4.377
 6766TIP3    H120255   5.570   1.733   4.340
 6766TIP3    H220256   5.529   1.877   4.365
 6767TIP3   OH220257   4.128   1.514   4.725
 6767TIP3    H120258   4.035   1.490   4.724
 6767TIP3    H220259   4.175   1.431   4.717
 6768TIP3   OH220260   3.940   1.386   4.377
 6768TIP3    H120261   3.951   1.436   4.296
 6768TIP3    H220262   3.882   1.439   4.431
 6769TIP3   OH220263   4.582   1.542   4.606
 6769TIP3    H120264   4.632   1.591   4.541
 6769TIP3    H220265   4.594   1.591   4.688
 6770TIP3   OH220266   5.119   1.694   4.588
 6770TIP3    H120267   5.116   1.658   4.499
 6770TIP3    H220268   5.106   1.618   4.645
 6771TIP3   OH220269   5.148   1.620   4.154
 6771TIP3    H120270   5.065   1.667   4.168
 6771TIP3    H220271   5.135   1.535   4.196
 6772TIP3   OH220272   3.632   2.960   4.146
 6772TIP3    H120273   3.552   2.917   4.116
 6772TIP3    H220274   3.615   3.053   4.133
 6773TIP3   OH220275   4.037   1.544   4.133
 6773TIP3    H120276   4.083   1.483   4.074
 6773TIP3    H220277   4.106   1.598   4.171
 6774TIP3   OH220278   4.547   1.724   4.236
 6774TIP3    H120279   4.604   1.674   4.294
 6774TIP3    H220280   4.565   1.815   4.257
 6775TIP3   OH220281   4.407   3.145   3.731
 6775TIP3    H120282   4.494   3.168   3.700
 6775TIP3    H220283   4.380   3.071   3.677
 6776TIP3   OH220284   5.124   3.262   3.827
 6776TIP3    H120285   5.122   3.167   3.820
 6776TIP3    H220286   5.078   3.294   3.750
 6777TIP3   OH220287   4.337   1.794   5.617
 6777TIP3    H120288   4.299   1.725   5.672
 6777TIP3    H220289   4.430   1.796   5.643
 6778TIP3   OH220290   4.587   1.791   5.735
 6778TIP3    H120291   4.672   1.773   5.694
 6778TIP3    H220292   4.576   1.722   5.800
 6779TIP3   OH220293   3.714   2.984   3.793
 6779TIP3    H120294   3.713   2.984   3.889
 6779TIP3    H220295   3.796   2.939   3.770
 6780TIP3   OH220296   5.415   1.854   5.524
 6780TIP3    H120297   5.429   1.825   5.614
 6780TIP3    H220298   5.502   1.851   5.484
 6781TIP3   OH220299   5.346   3.409   5.014
 6781TIP3    H120300   5.271   3.375   4.964
 6781TIP3    H220301   5.329   3.502   5.022
 6782TIP3   OH220302   6.616   2.786   3.777
 6782TIP3    H120303   6.586   2.874   3.755
 6782TIP3    H220304   6.546   2.728   3.746
 6783TIP3   OH220305   6.617   2.782   4.168
 6783TIP3    H120306   6.652   2.753   4.252
 6783TIP3    H220307   6.578   2.704   4.129
 6784TIP3   OH220308   5.916   2.673   4.529
 6784TIP3    H120309   5.942   2.604   4.589
 6784TIP3    H220310   5.995   2.726   4.517
 6785TIP3   OH220311   6.864   3.087   3.844
 6785TIP3    H120312   6.842   3.013   3.901
 6785TIP3    H220313   6.890   3.156   3.904
 6786TIP3   OH220314   5.891   3.086   4.251
 6786TIP3    H120315   5.879   2.991   4.251
 6786TIP3    H220316   5.986   3.098   4.244
 6787TIP3   OH220317   5.592   2.288   4.032
 6787TIP3    H120318   5.546   2.369   4.052
 6787TIP3    H220319   5.525   2.233   3.990
 6788TIP3   OH220320   5.654   2.575   4.215
 6788TIP3    H120321   5.700   2.497   4.247
 6788TIP3    H220322   5.707   2.605   4.141
 6789TIP3   OH220323   6.516   3.546   3.863
 6789TIP3    H120324   6.556   3.477   3.811
 6789TIP3    H220325   6.497   3.505   3.947
 6790TIP3   OH220326   6.417   3.008   4.210
 6790TIP3    H120327   6.450   2.928   4.169
 6790TIP3    H220328   6.496   3.056   4.235
 6791TIP3   OH220329   7.432   2.327   4.208
 6791TIP3    H120330   7.461   2.411   4.244
 6791TIP3    H220331   7.452   2.333   4.114
 6792TIP3   OH220332   6.829   2.505   4.239
 6792TIP3    H120333   6.875   2.424   4.261
 6792TIP3    H220334   6.796   2.489   4.150
 6793TIP3   OH220335   6.164   2.167   4.205
 6793TIP3    H120336   6.150   2.240   4.144
 6793TIP3    H220337   6.120   2.093   4.164
 6794TIP3   OH220338   6.857   2.262   3.823
 6794TIP3    H120339   6.918   2.244   3.895
 6794TIP3    H220340   6.914   2.291   3.752
 6795TIP3   OH220341   5.801   2.365   4.313
 6795TIP3    H120342   5.881   2.350   4.363
 6795TIP3    H220343   5.812   2.313   4.234
 6796TIP3   OH220344   6.239   2.564   4.113
 6796TIP3    H120345   6.332   2.543   4.123
 6796TIP3    H220346   6.200   2.483   4.079
 6797TIP3   OH220347   7.505   2.542   4.378
 6797TIP3    H120348   7.423   2.582   4.351
 6797TIP3    H220349   7.507   2.552   4.473
 6798TIP3   OH220350   6.160   2.153   4.643
 6798TIP3    H120351   6.104   2.188   4.573
 6798TIP3    H220352   6.109   2.168   4.723
 6799TIP3   OH220353   6.505   3.005   3.647
 6799TIP3    H120354   6.466   2.983   3.563
 6799TIP3    H220355   6.460   3.085   3.675
 6800TIP3   OH220356   6.270   2.930   4.432
 6800TIP3    H120357   6.209   2.994   4.470
 6800TIP3    H220358   6.310   2.975   4.358
 6801TIP3   OH220359   7.054   2.262   4.003
 6801TIP3    H120360   7.098   2.178   4.015
 6801TIP3    H220361   7.118   2.327   4.033
 6802TIP3   OH220362   6.037   2.266   4.424
 6802TIP3    H120363   6.096   2.337   4.450
 6802TIP3    H220364   6.080   2.225   4.350
 6803TIP3   OH220365   6.096   3.125   4.535
 6803TIP3    H120366   6.073   3.210   4.497
 6803TIP3    H220367   6.020   3.102   4.589
 6804TIP3   OH220368   5.489   2.814   3.769
 6804TIP3    H120369   5.444   2.838   3.688
 6804TIP3    H220370   5.519   2.897   3.806
 6805TIP3   OH220371   6.929   3.332   4.012
 6805TIP3    H120372   6.843   3.318   4.052
 6805TIP3    H220373   6.920   3.415   3.965
 6806TIP3   OH220374   7.218   2.230   4.373
 6806TIP3    H120375   7.130   2.246   4.339
 6806TIP3    H220376   7.277   2.260   4.304
 6807TIP3   OH220377   6.513   1.863   4.360
 6807TIP3    H120378   6.499   1.770   4.374
 6807TIP3    H220379   6.439   1.905   4.404
 6808TIP3   OH220380   6.633   3.373   3.681
 6808TIP3    H120381   6.675   3.288   3.667
 6808TIP3    H220382   6.694   3.437   3.643
 6809TIP3   OH220383   6.775   3.158   3.594
 6809TIP3    H120384   6.739   3.080   3.552
 6809TIP3    H220385   6.813   3.126   3.676
 6810TIP3   OH220386   7.156   3.238   4.351
 6810TIP3    H120387   7.141   3.160   4.297
 6810TIP3    H220388   7.138   3.311   4.292
 6811TIP3   OH220389   6.449   2.636   3.611
 6811TIP3    H120390   6.370   2.685   3.591
 6811TIP3    H220391   6.494   2.628   3.528
 6812TIP3   OH220392   6.408   2.420   3.324
 6812TIP3    H120393   6.472   2.473   3.372
 6812TIP3    H220394   6.461   2.355   3.276
 6813TIP3   OH220395   7.351   2.887   4.203
 6813TIP3    H120396   7.265   2.930   4.209
 6813TIP3    H220397   7.378   2.901   4.113
 6814TIP3   OH220398   6.797   2.718   3.584
 6814TIP3    H120399   6.742   2.740   3.659
 6814TIP3    H220400   6.880   2.690   3.623
 6815TIP3   OH220401   7.027   2.755   4.497
 6815TIP3    H120402   7.023   2.837   4.547
 6815TIP3    H220403   6.943   2.751   4.452
 6816TIP3   OH220404   6.028   2.710   4.000
 6816TIP3    H120405   5.986   2.655   3.935
 6816TIP3    H220406   6.103   2.658   4.031
 6817TIP3   OH220407   6.159   3.126   4.146
 6817TIP3    H120408   6.135   3.090   4.060
 6817TIP3    H220409   6.246   3.089   4.163
 6818TIP3   OH220410   6.164   2.684   4.356
 6818TIP3    H120411   6.194   2.656   4.269
 6818TIP3    H220412   6.207   2.768   4.371
 6819TIP3   OH220413   6.692   3.322   4.134
 6819TIP3    H120414   6.678   3.399   4.189
 6819TIP3    H220415   6.674   3.248   4.192
 6820TIP3   OH220416   6.299   3.240   4.679
 6820TIP3    H120417   6.242   3.301   4.725
 6820TIP3    H220418   6.240   3.186   4.627
 6821TIP3   OH220419   6.633   2.579   3.407
 6821TIP3    H120420   6.691   2.635   3.458
 6821TIP3    H220421   6.658   2.596   3.316
 6822TIP3   OH220422   6.056   2.796   4.786
 6822TIP3    H120423   6.062   2.883   4.826
 6822TIP3    H220424   5.964   2.772   4.795
 6823TIP3   OH220425   6.380   3.251   3.685
 6823TIP3    H120426   6.459   3.304   3.695
 6823TIP3    H220427   6.318   3.309   3.640
 6824TIP3   OH220428   6.093   3.406   4.767
 6824TIP3    H120429   6.061   3.409   4.677
 6824TIP3    H220430   6.016   3.384   4.819
 6825TIP3   OH220431   7.143   1.812   3.453
 6825TIP3    H120432   7.064   1.829   3.505
 6825TIP3    H220433   7.161   1.895   3.409
 6826TIP3   OH220434   5.892   2.557   3.805
 6826TIP3    H120435   5.824   2.598   3.751
 6826TIP3    H220436   5.862   2.467   3.816
 6827TIP3   OH220437   6.954   3.183   3.008
 6827TIP3    H120438   6.963   3.274   2.980
 6827TIP3    H220439   7.041   3.146   2.996
 6828TIP3   OH220440   5.675   2.939   4.711
 6828TIP3    H120441   5.607   2.921   4.646
 6828TIP3    H220442   5.711   2.853   4.732
 6829TIP3   OH220443   5.529   3.134   4.344
 6829TIP3    H120444   5.624   3.126   4.335
 6829TIP3    H220445   5.516   3.211   4.399
 6830TIP3   OH220446   7.391   3.586   4.402
 6830TIP3    H120447   7.394   3.491   4.414
 6830TIP3    H220448   7.311   3.612   4.447
 6831TIP3   OH220449   6.495   3.369   4.538
 6831TIP3    H120450   6.495   3.460   4.568
 6831TIP3    H220451   6.426   3.327   4.589
 6832TIP3   OH220452   6.264   3.499   3.484
 6832TIP3    H120453   6.216   3.477   3.404
 6832TIP3    H220454   6.227   3.582   3.512
 6833TIP3   OH220455   5.700   3.341   3.875
 6833TIP3    H120456   5.744   3.336   3.959
 6833TIP3    H220457   5.647   3.262   3.870
 6834TIP3   OH220458   6.465   3.400   3.128
 6834TIP3    H120459   6.519   3.331   3.090
 6834TIP3    H220460   6.494   3.407   3.218
 6835TIP3   OH220461   6.514   3.445   3.400
 6835TIP3    H120462   6.424   3.459   3.433
 6835TIP3    H220463   6.558   3.399   3.471
 6836TIP3   OH220464   7.281   2.713   4.672
 6836TIP3    H120465   7.198   2.724   4.626
 6836TIP3    H220466   7.300   2.620   4.665
 6837TIP3   OH220467   5.878   3.122   4.700
 6837TIP3    H120468   5.927   3.106   4.780
 6837TIP3    H220469   5.804   3.061   4.704
 6838TIP3   OH220470   6.275   1.944   4.489
 6838TIP3    H120471   6.191   1.912   4.457
 6838TIP3    H220472   6.253   2.025   4.536
 6839TIP3   OH220473   6.814   2.060   4.682
 6839TIP3    H120474   6.881   2.030   4.743
 6839TIP3    H220475   6.731   2.040   4.726
 6840TIP3   OH220476   7.054   2.494   4.606
 6840TIP3    H120477   6.999   2.487   4.684
 6840TIP3    H220478   7.025   2.574   4.563
 6841TIP3   OH220479   6.713   2.620   3.152
 6841TIP3    H120480   6.675   2.596   3.068
 6841TIP3    H220481   6.799   2.657   3.130
 6842TIP3   OH220482   6.421   1.992   3.459
 6842TIP3    H120483   6.390   1.990   3.550
 6842TIP3    H220484   6.386   1.912   3.421
 6843TIP3   OH220485   6.210   2.464   4.507
 6843TIP3    H120486   6.159   2.481   4.586
 6843TIP3    H220487   6.196   2.542   4.453
 6844TIP3   OH220488   6.091   2.347   4.017
 6844TIP3    H120489   6.002   2.322   4.039
 6844TIP3    H220490   6.107   2.309   3.931
 6845TIP3   OH220491   6.586   2.436   3.748
 6845TIP3    H120492   6.536   2.504   3.703
 6845TIP3    H220493   6.641   2.398   3.679
 6846TIP3   OH220494   6.761   2.708   4.835
 6846TIP3    H120495   6.735   2.637   4.893
 6846TIP3    H220496   6.854   2.721   4.853
 6847TIP3   OH220497   6.740   2.459   3.978
 6847TIP3    H120498   6.676   2.485   3.912
 6847TIP3    H220499   6.781   2.380   3.943
 6848TIP3   OH220500   6.030   2.489   4.714
 6848TIP3    H120501   6.056   2.552   4.780
 6848TIP3    H220502   6.018   2.407   4.762
 6849TIP3   OH220503   6.077   1.971   3.423
 6849TIP3    H120504   6.071   1.966   3.519
 6849TIP3    H220505   6.001   2.022   3.397
 6850TIP3   OH220506   5.623   2.008   4.296
 6850TIP3    H120507   5.697   2.041   4.347
 6850TIP3    H220508   5.662   1.980   4.213
 6851TIP3   OH220509   5.588   1.994   3.811
 6851TIP3    H120510   5.637   2.025   3.735
 6851TIP3    H220511   5.527   2.064   3.832
 6852TIP3   OH220512   6.757   2.702   4.406
 6852TIP3    H120513   6.788   2.635   4.345
 6852TIP3    H220514   6.723   2.653   4.481
 6853TIP3   OH220515   6.423   2.183   4.082
 6853TIP3    H120516   6.347   2.172   4.139
 6853TIP3    H220517   6.498   2.154   4.135
 6854TIP3   OH220518   5.854   2.225   4.085
 6854TIP3    H120519   5.763   2.233   4.057
 6854TIP3    H220520   5.878   2.135   4.063
 6855TIP3   OH220521   6.119   2.221   3.777
 6855TIP3    H120522   6.213   2.233   3.759
 6855TIP3    H220523   6.076   2.242   3.694
 6856TIP3   OH220524   6.921   2.252   4.300
 6856TIP3    H120525   6.866   2.255   4.378
 6856TIP3    H220526   6.878   2.187   4.243
 6857TIP3   OH220527   5.969   2.259   3.550
 6857TIP3    H120528   5.898   2.212   3.506
 6857TIP3    H220529   6.022   2.295   3.479
 6858TIP3   OH220530   7.088   3.935   4.501
 6858TIP3    H120531   7.083   3.956   4.408
 6858TIP3    H220532   7.166   3.982   4.533
 6859TIP3   OH220533   6.042   3.047   4.923
 6859TIP3    H120534   6.121   3.074   4.968
 6859TIP3    H220535   5.975   3.041   4.992
 6860TIP3   OH220536   6.505   2.501   4.180
 6860TIP3    H120537   6.570   2.458   4.124
 6860TIP3    H220538   6.507   2.452   4.262
 6861TIP3   OH220539   6.024   1.983   4.058
 6861TIP3    H120540   5.988   1.909   4.106
 6861TIP3    H220541   6.073   1.944   3.986
 6862TIP3   OH220542   6.479   2.397   4.467
 6862TIP3    H120543   6.390   2.431   4.480
 6862TIP3    H220544   6.535   2.458   4.514
 6863TIP3   OH220545   6.212   2.785   3.562
 6863TIP3    H120546   6.144   2.719   3.548
 6863TIP3    H220547   6.196   2.819   3.650
 6864TIP3   OH220548   7.113   3.022   4.186
 6864TIP3    H120549   7.134   3.072   4.108
 6864TIP3    H220550   7.032   2.975   4.164
 6865TIP3   OH220551   6.671   2.100   3.423
 6865TIP3    H120552   6.579   2.077   3.436
 6865TIP3    H220553   6.678   2.190   3.454
 6866TIP3   OH220554   6.625   3.111   4.557
 6866TIP3    H120555   6.641   3.081   4.646
 6866TIP3    H220556   6.577   3.193   4.568
 6867TIP3   OH220557   6.743   2.348   3.531
 6867TIP3    H120558   6.838   2.349   3.546
 6867TIP3    H220559   6.727   2.425   3.477
 6868TIP3   OH220560   5.915   2.812   4.234
 6868TIP3    H120561   5.948   2.782   4.150
 6868TIP3    H220562   5.951   2.749   4.297
 6869TIP3   OH220563   6.360   2.936   3.387
 6869TIP3    H120564   6.315   3.020   3.388
 6869TIP3    H220565   6.308   2.880   3.445
 6870TIP3   OH220566   5.792   2.724   4.851
 6870TIP3    H120567   5.807   2.711   4.944
 6870TIP3    H220568   5.722   2.663   4.828
 6871TIP3   OH220569   6.519   2.843   4.867
 6871TIP3    H120570   6.454   2.786   4.826
 6871TIP3    H220571   6.604   2.807   4.841
 6872TIP3   OH220572   6.775   3.376   4.451
 6872TIP3    H120573   6.681   3.361   4.465
 6872TIP3    H220574   6.804   3.421   4.531
 6873TIP3   OH220575   7.182   2.433   3.364
 6873TIP3    H120576   7.118   2.387   3.308
 6873TIP3    H220577   7.181   2.523   3.331
 6874TIP3   OH220578   7.405   3.300   4.437
 6874TIP3    H120579   7.310   3.292   4.436
 6874TIP3    H220580   7.434   3.266   4.352
 6875TIP3   OH220581   6.899   3.251   3.277
 6875TIP3    H120582   6.863   3.188   3.339
 6875TIP3    H220583   6.902   3.204   3.194
 6876TIP3   OH220584   6.882   2.881   4.105
 6876TIP3    H120585   6.790   2.861   4.120
 6876TIP3    H220586   6.917   2.803   4.062
 6877TIP3   OH220587   6.010   3.115   3.863
 6877TIP3    H120588   6.006   3.194   3.808
 6877TIP3    H220589   5.918   3.091   3.876
 6878TIP3   OH220590   5.573   2.418   3.572
 6878TIP3    H120591   5.620   2.498   3.594
 6878TIP3    H220592   5.499   2.416   3.632
 6879TIP3   OH220593   6.143   2.877   3.805
 6879TIP3    H120594   6.111   2.965   3.824
 6879TIP3    H220595   6.111   2.823   3.878
 6880TIP3   OH220596   6.284   3.456   4.331
 6880TIP3    H120597   6.324   3.526   4.280
 6880TIP3    H220598   6.357   3.415   4.378
 6881TIP3   OH220599   5.928   3.351   3.713
 6881TIP3    H120600   5.844   3.357   3.758
 6881TIP3    H220601   5.962   3.441   3.715
 6882TIP3   OH220602   6.669   3.089   4.290
 6882TIP3    H120603   6.657   3.090   4.385
 6882TIP3    H220604   6.740   3.027   4.275
 6883TIP3   OH220605   6.646   2.987   3.175
 6883TIP3    H120606   6.700   2.962   3.250
 6883TIP3    H220607   6.558   2.954   3.197
 6884TIP3   OH220608   6.915   3.620   4.340
 6884TIP3    H120609   6.840   3.561   4.341
 6884TIP3    H220610   6.897   3.682   4.269
 6885TIP3   OH220611   6.985   3.480   2.988
 6885TIP3    H120612   6.977   3.510   2.897
 6885TIP3    H220613   6.900   3.501   3.027
 6886TIP3   OH220614   5.997   2.233   4.857
 6886TIP3    H120615   5.902   2.237   4.866
 6886TIP3    H220616   6.026   2.177   4.928
 6887TIP3   OH220617   6.807   2.920   3.391
 6887TIP3    H120618   6.790   2.853   3.458
 6887TIP3    H220619   6.901   2.916   3.376
 6888TIP3   OH220620   5.721   3.316   4.490
 6888TIP3    H120621   5.771   3.240   4.521
 6888TIP3    H220622   5.745   3.387   4.548
 6889TIP3   OH220623   6.007   2.959   3.174
 6889TIP3    H120624   6.023   2.870   3.144
 6889TIP3    H220625   5.988   2.951   3.267
 6890TIP3   OH220626   5.954   2.969   3.445
 6890TIP3    H120627   6.027   2.937   3.498
 6890TIP3    H220628   5.957   3.064   3.454
 6891TIP3   OH220629   5.684   2.662   3.650
 6891TIP3    H120630   5.619   2.704   3.707
 6891TIP3    H220631   5.700   2.727   3.581
 6892TIP3   OH220632   6.830   2.307   4.559
 6892TIP3    H120633   6.920   2.332   4.577
 6892TIP3    H220634   6.820   2.222   4.603
 6893TIP3   OH220635   6.717   2.047   3.709
 6893TIP3    H120636   6.710   2.068   3.615
 6893TIP3    H220637   6.758   2.125   3.747
 6894TIP3   OH220638   6.219   3.167   3.395
 6894TIP3    H120639   6.133   3.188   3.432
 6894TIP3    H220640   6.233   3.233   3.328
 6895TIP3   OH220641   6.404   2.234   3.811
 6895TIP3    H120642   6.468   2.302   3.792
 6895TIP3    H220643   6.410   2.220   3.906
 6896TIP3   OH220644   6.678   2.544   4.612
 6896TIP3    H120645   6.705   2.589   4.692
 6896TIP3    H220646   6.727   2.462   4.613
 6897TIP3   OH220647   6.551   1.948   3.907
 6897TIP3    H120648   6.564   2.013   3.976
 6897TIP3    H220649   6.610   1.976   3.837
 6898TIP3   OH220650   5.964   3.242   3.462
 6898TIP3    H120651   5.936   3.309   3.400
 6898TIP3    H220652   5.948   3.281   3.548
 6899TIP3   OH220653   6.065   1.957   3.699
 6899TIP3    H120654   6.060   2.045   3.738
 6899TIP3    H220655   6.158   1.934   3.704
 6900TIP3   OH220656   7.317   2.445   4.590
 6900TIP3    H120657   7.223   2.451   4.607
 6900TIP3    H220658   7.323   2.391   4.511
 6901TIP3   OH220659   6.967   2.639   3.985
 6901TIP3    H120660   6.891   2.581   3.993
 6901TIP3    H220661   7.038   2.593   4.030
 6902TIP3   OH220662   5.686   2.863   3.447
 6902TIP3    H120663   5.746   2.936   3.462
 6902TIP3    H220664   5.734   2.805   3.388
 6903TIP3   OH220665   5.622   2.147   3.588
 6903TIP3    H120666   5.624   2.242   3.587
 6903TIP3    H220667   5.540   2.124   3.544
 6904TIP3   OH220668   6.938   3.603   3.930
 6904TIP3    H120669   6.892   3.648   3.860
 6904TIP3    H220670   7.031   3.617   3.911
 6905TIP3   OH220671   6.011   1.864   4.458
 6905TIP3    H120672   5.983   1.833   4.372
 6905TIP3    H220673   6.002   1.788   4.516
 6906TIP3   OH220674   5.547   3.085   3.837
 6906TIP3    H120675   5.484   3.111   3.904
 6906TIP3    H220676   5.515   3.125   3.756
 6907TIP3   OH220677   5.712   3.629   4.913
 6907TIP3    H120678   5.797   3.630   4.958
 6907TIP3    H220679   5.688   3.537   4.909
 6908TIP3   OH220680   6.190   3.586   4.954
 6908TIP3    H120681   6.284   3.566   4.962
 6908TIP3    H220682   6.159   3.527   4.885
 6909TIP3   OH220683   6.174   3.161   3.088
 6909TIP3    H120684   6.118   3.091   3.121
 6909TIP3    H220685   6.247   3.115   3.046
 6910TIP3   OH220686   6.830   3.496   4.693
 6910TIP3    H120687   6.820   3.428   4.759
 6910TIP3    H220688   6.905   3.548   4.722
 6911TIP3   OH220689   6.611   3.204   3.000
 6911TIP3    H120690   6.644   3.133   3.054
 6911TIP3    H220691   6.658   3.195   2.917
 6912TIP3   OH220692   5.837   3.032   5.111
 6912TIP3    H120693   5.856   2.939   5.119
 6912TIP3    H220694   5.753   3.037   5.067
 6913TIP3   OH220695   5.833   2.676   3.315
 6913TIP3    H120696   5.885   2.645   3.389
 6913TIP3    H220697   5.895   2.682   3.242
 6914TIP3   OH220698   6.446   3.119   4.885
 6914TIP3    H120699   6.404   3.139   4.801
 6914TIP3    H220700   6.476   3.028   4.876
 6915TIP3   OH220701   6.333   2.879   3.120
 6915TIP3    H120702   6.334   2.892   3.214
 6915TIP3    H220703   6.334   2.784   3.108
 6916TIP3   OH220704   6.941   3.131   4.496
 6916TIP3    H120705   7.014   3.175   4.452
 6916TIP3    H220706   6.865   3.188   4.480
 6917TIP3   OH220707   5.962   2.773   5.097
 6917TIP3    H120708   6.033   2.716   5.069
 6917TIP3    H220709   5.988   2.803   5.184
 6918TIP3   OH220710   6.021   2.586   3.524
 6918TIP3    H120711   5.995   2.548   3.608
 6918TIP3    H220712   6.061   2.514   3.476
 6919TIP3   OH220713   6.295   2.655   4.758
 6919TIP3    H120714   6.216   2.709   4.759
 6919TIP3    H220715   6.346   2.687   4.684
 6920TIP3   OH220716   6.129   2.385   3.365
 6920TIP3    H120717   6.102   2.390   3.273
 6920TIP3    H220718   6.224   2.384   3.362
 6921TIP3   OH220719   6.815   3.054   4.891
 6921TIP3    H120720   6.887   3.018   4.838
 6921TIP3    H220721   6.804   2.990   4.961
 6922TIP3   OH220722   6.943   2.712   3.034
 6922TIP3    H120723   6.934   2.664   2.953
 6922TIP3    H220724   6.910   2.800   3.014
 6923TIP3   OH220725   6.418   2.441   4.877
 6923TIP3    H120726   6.419   2.363   4.822
 6923TIP3    H220727   6.375   2.507   4.824
 6924TIP3   OH220728   6.419   2.228   4.689
 6924TIP3    H120729   6.450   2.268   4.608
 6924TIP3    H220730   6.328   2.205   4.672
 6925TIP3   OH220731   6.444   2.765   4.566
 6925TIP3    H120732   6.527   2.769   4.519
 6925TIP3    H220733   6.387   2.826   4.518
 6926TIP3   OH220734   7.028   2.727   4.943
 6926TIP3    H120735   7.070   2.641   4.949
 6926TIP3    H220736   7.095   2.783   4.903
 6927TIP3   OH220737   7.069   2.986   4.681
 6927TIP3    H120738   7.010   3.036   4.625
 6927TIP3    H220739   7.156   3.002   4.645
 6928TIP3   OH220740   6.297   2.545   5.114
 6928TIP3    H120741   6.230   2.479   5.132
 6928TIP3    H220742   6.329   2.524   5.026
 6929TIP3   OH220743   6.550   1.990   4.760
 6929TIP3    H120744   6.503   2.070   4.736
 6929TIP3    H220745   6.486   1.920   4.748
 6930TIP3   OH220746   6.673   2.490   4.975
 6930TIP3    H120747   6.660   2.476   5.069
 6930TIP3    H220748   6.589   2.468   4.935
 6931TIP3   OH220749   6.919   2.450   4.836
 6931TIP3    H120750   6.843   2.445   4.893
 6931TIP3    H220751   6.991   2.415   4.888
 6932TIP3   OH220752   7.153   2.385   4.980
 6932TIP3    H120753   7.162   2.291   4.993
 6932TIP3    H220754   7.146   2.421   5.069
 6933TIP3   OH220755   6.136   2.326   5.170
 6933TIP3    H120756   6.137   2.237   5.134
 6933TIP3    H220757   6.172   2.317   5.258
 6934TIP3   OH220758   6.645   1.997   5.017
 6934TIP3    H120759   6.710   1.926   5.012
 6934TIP3    H220760   6.605   1.997   4.930
 6935TIP3   OH220761   6.712   2.213   5.174
 6935TIP3    H120762   6.692   2.143   5.112
 6935TIP3    H220763   6.636   2.272   5.168
 6936TIP3   OH220764   5.935   3.439   3.269
 6936TIP3    H120765   6.029   3.431   3.253
 6936TIP3    H220766   5.903   3.492   3.196
 6937TIP3   OH220767   5.414   2.826   3.494
 6937TIP3    H120768   5.505   2.846   3.473
 6937TIP3    H220769   5.400   2.739   3.458
 6938TIP3   OH220770   5.329   3.433   3.906
 6938TIP3    H120771   5.263   3.376   3.866
 6938TIP3    H220772   5.373   3.376   3.969
 6939TIP3   OH220773   5.466   3.282   4.093
 6939TIP3    H120774   5.449   3.211   4.156
 6939TIP3    H220775   5.516   3.347   4.143
 6940TIP3   OH220776   7.195   3.688   3.892
 6940TIP3    H120777   7.218   3.713   3.982
 6940TIP3    H220778   7.257   3.736   3.838
 6941TIP3   OH220779   7.222   3.703   4.174
 6941TIP3    H120780   7.171   3.622   4.168
 6941TIP3    H220781   7.293   3.682   4.234
 6942TIP3   OH220782   7.266   3.387   4.748
 6942TIP3    H120783   7.194   3.393   4.811
 6942TIP3    H220784   7.308   3.472   4.751
 6943TIP3   OH220785   7.081   2.898   3.373
 6943TIP3    H120786   7.152   2.947   3.331
 6943TIP3    H220787   7.122   2.855   3.448
 6944TIP3   OH220788   7.209   2.768   3.577
 6944TIP3    H120789   7.142   2.722   3.626
 6944TIP3    H220790   7.269   2.802   3.643
 6945TIP3   OH220791   7.271   3.161   4.002
 6945TIP3    H120792   7.321   3.090   3.961
 6945TIP3    H220793   7.254   3.223   3.931
 6946TIP3   OH220794   7.093   3.461   4.194
 6946TIP3    H120795   7.023   3.499   4.247
 6946TIP3    H220796   7.047   3.413   4.124
 6947TIP3   OH220797   7.134   2.663   3.234
 6947TIP3    H120798   7.086   2.660   3.152
 6947TIP3    H220799   7.107   2.745   3.275
 6948TIP3   OH220800   7.008   2.339   3.179
 6948TIP3    H120801   6.985   2.382   3.097
 6948TIP3    H220802   6.988   2.246   3.164
 6949TIP3   OH220803   7.024   2.621   3.716
 6949TIP3    H120804   7.030   2.526   3.703
 6949TIP3    H220805   7.009   2.631   3.810
 6950TIP3   OH220806   5.651   2.693   4.463
 6950TIP3    H120807   5.644   2.660   4.374
 6950TIP3    H220808   5.745   2.696   4.481
 6951TIP3   OH220809   7.316   3.047   4.573
 6951TIP3    H120810   7.384   2.980   4.563
 6951TIP3    H220811   7.336   3.111   4.504
 6952TIP3   OH220812   7.500   2.847   4.584
 6952TIP3    H120813   7.422   2.802   4.619
 6952TIP3    H220814   7.572   2.786   4.601
 6953TIP3   OH220815   6.964   2.071   3.145
 6953TIP3    H120816   7.033   2.046   3.207
 6953TIP3    H220817   6.888   2.020   3.172
 6954TIP3   OH220818   7.026   2.334   3.607
 6954TIP3    H120819   7.062   2.247   3.627
 6954TIP3    H220820   7.080   2.366   3.535
 6955TIP3   OH220821   7.185   2.518   4.107
 6955TIP3    H120822   7.268   2.540   4.064
 6955TIP3    H220823   7.196   2.548   4.197
 6956TIP3   OH220824   7.256   2.660   4.338
 6956TIP3    H120825   7.177   2.688   4.384
 6956TIP3    H220826   7.287   2.739   4.293
 6957TIP3   OH220827   5.871   2.379   5.141
 6957TIP3    H120828   5.967   2.375   5.141
 6957TIP3    H220829   5.843   2.294   5.176
 6958TIP3   OH220830   7.707   2.252   4.887
 6958TIP3    H120831   7.763   2.186   4.847
 6958TIP3    H220832   7.673   2.303   4.814
 6959TIP3   OH220833   7.130   2.084   3.655
 6959TIP3    H120834   7.175   2.077   3.739
 6959TIP3    H220835   7.070   2.009   3.654
 6960TIP3   OH220836   5.831   2.075   4.470
 6960TIP3    H120837   5.889   1.998   4.476
 6960TIP3    H220838   5.891   2.149   4.460
 6961TIP3   OH220839   5.631   2.347   4.539
 6961TIP3    H120840   5.678   2.340   4.455
 6961TIP3    H220841   5.658   2.431   4.575
 6962TIP3   OH220842   7.568   2.383   4.692
 6962TIP3    H120843   7.486   2.429   4.710
 6962TIP3    H220844   7.543   2.309   4.637
 6963TIP3   OH220845   7.211   2.022   3.280
 6963TIP3    H120846   7.250   1.953   3.227
 6963TIP3    H220847   7.272   2.095   3.274
 6964TIP3   OH220848   5.615   1.853   4.042
 6964TIP3    H120849   5.523   1.844   4.070
 6964TIP3    H220850   5.611   1.909   3.965
 6965TIP3   OH220851   6.785   3.554   3.546
 6965TIP3    H120852   6.831   3.542   3.463
 6965TIP3    H220853   6.832   3.626   3.589
 6966TIP3   OH220854   5.834   1.931   4.855
 6966TIP3    H120855   5.785   1.927   4.937
 6966TIP3    H220856   5.773   1.969   4.792
 6967TIP3   OH220857   5.874   3.362   4.933
 6967TIP3    H120858   5.784   3.336   4.913
 6967TIP3    H220859   5.886   3.337   5.025
 6968TIP3   OH220860   6.056   3.398   4.479
 6968TIP3    H120861   6.004   3.470   4.442
 6968TIP3    H220862   6.142   3.407   4.437
 6969TIP3   OH220863   6.498   3.636   4.618
 6969TIP3    H120864   6.537   3.633   4.706
 6969TIP3    H220865   6.560   3.687   4.566
 6970TIP3   OH220866   6.676   3.791   4.480
 6970TIP3    H120867   6.741   3.737   4.435
 6970TIP3    H220868   6.728   3.846   4.539
 6971TIP3   OH220869   7.469   2.144   4.577
 6971TIP3    H120870   7.381   2.136   4.541
 6971TIP3    H220871   7.506   2.056   4.569
 6972TIP3   OH220872   5.728   3.652   4.504
 6972TIP3    H120873   5.641   3.683   4.478
 6972TIP3    H220874   5.739   3.688   4.593
 6973TIP3   OH220875   5.964   3.631   4.362
 6973TIP3    H120876   5.881   3.642   4.407
 6973TIP3    H220877   5.947   3.659   4.272
 6974TIP3   OH220878   6.391   3.656   4.160
 6974TIP3    H120879   6.320   3.668   4.097
 6974TIP3    H220880   6.401   3.741   4.202
 6975TIP3   OH220881   6.659   3.597   4.213
 6975TIP3    H120882   6.567   3.609   4.194
 6975TIP3    H220883   6.703   3.669   4.167
 6976TIP3   OH220884   6.872   3.787   4.124
 6976TIP3    H120885   6.855   3.869   4.077
 6976TIP3    H220886   6.895   3.724   4.056
 6977TIP3   OH220887   5.643   3.440   4.250
 6977TIP3    H120888   5.667   3.414   4.339
 6977TIP3    H220889   5.710   3.400   4.195
 6978TIP3   OH220890   5.838   3.314   4.110
 6978TIP3    H120891   5.850   3.232   4.158
 6978TIP3    H220892   5.926   3.350   4.102
 6979TIP3   OH220893   6.108   3.405   4.112
 6979TIP3    H120894   6.132   3.314   4.097
 6979TIP3    H220895   6.151   3.429   4.194
 6980TIP3   OH220896   6.652   2.061   4.183
 6980TIP3    H120897   6.628   1.990   4.243
 6980TIP3    H220898   6.734   2.032   4.143
 6981TIP3   OH220899   7.297   2.090   3.868
 6981TIP3    H120900   7.351   2.012   3.853
 6981TIP3    H220901   7.350   2.162   3.832
 6982TIP3   OH220902   5.923   1.770   4.211
 6982TIP3    H120903   5.832   1.742   4.214
 6982TIP3    H220904   5.973   1.688   4.206
 6983TIP3   OH220905   5.716   1.645   3.863
 6983TIP3    H120906   5.745   1.697   3.788
 6983TIP3    H220907   5.688   1.710   3.928
 6984TIP3   OH220908   6.372   1.805   4.094
 6984TIP3    H120909   6.423   1.847   4.024
 6984TIP3    H220910   6.405   1.845   4.175
 6985TIP3   OH220911   6.884   1.956   4.084
 6985TIP3    H120912   6.963   1.937   4.032
 6985TIP3    H220913   6.871   1.876   4.135
 6986TIP3   OH220914   6.942   1.877   3.636
 6986TIP3    H120915   6.858   1.917   3.657
 6986TIP3    H220916   6.946   1.799   3.690
 6987TIP3   OH220917   5.428   3.220   3.634
 6987TIP3    H120918   5.346   3.183   3.604
 6987TIP3    H220919   5.423   3.313   3.612
 6988TIP3   OH220920   5.835   1.798   3.622
 6988TIP3    H120921   5.879   1.735   3.564
 6988TIP3    H220922   5.906   1.852   3.657
 6989TIP3   OH220923   6.342   1.983   3.724
 6989TIP3    H120924   6.401   1.932   3.778
 6989TIP3    H220925   6.362   2.074   3.746
 6990TIP3   OH220926   6.205   3.397   3.219
 6990TIP3    H120927   6.289   3.426   3.185
 6990TIP3    H220928   6.178   3.325   3.162
 6991TIP3   OH220929   6.935   3.515   3.301
 6991TIP3    H120930   6.921   3.421   3.305
 6991TIP3    H220931   6.868   3.548   3.241
 6992TIP3   OH220932   6.134   2.053   5.105
 6992TIP3    H120933   6.095   1.983   5.158
 6992TIP3    H220934   6.226   2.054   5.131
 6993TIP3   OH220935   6.385   2.049   5.223
 6993TIP3    H120936   6.467   2.025   5.181
 6993TIP3    H220937   6.371   1.981   5.289
 6994TIP3   OH220938   5.503   3.230   3.275
 6994TIP3    H120939   5.498   3.260   3.366
 6994TIP3    H220940   5.589   3.188   3.268
 6995TIP3   OH220941   7.212   2.113   5.009
 6995TIP3    H120942   7.226   2.083   5.099
 6995TIP3    H220943   7.298   2.107   4.968
 6996TIP3   OH220944   7.144   3.665   4.499
 6996TIP3    H120945   7.068   3.631   4.451
 6996TIP3    H220946   7.124   3.759   4.510
 6997TIP3   OH220947   7.711   2.928   4.013
 6997TIP3    H120948   7.731   2.857   4.073
 6997TIP3    H220949   7.789   2.984   4.015
 6998TIP3   OH220950   7.684   3.346   3.735
 6998TIP3    H120951   7.673   3.250   3.736
 6998TIP3    H220952   7.778   3.359   3.732
 6999TIP3   OH220953   7.387   2.552   3.517
 6999TIP3    H120954   7.335   2.631   3.531
 6999TIP3    H220955   7.325   2.487   3.484
 7000TIP3   OH220956   7.456   2.833   3.701
 7000TIP3    H120957   7.498   2.755   3.735
 7000TIP3    H220958   7.491   2.842   3.612
 7001TIP3   OH220959   8.316   3.770   3.329
 7001TIP3    H120960   8.408   3.744   3.331
 7001TIP3    H220961   8.290   3.772   3.421
 7002TIP3   OH220962   8.209   3.257   3.696
 7002TIP3    H120963   8.216   3.216   3.610
 7002TIP3    H220964   8.292   3.304   3.707
 7003TIP3   OH220965   7.938   2.425   3.703
 7003TIP3    H120966   7.947   2.492   3.635
 7003TIP3    H220967   7.904   2.348   3.656
 7004TIP3   OH220968   7.598   2.623   3.800
 7004TIP3    H120969   7.676   2.603   3.851
 7004TIP3    H220970   7.606   2.569   3.721
 7005TIP3   OH220971   8.020   2.823   3.593
 7005TIP3    H120972   8.110   2.794   3.607
 7005TIP3    H220973   7.974   2.745   3.563
 7006TIP3   OH220974   7.959   2.417   4.139
 7006TIP3    H120975   7.903   2.446   4.067
 7006TIP3    H220976   7.906   2.432   4.218
 7007TIP3   OH220977   8.069   3.186   3.929
 7007TIP3    H120978   8.005   3.246   3.966
 7007TIP3    H220979   8.107   3.234   3.855
 7008TIP3   OH220980   7.827   2.525   3.923
 7008TIP3    H120981   7.891   2.593   3.946
 7008TIP3    H220982   7.864   2.483   3.846
 7009TIP3   OH220983   7.893   3.380   4.023
 7009TIP3    H120984   7.870   3.465   3.986
 7009TIP3    H220985   7.817   3.355   4.076
 7010TIP3   OH220986   7.276   3.050   3.250
 7010TIP3    H120987   7.241   3.065   3.162
 7010TIP3    H220988   7.270   3.135   3.293
 7011TIP3   OH220989   7.815   2.970   3.482
 7011TIP3    H120990   7.772   2.913   3.419
 7011TIP3    H220991   7.889   2.918   3.515
 7012TIP3   OH220992   7.949   3.388   3.628
 7012TIP3    H120993   7.921   3.351   3.545
 7012TIP3    H220994   8.029   3.340   3.650
 7013TIP3   OH220995   7.969   2.936   3.843
 7013TIP3    H120996   7.983   2.912   3.752
 7013TIP3    H220997   7.997   3.028   3.848
 7014TIP3   OH220998   8.092   3.495   4.173
 7014TIP3    H120999   8.033   3.557   4.216
 7014TIP3    H221000   8.034   3.440   4.120
 7015TIP3   OH221001   7.845   3.064   4.267
 7015TIP3    H121002   7.849   3.148   4.313
 7015TIP3    H221003   7.756   3.033   4.282
 7016TIP3   OH221004   8.200   3.546   3.198
 7016TIP3    H121005   8.211   3.636   3.227
 7016TIP3    H221006   8.133   3.551   3.130
 7017TIP3   OH221007   7.888   3.664   4.254
 7017TIP3    H121008   7.854   3.665   4.165
 7017TIP3    H221009   7.811   3.641   4.308
 7018TIP3   OH221010   7.693   2.806   3.296
 7018TIP3    H121011   7.634   2.860   3.243
 7018TIP3    H221012   7.647   2.723   3.305
 7019TIP3   OH221013   7.472   3.195   4.198
 7019TIP3    H121014   7.403   3.177   4.134
 7019TIP3    H221015   7.507   3.109   4.220
 7020TIP3   OH221016   7.325   3.398   3.818
 7020TIP3    H121017   7.420   3.384   3.824
 7020TIP3    H221018   7.307   3.468   3.881
 7021TIP3   OH221019   8.277   3.615   4.013
 7021TIP3    H121020   8.283   3.704   4.048
 7021TIP3    H221021   8.211   3.572   4.067
 7022TIP3   OH221022   8.061   3.754   2.972
 7022TIP3    H121023   8.016   3.733   2.891
 7022TIP3    H221024   8.024   3.838   2.999
 7023TIP3   OH221025   7.470   3.590   3.376
 7023TIP3    H121026   7.541   3.583   3.440
 7023TIP3    H221027   7.393   3.558   3.423
 7024TIP3   OH221028   8.325   3.714   2.915
 7024TIP3    H121029   8.234   3.734   2.937
 7024TIP3    H221030   8.333   3.620   2.929
 7025TIP3   OH221031   7.675   3.377   4.185
 7025TIP3    H121032   7.723   3.364   4.266
 7025TIP3    H221033   7.602   3.316   4.189
 7026TIP3   OH221034   8.059   2.194   3.997
 7026TIP3    H121035   7.978   2.167   3.955
 7026TIP3    H221036   8.039   2.279   4.035
 7027TIP3   OH221037   8.003   2.723   4.000
 7027TIP3    H121038   7.947   2.737   4.076
 7027TIP3    H221039   7.988   2.799   3.944
 7028TIP3   OH221040   7.889   2.603   3.499
 7028TIP3    H121041   7.801   2.576   3.524
 7028TIP3    H221042   7.903   2.563   3.414
 7029TIP3   OH221043   7.815   2.743   4.202
 7029TIP3    H121044   7.856   2.797   4.269
 7029TIP3    H221045   7.803   2.658   4.244
 7030TIP3   OH221046   7.870   2.179   2.896
 7030TIP3    H121047   7.855   2.189   2.990
 7030TIP3    H221048   7.810   2.240   2.855
 7031TIP3   OH221049   7.438   2.294   3.754
 7031TIP3    H121050   7.508   2.305   3.819
 7031TIP3    H221051   7.475   2.235   3.689
 7032TIP3   OH221052   7.381   2.254   3.290
 7032TIP3    H121053   7.434   2.291   3.220
 7032TIP3    H221054   7.317   2.322   3.310
 7033TIP3   OH221055   7.650   2.486   3.568
 7033TIP3    H121056   7.557   2.493   3.545
 7033TIP3    H221057   7.670   2.393   3.558
 7034TIP3   OH221058   7.929   2.484   3.253
 7034TIP3    H121059   8.011   2.498   3.205
 7034TIP3    H221060   7.861   2.499   3.189
 7035TIP3   OH221061   7.769   2.512   3.042
 7035TIP3    H121062   7.698   2.468   2.995
 7035TIP3    H221063   7.826   2.546   2.973
 7036TIP3   OH221064   7.838   3.306   4.411
 7036TIP3    H121065   7.917   3.332   4.458
 7036TIP3    H221066   7.771   3.298   4.479
 7037TIP3   OH221067   7.813   2.236   3.545
 7037TIP3    H121068   7.777   2.169   3.603
 7037TIP3    H221069   7.857   2.186   3.476
 7038TIP3   OH221070   8.271   2.651   3.992
 7038TIP3    H121071   8.179   2.672   3.976
 7038TIP3    H221072   8.310   2.734   4.018
 7039TIP3   OH221073   7.982   3.071   3.050
 7039TIP3    H121074   7.939   2.986   3.041
 7039TIP3    H221075   7.989   3.085   3.144
 7040TIP3   OH221076   8.378   3.338   4.074
 7040TIP3    H121077   8.401   3.314   4.164
 7040TIP3    H221078   8.358   3.431   4.079
 7041TIP3   OH221079   7.720   3.077   3.723
 7041TIP3    H121080   7.743   3.039   3.638
 7041TIP3    H221081   7.728   3.004   3.785
 7042TIP3   OH221082   8.128   3.191   2.852
 7042TIP3    H121083   8.098   3.280   2.870
 7042TIP3    H221084   8.090   3.138   2.922
 7043TIP3   OH221085   7.588   2.981   4.337
 7043TIP3    H121086   7.600   2.964   4.431
 7043TIP3    H221087   7.518   2.921   4.311
 7044TIP3   OH221088   8.316   3.098   4.355
 7044TIP3    H121089   8.252   3.050   4.302
 7044TIP3    H221090   8.399   3.053   4.339
 7045TIP3   OH221091   7.813   3.373   3.351
 7045TIP3    H121092   7.809   3.451   3.295
 7045TIP3    H221093   7.722   3.342   3.356
 7046TIP3   OH221094   7.963   3.138   3.318
 7046TIP3    H121095   7.919   3.223   3.322
 7046TIP3    H221096   7.911   3.081   3.374
 7047TIP3   OH221097   8.076   3.710   3.818
 7047TIP3    H121098   8.111   3.785   3.769
 7047TIP3    H221099   8.151   3.675   3.865
 7048TIP3   OH221100   7.722   3.608   3.205
 7048TIP3    H121101   7.635   3.617   3.244
 7048TIP3    H221102   7.758   3.697   3.206
 7049TIP3   OH221103   7.789   2.493   4.346
 7049TIP3    H121104   7.694   2.496   4.352
 7049TIP3    H221105   7.815   2.430   4.413
 7050TIP3   OH221106   7.518   3.571   3.976
 7050TIP3    H121107   7.569   3.497   4.011
 7050TIP3    H221108   7.534   3.643   4.036
 7051TIP3   OH221109   7.803   3.214   2.664
 7051TIP3    H121110   7.801   3.123   2.634
 7051TIP3    H221111   7.779   3.209   2.757
 7052TIP3   OH221112   7.751   3.225   2.934
 7052TIP3    H121113   7.828   3.187   2.976
 7052TIP3    H221114   7.760   3.319   2.947
 7053TIP3   OH221115   7.518   2.951   3.149
 7053TIP3    H121116   7.434   2.963   3.194
 7053TIP3    H221117   7.509   3.002   3.069
 7054TIP3   OH221118   8.019   3.436   2.891
 7054TIP3    H121119   7.930   3.452   2.921
 7054TIP3    H221120   8.038   3.508   2.830
 7055TIP3   OH221121   7.761   3.502   2.949
 7055TIP3    H121122   7.729   3.567   2.887
 7055TIP3    H221123   7.745   3.541   3.035
 7056TIP3   OH221124   7.870   2.220   3.179
 7056TIP3    H121125   7.847   2.295   3.233
 7056TIP3    H221126   7.950   2.247   3.133
 7057TIP3   OH221127   7.486   3.129   2.931
 7057TIP3    H121128   7.563   3.182   2.945
 7057TIP3    H221129   7.512   3.066   2.863
 7058TIP3   OH221130   7.796   2.122   3.944
 7058TIP3    H121131   7.778   2.086   3.856
 7058TIP3    H221132   7.791   2.046   4.002
 7059TIP3   OH221133   7.508   3.885   4.398
 7059TIP3    H121134   7.592   3.885   4.445
 7059TIP3    H221135   7.482   3.793   4.396
 7060TIP3   OH221136   7.989   3.845   4.436
 7060TIP3    H121137   8.077   3.813   4.452
 7060TIP3    H221138   7.954   3.787   4.368
 7061TIP3   OH221139   7.961   3.415   2.576
 7061TIP3    H121140   7.897   3.351   2.606
 7061TIP3    H221141   8.046   3.373   2.591
 7062TIP3   OH221142   7.635   3.289   4.597
 7062TIP3    H121143   7.652   3.196   4.607
 7062TIP3    H221144   7.550   3.294   4.553
 7063TIP3   OH221145   7.618   2.943   2.785
 7063TIP3    H121146   7.648   2.895   2.863
 7063TIP3    H221147   7.693   2.945   2.727
 7064TIP3   OH221148   8.260   3.379   4.365
 7064TIP3    H121149   8.204   3.394   4.289
 7064TIP3    H221150   8.275   3.284   4.365
 7065TIP3   OH221151   8.110   3.122   2.593
 7065TIP3    H121152   8.130   3.151   2.682
 7065TIP3    H221153   8.029   3.073   2.602
 7066TIP3   OH221154   7.761   3.033   4.583
 7066TIP3    H121155   7.826   2.966   4.559
 7066TIP3    H221156   7.787   3.061   4.670
 7067TIP3   OH221157   7.837   2.839   3.022
 7067TIP3    H121158   7.786   2.801   3.094
 7067TIP3    H221159   7.868   2.763   2.973
 7068TIP3   OH221160   8.059   2.900   4.264
 7068TIP3    H121161   7.985   2.961   4.265
 7068TIP3    H221162   8.117   2.934   4.197
 7069TIP3   OH221163   7.925   2.632   2.851
 7069TIP3    H121164   7.879   2.640   2.768
 7069TIP3    H221165   8.015   2.612   2.826
 7070TIP3   OH221166   8.227   2.704   4.359
 7070TIP3    H121167   8.223   2.618   4.317
 7070TIP3    H221168   8.160   2.756   4.315
 7071TIP3   OH221169   8.225   2.476   4.193
 7071TIP3    H121170   8.234   2.522   4.109
 7071TIP3    H221171   8.139   2.434   4.187
 7072TIP3   OH221172   8.215   3.017   4.084
 7072TIP3    H121173   8.264   2.976   4.013
 7072TIP3    H221174   8.160   3.083   4.040
 7073TIP3   OH221175   8.098   2.803   4.599
 7073TIP3    H121176   8.031   2.737   4.615
 7073TIP3    H221177   8.129   2.786   4.510
 7074TIP3   OH221178   7.935   2.586   4.654
 7074TIP3    H121179   7.933   2.498   4.617
 7074TIP3    H221180   7.968   2.574   4.743
 7075TIP3   OH221181   7.721   3.704   2.762
 7075TIP3    H121182   7.815   3.697   2.752
 7075TIP3    H221183   7.692   3.754   2.685
 7076TIP3   OH221184   7.214   3.091   2.986
 7076TIP3    H121185   7.304   3.113   2.963
 7076TIP3    H221186   7.197   3.007   2.943
 7077TIP3   OH221187   7.137   3.676   3.375
 7077TIP3    H121188   7.058   3.625   3.357
 7077TIP3    H221189   7.179   3.630   3.448
 7078TIP3   OH221190   7.275   3.544   3.575
 7078TIP3    H121191   7.255   3.468   3.630
 7078TIP3    H221192   7.320   3.604   3.633
 7079TIP3   OH221193   7.446   2.953   3.947
 7079TIP3    H121194   7.441   2.918   3.858
 7079TIP3    H221195   7.539   2.953   3.968
 7080TIP3   OH221196   7.669   2.640   4.637
 7080TIP3    H121197   7.764   2.632   4.631
 7080TIP3    H221198   7.640   2.554   4.667
 7081TIP3   OH221199   7.623   2.333   3.960
 7081TIP3    H121200   7.678   2.254   3.964
 7081TIP3    H221201   7.686   2.405   3.954
 7082TIP3   OH221202   7.431   2.606   4.027
 7082TIP3    H121203   7.473   2.589   3.942
 7082TIP3    H221204   7.469   2.688   4.057
 7083TIP3   OH221205   7.412   2.112   3.523
 7083TIP3    H121206   7.325   2.099   3.560
 7083TIP3    H221207   7.399   2.170   3.448
 7084TIP3   OH221208   7.630   2.196   4.347
 7084TIP3    H121209   7.577   2.185   4.427
 7084TIP3    H221210   7.568   2.229   4.282
 7085TIP3   OH221211   7.670   3.618   4.421
 7085TIP3    H121212   7.580   3.593   4.400
 7085TIP3    H221213   7.682   3.592   4.512
 7086TIP3   OH221214   7.852   3.652   3.966
 7086TIP3    H121215   7.798   3.722   3.930
 7086TIP3    H221216   7.937   3.662   3.922
 7087TIP3   OH221217   8.292   3.883   4.109
 7087TIP3    H121218   8.333   3.873   4.195
 7087TIP3    H221219   8.349   3.944   4.062
 7088TIP3   OH221220   8.468   4.057   3.960
 7088TIP3    H121221   8.496   4.035   3.871
 7088TIP3    H221222   8.462   4.153   3.961
 7089TIP3   OH221223   7.525   3.909   3.991
 7089TIP3    H121224   7.438   3.938   3.965
 7089TIP3    H221225   7.536   3.944   4.079
 7090TIP3   OH221226   7.761   3.886   3.849
 7090TIP3    H121227   7.677   3.897   3.895
 7090TIP3    H221228   7.744   3.916   3.760
 7091TIP3   OH221229   8.160   3.922   3.650
 7091TIP3    H121230   8.086   3.930   3.590
 7091TIP3    H221231   8.174   4.010   3.683
 7092TIP3   OH221232   8.409   3.819   3.636
 7092TIP3    H121233   8.318   3.849   3.639
 7092TIP3    H221234   8.461   3.895   3.660
 7093TIP3   OH221235   7.444   3.698   3.735
 7093TIP3    H121236   7.463   3.669   3.824
 7093TIP3    H221237   7.511   3.656   3.681
 7094TIP3   OH221238   7.635   3.570   3.589
 7094TIP3    H121239   7.645   3.489   3.639
 7094TIP3    H221240   7.724   3.606   3.585
 7095TIP3   OH221241   7.901   3.662   3.599
 7095TIP3    H121242   7.924   3.570   3.585
 7095TIP3    H221243   7.944   3.686   3.681
 7096TIP3   OH221244   7.720   2.027   3.692
 7096TIP3    H121245   7.630   1.997   3.704
 7096TIP3    H221246   7.771   1.946   3.684
 7097TIP3   OH221247   7.512   1.904   3.334
 7097TIP3    H121248   7.531   1.968   3.266
 7097TIP3    H221249   7.482   1.957   3.408
 7098TIP3   OH221250   7.628   2.066   3.109
 7098TIP3    H121251   7.667   2.005   3.046
 7098TIP3    H221252   7.702   2.114   3.145
 7099TIP3   OH221253   7.989   3.653   2.715
 7099TIP3    H121254   8.080   3.668   2.687
 7099TIP3    H221255   7.956   3.586   2.656
 7100TIP3   OH221256   7.922   2.313   4.589
 7100TIP3    H121257   7.884   2.243   4.640
 7100TIP3    H221258   8.015   2.315   4.615
 7101TIP3   OH221259   8.163   2.307   4.718
 7101TIP3    H121260   8.239   2.272   4.672
 7101TIP3    H221261   8.145   2.241   4.786
 7102TIP3   OH221262   7.304   3.491   2.782
 7102TIP3    H121263   7.336   3.570   2.824
 7102TIP3    H221264   7.383   3.443   2.756
 7103TIP3   OH221265   0.861   3.831   4.968
 7103TIP3    H121266   0.831   3.919   4.946
 7103TIP3    H221267   0.795   3.773   4.930
 7104TIP3   OH221268   0.864   3.830   5.346
 7104TIP3    H121269   0.898   3.799   5.430
 7104TIP3    H221270   0.824   3.752   5.306
 7105TIP3   OH221271   0.199   3.702   5.665
 7105TIP3    H121272   0.166   3.644   5.734
 7105TIP3    H221273   0.232   3.779   5.712
 7106TIP3   OH221274   1.108   4.134   5.028
 7106TIP3    H121275   1.091   4.052   5.074
 7106TIP3    H221276   1.147   4.191   5.095
 7107TIP3   OH221277   0.146   4.109   5.356
 7107TIP3    H121278   0.124   4.017   5.373
 7107TIP3    H221279   0.222   4.126   5.413
 7108TIP3   OH221280   8.417   3.614   5.339
 7108TIP3    H121281   8.445   3.567   5.417
 7108TIP3    H221282   8.476   3.690   5.333
 7109TIP3   OH221283   0.771   4.606   5.050
 7109TIP3    H121284   0.805   4.550   4.980
 7109TIP3    H221285   0.758   4.548   5.124
 7110TIP3   OH221286   0.668   4.052   5.387
 7110TIP3    H121287   0.699   3.970   5.348
 7110TIP3    H221288   0.748   4.099   5.411
 7111TIP3   OH221289   1.680   3.371   5.383
 7111TIP3    H121290   1.708   3.452   5.425
 7111TIP3    H221291   1.707   3.380   5.292
 7112TIP3   OH221292   1.074   3.550   5.416
 7112TIP3    H121293   1.118   3.468   5.440
 7112TIP3    H221294   1.044   3.535   5.326
 7113TIP3   OH221295   0.419   3.212   5.378
 7113TIP3    H121296   0.399   3.285   5.320
 7113TIP3    H221297   0.373   3.137   5.340
 7114TIP3   OH221298   1.113   3.305   5.003
 7114TIP3    H121299   1.179   3.289   5.071
 7114TIP3    H221300   1.163   3.339   4.929
 7115TIP3   OH221301   0.055   3.416   5.493
 7115TIP3    H121302   0.132   3.406   5.548
 7115TIP3    H221303   0.078   3.372   5.411
 7116TIP3   OH221304   0.493   3.609   5.268
 7116TIP3    H121305   0.583   3.587   5.292
 7116TIP3    H221306   0.453   3.525   5.246
 7117TIP3   OH221307   1.751   3.580   5.557
 7117TIP3    H121308   1.669   3.623   5.535
 7117TIP3    H221309   1.773   3.612   5.645
 7118TIP3   OH221310   0.409   3.194   5.823
 7118TIP3    H121311   0.357   3.236   5.754
 7118TIP3    H221312   0.360   3.210   5.903
 7119TIP3   OH221313   0.742   4.045   4.841
 7119TIP3    H121314   0.710   4.020   4.754
 7119TIP3    H221315   0.704   4.132   4.856
 7120TIP3   OH221316   0.517   3.980   5.615
 7120TIP3    H121317   0.456   4.042   5.655
 7120TIP3    H221318   0.554   4.028   5.541
 7121TIP3   OH221319   1.315   3.310   5.183
 7121TIP3    H121320   1.303   3.263   5.266
 7121TIP3    H221321   1.368   3.386   5.205
 7122TIP3   OH221322   0.293   3.310   5.601
 7122TIP3    H121323   0.347   3.383   5.630
 7122TIP3    H221324   0.341   3.272   5.527
 7123TIP3   OH221325   0.325   4.156   5.733
 7123TIP3    H121326   0.269   4.206   5.674
 7123TIP3    H221327   0.264   4.110   5.790
 7124TIP3   OH221328   1.175   4.370   5.201
 7124TIP3    H121329   1.092   4.351   5.245
 7124TIP3    H221330   1.151   4.426   5.127
 7125TIP3   OH221331   1.472   3.269   5.549
 7125TIP3    H121332   1.385   3.296   5.518
 7125TIP3    H221333   1.533   3.301   5.483
 7126TIP3   OH221334   0.761   2.909   5.535
 7126TIP3    H121335   0.748   2.816   5.552
 7126TIP3    H221336   0.688   2.952   5.580
 7127TIP3   OH221337   0.881   4.430   4.860
 7127TIP3    H121338   0.919   4.343   4.845
 7127TIP3    H221339   0.946   4.491   4.826
 7128TIP3   OH221340   1.016   4.209   4.780
 7128TIP3    H121341   1.031   4.139   4.716
 7128TIP3    H221342   1.049   4.172   4.862
 7129TIP3   OH221343   1.403   4.285   5.525
 7129TIP3    H121344   1.391   4.204   5.474
 7129TIP3    H221345   1.395   4.355   5.461
 7130TIP3   OH221346   0.701   3.682   4.794
 7130TIP3    H121347   0.623   3.730   4.769
 7130TIP3    H221348   0.750   3.671   4.712
 7131TIP3   OH221349   0.655   3.454   4.516
 7131TIP3    H121350   0.719   3.515   4.555
 7131TIP3    H221351   0.707   3.398   4.459
 7132TIP3   OH221352   1.597   3.925   5.377
 7132TIP3    H121353   1.514   3.972   5.382
 7132TIP3    H221354   1.630   3.943   5.289
 7133TIP3   OH221355   1.030   3.722   4.777
 7133TIP3    H121356   0.985   3.765   4.850
 7133TIP3    H221357   1.122   3.723   4.802
 7134TIP3   OH221358   1.275   3.799   5.676
 7134TIP3    H121359   1.274   3.880   5.727
 7134TIP3    H221360   1.191   3.798   5.630
 7135TIP3   OH221361   0.282   3.751   5.171
 7135TIP3    H121362   0.240   3.694   5.107
 7135TIP3    H221363   0.358   3.701   5.201
 7136TIP3   OH221364   0.432   4.191   5.313
 7136TIP3    H121365   0.386   4.136   5.250
 7136TIP3    H221366   0.513   4.144   5.331
 7137TIP3   OH221367   0.475   3.718   5.527
 7137TIP3    H121368   0.468   3.708   5.432
 7137TIP3    H221369   0.473   3.813   5.542
 7138TIP3   OH221370   0.934   4.365   5.312
 7138TIP3    H121371   0.927   4.440   5.371
 7138TIP3    H221372   0.919   4.289   5.368
 7139TIP3   OH221373   0.542   4.290   5.850
 7139TIP3    H121374   0.491   4.346   5.909
 7139TIP3    H221375   0.476   4.234   5.808
 7140TIP3   OH221376   0.872   3.625   4.581
 7140TIP3    H121377   0.933   3.672   4.638
 7140TIP3    H221378   0.902   3.645   4.493
 7141TIP3   OH221379   0.290   3.844   5.959
 7141TIP3    H121380   0.300   3.925   6.010
 7141TIP3    H221381   0.196   3.835   5.945
 7142TIP3   OH221382   0.631   4.301   4.842
 7142TIP3    H121383   0.710   4.348   4.868
 7142TIP3    H221384   0.567   4.370   4.824
 7143TIP3   OH221385   0.323   4.460   5.944
 7143TIP3    H121386   0.309   4.466   5.850
 7143TIP3    H221387   0.250   4.408   5.976
 7144TIP3   OH221388   1.398   2.859   4.635
 7144TIP3    H121389   1.318   2.879   4.684
 7144TIP3    H221390   1.416   2.939   4.585
 7145TIP3   OH221391   0.156   3.592   4.971
 7145TIP3    H121392   0.086   3.631   4.919
 7145TIP3    H221393   0.118   3.511   5.006
 7146TIP3   OH221394   1.199   4.230   4.172
 7146TIP3    H121395   1.211   4.325   4.161
 7146TIP3    H221396   1.286   4.193   4.159
 7147TIP3   OH221397   1.637   4.627   5.576
 7147TIP3    H121398   1.642   4.533   5.591
 7147TIP3    H221399   1.558   4.654   5.623
 7148TIP3   OH221400   0.740   4.417   5.709
 7148TIP3    H121401   0.743   4.507   5.743
 7148TIP3    H221402   0.672   4.374   5.761
 7149TIP3   OH221403   0.509   4.543   4.660
 7149TIP3    H121404   0.462   4.535   4.577
 7149TIP3    H221405   0.483   4.629   4.694
 7150TIP3   OH221406   0.715   4.439   4.304
 7150TIP3    H121407   0.774   4.374   4.266
 7150TIP3    H221408   0.748   4.452   4.392
 7151TIP3   OH221409   0.762   4.491   4.576
 7151TIP3    H121410   0.675   4.508   4.614
 7151TIP3    H221411   0.805   4.436   4.641
 7152TIP3   OH221412   1.527   3.755   5.852
 7152TIP3    H121413   1.446   3.766   5.802
 7152TIP3    H221414   1.547   3.662   5.846
 7153TIP3   OH221415   0.525   2.990   5.665
 7153TIP3    H121416   0.441   2.956   5.634
 7153TIP3    H221417   0.502   3.069   5.714
 7154TIP3   OH221418   1.063   3.103   5.859
 7154TIP3    H121419   1.130   3.076   5.921
 7154TIP3    H221420   0.980   3.085   5.904
 7155TIP3   OH221421   1.295   3.534   5.776
 7155TIP3    H121422   1.247   3.531   5.858
 7155TIP3    H221423   1.274   3.620   5.739
 7156TIP3   OH221424   0.953   3.669   4.327
 7156TIP3    H121425   0.927   3.641   4.239
 7156TIP3    H221426   1.039   3.710   4.315
 7157TIP3   OH221427   0.667   3.037   4.634
 7157TIP3    H121428   0.637   3.037   4.725
 7157TIP3    H221429   0.633   2.956   4.597
 7158TIP3   OH221430   0.460   3.506   5.688
 7158TIP3    H121431   0.403   3.527   5.762
 7158TIP3    H221432   0.458   3.583   5.632
 7159TIP3   OH221433   0.337   3.388   5.193
 7159TIP3    H121434   0.245   3.367   5.211
 7159TIP3    H221435   0.353   3.350   5.106
 7160TIP3   OH221436   0.833   3.475   4.923
 7160TIP3    H121437   0.785   3.548   4.884
 7160TIP3    H221438   0.892   3.445   4.853
 7161TIP3   OH221439   1.010   3.752   6.010
 7161TIP3    H121440   0.985   3.681   6.069
 7161TIP3    H221441   1.103   3.767   6.029
 7162TIP3   OH221442   0.990   3.503   5.156
 7162TIP3    H121443   0.927   3.534   5.091
 7162TIP3    H221444   1.028   3.424   5.117
 7163TIP3   OH221445   0.288   3.522   5.901
 7163TIP3    H121446   0.288   3.596   5.961
 7163TIP3    H221447   0.277   3.445   5.958
 7164TIP3   OH221448   0.324   3.012   4.600
 7164TIP3    H121449   0.321   3.010   4.695
 7164TIP3    H221450   0.248   3.063   4.574
 7165TIP3   OH221451   8.399   3.092   5.452
 7165TIP3    H121452   8.472   3.088   5.514
 7165TIP3    H221453   8.407   3.012   5.401
 7166TIP3   OH221454   8.364   3.093   5.018
 7166TIP3    H121455   8.390   3.103   4.927
 7166TIP3    H221456   8.360   3.182   5.053
 7167TIP3   OH221457   1.002   3.748   5.582
 7167TIP3    H121458   1.034   3.681   5.522
 7167TIP3    H221459   0.971   3.699   5.658
 7168TIP3   OH221460   0.675   3.213   5.257
 7168TIP3    H121461   0.595   3.213   5.309
 7168TIP3    H221462   0.746   3.207   5.321
 7169TIP3   OH221463   0.100   3.256   5.260
 7169TIP3    H121464   0.011   3.226   5.278
 7169TIP3    H221465   0.150   3.175   5.246
 7170TIP3   OH221466   0.368   3.264   4.952
 7170TIP3    H121467   0.462   3.278   4.935
 7170TIP3    H221468   0.326   3.288   4.869
 7171TIP3   OH221469   1.161   3.290   5.461
 7171TIP3    H121470   1.130   3.305   5.551
 7171TIP3    H221471   1.096   3.231   5.423
 7172TIP3   OH221472   0.216   3.302   4.723
 7172TIP3    H121473   0.149   3.255   4.674
 7172TIP3    H221474   0.272   3.341   4.656
 7173TIP3   OH221475   1.338   4.982   5.681
 7173TIP3    H121476   1.340   5.002   5.587
 7173TIP3    H221477   1.418   5.022   5.715
 7174TIP3   OH221478   0.290   4.081   6.118
 7174TIP3    H121479   0.366   4.109   6.169
 7174TIP3    H221480   0.216   4.127   6.157
 7175TIP3   OH221481   0.752   3.543   5.353
 7175TIP3    H121482   0.826   3.505   5.305
 7175TIP3    H221483   0.754   3.501   5.439
 7176TIP3   OH221484   0.268   3.030   5.238
 7176TIP3    H121485   0.231   2.956   5.286
 7176TIP3    H221486   0.318   2.989   5.168
 7177TIP3   OH221487   0.728   3.443   5.642
 7177TIP3    H121488   0.639   3.476   5.655
 7177TIP3    H221489   0.783   3.504   5.690
 7178TIP3   OH221490   0.467   3.831   4.732
 7178TIP3    H121491   0.399   3.765   4.722
 7178TIP3    H221492   0.453   3.867   4.820
 7179TIP3   OH221493   1.362   4.068   5.362
 7179TIP3    H121494   1.388   4.115   5.283
 7179TIP3    H221495   1.282   4.022   5.338
 7180TIP3   OH221496   0.921   3.143   4.603
 7180TIP3    H121497   0.827   3.125   4.612
 7180TIP3    H221498   0.930   3.235   4.629
 7181TIP3   OH221499   0.879   4.160   5.731
 7181TIP3    H121500   0.892   4.119   5.817
 7181TIP3    H221501   0.823   4.236   5.750
 7182TIP3   OH221502   0.993   3.394   4.704
 7182TIP3    H121503   1.087   3.398   4.723
 7182TIP3    H221504   0.976   3.475   4.656
 7183TIP3   OH221505   0.172   3.845   5.420
 7183TIP3    H121506   0.212   3.796   5.348
 7183TIP3    H221507   0.175   3.785   5.495
 7184TIP3   OH221508   0.582   3.961   4.514
 7184TIP3    H121509   0.551   4.051   4.525
 7184TIP3    H221510   0.549   3.914   4.590
 7185TIP3   OH221511   0.767   3.887   6.047
 7185TIP3    H121512   0.700   3.831   6.007
 7185TIP3    H221513   0.850   3.851   6.017
 7186TIP3   OH221514   1.020   4.434   5.621
 7186TIP3    H121515   0.929   4.409   5.638
 7186TIP3    H221516   1.051   4.470   5.704
 7187TIP3   OH221517   1.429   3.486   4.537
 7187TIP3    H121518   1.370   3.442   4.476
 7187TIP3    H221519   1.429   3.578   4.509
 7188TIP3   OH221520   1.652   4.343   5.615
 7188TIP3    H121521   1.557   4.335   5.613
 7188TIP3    H221522   1.680   4.311   5.529
 7189TIP3   OH221523   1.138   4.296   4.439
 7189TIP3    H121524   1.140   4.215   4.490
 7189TIP3    H221525   1.151   4.268   4.348
 7190TIP3   OH221526   1.130   3.928   5.281
 7190TIP3    H121527   1.038   3.907   5.296
 7190TIP3    H221528   1.167   3.850   5.240
 7191TIP3   OH221529   0.261   4.157   5.032
 7191TIP3    H121530   0.245   4.236   4.980
 7191TIP3    H221531   0.182   4.147   5.085
 7192TIP3   OH221532   8.326   3.467   4.743
 7192TIP3    H121533   8.381   3.543   4.761
 7192TIP3    H221534   8.240   3.492   4.777
 7193TIP3   OH221535   0.393   3.919   4.975
 7193TIP3    H121536   0.359   4.006   4.994
 7193TIP3    H221537   0.364   3.866   5.049
 7194TIP3   OH221538   0.540   4.502   5.509
 7194TIP3    H121539   0.584   4.569   5.457
 7194TIP3    H221540   0.611   4.457   5.555
 7195TIP3   OH221541   0.173   4.402   4.894
 7195TIP3    H121542   0.093   4.417   4.944
 7195TIP3    H221543   0.215   4.488   4.889
 7196TIP3   OH221544   0.919   4.134   5.466
 7196TIP3    H121545   0.908   4.136   5.561
 7196TIP3    H221546   0.989   4.070   5.451
 7197TIP3   OH221547   0.873   4.017   4.353
 7197TIP3    H121548   0.960   4.007   4.391
 7197TIP3    H221549   0.813   3.993   4.424
 7198TIP3   OH221550   1.160   4.667   5.529
 7198TIP3    H121551   1.092   4.600   5.529
 7198TIP3    H221552   1.138   4.722   5.454
 7199TIP3   OH221553   1.230   4.506   4.166
 7199TIP3    H121554   1.272   4.577   4.118
 7199TIP3    H221555   1.149   4.544   4.200
 7200TIP3   OH221556   0.258   3.264   6.050
 7200TIP3    H121557   0.164   3.250   6.066
 7200TIP3    H221558   0.302   3.212   6.118
 7201TIP3   OH221559   0.208   4.015   4.604
 7201TIP3    H121560   0.275   3.979   4.663
 7201TIP3    H221561   0.214   4.110   4.615
 7202TIP3   OH221562   8.449   3.698   4.830
 7202TIP3    H121563   8.394   3.739   4.896
 7202TIP3    H221564   8.464   3.767   4.765
 7203TIP3   OH221565   1.089   3.341   5.721
 7203TIP3    H121566   1.169   3.380   5.755
 7203TIP3    H221567   1.077   3.262   5.773
 7204TIP3   OH221568   0.970   3.092   4.885
 7204TIP3    H121569   0.957   3.112   4.793
 7204TIP3    H221570   1.008   3.172   4.922
 7205TIP3   OH221571   0.463   4.214   4.538
 7205TIP3    H121572   0.384   4.220   4.592
 7205TIP3    H221573   0.495   4.304   4.533
 7206TIP3   OH221574   0.652   3.276   4.988
 7206TIP3    H121575   0.714   3.345   4.966
 7206TIP3    H221576   0.659   3.265   5.082
 7207TIP3   OH221577   0.928   3.591   5.789
 7207TIP3    H121578   0.950   3.641   5.868
 7207TIP3    H221579   0.978   3.509   5.799
 7208TIP3   OH221580   0.799   2.996   5.084
 7208TIP3    H121581   0.792   3.070   5.144
 7208TIP3    H221582   0.859   3.027   5.016
 7209TIP3   OH221583   0.218   4.287   4.642
 7209TIP3    H121584   0.188   4.354   4.580
 7209TIP3    H221585   0.198   4.324   4.728
 7210TIP3   OH221586   0.315   3.002   4.875
 7210TIP3    H121587   0.310   3.090   4.914
 7210TIP3    H221588   0.408   2.978   4.882
 7211TIP3   OH221589   1.562   3.491   5.775
 7211TIP3    H121590   1.466   3.489   5.782
 7211TIP3    H221591   1.581   3.451   5.690
 7212TIP3   OH221592   1.216   3.687   5.166
 7212TIP3    H121593   1.142   3.627   5.172
 7212TIP3    H221594   1.288   3.641   5.209
 7213TIP3   OH221595   8.443   3.919   4.669
 7213TIP3    H121596   8.516   3.979   4.653
 7213TIP3    H221597   8.436   3.867   4.590
 7214TIP3   OH221598   8.353   3.191   4.764
 7214TIP3    H121599   8.358   3.287   4.766
 7214TIP3    H221600   8.319   3.171   4.677
 7215TIP3   OH221601   1.165   4.703   5.072
 7215TIP3    H121602   1.153   4.622   5.023
 7215TIP3    H221603   1.260   4.717   5.072
 7216TIP3   OH221604   0.265   2.904   5.633
 7216TIP3    H121605   0.235   2.870   5.548
 7216TIP3    H221606   0.255   2.830   5.693
 7217TIP3   OH221607   0.429   4.635   6.135
 7217TIP3    H121608   0.524   4.626   6.144
 7217TIP3    H221609   0.405   4.571   6.068
 7218TIP3   OH221610   0.426   4.205   4.263
 7218TIP3    H121611   0.427   4.189   4.358
 7218TIP3    H221612   0.505   4.161   4.230
 7219TIP3   OH221613   1.080   4.539   5.867
 7219TIP3    H121614   1.069   4.472   5.934
 7219TIP3    H221615   1.155   4.590   5.897
 7220TIP3   OH221616   0.861   4.250   4.169
 7220TIP3    H121617   0.899   4.188   4.231
 7220TIP3    H221618   0.918   4.245   4.092
 7221TIP3   OH221619   0.064   3.719   4.488
 7221TIP3    H121620   0.119   3.703   4.564
 7221TIP3    H221621   0.122   3.707   4.413
 7222TIP3   OH221622   0.692   4.162   6.061
 7222TIP3    H121623   0.652   4.175   5.975
 7222TIP3    H221624   0.725   4.072   6.058
 7223TIP3   OH221625   1.191   4.174   5.671
 7223TIP3    H121626   1.263   4.219   5.627
 7223TIP3    H221627   1.114   4.228   5.654
 7224TIP3   OH221628   0.208   3.802   6.288
 7224TIP3    H121629   0.271   3.759   6.230
 7224TIP3    H221630   0.263   3.844   6.355
 7225TIP3   OH221631   0.272   3.634   4.700
 7225TIP3    H121632   0.248   3.600   4.787
 7225TIP3    H221633   0.310   3.558   4.655
 7226TIP3   OH221634   0.547   3.708   5.941
 7226TIP3    H121635   0.463   3.753   5.936
 7226TIP3    H221636   0.594   3.735   5.862
 7227TIP3   OH221637   0.379   3.428   4.544
 7227TIP3    H121638   0.357   3.434   4.451
 7227TIP3    H221639   0.474   3.424   4.545
 7228TIP3   OH221640   1.064   4.099   6.066
 7228TIP3    H121641   1.139   4.067   6.017
 7228TIP3    H221642   1.053   4.035   6.137
 7229TIP3   OH221643   1.190   3.752   4.205
 7229TIP3    H121644   1.166   3.717   4.119
 7229TIP3    H221645   1.167   3.845   4.201
 7230TIP3   OH221646   0.670   3.490   6.054
 7230TIP3    H121647   0.666   3.410   6.002
 7230TIP3    H221648   0.624   3.555   6.002
 7231TIP3   OH221649   0.668   3.272   5.866
 7231TIP3    H121650   0.697   3.314   5.785
 7231TIP3    H221651   0.577   3.249   5.851
 7232TIP3   OH221652   0.696   3.816   5.744
 7232TIP3    H121653   0.774   3.812   5.690
 7232TIP3    H221654   0.634   3.869   5.694
 7233TIP3   OH221655   1.277   3.771   6.118
 7233TIP3    H121656   1.320   3.687   6.132
 7233TIP3    H221657   1.344   3.827   6.080
 7234TIP3   OH221658   1.320   4.029   5.856
 7234TIP3    H121659   1.261   4.080   5.800
 7234TIP3    H221660   1.407   4.046   5.820
 7235TIP3   OH221661   0.546   3.605   6.290
 7235TIP3    H121662   0.490   3.529   6.301
 7235TIP3    H221663   0.580   3.597   6.200
 7236TIP3   OH221664   0.798   3.033   5.935
 7236TIP3    H121665   0.752   3.114   5.912
 7236TIP3    H221666   0.732   2.964   5.925
 7237TIP3   OH221667   0.924   3.536   6.153
 7237TIP3    H121668   0.912   3.521   6.246
 7237TIP3    H221669   0.840   3.514   6.113
 7238TIP3   OH221670   1.165   3.489   6.008
 7238TIP3    H121671   1.091   3.490   6.069
 7238TIP3    H221672   1.239   3.459   6.060
 7239TIP3   OH221673   1.393   3.428   6.156
 7239TIP3    H121674   1.407   3.334   6.170
 7239TIP3    H221675   1.391   3.466   6.244
 7240TIP3   OH221676   0.412   3.375   6.343
 7240TIP3    H121677   0.400   3.288   6.304
 7240TIP3    H221678   0.436   3.357   6.434
 7241TIP3   OH221679   0.894   3.042   6.191
 7241TIP3    H121680   0.960   2.973   6.188
 7241TIP3    H221681   0.853   3.040   6.105
 7242TIP3   OH221682   0.961   3.258   6.351
 7242TIP3    H121683   0.942   3.187   6.289
 7242TIP3    H221684   0.885   3.316   6.346
 7243TIP3   OH221685   0.186   4.483   4.449
 7243TIP3    H121686   0.280   4.489   4.429
 7243TIP3    H221687   0.144   4.533   4.380
 7244TIP3   OH221688   1.431   4.757   5.069
 7244TIP3    H121689   1.469   4.769   5.156
 7244TIP3    H221690   1.506   4.762   5.009
 7245TIP3   OH221691   1.476   4.747   5.352
 7245TIP3    H121692   1.425   4.667   5.348
 7245TIP3    H221693   1.550   4.726   5.409
 7246TIP3   OH221694   1.512   4.433   5.923
 7246TIP3    H121695   1.442   4.439   5.989
 7246TIP3    H221696   1.557   4.517   5.927
 7247TIP3   OH221697   1.472   3.793   4.739
 7247TIP3    H121698   1.393   3.767   4.786
 7247TIP3    H221699   1.519   3.849   4.801
 7248TIP3   OH221700   1.513   4.202   5.172
 7248TIP3    H121701   1.568   4.133   5.136
 7248TIP3    H221702   1.512   4.270   5.105
 7249TIP3   OH221703   1.340   4.508   5.368
 7249TIP3    H121704   1.273   4.533   5.432
 7249TIP3    H221705   1.294   4.455   5.304
 7250TIP3   OH221706   1.387   3.732   4.403
 7250TIP3    H121707   1.319   3.735   4.335
 7250TIP3    H221708   1.358   3.797   4.467
 7251TIP3   OH221709   1.266   3.388   4.344
 7251TIP3    H121710   1.223   3.428   4.268
 7251TIP3    H221711   1.245   3.295   4.337
 7252TIP3   OH221712   1.275   3.674   4.896
 7252TIP3    H121713   1.283   3.579   4.883
 7252TIP3    H221714   1.260   3.684   4.990
 7253TIP3   OH221715   1.567   4.092   5.748
 7253TIP3    H121716   1.633   4.024   5.742
 7253TIP3    H221717   1.593   4.157   5.683
 7254TIP3   OH221718   1.745   3.891   5.767
 7254TIP3    H121719   1.669   3.843   5.803
 7254TIP3    H221720   1.819   3.831   5.780
 7255TIP3   OH221721   1.213   3.121   4.325
 7255TIP3    H121722   1.286   3.094   4.380
 7255TIP3    H221723   1.140   3.064   4.351
 7256TIP3   OH221724   1.271   3.382   4.783
 7256TIP3    H121725   1.309   3.296   4.799
 7256TIP3    H221726   1.326   3.420   4.715
 7257TIP3   OH221727   1.431   3.556   5.283
 7257TIP3    H121728   1.512   3.578   5.237
 7257TIP3    H221729   1.443   3.589   5.372
 7258TIP3   OH221730   1.503   3.702   5.513
 7258TIP3    H121731   1.425   3.733   5.560
 7258TIP3    H221732   1.536   3.779   5.467
 7259TIP3   OH221733   0.132   3.346   6.430
 7259TIP3    H121734   0.195   3.379   6.366
 7259TIP3    H221735   0.047   3.376   6.399
 7260TIP3   OH221736   1.950   3.293   6.065
 7260TIP3    H121737   2.011   3.230   6.028
 7260TIP3    H221738   1.921   3.345   5.990
 7261TIP3   OH221739   1.378   3.133   4.827
 7261TIP3    H121740   1.428   3.119   4.906
 7261TIP3    H221741   1.318   3.058   4.823
 7262TIP3   OH221742   0.095   3.117   5.648
 7262TIP3    H121743   0.154   3.042   5.653
 7262TIP3    H221744   0.153   3.191   5.632
 7263TIP3   OH221745   1.817   3.429   5.869
 7263TIP3    H121746   1.734   3.473   5.888
 7263TIP3    H221747   1.792   3.355   5.814
 7264TIP3   OH221748   1.455   3.066   4.456
 7264TIP3    H121749   1.497   2.997   4.404
 7264TIP3    H221750   1.521   3.136   4.458
 7265TIP3   OH221751   8.385   2.914   5.227
 7265TIP3    H121752   8.294   2.907   5.254
 7265TIP3    H221753   8.385   2.977   5.154
 7266TIP3   OH221754   1.052   4.616   4.737
 7266TIP3    H121755   1.059   4.564   4.657
 7266TIP3    H221756   1.115   4.687   4.725
 7267TIP3   OH221757   0.081   2.987   6.045
 7267TIP3    H121758   0.039   2.983   6.131
 7267TIP3    H221759   0.018   3.033   5.990
 7268TIP3   OH221760   0.307   4.478   5.662
 7268TIP3    H121761   0.286   4.543   5.595
 7268TIP3    H221762   0.395   4.449   5.641
 7269TIP3   OH221763   0.749   4.683   5.794
 7269TIP3    H121764   0.787   4.677   5.882
 7269TIP3    H221765   0.814   4.732   5.743
 7270TIP3   OH221766   0.932   4.835   5.652
 7270TIP3    H121767   0.999   4.774   5.621
 7270TIP3    H221768   0.978   4.892   5.714
 7271TIP3   OH221769   1.719   3.191   5.753
 7271TIP3    H121770   1.631   3.185   5.716
 7271TIP3    H221771   1.755   3.102   5.745
 7272TIP3   OH221772   0.220   4.697   5.500
 7272TIP3    H121773   0.191   4.776   5.545
 7272TIP3    H221774   0.153   4.679   5.435
 7273TIP3   OH221775   0.642   4.702   5.344
 7273TIP3    H121776   0.590   4.715   5.264
 7273TIP3    H221777   0.650   4.789   5.382
 7274TIP3   OH221778   0.908   4.643   5.386
 7274TIP3    H121779   0.815   4.648   5.367
 7274TIP3    H221780   0.942   4.730   5.361
 7275TIP3   OH221781   1.125   4.843   5.309
 7275TIP3    H121782   1.087   4.917   5.262
 7275TIP3    H221783   1.145   4.779   5.241
 7276TIP3   OH221784   0.092   4.362   5.275
 7276TIP3    H121785   0.092   4.274   5.311
 7276TIP3    H221786   0.184   4.389   5.276
 7277TIP3   OH221787   0.374   4.457   5.287
 7277TIP3    H121788   0.392   4.365   5.269
 7277TIP3    H221789   0.417   4.474   5.370
 7278TIP3   OH221790   0.924   3.106   5.372
 7278TIP3    H121791   0.883   3.037   5.424
 7278TIP3    H221792   0.999   3.063   5.330
 7279TIP3   OH221793   1.445   2.990   5.279
 7279TIP3    H121794   1.484   3.038   5.206
 7279TIP3    H221795   1.351   3.007   5.273
 7280TIP3   OH221796   1.545   3.086   5.041
 7280TIP3    H121797   1.614   3.031   5.004
 7280TIP3    H221798   1.577   3.175   5.029
 7281TIP3   OH221799   0.170   2.814   5.387
 7281TIP3    H121800   0.078   2.788   5.387
 7281TIP3    H221801   0.218   2.731   5.383
 7282TIP3   OH221802   8.484   2.682   5.048
 7282TIP3    H121803   8.502   2.739   4.974
 7282TIP3    H221804   8.437   2.738   5.110
 7283TIP3   OH221805   0.620   2.850   5.270
 7283TIP3    H121806   0.674   2.895   5.206
 7283TIP3    H221807   0.646   2.887   5.354
 7284TIP3   OH221808   1.160   2.996   5.252
 7284TIP3    H121809   1.165   2.959   5.164
 7284TIP3    H221810   1.148   2.919   5.309
 7285TIP3   OH221811   1.192   2.920   4.817
 7285TIP3    H121812   1.109   2.965   4.831
 7285TIP3    H221813   1.181   2.835   4.860
 7286TIP3   OH221814   0.084   2.850   4.796
 7286TIP3    H121815   0.127   2.783   4.742
 7286TIP3    H221816   0.156   2.900   4.833
 7287TIP3   OH221817   0.592   3.025   4.900
 7287TIP3    H121818   0.650   2.974   4.956
 7287TIP3    H221819   0.611   3.116   4.923
 7288TIP3   OH221820   0.455   4.456   4.390
 7288TIP3    H121821   0.545   4.469   4.360
 7288TIP3    H221822   0.421   4.387   4.333
 7289TIP3   OH221823   1.159   4.559   4.491
 7289TIP3    H121824   1.159   4.464   4.482
 7289TIP3    H221825   1.120   4.590   4.409
 7290TIP3   OH221826   0.381   3.102   6.275
 7290TIP3    H121827   0.340   3.031   6.325
 7290TIP3    H221828   0.473   3.102   6.305
 7291TIP3   OH221829   0.630   3.095   6.403
 7291TIP3    H121830   0.713   3.074   6.360
 7291TIP3    H221831   0.615   3.024   6.465
 7292TIP3   OH221832   1.461   3.158   6.187
 7292TIP3    H121833   1.475   3.127   6.276
 7292TIP3    H221834   1.547   3.154   6.146
 7293TIP3   OH221835   1.392   4.712   5.678
 7293TIP3    H121836   1.315   4.679   5.632
 7293TIP3    H221837   1.375   4.806   5.689
 7294TIP3   OH221838   1.968   3.980   5.188
 7294TIP3    H121839   1.987   3.909   5.250
 7294TIP3    H221840   2.048   4.032   5.187
 7295TIP3   OH221841   2.903   4.388   4.511
 7295TIP3    H121842   2.945   4.314   4.554
 7295TIP3    H221843   2.928   4.464   4.564
 7296TIP3   OH221844   1.932   4.371   4.911
 7296TIP3    H121845   1.919   4.278   4.891
 7296TIP3    H221846   2.017   4.375   4.955
 7297TIP3   OH221847   1.641   3.582   4.689
 7297TIP3    H121848   1.599   3.665   4.712
 7297TIP3    H221849   1.572   3.530   4.647
 7298TIP3   OH221850   1.708   3.883   4.883
 7298TIP3    H121851   1.748   3.802   4.915
 7298TIP3    H221852   1.759   3.905   4.805
 7299TIP3   OH221853   2.557   4.844   4.525
 7299TIP3    H121854   2.598   4.775   4.473
 7299TIP3    H221855   2.555   4.810   4.614
 7300TIP3   OH221856   3.474   3.632   4.860
 7300TIP3    H121857   3.509   3.709   4.904
 7300TIP3    H221858   3.521   3.629   4.777
 7301TIP3   OH221859   2.906   3.829   4.921
 7301TIP3    H121860   2.911   3.734   4.909
 7301TIP3    H221861   2.855   3.860   4.846
 7302TIP3   OH221862   2.208   3.492   4.856
 7302TIP3    H121863   2.183   3.576   4.819
 7302TIP3    H221864   2.156   3.428   4.808
 7303TIP3   OH221865   2.907   3.534   4.480
 7303TIP3    H121866   2.965   3.526   4.556
 7303TIP3    H221867   2.948   3.602   4.426
 7304TIP3   OH221868   1.842   3.668   4.984
 7304TIP3    H121869   1.928   3.664   5.026
 7304TIP3    H221870   1.849   3.609   4.909
 7305TIP3   OH221871   3.554   3.842   5.039
 7305TIP3    H121872   3.470   3.888   5.034
 7305TIP3    H221873   3.575   3.840   5.132
 7306TIP3   OH221874   2.206   3.460   5.301
 7306TIP3    H121875   2.154   3.502   5.233
 7306TIP3    H221876   2.154   3.471   5.381
 7307TIP3   OH221877   2.577   4.323   4.303
 7307TIP3    H121878   2.518   4.253   4.276
 7307TIP3    H221879   2.519   4.394   4.331
 7308TIP3   OH221880   2.318   4.208   5.161
 7308TIP3    H121881   2.257   4.282   5.153
 7308TIP3    H221882   2.363   4.205   5.077
 7309TIP3   OH221883   3.099   3.535   4.668
 7309TIP3    H121884   3.067   3.495   4.749
 7309TIP3    H221885   3.184   3.572   4.692
 7310TIP3   OH221886   2.089   3.585   5.083
 7310TIP3    H121887   2.123   3.674   5.072
 7310TIP3    H221888   2.128   3.535   5.011
 7311TIP3   OH221889   2.132   4.433   5.186
 7311TIP3    H121890   2.111   4.524   5.165
 7311TIP3    H221891   2.062   4.405   5.245
 7312TIP3   OH221892   1.544   4.120   4.418
 7312TIP3    H121893   1.451   4.095   4.420
 7312TIP3    H221894   1.554   4.177   4.495
 7313TIP3   OH221895   2.966   4.629   4.668
 7313TIP3    H121896   2.883   4.617   4.715
 7313TIP3    H221897   2.959   4.716   4.629
 7314TIP3   OH221898   3.267   3.537   5.042
 7314TIP3    H121899   3.177   3.550   5.011
 7314TIP3    H221900   3.322   3.563   4.968
 7315TIP3   OH221901   2.558   3.167   5.024
 7315TIP3    H121902   2.544   3.073   5.036
 7315TIP3    H221903   2.483   3.208   5.068
 7316TIP3   OH221904   2.677   4.671   4.340
 7316TIP3    H121905   2.726   4.590   4.326
 7316TIP3    H221906   2.733   4.740   4.305
 7317TIP3   OH221907   2.817   4.446   4.257
 7317TIP3    H121908   2.734   4.399   4.257
 7317TIP3    H221909   2.857   4.424   4.341
 7318TIP3   OH221910   3.201   4.546   5.019
 7318TIP3    H121911   3.186   4.466   4.969
 7318TIP3    H221912   3.183   4.617   4.958
 7319TIP3   OH221913   2.508   3.947   4.258
 7319TIP3    H121914   2.422   3.986   4.274
 7319TIP3    H221915   2.515   3.940   4.163
 7320TIP3   OH221916   2.448   3.723   3.985
 7320TIP3    H121917   2.507   3.758   4.052
 7320TIP3    H221918   2.499   3.654   3.942
 7321TIP3   OH221919   3.076   4.047   5.176
 7321TIP3    H121920   3.057   4.136   5.208
 7321TIP3    H221921   3.022   4.037   5.098
 7322TIP3   OH221922   2.735   4.619   4.810
 7322TIP3    H121923   2.726   4.709   4.840
 7322TIP3    H221924   2.724   4.566   4.889
 7323TIP3   OH221925   2.344   4.540   5.340
 7323TIP3    H121926   2.285   4.599   5.387
 7323TIP3    H221927   2.286   4.484   5.289
 7324TIP3   OH221928   2.706   3.870   4.060
 7324TIP3    H121929   2.730   3.951   4.105
 7324TIP3    H221930   2.719   3.890   3.967
 7325TIP3   OH221931   2.103   4.096   5.458
 7325TIP3    H121932   2.106   4.184   5.496
 7325TIP3    H221933   2.011   4.072   5.460
 7326TIP3   OH221934   2.427   4.554   4.361
 7326TIP3    H121935   2.508   4.605   4.359
 7326TIP3    H221936   2.365   4.606   4.309
 7327TIP3   OH221937   2.136   4.707   5.429
 7327TIP3    H121938   2.103   4.712   5.339
 7327TIP3    H221939   2.059   4.688   5.483
 7328TIP3   OH221940   3.192   3.118   4.120
 7328TIP3    H121941   3.113   3.133   4.173
 7328TIP3    H221942   3.207   3.200   4.075
 7329TIP3   OH221943   1.945   3.838   4.417
 7329TIP3    H121944   1.862   3.877   4.389
 7329TIP3    H221945   1.922   3.783   4.492
 7330TIP3   OH221946   2.999   4.480   3.670
 7330TIP3    H121947   3.005   4.575   3.655
 7330TIP3    H221948   3.090   4.449   3.662
 7331TIP3   OH221949   1.718   4.242   5.374
 7331TIP3    H121950   1.655   4.216   5.307
 7331TIP3    H221951   1.756   4.160   5.403
 7332TIP3   OH221952   1.579   4.439   5.009
 7332TIP3    H121953   1.667   4.408   4.986
 7332TIP3    H221954   1.593   4.507   5.074
 7333TIP3   OH221955   3.435   4.885   5.067
 7333TIP3    H121956   3.438   4.791   5.081
 7333TIP3    H221957   3.355   4.913   5.111
 7334TIP3   OH221958   2.521   4.679   5.185
 7334TIP3    H121959   2.534   4.766   5.224
 7334TIP3    H221960   2.466   4.633   5.248
 7335TIP3   OH221961   2.307   4.799   4.151
 7335TIP3    H121962   2.260   4.780   4.070
 7335TIP3    H221963   2.274   4.885   4.178
 7336TIP3   OH221964   1.747   4.650   4.540
 7336TIP3    H121965   1.791   4.640   4.625
 7336TIP3    H221966   1.700   4.567   4.529
 7337TIP3   OH221967   2.506   4.700   3.790
 7337TIP3    H121968   2.563   4.633   3.753
 7337TIP3    H221969   2.539   4.712   3.879
 7338TIP3   OH221970   2.557   4.749   4.060
 7338TIP3    H121971   2.470   4.759   4.099
 7338TIP3    H221972   2.610   4.711   4.130
 7339TIP3   OH221973   3.318   4.013   5.332
 7339TIP3    H121974   3.235   4.027   5.287
 7339TIP3    H221975   3.334   3.919   5.324
 7340TIP3   OH221976   1.922   4.425   5.363
 7340TIP3    H121977   1.974   4.409   5.441
 7340TIP3    H221978   1.849   4.363   5.368
 7341TIP3   OH221979   2.318   3.248   5.152
 7341TIP3    H121980   2.235   3.215   5.119
 7341TIP3    H221981   2.295   3.327   5.200
 7342TIP3   OH221982   2.859   3.361   5.346
 7342TIP3    H121983   2.927   3.332   5.406
 7342TIP3    H221984   2.777   3.341   5.391
 7343TIP3   OH221985   3.097   3.787   5.267
 7343TIP3    H121986   3.047   3.786   5.348
 7343TIP3    H221987   3.076   3.872   5.227
 7344TIP3   OH221988   2.748   3.921   3.799
 7344TIP3    H121989   2.733   3.887   3.711
 7344TIP3    H221990   2.833   3.965   3.793
 7345TIP3   OH221991   2.468   3.293   4.123
 7345TIP3    H121992   2.439   3.294   4.214
 7345TIP3    H221993   2.431   3.213   4.087
 7346TIP3   OH221994   2.617   3.724   4.395
 7346TIP3    H121995   2.578   3.808   4.373
 7346TIP3    H221996   2.674   3.703   4.321
 7347TIP3   OH221997   2.809   4.019   5.506
 7347TIP3    H121998   2.782   3.945   5.559
 7347TIP3    H221999   2.903   4.027   5.523
 7348TIP3   OH222000   2.051   3.796   5.384
 7348TIP3    H122001   2.108   3.852   5.438
 7348TIP3    H222002   2.056   3.710   5.424
 7349TIP3   OH222003   2.121   3.272   4.085
 7349TIP3    H122004   2.120   3.265   4.180
 7349TIP3    H222005   2.045   3.327   4.064
 7350TIP3   OH222006   1.675   3.307   4.963
 7350TIP3    H122007   1.742   3.349   5.016
 7350TIP3    H222008   1.714   3.299   4.876
 7351TIP3   OH222009   1.631   3.294   4.471
 7351TIP3    H122010   1.684   3.326   4.398
 7351TIP3    H222011   1.573   3.367   4.492
 7352TIP3   OH222012   2.467   3.455   4.743
 7352TIP3    H122013   2.383   3.468   4.787
 7352TIP3    H222014   2.532   3.481   4.808
 7353TIP3   OH222015   1.887   3.501   4.781
 7353TIP3    H122016   1.809   3.522   4.730
 7353TIP3    H222017   1.935   3.439   4.726
 7354TIP3   OH222018   2.168   3.496   4.430
 7354TIP3    H122019   2.253   3.540   4.438
 7354TIP3    H222020   2.119   3.549   4.368
 7355TIP3   OH222021   2.961   3.535   4.945
 7355TIP3    H122022   2.933   3.562   5.032
 7355TIP3    H222023   2.890   3.480   4.912
 7356TIP3   OH222024   2.001   3.562   4.210
 7356TIP3    H122025   1.932   3.517   4.161
 7356TIP3    H222026   2.060   3.595   4.142
 7357TIP3   OH222027   3.132   5.237   5.165
 7357TIP3    H122028   3.129   5.258   5.072
 7357TIP3    H222029   3.211   5.281   5.197
 7358TIP3   OH222030   2.084   4.351   5.586
 7358TIP3    H122031   2.166   4.376   5.630
 7358TIP3    H222032   2.020   4.344   5.657
 7359TIP3   OH222033   2.073   3.291   4.718
 7359TIP3    H122034   2.039   3.216   4.767
 7359TIP3    H222035   2.119   3.253   4.643
 7360TIP3   OH222036   2.260   4.087   4.230
 7360TIP3    H122037   2.195   4.019   4.213
 7360TIP3    H222038   2.240   4.118   4.318
 7361TIP3   OH222039   3.164   4.334   4.853
 7361TIP3    H122040   3.209   4.362   4.774
 7361TIP3    H222041   3.104   4.265   4.823
 7362TIP3   OH222042   2.701   3.415   4.049
 7362TIP3    H122043   2.619   3.382   4.086
 7362TIP3    H222044   2.723   3.490   4.105
 7363TIP3   OH222045   2.704   4.444   5.238
 7363TIP3    H122046   2.688   4.378   5.306
 7363TIP3    H222047   2.617   4.479   5.220
 7364TIP3   OH222048   2.793   3.638   4.184
 7364TIP3    H122049   2.886   3.641   4.210
 7364TIP3    H222050   2.779   3.721   4.138
 7365TIP3   OH222051   1.994   4.098   4.892
 7365TIP3    H122052   2.072   4.068   4.846
 7365TIP3    H222053   1.980   4.033   4.961
 7366TIP3   OH222054   2.397   4.230   4.039
 7366TIP3    H122055   2.360   4.318   4.049
 7366TIP3    H222056   2.351   4.177   4.104
 7367TIP3   OH222057   1.831   4.036   5.519
 7367TIP3    H122058   1.855   4.019   5.609
 7367TIP3    H222059   1.772   3.963   5.496
 7368TIP3   OH222060   2.558   4.140   5.533
 7368TIP3    H122061   2.493   4.079   5.498
 7368TIP3    H222062   2.642   4.104   5.507
 7369TIP3   OH222063   2.811   4.695   5.103
 7369TIP3    H122064   2.727   4.655   5.128
 7369TIP3    H222065   2.849   4.726   5.185
 7370TIP3   OH222066   3.223   3.742   4.032
 7370TIP3    H122067   3.160   3.695   3.977
 7370TIP3    H222068   3.231   3.829   3.991
 7371TIP3   OH222069   3.451   4.601   5.103
 7371TIP3    H122070   3.355   4.594   5.102
 7371TIP3    H222071   3.479   4.567   5.018
 7372TIP3   OH222072   2.926   4.557   3.934
 7372TIP3    H122073   2.905   4.489   3.998
 7372TIP3    H222074   2.946   4.509   3.853
 7373TIP3   OH222075   2.056   4.431   4.534
 7373TIP3    H122076   2.043   4.501   4.470
 7373TIP3    H222077   1.971   4.386   4.537
 7374TIP3   OH222078   1.609   3.717   4.233
 7374TIP3    H122079   1.661   3.796   4.250
 7374TIP3    H222080   1.537   3.722   4.296
 7375TIP3   OH222081   2.203   4.179   4.477
 7375TIP3    H122082   2.159   4.254   4.518
 7375TIP3    H222083   2.224   4.121   4.550
 7376TIP3   OH222084   2.330   4.746   4.986
 7376TIP3    H122085   2.369   4.822   4.943
 7376TIP3    H222086   2.399   4.713   5.044
 7377TIP3   OH222087   1.970   4.658   4.374
 7377TIP3    H122088   1.888   4.663   4.423
 7377TIP3    H222089   2.004   4.748   4.375
 7378TIP3   OH222090   2.686   4.284   3.837
 7378TIP3    H122091   2.742   4.253   3.908
 7378TIP3    H222092   2.597   4.260   3.864
 7379TIP3   OH222093   2.960   4.921   5.004
 7379TIP3    H122094   2.888   4.859   5.009
 7379TIP3    H222095   2.937   4.979   4.931
 7380TIP3   OH222096   3.026   4.759   3.655
 7380TIP3    H122097   3.069   4.830   3.607
 7380TIP3    H222098   2.945   4.798   3.689
 7381TIP3   OH222099   2.045   3.531   5.520
 7381TIP3    H122100   1.950   3.536   5.529
 7381TIP3    H222101   2.074   3.475   5.592
 7382TIP3   OH222102   2.854   4.194   4.039
 7382TIP3    H122103   2.837   4.207   4.132
 7382TIP3    H222104   2.950   4.197   4.031
 7383TIP3   OH222105   1.760   4.614   5.158
 7383TIP3    H122106   1.812   4.539   5.188
 7383TIP3    H222107   1.790   4.687   5.212
 7384TIP3   OH222108   2.053   4.260   3.837
 7384TIP3    H122109   2.065   4.169   3.810
 7384TIP3    H222110   2.032   4.255   3.930
 7385TIP3   OH222111   1.999   4.270   4.107
 7385TIP3    H122112   2.066   4.234   4.164
 7385TIP3    H222113   2.006   4.365   4.120
 7386TIP3   OH222114   1.726   3.962   4.299
 7386TIP3    H122115   1.664   4.010   4.354
 7386TIP3    H222116   1.749   4.025   4.230
 7387TIP3   OH222117   2.884   3.598   5.203
 7387TIP3    H122118   2.963   3.639   5.239
 7387TIP3    H222119   2.872   3.520   5.256
 7388TIP3   OH222120   2.767   3.337   4.368
 7388TIP3    H122121   2.745   3.375   4.282
 7388TIP3    H222122   2.811   3.408   4.415
 7389TIP3   OH222123   2.268   4.471   4.059
 7389TIP3    H122124   2.182   4.488   4.096
 7389TIP3    H222125   2.282   4.542   3.996
 7390TIP3   OH222126   2.450   3.527   4.477
 7390TIP3    H122127   2.510   3.599   4.455
 7390TIP3    H222128   2.455   3.519   4.572
 7391TIP3   OH222129   2.698   3.815   5.339
 7391TIP3    H122130   2.751   3.888   5.368
 7391TIP3    H222131   2.757   3.761   5.286
 7392TIP3   OH222132   2.592   3.253   4.573
 7392TIP3    H122133   2.570   3.330   4.626
 7392TIP3    H222134   2.654   3.286   4.508
 7393TIP3   OH222135   2.013   4.545   4.126
 7393TIP3    H122136   1.982   4.611   4.064
 7393TIP3    H222137   1.996   4.583   4.212
 7394TIP3   OH222138   2.114   3.245   4.358
 7394TIP3    H122139   2.112   3.336   4.388
 7394TIP3    H222140   2.206   3.220   4.368
 7395TIP3   OH222141   3.357   3.740   5.240
 7395TIP3    H122142   3.264   3.752   5.260
 7395TIP3    H222143   3.359   3.667   5.179
 7396TIP3   OH222144   1.734   4.171   4.109
 7396TIP3    H122145   1.806   4.232   4.124
 7396TIP3    H222146   1.768   4.110   4.044
 7397TIP3   OH222147   1.666   3.447   4.245
 7397TIP3    H122148   1.674   3.543   4.248
 7397TIP3    H222149   1.577   3.432   4.216
 7398TIP3   OH222150   2.982   4.901   4.592
 7398TIP3    H122151   2.938   4.946   4.520
 7398TIP3    H222152   3.076   4.917   4.576
 7399TIP3   OH222153   2.055   3.166   5.121
 7399TIP3    H122154   2.027   3.136   5.035
 7399TIP3    H222155   2.045   3.090   5.178
 7400TIP3   OH222156   1.604   4.413   4.516
 7400TIP3    H122157   1.520   4.426   4.560
 7400TIP3    H222158   1.584   4.421   4.423
 7401TIP3   OH222159   1.758   4.930   5.577
 7401TIP3    H122160   1.842   4.935   5.623
 7401TIP3    H222161   1.738   4.837   5.573
 7402TIP3   OH222162   2.232   4.887   5.617
 7402TIP3    H122163   2.326   4.870   5.629
 7402TIP3    H222164   2.206   4.828   5.547
 7403TIP3   OH222165   2.214   4.462   3.746
 7403TIP3    H122166   2.156   4.396   3.784
 7403TIP3    H222167   2.292   4.413   3.718
 7404TIP3   OH222168   2.874   4.796   5.353
 7404TIP3    H122169   2.863   4.727   5.419
 7404TIP3    H222170   2.950   4.846   5.383
 7405TIP3   OH222171   2.652   4.505   3.660
 7405TIP3    H122172   2.692   4.444   3.721
 7405TIP3    H222173   2.708   4.502   3.583
 7406TIP3   OH222174   1.882   4.333   5.775
 7406TIP3    H122175   1.901   4.240   5.784
 7406TIP3    H222176   1.798   4.336   5.730
 7407TIP3   OH222177   1.868   3.979   3.971
 7407TIP3    H122178   1.915   3.947   4.048
 7407TIP3    H222179   1.935   3.987   3.903
 7408TIP3   OH222180   2.488   4.418   5.549
 7408TIP3    H122181   2.449   4.437   5.464
 7408TIP3    H222182   2.519   4.327   5.542
 7409TIP3   OH222183   2.376   4.179   3.775
 7409TIP3    H122184   2.376   4.195   3.869
 7409TIP3    H222185   2.369   4.084   3.766
 7410TIP3   OH222186   2.987   4.412   5.159
 7410TIP3    H122187   3.040   4.479   5.117
 7410TIP3    H222188   2.898   4.448   5.157
 7411TIP3   OH222189   2.005   4.074   5.760
 7411TIP3    H122190   2.078   4.022   5.727
 7411TIP3    H222191   2.033   4.103   5.846
 7412TIP3   OH222192   2.070   3.894   4.187
 7412TIP3    H122193   2.032   3.872   4.272
 7412TIP3    H222194   2.099   3.810   4.151
 7413TIP3   OH222195   2.347   3.976   5.409
 7413TIP3    H122196   2.267   4.023   5.429
 7413TIP3    H222197   2.360   3.990   5.315
 7414TIP3   OH222198   2.170   3.679   4.027
 7414TIP3    H122199   2.143   3.690   3.936
 7414TIP3    H222200   2.265   3.685   4.026
 7415TIP3   OH222201   2.862   4.357   5.557
 7415TIP3    H122202   2.927   4.322   5.497
 7415TIP3    H222203   2.849   4.289   5.623
 7416TIP3   OH222204   2.987   4.013   3.696
 7416TIP3    H122205   2.974   3.968   3.612
 7416TIP3    H222206   2.956   4.102   3.681
 7417TIP3   OH222207   2.458   3.748   5.545
 7417TIP3    H122208   2.469   3.669   5.492
 7417TIP3    H222209   2.435   3.816   5.482
 7418TIP3   OH222210   2.464   3.530   5.359
 7418TIP3    H122211   2.495   3.575   5.280
 7418TIP3    H222212   2.373   3.507   5.339
 7419TIP3   OH222213   3.074   4.029   5.608
 7419TIP3    H122214   3.114   3.943   5.613
 7419TIP3    H222215   3.139   4.085   5.566
 7420TIP3   OH222216   3.118   4.292   5.355
 7420TIP3    H122217   3.059   4.336   5.294
 7420TIP3    H222218   3.205   4.302   5.316
 7421TIP3   OH222219   2.339   3.847   5.778
 7421TIP3    H122220   2.273   3.781   5.795
 7421TIP3    H222221   2.374   3.824   5.692
 7422TIP3   OH222222   2.594   3.291   5.423
 7422TIP3    H122223   2.547   3.371   5.402
 7422TIP3    H222224   2.530   3.221   5.411
 7423TIP3   OH222225   2.724   3.798   5.645
 7423TIP3    H122226   2.699   3.779   5.735
 7423TIP3    H222227   2.646   3.776   5.594
 7424TIP3   OH222228   2.966   3.755   5.499
 7424TIP3    H122229   2.887   3.752   5.553
 7424TIP3    H222230   3.034   3.717   5.555
 7425TIP3   OH222231   3.201   3.686   5.646
 7425TIP3    H122232   3.209   3.592   5.659
 7425TIP3    H222233   3.192   3.722   5.734
 7426TIP3   OH222234   2.179   3.628   5.835
 7426TIP3    H122235   2.182   3.540   5.797
 7426TIP3    H222236   2.217   3.617   5.922
 7427TIP3   OH222237   2.690   3.298   5.680
 7427TIP3    H122238   2.755   3.229   5.676
 7427TIP3    H222239   2.649   3.297   5.593
 7428TIP3   OH222240   2.757   3.514   5.838
 7428TIP3    H122241   2.738   3.444   5.776
 7428TIP3    H222242   2.681   3.573   5.831
 7429TIP3   OH222243   1.982   4.750   3.938
 7429TIP3    H122244   2.075   4.736   3.922
 7429TIP3    H222245   1.951   4.798   3.861
 7430TIP3   OH222246   1.451   4.140   4.105
 7430TIP3    H122247   1.539   4.159   4.137
 7430TIP3    H222248   1.450   4.045   4.091
 7431TIP3   OH222249   1.347   4.741   4.587
 7431TIP3    H122250   1.299   4.676   4.536
 7431TIP3    H222251   1.405   4.689   4.644
 7432TIP3   OH222252   1.498   4.596   4.765
 7432TIP3    H122253   1.499   4.513   4.813
 7432TIP3    H222254   1.558   4.652   4.814
 7433TIP3   OH222255   3.238   4.986   4.558
 7433TIP3    H122256   3.263   5.020   4.644
 7433TIP3    H222257   3.301   5.027   4.497
 7434TIP3   OH222258   3.265   5.006   4.840
 7434TIP3    H122259   3.218   4.923   4.833
 7434TIP3    H222260   3.341   4.987   4.895
 7435TIP3   OH222261   3.311   4.689   5.412
 7435TIP3    H122262   3.240   4.695   5.475
 7435TIP3    H222263   3.354   4.774   5.415
 7436TIP3   OH222264   3.133   4.194   4.047
 7436TIP3    H122265   3.183   4.262   4.001
 7436TIP3    H222266   3.177   4.185   4.132
 7437TIP3   OH222267   3.321   4.453   4.652
 7437TIP3    H122268   3.322   4.407   4.568
 7437TIP3    H222269   3.303   4.544   4.630
 7438TIP3   OH222270   3.135   4.760   4.854
 7438TIP3    H122271   3.069   4.801   4.910
 7438TIP3    H222272   3.085   4.714   4.786
 7439TIP3   OH222273   3.189   3.978   3.879
 7439TIP3    H122274   3.120   3.979   3.812
 7439TIP3    H222275   3.165   4.049   3.939
 7440TIP3   OH222276   3.053   3.648   3.840
 7440TIP3    H122277   3.043   3.684   3.751
 7440TIP3    H222278   3.036   3.555   3.830
 7441TIP3   OH222279   1.699   4.003   5.128
 7441TIP3    H122280   1.693   3.964   5.041
 7441TIP3    H222281   1.793   4.003   5.147
 7442TIP3   OH222282   3.363   4.348   5.239
 7442TIP3    H122283   3.430   4.281   5.226
 7442TIP3    H222284   3.382   4.413   5.171
 7443TIP3   OH222285   3.538   4.140   5.244
 7443TIP3    H122286   3.462   4.097   5.283
 7443TIP3    H222287   3.612   4.082   5.263
 7444TIP3   OH222288   3.013   3.378   3.801
 7444TIP3    H122289   3.085   3.354   3.860
 7444TIP3    H222290   2.939   3.328   3.834
 7445TIP3   OH222291   3.065   3.641   4.260
 7445TIP3    H122292   3.096   3.554   4.285
 7445TIP3    H222293   3.128   3.673   4.196
 7446TIP3   OH222294   1.914   3.680   5.803
 7446TIP3    H122295   2.010   3.678   5.803
 7446TIP3    H222296   1.887   3.595   5.839
 7447TIP3   OH222297   3.748   3.551   5.552
 7447TIP3    H122298   3.808   3.487   5.515
 7447TIP3    H222299   3.718   3.602   5.476
 7448TIP3   OH222300   3.174   3.391   4.311
 7448TIP3    H122301   3.220   3.379   4.393
 7448TIP3    H222302   3.111   3.319   4.308
 7449TIP3   OH222303   1.878   3.383   5.143
 7449TIP3    H122304   1.935   3.306   5.142
 7449TIP3    H222305   1.937   3.456   5.123
 7450TIP3   OH222306   1.673   3.650   5.203
 7450TIP3    H122307   1.720   3.639   5.120
 7450TIP3    H222308   1.713   3.726   5.243
 7451TIP3   OH222309   3.612   3.684   5.354
 7451TIP3    H122310   3.532   3.729   5.381
 7451TIP3    H222311   3.583   3.611   5.301
 7452TIP3   OH222312   3.251   3.327   3.936
 7452TIP3    H122313   3.295   3.251   3.897
 7452TIP3    H222314   3.320   3.393   3.943
 7453TIP3   OH222315   1.657   3.144   4.695
 7453TIP3    H122316   1.569   3.146   4.732
 7453TIP3    H222317   1.655   3.207   4.624
 7454TIP3   OH222318   2.820   4.858   4.210
 7454TIP3    H122319   2.868   4.847   4.128
 7454TIP3    H222320   2.871   4.923   4.259
 7455TIP3   OH222321   1.879   3.233   5.519
 7455TIP3    H122322   1.829   3.229   5.601
 7455TIP3    H222323   1.818   3.269   5.455
 7456TIP3   OH222324   1.916   4.668   5.595
 7456TIP3    H122325   1.828   4.635   5.577
 7456TIP3    H222326   1.936   4.639   5.684
 7457TIP3   OH222327   2.099   4.703   5.141
 7457TIP3    H122328   2.053   4.778   5.103
 7457TIP3    H222329   2.187   4.707   5.101
 7458TIP3   OH222330   2.542   4.942   5.284
 7458TIP3    H122331   2.583   4.935   5.370
 7458TIP3    H222332   2.607   4.989   5.230
 7459TIP3   OH222333   2.724   5.090   5.141
 7459TIP3    H122334   2.792   5.035   5.101
 7459TIP3    H222335   2.772   5.147   5.201
 7460TIP3   OH222336   3.514   3.442   5.240
 7460TIP3    H122337   3.424   3.428   5.208
 7460TIP3    H222338   3.555   3.356   5.234
 7461TIP3   OH222339   1.772   4.952   5.167
 7461TIP3    H122340   1.684   4.984   5.146
 7461TIP3    H222341   1.792   4.990   5.252
 7462TIP3   OH222342   2.009   4.933   5.025
 7462TIP3    H122343   1.924   4.943   5.068
 7462TIP3    H222344   1.994   4.961   4.935
 7463TIP3   OH222345   2.433   4.958   4.825
 7463TIP3    H122346   2.366   4.975   4.759
 7463TIP3    H222347   2.448   5.042   4.868
 7464TIP3   OH222348   2.704   4.889   4.859
 7464TIP3    H122349   2.612   4.912   4.850
 7464TIP3    H222350   2.751   4.967   4.829
 7465TIP3   OH222351   2.906   5.084   4.786
 7465TIP3    H122352   2.896   5.168   4.741
 7465TIP3    H222353   2.936   5.024   4.717
 7466TIP3   OH222354   1.684   4.738   4.918
 7466TIP3    H122355   1.710   4.716   5.008
 7466TIP3    H222356   1.751   4.698   4.863
 7467TIP3   OH222357   1.879   4.613   4.779
 7467TIP3    H122358   1.895   4.527   4.818
 7467TIP3    H222359   1.966   4.652   4.770
 7468TIP3   OH222360   2.145   4.720   4.773
 7468TIP3    H122361   2.185   4.647   4.726
 7468TIP3    H222362   2.196   4.729   4.853
 7469TIP3   OH222363   2.736   3.365   4.877
 7469TIP3    H122364   2.681   3.297   4.915
 7469TIP3    H222365   2.797   3.319   4.820
 7470TIP3   OH222366   3.243   3.254   4.766
 7470TIP3    H122367   3.278   3.298   4.689
 7470TIP3    H222368   3.148   3.262   4.757
 7471TIP3   OH222369   3.341   3.347   4.526
 7471TIP3    H122370   3.407   3.288   4.490
 7471TIP3    H222371   3.376   3.435   4.512
 7472TIP3   OH222372   1.969   3.070   4.876
 7472TIP3    H122373   1.877   3.044   4.878
 7472TIP3    H222374   2.017   2.987   4.871
 7473TIP3   OH222375   1.755   2.946   4.523
 7473TIP3    H122376   1.788   3.001   4.452
 7473TIP3    H222377   1.729   3.008   4.592
 7474TIP3   OH222378   2.419   3.104   4.758
 7474TIP3    H122379   2.470   3.151   4.692
 7474TIP3    H222380   2.437   3.149   4.840
 7475TIP3   OH222381   2.964   3.250   4.738
 7475TIP3    H122382   2.959   3.213   4.650
 7475TIP3    H222383   2.949   3.175   4.796
 7476TIP3   OH222384   2.988   3.178   4.303
 7476TIP3    H122385   2.906   3.224   4.321
 7476TIP3    H222386   2.977   3.093   4.345
 7477TIP3   OH222387   1.471   4.521   4.298
 7477TIP3    H122388   1.392   4.476   4.269
 7477TIP3    H222389   1.459   4.611   4.269
 7478TIP3   OH222390   1.879   3.103   4.284
 7478TIP3    H122391   1.925   3.040   4.228
 7478TIP3    H222392   1.949   3.156   4.321
 7479TIP3   OH222393   2.392   3.277   4.385
 7479TIP3    H122394   2.452   3.235   4.446
 7479TIP3    H222395   2.396   3.370   4.407
 7480TIP3   OH222396   2.248   4.698   3.882
 7480TIP3    H122397   2.334   4.724   3.850
 7480TIP3    H222398   2.221   4.626   3.825
 7481TIP3   OH222399   2.962   4.822   3.977
 7481TIP3    H122400   2.956   4.726   3.968
 7481TIP3    H222401   2.920   4.856   3.898
 7482TIP3   OH222402   2.178   3.352   5.769
 7482TIP3    H122403   2.141   3.282   5.822
 7482TIP3    H222404   2.271   3.354   5.794
 7483TIP3   OH222405   2.429   3.351   5.886
 7483TIP3    H122406   2.513   3.329   5.844
 7483TIP3    H222407   2.416   3.283   5.952
 7484TIP3   OH222408   1.554   4.542   3.941
 7484TIP3    H122409   1.552   4.548   4.037
 7484TIP3    H222410   1.636   4.497   3.922
 7485TIP3   OH222411   3.257   3.414   5.673
 7485TIP3    H122412   3.271   3.384   5.763
 7485TIP3    H222413   3.343   3.409   5.632
 7486TIP3   OH222414   3.187   4.968   5.165
 7486TIP3    H122415   3.112   4.935   5.115
 7486TIP3    H222416   3.171   5.062   5.173
 7487TIP3   OH222417   3.769   4.265   4.716
 7487TIP3    H122418   3.791   4.180   4.754
 7487TIP3    H222419   3.849   4.294   4.672
 7488TIP3   OH222420   3.733   4.644   4.399
 7488TIP3    H122421   3.737   4.556   4.437
 7488TIP3    H222422   3.824   4.664   4.377
 7489TIP3   OH222423   3.447   3.858   4.190
 7489TIP3    H122424   3.426   3.919   4.262
 7489TIP3    H222425   3.363   3.820   4.165
 7490TIP3   OH222426   4.351   5.105   4.011
 7490TIP3    H122427   4.390   5.032   3.963
 7490TIP3    H222428   4.336   5.071   4.099
 7491TIP3   OH222429   5.267   3.887   4.348
 7491TIP3    H122430   5.297   3.965   4.395
 7491TIP3    H222431   5.315   3.889   4.265
 7492TIP3   OH222432   4.664   4.071   4.391
 7492TIP3    H122433   4.702   3.985   4.408
 7492TIP3    H222434   4.646   4.072   4.297
 7493TIP3   OH222435   4.711   3.781   3.969
 7493TIP3    H122436   4.774   3.787   4.041
 7493TIP3    H222437   4.714   3.867   3.927
 7494TIP3   OH222438   5.338   4.087   4.536
 7494TIP3    H122439   5.252   4.128   4.528
 7494TIP3    H222440   5.366   4.106   4.626
 7495TIP3   OH222441   4.004   3.707   4.795
 7495TIP3    H122442   3.950   3.736   4.721
 7495TIP3    H222443   3.950   3.725   4.872
 7496TIP3   OH222444   4.113   4.493   4.603
 7496TIP3    H122445   4.041   4.542   4.643
 7496TIP3    H222446   4.148   4.552   4.536
 7497TIP3   OH222447   4.903   3.818   4.158
 7497TIP3    H122448   4.882   3.765   4.235
 7497TIP3    H222449   4.994   3.846   4.173
 7498TIP3   OH222450   3.874   3.808   4.573
 7498TIP3    H122451   3.928   3.886   4.586
 7498TIP3    H222452   3.854   3.807   4.479
 7499TIP3   OH222453   3.930   4.683   4.685
 7499TIP3    H122454   3.913   4.770   4.648
 7499TIP3    H222455   3.855   4.665   4.741
 7500TIP3   OH222456   3.300   4.378   3.931
 7500TIP3    H122457   3.292   4.387   3.836
 7500TIP3    H222458   3.352   4.453   3.959
 7501TIP3   OH222459   4.775   4.900   4.173
 7501TIP3    H122460   4.688   4.873   4.202
 7501TIP3    H222461   4.761   4.983   4.127
 7502TIP3   OH222462   5.061   3.787   4.525
 7502TIP3    H122463   4.973   3.806   4.495
 7502TIP3    H222464   5.118   3.819   4.455
 7503TIP3   OH222465   4.352   3.419   4.509
 7503TIP3    H122466   4.338   3.326   4.528
 7503TIP3    H222467   4.280   3.464   4.552
 7504TIP3   OH222468   4.473   4.927   3.833
 7504TIP3    H122469   4.528   4.851   3.852
 7504TIP3    H222470   4.532   4.991   3.794
 7505TIP3   OH222471   4.995   4.792   4.500
 7505TIP3    H122472   4.989   4.722   4.435
 7505TIP3    H222473   4.979   4.872   4.450
 7506TIP3   OH222474   4.285   4.188   3.744
 7506TIP3    H122475   4.212   4.244   3.718
 7506TIP3    H222476   4.337   4.178   3.665
 7507TIP3   OH222477   4.244   3.975   3.470
 7507TIP3    H122478   4.302   4.018   3.534
 7507TIP3    H222479   4.302   3.915   3.423
 7508TIP3   OH222480   4.858   4.314   4.659
 7508TIP3    H122481   4.855   4.396   4.708
 7508TIP3    H222482   4.771   4.308   4.618
 7509TIP3   OH222483   3.982   4.679   4.288
 7509TIP3    H122484   3.948   4.656   4.202
 7509TIP3    H222485   4.073   4.648   4.287
 7510TIP3   OH222486   4.526   4.872   4.277
 7510TIP3    H122487   4.518   4.952   4.328
 7510TIP3    H222488   4.516   4.802   4.341
 7511TIP3   OH222489   4.140   4.798   4.828
 7511TIP3    H122490   4.083   4.859   4.875
 7511TIP3    H222491   4.080   4.743   4.778
 7512TIP3   OH222492   4.479   4.132   3.552
 7512TIP3    H122493   4.540   4.190   3.599
 7512TIP3    H222494   4.499   4.147   3.460
 7513TIP3   OH222495   3.910   4.356   4.950
 7513TIP3    H122496   3.903   4.443   4.991
 7513TIP3    H222497   3.823   4.339   4.916
 7514TIP3   OH222498   4.196   4.841   3.852
 7514TIP3    H122499   4.287   4.873   3.849
 7514TIP3    H222500   4.150   4.895   3.788
 7515TIP3   OH222501   3.934   4.963   4.916
 7515TIP3    H122502   3.902   4.969   4.827
 7515TIP3    H222503   3.857   4.943   4.969
 7516TIP3   OH222504   4.991   3.372   3.610
 7516TIP3    H122505   4.911   3.390   3.659
 7516TIP3    H222506   5.007   3.452   3.560
 7517TIP3   OH222507   4.796   4.741   3.162
 7517TIP3    H122508   4.802   4.834   3.140
 7517TIP3    H222509   4.884   4.707   3.148
 7518TIP3   OH222510   3.513   4.495   4.862
 7518TIP3    H122511   3.448   4.471   4.797
 7518TIP3    H222512   3.551   4.411   4.890
 7519TIP3   OH222513   3.373   4.697   4.494
 7519TIP3    H122514   3.469   4.700   4.488
 7519TIP3    H222515   3.351   4.773   4.547
 7520TIP3   OH222516   5.231   5.144   4.555
 7520TIP3    H122517   5.234   5.049   4.571
 7520TIP3    H222518   5.151   5.172   4.598
 7521TIP3   OH222519   4.336   4.929   4.688
 7521TIP3    H122520   4.336   5.020   4.718
 7521TIP3    H222521   4.268   4.886   4.739
 7522TIP3   OH222522   4.103   5.058   3.638
 7522TIP3    H122523   4.055   5.041   3.558
 7522TIP3    H222524   4.070   5.142   3.669
 7523TIP3   OH222525   3.538   4.902   4.026
 7523TIP3    H122526   3.588   4.897   4.108
 7523TIP3    H222527   3.490   4.820   4.023
 7524TIP3   OH222528   4.303   4.958   3.277
 7524TIP3    H122529   4.359   4.890   3.240
 7524TIP3    H222530   4.335   4.969   3.367
 7525TIP3   OH222531   4.352   5.007   3.549
 7525TIP3    H122532   4.263   5.019   3.581
 7525TIP3    H222533   4.399   4.968   3.623
 7526TIP3   OH222534   5.120   4.267   4.838
 7526TIP3    H122535   5.044   4.283   4.781
 7526TIP3    H222536   5.140   4.174   4.826
 7527TIP3   OH222537   3.716   4.680   4.849
 7527TIP3    H122538   3.766   4.667   4.930
 7527TIP3    H222539   3.644   4.617   4.855
 7528TIP3   OH222540   4.114   3.504   4.638
 7528TIP3    H122541   4.030   3.472   4.607
 7528TIP3    H222542   4.093   3.581   4.690
 7529TIP3   OH222543   4.655   3.618   4.832
 7529TIP3    H122544   4.722   3.588   4.893
 7529TIP3    H222545   4.572   3.597   4.876
 7530TIP3   OH222546   4.891   4.051   4.755
 7530TIP3    H122547   4.841   4.043   4.836
 7530TIP3    H222548   4.861   4.133   4.717
 7531TIP3   OH222549   4.557   4.184   3.303
 7531TIP3    H122550   4.514   4.155   3.222
 7531TIP3    H222551   4.642   4.218   3.274
 7532TIP3   OH222552   4.257   3.551   3.609
 7532TIP3    H122553   4.224   3.552   3.699
 7532TIP3    H222554   4.226   3.468   3.573
 7533TIP3   OH222555   4.037   4.034   4.633
 7533TIP3    H122556   3.997   4.046   4.719
 7533TIP3    H222557   4.011   4.112   4.583
 7534TIP3   OH222558   4.438   3.978   3.890
 7534TIP3    H122559   4.378   4.051   3.873
 7534TIP3    H222560   4.467   3.951   3.803
 7535TIP3   OH222561   4.602   4.266   4.986
 7535TIP3    H122562   4.577   4.194   5.043
 7535TIP3    H222563   4.695   4.279   5.003
 7536TIP3   OH222564   3.877   4.046   4.864
 7536TIP3    H122565   3.915   4.103   4.930
 7536TIP3    H222566   3.866   3.962   4.908
 7537TIP3   OH222567   3.916   3.526   3.568
 7537TIP3    H122568   3.914   3.519   3.663
 7537TIP3    H222569   3.838   3.578   3.546
 7538TIP3   OH222570   3.464   3.572   4.448
 7538TIP3    H122571   3.537   3.607   4.498
 7538TIP3    H222572   3.503   3.542   4.366
 7539TIP3   OH222573   3.428   3.551   3.963
 7539TIP3    H122574   3.476   3.580   3.885
 7539TIP3    H222575   3.375   3.626   3.988
 7540TIP3   OH222576   4.605   4.270   4.565
 7540TIP3    H122577   4.623   4.211   4.492
 7540TIP3    H222578   4.567   4.213   4.633
 7541TIP3   OH222579   3.696   3.734   4.251
 7541TIP3    H122580   3.631   3.804   4.244
 7541TIP3    H222581   3.661   3.663   4.198
 7542TIP3   OH222582   4.752   3.804   4.436
 7542TIP3    H122583   4.718   3.818   4.524
 7542TIP3    H222584   4.687   3.749   4.393
 7543TIP3   OH222585   3.781   3.831   3.694
 7543TIP3    H122586   3.728   3.774   3.639
 7543TIP3    H222587   3.857   3.854   3.639
 7544TIP3   OH222588   4.929   5.493   4.651
 7544TIP3    H122589   4.924   5.517   4.559
 7544TIP3    H222590   5.007   5.539   4.684
 7545TIP3   OH222591   3.880   4.608   5.075
 7545TIP3    H122592   3.961   4.634   5.119
 7545TIP3    H222593   3.815   4.604   5.145
 7546TIP3   OH222594   4.310   3.945   4.645
 7546TIP3    H122595   4.228   3.993   4.633
 7546TIP3    H222596   4.375   4.013   4.665
 7547TIP3   OH222597   4.045   4.346   3.708
 7547TIP3    H122598   3.982   4.275   3.695
 7547TIP3    H222599   4.053   4.355   3.803
 7548TIP3   OH222600   4.970   4.590   4.312
 7548TIP3    H122601   4.983   4.578   4.218
 7548TIP3    H222602   4.891   4.539   4.332
 7549TIP3   OH222603   4.511   3.650   3.570
 7549TIP3    H122604   4.418   3.633   3.585
 7549TIP3    H222605   4.523   3.740   3.599
 7550TIP3   OH222606   4.451   4.665   4.705
 7550TIP3    H122607   4.485   4.640   4.791
 7550TIP3    H222608   4.418   4.754   4.717
 7551TIP3   OH222609   4.588   3.895   3.664
 7551TIP3    H122610   4.679   3.897   3.691
 7551TIP3    H222611   4.575   3.976   3.615
 7552TIP3   OH222612   4.200   4.492   3.523
 7552TIP3    H122613   4.162   4.579   3.531
 7552TIP3    H222614   4.155   4.440   3.589
 7553TIP3   OH222615   3.622   4.287   5.015
 7553TIP3    H122616   3.672   4.302   5.095
 7553TIP3    H222617   3.579   4.202   5.029
 7554TIP3   OH222618   4.361   4.400   5.018
 7554TIP3    H122619   4.298   4.342   4.975
 7554TIP3    H222620   4.447   4.366   4.993
 7555TIP3   OH222621   4.615   4.922   4.608
 7555TIP3    H122622   4.520   4.920   4.618
 7555TIP3    H222623   4.646   4.973   4.683
 7556TIP3   OH222624   5.026   4.003   3.507
 7556TIP3    H122625   4.964   3.950   3.457
 7556TIP3    H222626   5.025   4.088   3.464
 7557TIP3   OH222627   5.239   4.865   4.604
 7557TIP3    H122628   5.144   4.855   4.602
 7557TIP3    H222629   5.269   4.835   4.518
 7558TIP3   OH222630   4.730   4.799   3.425
 7558TIP3    H122631   4.694   4.719   3.462
 7558TIP3    H222632   4.747   4.778   3.333
 7559TIP3   OH222633   3.844   4.680   4.039
 7559TIP3    H122634   3.864   4.745   3.973
 7559TIP3    H222635   3.756   4.649   4.016
 7560TIP3   OH222636   3.405   3.968   3.710
 7560TIP3    H122637   3.463   4.041   3.733
 7560TIP3    H222638   3.335   3.970   3.775
 7561TIP3   OH222639   4.125   5.011   4.478
 7561TIP3    H122640   4.162   5.085   4.429
 7561TIP3    H222641   4.199   4.977   4.528
 7562TIP3   OH222642   3.768   4.913   3.859
 7562TIP3    H122643   3.686   4.919   3.909
 7562TIP3    H222644   3.804   5.002   3.863
 7563TIP3   OH222645   4.521   4.633   4.444
 7563TIP3    H122646   4.487   4.645   4.532
 7563TIP3    H222647   4.605   4.588   4.456
 7564TIP3   OH222648   4.477   4.546   3.317
 7564TIP3    H122649   4.536   4.524   3.389
 7564TIP3    H222650   4.391   4.515   3.347
 7565TIP3   OH222651   4.754   5.178   4.487
 7565TIP3    H122652   4.677   5.123   4.483
 7565TIP3    H222653   4.741   5.243   4.418
 7566TIP3   OH222654   4.821   5.017   3.142
 7566TIP3    H122655   4.859   5.083   3.083
 7566TIP3    H222656   4.743   5.058   3.177
 7567TIP3   OH222657   3.844   3.792   5.008
 7567TIP3    H122658   3.748   3.793   5.016
 7567TIP3    H222659   3.874   3.733   5.078
 7568TIP3   OH222660   4.661   4.492   3.514
 7568TIP3    H122661   4.627   4.432   3.580
 7568TIP3    H222662   4.756   4.475   3.512
 7569TIP3   OH222663   3.562   4.872   4.642
 7569TIP3    H122664   3.614   4.804   4.684
 7569TIP3    H222665   3.584   4.952   4.689
 7570TIP3   OH222666   3.847   4.518   3.325
 7570TIP3    H122667   3.863   4.428   3.297
 7570TIP3    H222668   3.825   4.511   3.418
 7571TIP3   OH222669   3.793   4.526   3.597
 7571TIP3    H122670   3.874   4.497   3.639
 7571TIP3    H222671   3.794   4.621   3.604
 7572TIP3   OH222672   4.680   3.858   4.699
 7572TIP3    H122673   4.763   3.891   4.732
 7572TIP3    H222674   4.665   3.777   4.747
 7573TIP3   OH222675   4.554   3.594   3.854
 7573TIP3    H122676   4.546   3.620   3.762
 7573TIP3    H222677   4.603   3.665   3.895
 7574TIP3   OH222678   4.060   4.725   3.543
 7574TIP3    H122679   3.975   4.745   3.582
 7574TIP3    H222680   4.076   4.798   3.483
 7575TIP3   OH222681   4.522   4.104   4.760
 7575TIP3    H122682   4.546   4.148   4.841
 7575TIP3    H222683   4.568   4.020   4.764
 7576TIP3   OH222684   4.391   3.534   4.065
 7576TIP3    H122685   4.428   3.589   4.134
 7576TIP3    H222686   4.445   3.553   3.988
 7577TIP3   OH222687   3.805   4.800   3.613
 7577TIP3    H122688   3.777   4.867   3.551
 7577TIP3    H222689   3.791   4.839   3.699
 7578TIP3   OH222690   3.902   3.510   3.839
 7578TIP3    H122691   3.889   3.596   3.880
 7578TIP3    H222692   3.993   3.488   3.858
 7579TIP3   OH222693   5.154   3.997   4.752
 7579TIP3    H122694   5.060   4.006   4.763
 7579TIP3    H222695   5.164   3.951   4.669
 7580TIP3   OH222696   3.517   4.438   3.583
 7580TIP3    H122697   3.589   4.497   3.606
 7580TIP3    H222698   3.559   4.367   3.533
 7581TIP3   OH222699   3.463   3.699   3.739
 7581TIP3    H122700   3.473   3.794   3.732
 7581TIP3    H222701   3.383   3.680   3.690
 7582TIP3   OH222702   4.777   5.161   4.078
 7582TIP3    H122703   4.733   5.205   4.005
 7582TIP3    H222704   4.870   5.176   4.062
 7583TIP3   OH222705   3.848   3.427   4.616
 7583TIP3    H122706   3.819   3.398   4.530
 7583TIP3    H222707   3.841   3.349   4.671
 7584TIP3   OH222708   3.395   4.643   3.988
 7584TIP3    H122709   3.326   4.669   4.050
 7584TIP3    H222710   3.367   4.681   3.905
 7585TIP3   OH222711   3.554   5.187   5.065
 7585TIP3    H122712   3.638   5.190   5.110
 7585TIP3    H222713   3.532   5.094   5.060
 7586TIP3   OH222714   4.029   5.142   5.107
 7586TIP3    H122715   4.123   5.129   5.114
 7586TIP3    H222716   4.002   5.084   5.037
 7587TIP3   OH222717   4.011   4.719   3.232
 7587TIP3    H122718   3.955   4.652   3.271
 7587TIP3    H222719   4.087   4.671   3.200
 7588TIP3   OH222720   4.670   5.055   4.843
 7588TIP3    H122721   4.662   4.987   4.910
 7588TIP3    H222722   4.745   5.107   4.871
 7589TIP3   OH222723   4.448   4.764   3.147
 7589TIP3    H122724   4.482   4.695   3.204
 7589TIP3    H222725   4.501   4.758   3.068
 7590TIP3   OH222726   3.678   4.591   5.263
 7590TIP3    H122727   3.695   4.498   5.274
 7590TIP3    H222728   3.594   4.596   5.218
 7591TIP3   OH222729   3.659   4.237   3.461
 7591TIP3    H122730   3.713   4.209   3.535
 7591TIP3    H222731   3.720   4.242   3.387
 7592TIP3   OH222732   4.286   4.676   5.035
 7592TIP3    H122733   4.247   4.696   4.950
 7592TIP3    H222734   4.317   4.586   5.027
 7593TIP3   OH222735   4.169   4.435   3.259
 7593TIP3    H122736   4.171   4.452   3.353
 7593TIP3    H222737   4.173   4.340   3.252
 7594TIP3   OH222738   4.778   4.688   4.637
 7594TIP3    H122739   4.856   4.728   4.598
 7594TIP3    H222740   4.710   4.754   4.626
 7595TIP3   OH222741   3.798   4.330   5.242
 7595TIP3    H122742   3.873   4.279   5.210
 7595TIP3    H222743   3.825   4.359   5.329
 7596TIP3   OH222744   3.868   4.131   3.682
 7596TIP3    H122745   3.835   4.067   3.747
 7596TIP3    H222746   3.909   4.077   3.615
 7597TIP3   OH222747   4.136   4.207   4.908
 7597TIP3    H122748   4.062   4.267   4.915
 7597TIP3    H222749   4.187   4.240   4.834
 7598TIP3   OH222750   3.969   3.942   3.515
 7598TIP3    H122751   3.943   3.945   3.423
 7598TIP3    H222752   4.064   3.939   3.513
 7599TIP3   OH222753   4.656   4.611   5.041
 7599TIP3    H122754   4.730   4.579   4.989
 7599TIP3    H222755   4.645   4.547   5.111
 7600TIP3   OH222756   4.786   4.270   3.183
 7600TIP3    H122757   4.772   4.221   3.102
 7600TIP3    H222758   4.754   4.358   3.164
 7601TIP3   OH222759   4.259   3.998   5.031
 7601TIP3    H122760   4.260   3.918   4.978
 7601TIP3    H222761   4.216   4.063   4.975
 7602TIP3   OH222762   4.260   3.781   4.854
 7602TIP3    H122763   4.290   3.827   4.775
 7602TIP3    H222764   4.170   3.755   4.833
 7603TIP3   OH222765   4.284   4.314   4.713
 7603TIP3    H122766   4.371   4.328   4.676
 7603TIP3    H222767   4.229   4.378   4.670
 7604TIP3   OH222768   4.869   4.285   5.092
 7604TIP3    H122769   4.911   4.199   5.101
 7604TIP3    H222770   4.937   4.340   5.053
 7605TIP3   OH222771   4.908   4.548   4.829
 7605TIP3    H122772   4.850   4.597   4.771
 7605TIP3    H222773   4.995   4.562   4.793
 7606TIP3   OH222774   4.137   4.103   5.265
 7606TIP3    H122775   4.070   4.037   5.282
 7606TIP3    H222776   4.170   4.082   5.178
 7607TIP3   OH222777   4.393   3.544   4.909
 7607TIP3    H122778   4.345   3.625   4.890
 7607TIP3    H222779   4.328   3.475   4.898
 7608TIP3   OH222780   4.515   4.048   5.125
 7608TIP3    H122781   4.503   4.034   5.219
 7608TIP3    H222782   4.430   4.026   5.087
 7609TIP3   OH222783   4.759   4.005   4.984
 7609TIP3    H122784   4.683   4.002   5.043
 7609TIP3    H222785   4.832   3.971   5.037
 7610TIP3   OH222786   4.990   3.943   5.130
 7610TIP3    H122787   5.002   3.849   5.143
 7610TIP3    H222788   4.986   3.979   5.219
 7611TIP3   OH222789   3.977   3.884   5.321
 7611TIP3    H122790   3.977   3.796   5.285
 7611TIP3    H222791   4.015   3.875   5.409
 7612TIP3   OH222792   4.486   3.555   5.166
 7612TIP3    H122793   4.552   3.486   5.163
 7612TIP3    H222794   4.445   3.553   5.080
 7613TIP3   OH222795   4.553   3.772   5.324
 7613TIP3    H122796   4.534   3.701   5.262
 7613TIP3    H222797   4.476   3.829   5.318
 7614TIP3   OH222798   3.777   5.002   3.423
 7614TIP3    H122799   3.871   4.990   3.408
 7614TIP3    H222800   3.747   5.053   3.348
 7615TIP3   OH222801   3.257   4.380   3.642
 7615TIP3    H122802   3.347   4.408   3.625
 7615TIP3    H222803   3.251   4.294   3.600
 7616TIP3   OH222804   3.169   4.992   4.057
 7616TIP3    H122805   3.105   4.933   4.017
 7616TIP3    H222806   3.215   4.936   4.120
 7617TIP3   OH222807   3.304   4.842   4.245
 7617TIP3    H122808   3.294   4.770   4.308
 7617TIP3    H222809   3.358   4.907   4.291
 7618TIP3   OH222810   5.030   5.247   4.042
 7618TIP3    H122811   5.052   5.273   4.131
 7618TIP3    H222812   5.082   5.306   3.986
 7619TIP3   OH222813   5.063   5.262   4.323
 7619TIP3    H122814   5.017   5.179   4.320
 7619TIP3    H222815   5.137   5.246   4.382
 7620TIP3   OH222816   5.106   4.944   4.900
 7620TIP3    H122817   5.035   4.952   4.964
 7620TIP3    H222818   5.149   5.029   4.901
 7621TIP3   OH222819   4.936   4.455   3.534
 7621TIP3    H122820   4.987   4.519   3.484
 7621TIP3    H222821   4.987   4.441   3.614
 7622TIP3   OH222822   4.939   5.020   4.352
 7622TIP3    H122823   4.869   5.061   4.403
 7622TIP3    H222824   4.892   4.973   4.282
 7623TIP3   OH222825   4.987   4.238   3.365
 7623TIP3    H122826   4.921   4.230   3.297
 7623TIP3    H222827   4.957   4.311   3.419
 7624TIP3   OH222828   4.856   3.906   3.318
 7624TIP3    H122829   4.818   3.933   3.234
 7624TIP3    H222830   4.838   3.812   3.323
 7625TIP3   OH222831   5.157   4.605   4.724
 7625TIP3    H122832   5.224   4.537   4.713
 7625TIP3    H222833   5.180   4.672   4.660
 7626TIP3   OH222834   5.332   4.395   4.731
 7626TIP3    H122835   5.258   4.353   4.774
 7626TIP3    H222836   5.407   4.338   4.750
 7627TIP3   OH222837   4.802   3.642   3.309
 7627TIP3    H122838   4.875   3.606   3.359
 7627TIP3    H222839   4.730   3.581   3.324
 7628TIP3   OH222840   4.859   3.896   3.734
 7628TIP3    H122841   4.886   3.811   3.768
 7628TIP3    H222842   4.930   3.922   3.676
 7629TIP3   OH222843   5.087   4.214   4.537
 7629TIP3    H122844   5.004   4.230   4.581
 7629TIP3    H222845   5.079   4.262   4.454
 7630TIP3   OH222846   3.712   3.936   5.291
 7630TIP3    H122847   3.808   3.933   5.291
 7630TIP3    H222848   3.686   3.852   5.327
 7631TIP3   OH222849   5.546   3.809   5.039
 7631TIP3    H122850   5.605   3.743   5.001
 7631TIP3    H222851   5.514   3.859   4.964
 7632TIP3   OH222852   4.972   3.646   3.796
 7632TIP3    H122853   5.017   3.634   3.880
 7632TIP3    H222854   4.907   3.577   3.793
 7633TIP3   OH222855   3.663   3.637   4.643
 7633TIP3    H122856   3.718   3.559   4.639
 7633TIP3    H222857   3.721   3.709   4.619
 7634TIP3   OH222858   5.409   3.940   4.842
 7634TIP3    H122859   5.327   3.985   4.863
 7634TIP3    H222860   5.383   3.866   4.788
 7635TIP3   OH222861   5.050   3.578   3.430
 7635TIP3    H122862   5.087   3.509   3.375
 7635TIP3    H222863   5.115   3.647   3.429
 7636TIP3   OH222864   3.453   3.412   4.193
 7636TIP3    H122865   3.363   3.403   4.223
 7636TIP3    H222866   3.448   3.466   4.115
 7637TIP3   OH222867   4.630   5.101   3.702
 7637TIP3    H122868   4.674   5.101   3.617
 7637TIP3    H222869   4.662   5.180   3.746
 7638TIP3   OH222870   3.676   3.498   5.011
 7638TIP3    H122871   3.624   3.484   5.090
 7638TIP3    H222872   3.611   3.521   4.944
 7639TIP3   OH222873   3.714   4.919   5.081
 7639TIP3    H122874   3.623   4.893   5.064
 7639TIP3    H222875   3.729   4.897   5.173
 7640TIP3   OH222876   3.898   4.955   4.627
 7640TIP3    H122877   3.848   5.028   4.591
 7640TIP3    H222878   3.984   4.963   4.585
 7641TIP3   OH222879   4.338   5.194   4.769
 7641TIP3    H122880   4.378   5.192   4.856
 7641TIP3    H222881   4.400   5.244   4.715
 7642TIP3   OH222882   4.519   5.347   4.631
 7642TIP3    H122883   4.587   5.296   4.586
 7642TIP3    H222884   4.567   5.404   4.691
 7643TIP3   OH222885   5.312   3.702   4.726
 7643TIP3    H122886   5.222   3.694   4.693
 7643TIP3    H222887   5.348   3.613   4.719
 7644TIP3   OH222888   3.566   5.203   4.659
 7644TIP3    H122889   3.480   5.235   4.632
 7644TIP3    H222890   3.586   5.251   4.738
 7645TIP3   OH222891   3.804   5.184   4.512
 7645TIP3    H122892   3.719   5.197   4.555
 7645TIP3    H222893   3.791   5.217   4.423
 7646TIP3   OH222894   4.231   5.213   4.310
 7646TIP3    H122895   4.164   5.228   4.243
 7646TIP3    H222896   4.245   5.299   4.350
 7647TIP3   OH222897   4.501   5.149   4.359
 7647TIP3    H122898   4.408   5.166   4.344
 7647TIP3    H222899   4.546   5.224   4.319
 7648TIP3   OH222900   4.709   5.343   4.274
 7648TIP3    H122901   4.693   5.427   4.229
 7648TIP3    H222902   4.733   5.283   4.203
 7649TIP3   OH222903   3.482   4.996   4.400
 7649TIP3    H122904   3.507   4.973   4.490
 7649TIP3    H222905   3.551   4.959   4.345
 7650TIP3   OH222906   3.677   4.875   4.259
 7650TIP3    H122907   3.692   4.791   4.302
 7650TIP3    H222908   3.764   4.913   4.250
 7651TIP3   OH222909   3.942   4.967   4.263
 7651TIP3    H122910   3.969   4.877   4.243
 7651TIP3    H222911   3.989   4.989   4.343
 7652TIP3   OH222912   4.527   3.611   4.335
 7652TIP3    H122913   4.479   3.551   4.391
 7652TIP3    H222914   4.605   3.562   4.308
 7653TIP3   OH222915   5.040   3.512   4.255
 7653TIP3    H122916   5.075   3.554   4.177
 7653TIP3    H222917   4.945   3.517   4.245
 7654TIP3   OH222918   5.138   3.601   4.015
 7654TIP3    H122919   5.205   3.544   3.977
 7654TIP3    H222920   5.170   3.690   3.999
 7655TIP3   OH222921   3.755   3.328   4.383
 7655TIP3    H122922   3.666   3.294   4.376
 7655TIP3    H222923   3.810   3.252   4.363
 7656TIP3   OH222924   3.534   3.206   4.007
 7656TIP3    H122925   3.581   3.254   3.939
 7656TIP3    H222926   3.524   3.268   4.079
 7657TIP3   OH222927   4.222   3.368   4.244
 7657TIP3    H122928   4.279   3.414   4.182
 7657TIP3    H222929   4.251   3.398   4.330
 7658TIP3   OH222930   4.765   3.505   4.226
 7658TIP3    H122931   4.757   3.474   4.136
 7658TIP3    H222932   4.750   3.427   4.280
 7659TIP3   OH222933   4.785   3.435   3.792
 7659TIP3    H122934   4.700   3.478   3.803
 7659TIP3    H222935   4.774   3.349   3.833
 7660TIP3   OH222936   3.267   4.776   3.790
 7660TIP3    H122937   3.184   4.740   3.758
 7660TIP3    H222938   3.263   4.869   3.768
 7661TIP3   OH222939   3.674   3.359   3.767
 7661TIP3    H122940   3.717   3.291   3.713
 7661TIP3    H222941   3.747   3.410   3.802
 7662TIP3   OH222942   4.179   3.563   3.879
 7662TIP3    H122943   4.242   3.515   3.933
 7662TIP3    H222944   4.201   3.655   3.893
 7663TIP3   OH222945   4.043   4.955   3.369
 7663TIP3    H122946   4.129   4.982   3.336
 7663TIP3    H222947   4.018   4.882   3.312
 7664TIP3   OH222948   4.763   5.074   3.462
 7664TIP3    H122949   4.754   4.979   3.455
 7664TIP3    H222950   4.717   5.108   3.386
 7665TIP3   OH222951   3.974   3.612   5.258
 7665TIP3    H122952   3.936   3.541   5.309
 7665TIP3    H222953   4.067   3.612   5.282
 7666TIP3   OH222954   4.226   3.608   5.374
 7666TIP3    H122955   4.308   3.584   5.331
 7666TIP3    H222956   4.211   3.540   5.439
 7667TIP3   OH222957   3.347   4.792   3.426
 7667TIP3    H122958   3.351   4.814   3.520
 7667TIP3    H222959   3.431   4.751   3.408
 7668TIP3   OH222960   5.053   3.671   5.160
 7668TIP3    H122961   5.067   3.640   5.249
 7668TIP3    H222962   5.139   3.666   5.119
 7669TIP3   OH222963   4.983   5.224   4.650
 7669TIP3    H122964   4.907   5.192   4.601
 7669TIP3    H222965   4.967   5.318   4.659
 7670TIP3   OH222966   6.487   4.898   3.501
 7670TIP3    H122967   6.563   4.857   3.542
 7670TIP3    H222968   6.502   4.992   3.511
 7671TIP3   OH222969   5.227   4.092   3.685
 7671TIP3    H122970   5.201   4.183   3.698
 7671TIP3    H222971   5.156   4.054   3.633
 7672TIP3   OH222972   6.150   5.361   3.499
 7672TIP3    H122973   6.190   5.292   3.446
 7672TIP3    H222974   6.133   5.320   3.584
 7673TIP3   OH222975   6.029   4.831   3.852
 7673TIP3    H122976   6.032   4.749   3.802
 7673TIP3    H222977   6.121   4.850   3.870
 7674TIP3   OH222978   7.068   4.143   3.841
 7674TIP3    H122979   7.098   4.224   3.883
 7674TIP3    H222980   7.096   4.152   3.750
 7675TIP3   OH222981   6.496   4.300   3.906
 7675TIP3    H122982   6.531   4.235   3.967
 7675TIP3    H222983   6.497   4.256   3.821
 7676TIP3   OH222984   6.501   4.072   3.456
 7676TIP3    H122985   6.565   4.065   3.527
 7676TIP3    H222986   6.549   4.112   3.384
 7677TIP3   OH222987   7.142   4.352   4.014
 7677TIP3    H122988   7.059   4.394   3.990
 7677TIP3    H222989   7.150   4.367   4.108
 7678TIP3   OH222990   5.798   3.963   4.284
 7678TIP3    H122991   5.748   3.994   4.209
 7678TIP3    H222992   5.743   3.983   4.359
 7679TIP3   OH222993   6.153   4.818   3.298
 7679TIP3    H122994   6.111   4.781   3.221
 7679TIP3    H222995   6.103   4.897   3.319
 7680TIP3   OH222996   5.908   4.771   4.105
 7680TIP3    H122997   5.813   4.757   4.108
 7680TIP3    H222998   5.925   4.792   4.013
 7681TIP3   OH222999   6.699   4.088   3.644
 7681TIP3    H123000   6.692   4.026   3.717
 7681TIP3    H223001   6.768   4.149   3.671
 7682TIP3   OH223002   5.672   4.062   4.056
 7682TIP3    H123003   5.716   4.145   4.075
 7682TIP3    H223004   5.652   4.067   3.962
 7683TIP3   OH223005   5.115   4.627   3.406
 7683TIP3    H123006   5.083   4.647   3.318
 7683TIP3    H223007   5.150   4.710   3.438
 7684TIP3   OH223008   6.564   5.141   3.641
 7684TIP3    H123009   6.479   5.132   3.685
 7684TIP3    H223010   6.560   5.226   3.599
 7685TIP3   OH223011   6.861   4.046   4.013
 7685TIP3    H123012   6.773   4.058   3.978
 7685TIP3    H223013   6.918   4.076   3.942
 7686TIP3   OH223014   6.152   3.682   4.000
 7686TIP3    H123015   6.137   3.588   4.011
 7686TIP3    H223016   6.076   3.723   4.042
 7687TIP3   OH223017   6.270   5.186   3.320
 7687TIP3    H123018   6.312   5.102   3.299
 7687TIP3    H223019   6.328   5.252   3.283
 7688TIP3   OH223020   6.410   4.970   3.232
 7688TIP3    H123021   6.384   4.901   3.171
 7688TIP3    H223022   6.432   4.925   3.313
 7689TIP3   OH223023   6.793   5.058   3.996
 7689TIP3    H123024   6.791   4.981   3.938
 7689TIP3    H223025   6.773   5.132   3.938
 7690TIP3   OH223026   6.090   4.447   3.241
 7690TIP3    H123027   6.011   4.501   3.227
 7690TIP3    H223028   6.129   4.440   3.154
 7691TIP3   OH223029   6.046   4.232   2.962
 7691TIP3    H123030   6.110   4.286   3.008
 7691TIP3    H223031   6.098   4.169   2.913
 7692TIP3   OH223032   6.991   4.691   3.837
 7692TIP3    H123033   6.910   4.740   3.843
 7692TIP3    H223034   7.025   4.711   3.750
 7693TIP3   OH223035   6.426   4.536   3.208
 7693TIP3    H123036   6.362   4.547   3.279
 7693TIP3    H223037   6.504   4.502   3.251
 7694TIP3   OH223038   6.676   4.575   4.141
 7694TIP3    H123039   6.670   4.654   4.193
 7694TIP3    H223040   6.590   4.567   4.099
 7695TIP3   OH223041   5.796   4.959   3.769
 7695TIP3    H123042   5.778   4.911   3.688
 7695TIP3    H223043   5.878   4.922   3.802
 7696TIP3   OH223044   6.332   5.133   3.778
 7696TIP3    H123045   6.314   5.219   3.816
 7696TIP3    H223046   6.304   5.071   3.846
 7697TIP3   OH223047   5.934   5.058   4.315
 7697TIP3    H123048   5.873   5.118   4.358
 7697TIP3    H223049   5.878   4.994   4.272
 7698TIP3   OH223050   6.271   4.386   3.037
 7698TIP3    H123051   6.327   4.446   3.086
 7698TIP3    H223052   6.292   4.403   2.945
 7699TIP3   OH223053   5.699   4.605   4.429
 7699TIP3    H123054   5.709   4.692   4.467
 7699TIP3    H223055   5.606   4.598   4.408
 7700TIP3   OH223056   6.015   5.068   3.329
 7700TIP3    H123057   6.097   5.118   3.333
 7700TIP3    H223058   5.957   5.122   3.275
 7701TIP3   OH223059   5.730   5.223   4.404
 7701TIP3    H123060   5.697   5.226   4.314
 7701TIP3    H223061   5.653   5.201   4.457
 7702TIP3   OH223062   6.788   3.627   3.102
 7702TIP3    H123063   6.705   3.644   3.145
 7702TIP3    H223064   6.803   3.703   3.046
 7703TIP3   OH223065   5.541   4.356   3.417
 7703TIP3    H123066   5.464   4.394   3.374
 7703TIP3    H223067   5.508   4.275   3.456
 7704TIP3   OH223068   6.591   4.996   2.647
 7704TIP3    H123069   6.597   5.090   2.629
 7704TIP3    H223070   6.680   4.963   2.633
 7705TIP3   OH223071   5.296   4.744   4.375
 7705TIP3    H123072   5.230   4.696   4.325
 7705TIP3    H223073   5.351   4.676   4.414
 7706TIP3   OH223074   7.028   5.400   4.043
 7706TIP3    H123075   7.030   5.305   4.054
 7706TIP3    H223076   6.947   5.428   4.085
 7707TIP3   OH223077   6.132   5.183   4.175
 7707TIP3    H123078   6.132   5.274   4.204
 7707TIP3    H223079   6.061   5.142   4.224
 7708TIP3   OH223080   5.900   5.311   3.125
 7708TIP3    H123081   5.855   5.291   3.044
 7708TIP3    H223082   5.866   5.397   3.151
 7709TIP3   OH223083   5.335   5.161   3.513
 7709TIP3    H123084   5.381   5.156   3.596
 7709TIP3    H223085   5.279   5.084   3.511
 7710TIP3   OH223086   6.100   5.213   2.763
 7710TIP3    H123087   6.156   5.145   2.726
 7710TIP3    H223088   6.133   5.225   2.852
 7711TIP3   OH223089   6.150   5.264   3.034
 7711TIP3    H123090   6.062   5.273   3.072
 7711TIP3    H223091   6.201   5.220   3.102
 7712TIP3   OH223092   6.915   4.526   4.312
 7712TIP3    H123093   6.834   4.537   4.262
 7712TIP3    H223094   6.936   4.433   4.305
 7713TIP3   OH223095   5.911   3.764   4.124
 7713TIP3    H123096   5.827   3.730   4.090
 7713TIP3    H223097   5.886   3.839   4.178
 7714TIP3   OH223098   6.449   3.874   4.321
 7714TIP3    H123099   6.517   3.844   4.381
 7714TIP3    H223100   6.367   3.854   4.366
 7715TIP3   OH223101   6.685   4.306   4.240
 7715TIP3    H123102   6.636   4.299   4.322
 7715TIP3    H223103   6.659   4.391   4.204
 7716TIP3   OH223104   6.345   4.440   2.788
 7716TIP3    H123105   6.308   4.410   2.705
 7716TIP3    H223106   6.433   4.471   2.765
 7717TIP3   OH223107   6.059   3.803   3.095
 7717TIP3    H123108   6.025   3.802   3.185
 7717TIP3    H223109   6.020   3.726   3.053
 7718TIP3   OH223110   5.834   4.283   4.151
 7718TIP3    H123111   5.779   4.291   4.229
 7718TIP3    H223112   5.821   4.365   4.103
 7719TIP3   OH223113   6.221   4.253   3.381
 7719TIP3    H123114   6.171   4.321   3.337
 7719TIP3    H223115   6.281   4.219   3.315
 7720TIP3   OH223116   6.399   4.528   4.482
 7720TIP3    H123117   6.372   4.456   4.537
 7720TIP3    H223118   6.494   4.534   4.495
 7721TIP3   OH223119   5.669   4.293   4.363
 7721TIP3    H123120   5.680   4.367   4.422
 7721TIP3    H223121   5.662   4.217   4.421
 7722TIP3   OH223122   5.716   3.786   3.061
 7722TIP3    H123123   5.707   3.781   3.156
 7722TIP3    H223124   5.639   3.835   3.032
 7723TIP3   OH223125   5.262   3.824   3.938
 7723TIP3    H123126   5.336   3.864   3.982
 7723TIP3    H223127   5.294   3.804   3.850
 7724TIP3   OH223128   5.224   3.805   3.448
 7724TIP3    H123129   5.274   3.835   3.372
 7724TIP3    H223130   5.167   3.878   3.471
 7725TIP3   OH223131   6.427   4.523   4.043
 7725TIP3    H123132   6.453   4.445   3.993
 7725TIP3    H223133   6.384   4.488   4.121
 7726TIP3   OH223134   5.512   4.044   3.751
 7726TIP3    H123135   5.421   4.048   3.722
 7726TIP3    H223136   5.547   3.965   3.710
 7727TIP3   OH223137   5.763   4.022   3.402
 7727TIP3    H123138   5.850   4.054   3.378
 7727TIP3    H223139   5.706   4.052   3.331
 7728TIP3   OH223140   6.558   4.033   3.926
 7728TIP3    H123141   6.523   4.046   4.014
 7728TIP3    H223142   6.491   3.982   3.881
 7729TIP3   OH223143   5.602   4.078   3.187
 7729TIP3    H123144   5.534   4.027   3.142
 7729TIP3    H223145   5.657   4.111   3.116
 7730TIP3   OH223146   6.726   5.748   4.137
 7730TIP3    H123147   6.719   5.771   4.044
 7730TIP3    H223148   6.803   5.796   4.168
 7731TIP3   OH223149   5.696   4.847   4.563
 7731TIP3    H123150   5.766   4.885   4.616
 7731TIP3    H223151   5.616   4.860   4.614
 7732TIP3   OH223152   5.649   3.804   3.688
 7732TIP3    H123153   5.623   3.730   3.743
 7732TIP3    H223154   5.706   3.765   3.621
 7733TIP3   OH223155   5.852   4.599   3.196
 7733TIP3    H123156   5.786   4.532   3.182
 7733TIP3    H223157   5.834   4.633   3.284
 7734TIP3   OH223158   6.767   4.846   3.824
 7734TIP3    H123159   6.802   4.894   3.749
 7734TIP3    H223160   6.672   4.844   3.809
 7735TIP3   OH223161   6.312   3.907   3.075
 7735TIP3    H123162   6.218   3.888   3.075
 7735TIP3    H223163   6.318   4.002   3.088
 7736TIP3   OH223164   6.257   4.928   4.187
 7736TIP3    H123165   6.261   4.886   4.273
 7736TIP3    H223166   6.212   5.011   4.203
 7737TIP3   OH223167   6.389   4.166   3.170
 7737TIP3    H123168   6.485   4.166   3.170
 7737TIP3    H223169   6.366   4.236   3.109
 7738TIP3   OH223170   5.998   4.749   3.021
 7738TIP3    H123171   5.954   4.834   3.025
 7738TIP3    H223172   5.947   4.693   3.079
 7739TIP3   OH223173   5.426   4.547   4.517
 7739TIP3    H123174   5.484   4.570   4.590
 7739TIP3    H223175   5.379   4.469   4.548
 7740TIP3   OH223176   6.152   4.659   4.506
 7740TIP3    H123177   6.085   4.603   4.467
 7740TIP3    H223178   6.235   4.621   4.478
 7741TIP3   OH223179   6.412   5.175   4.094
 7741TIP3    H123180   6.317   5.171   4.107
 7741TIP3    H223181   6.444   5.229   4.166
 7742TIP3   OH223182   7.043   5.109   4.079
 7742TIP3    H123183   6.948   5.106   4.075
 7742TIP3    H223184   7.071   5.079   3.992
 7743TIP3   OH223185   6.528   5.066   2.910
 7743TIP3    H123186   6.499   4.994   2.966
 7743TIP3    H223187   6.539   5.027   2.824
 7744TIP3   OH223188   5.636   4.923   3.505
 7744TIP3    H123189   5.658   5.002   3.457
 7744TIP3    H223190   5.545   4.905   3.483
 7745TIP3   OH223191   5.213   4.231   3.206
 7745TIP3    H123192   5.260   4.311   3.226
 7745TIP3    H223193   5.137   4.232   3.264
 7746TIP3   OH223194   5.783   4.693   3.438
 7746TIP3    H123195   5.742   4.775   3.466
 7746TIP3    H223196   5.781   4.637   3.516
 7747TIP3   OH223197   5.917   5.269   3.965
 7747TIP3    H123198   5.957   5.342   3.917
 7747TIP3    H223199   5.988   5.232   4.016
 7748TIP3   OH223200   5.567   5.167   3.353
 7748TIP3    H123201   5.482   5.176   3.397
 7748TIP3    H223202   5.603   5.256   3.352
 7749TIP3   OH223203   6.313   4.867   3.935
 7749TIP3    H123204   6.270   4.886   4.019
 7749TIP3    H223205   6.406   4.864   3.956
 7750TIP3   OH223206   6.282   4.802   2.811
 7750TIP3    H123207   6.336   4.780   2.887
 7750TIP3    H223208   6.195   4.766   2.832
 7751TIP3   OH223209   6.551   5.434   3.971
 7751TIP3    H123210   6.472   5.381   3.967
 7751TIP3    H223211   6.539   5.500   3.903
 7752TIP3   OH223212   6.618   5.273   2.628
 7752TIP3    H123213   6.656   5.341   2.572
 7752TIP3    H223214   6.539   5.312   2.664
 7753TIP3   OH223215   5.636   4.045   4.502
 7753TIP3    H123216   5.541   4.044   4.506
 7753TIP3    H223217   5.665   3.983   4.570
 7754TIP3   OH223218   6.443   4.745   3.030
 7754TIP3    H123219   6.426   4.672   3.089
 7754TIP3    H223220   6.537   4.740   3.011
 7755TIP3   OH223221   5.644   4.775   2.813
 7755TIP3    H123222   5.657   4.686   2.781
 7755TIP3    H223223   5.621   4.765   2.905
 7756TIP3   OH223224   5.588   4.784   3.086
 7756TIP3    H123225   5.668   4.753   3.129
 7756TIP3    H223226   5.594   4.879   3.092
 7757TIP3   OH223227   5.320   4.476   3.289
 7757TIP3    H123228   5.254   4.519   3.344
 7757TIP3    H223229   5.338   4.539   3.219
 7758TIP3   OH223230   6.479   4.105   4.177
 7758TIP3    H123231   6.552   4.149   4.221
 7758TIP3    H223232   6.461   4.027   4.230
 7759TIP3   OH223233   6.360   3.858   3.346
 7759TIP3    H123234   6.342   3.876   3.254
 7759TIP3    H223235   6.396   3.940   3.380
 7760TIP3   OH223236   5.857   4.981   3.034
 7760TIP3    H123237   5.771   5.005   3.069
 7760TIP3    H223238   5.873   5.044   2.965
 7761TIP3   OH223239   6.056   4.047   3.443
 7761TIP3    H123240   6.117   4.113   3.412
 7761TIP3    H223241   6.043   4.068   3.536
 7762TIP3   OH223242   6.341   4.380   4.248
 7762TIP3    H123243   6.343   4.420   4.335
 7762TIP3    H223244   6.354   4.286   4.265
 7763TIP3   OH223245   6.198   3.770   3.548
 7763TIP3    H123246   6.223   3.835   3.614
 7763TIP3    H223247   6.246   3.795   3.469
 7764TIP3   OH223248   5.603   5.058   3.100
 7764TIP3    H123249   5.573   5.123   3.037
 7764TIP3    H223250   5.587   5.098   3.186
 7765TIP3   OH223251   5.704   3.765   3.335
 7765TIP3    H123252   5.698   3.853   3.372
 7765TIP3    H223253   5.796   3.742   3.341
 7766TIP3   OH223254   6.951   4.260   4.229
 7766TIP3    H123255   6.857   4.264   4.243
 7766TIP3    H223256   6.961   4.205   4.151
 7767TIP3   OH223257   6.593   4.427   3.633
 7767TIP3    H123258   6.579   4.341   3.594
 7767TIP3    H223259   6.674   4.418   3.683
 7768TIP3   OH223260   5.323   4.680   3.088
 7768TIP3    H123261   5.392   4.745   3.099
 7768TIP3    H223262   5.359   4.618   3.024
 7769TIP3   OH223263   5.260   3.959   3.227
 7769TIP3    H123264   5.261   4.055   3.221
 7769TIP3    H223265   5.186   3.934   3.171
 7770TIP3   OH223266   6.578   5.410   3.566
 7770TIP3    H123267   6.531   5.455   3.496
 7770TIP3    H223268   6.670   5.428   3.549
 7771TIP3   OH223269   5.647   3.681   4.096
 7771TIP3    H123270   5.619   3.651   4.010
 7771TIP3    H223271   5.638   3.604   4.152
 7772TIP3   OH223272   5.186   4.898   3.474
 7772TIP3    H123273   5.119   4.928   3.535
 7772TIP3    H223274   5.162   4.937   3.390
 7773TIP3   OH223275   5.350   5.444   4.549
 7773TIP3    H123276   5.433   5.448   4.596
 7773TIP3    H223277   5.328   5.351   4.546
 7774TIP3   OH223278   5.826   5.399   4.594
 7774TIP3    H123279   5.920   5.385   4.598
 7774TIP3    H223280   5.795   5.342   4.525
 7775TIP3   OH223281   5.810   4.976   2.723
 7775TIP3    H123282   5.754   4.907   2.758
 7775TIP3    H223283   5.884   4.929   2.685
 7776TIP3   OH223284   6.470   5.310   4.326
 7776TIP3    H123285   6.462   5.244   4.394
 7776TIP3    H223286   6.541   5.367   4.355
 7777TIP3   OH223287   6.245   5.018   2.635
 7777TIP3    H123288   6.281   4.952   2.694
 7777TIP3    H223289   6.300   5.012   2.556
 7778TIP3   OH223290   5.479   4.852   4.745
 7778TIP3    H123291   5.497   4.759   4.754
 7778TIP3    H223292   5.392   4.857   4.706
 7779TIP3   OH223293   5.457   4.493   2.946
 7779TIP3    H123294   5.511   4.460   3.018
 7779TIP3    H223295   5.518   4.500   2.872
 7780TIP3   OH223296   6.084   4.934   4.519
 7780TIP3    H123297   6.037   4.951   4.438
 7780TIP3    H223298   6.110   4.842   4.513
 7781TIP3   OH223299   5.970   4.694   2.754
 7781TIP3    H123300   5.972   4.708   2.848
 7781TIP3    H223301   5.972   4.599   2.743
 7782TIP3   OH223302   6.572   4.938   4.115
 7782TIP3    H123303   6.648   4.987   4.084
 7782TIP3    H223304   6.502   5.003   4.118
 7783TIP3   OH223305   5.594   4.585   4.732
 7783TIP3    H123306   5.671   4.538   4.700
 7783TIP3    H223307   5.620   4.615   4.820
 7784TIP3   OH223308   5.662   4.402   3.164
 7784TIP3    H123309   5.630   4.367   3.247
 7784TIP3    H223310   5.698   4.327   3.117
 7785TIP3   OH223311   5.938   4.473   4.405
 7785TIP3    H123312   5.854   4.519   4.406
 7785TIP3    H223313   5.981   4.502   4.325
 7786TIP3   OH223314   5.766   4.198   3.002
 7786TIP3    H123315   5.739   4.204   2.911
 7786TIP3    H223316   5.862   4.197   2.999
 7787TIP3   OH223317   6.457   4.870   4.530
 7787TIP3    H123318   6.519   4.827   4.471
 7787TIP3    H223319   6.437   4.804   4.596
 7788TIP3   OH223320   6.571   4.527   2.665
 7788TIP3    H123321   6.555   4.478   2.585
 7788TIP3    H223322   6.538   4.615   2.646
 7789TIP3   OH223323   6.059   4.257   4.514
 7789TIP3    H123324   6.053   4.179   4.459
 7789TIP3    H223325   6.013   4.324   4.464
 7790TIP3   OH223326   6.052   4.048   4.324
 7790TIP3    H123327   6.060   4.101   4.244
 7790TIP3    H223328   5.962   4.015   4.320
 7791TIP3   OH223329   6.082   4.591   4.211
 7791TIP3    H123330   6.147   4.576   4.143
 7791TIP3    H223331   6.026   4.660   4.176
 7792TIP3   OH223332   6.668   4.540   4.580
 7792TIP3    H123333   6.706   4.454   4.596
 7792TIP3    H223334   6.738   4.589   4.536
 7793TIP3   OH223335   6.703   4.807   4.315
 7793TIP3    H123336   6.645   4.853   4.255
 7793TIP3    H223337   6.791   4.823   4.281
 7794TIP3   OH223338   5.936   4.359   4.753
 7794TIP3    H123339   5.868   4.294   4.770
 7794TIP3    H223340   5.965   4.341   4.664
 7795TIP3   OH223341   6.186   3.805   4.394
 7795TIP3    H123342   6.138   3.885   4.370
 7795TIP3    H223343   6.121   3.735   4.384
 7796TIP3   OH223344   6.311   4.305   4.611
 7796TIP3    H123345   6.298   4.289   4.705
 7796TIP3    H223346   6.227   4.284   4.572
 7797TIP3   OH223347   6.555   4.260   4.471
 7797TIP3    H123348   6.480   4.258   4.530
 7797TIP3    H223349   6.627   4.225   4.524
 7798TIP3   OH223350   6.790   4.199   4.616
 7798TIP3    H123351   6.800   4.105   4.629
 7798TIP3    H223352   6.783   4.235   4.705
 7799TIP3   OH223353   5.774   4.141   4.807
 7799TIP3    H123354   5.773   4.053   4.771
 7799TIP3    H223355   5.810   4.131   4.895
 7800TIP3   OH223356   6.284   3.813   4.651
 7800TIP3    H123357   6.348   3.742   4.648
 7800TIP3    H223358   6.241   3.810   4.566
 7801TIP3   OH223359   6.351   4.030   4.808
 7801TIP3    H123360   6.332   3.958   4.748
 7801TIP3    H223361   6.274   4.086   4.805
 7802TIP3   OH223362   5.575   5.260   2.911
 7802TIP3    H123363   5.668   5.249   2.894
 7802TIP3    H223364   5.542   5.309   2.836
 7803TIP3   OH223365   5.054   4.635   3.131
 7803TIP3    H123366   5.144   4.659   3.112
 7803TIP3    H223367   5.042   4.550   3.089
 7804TIP3   OH223368   4.967   5.250   3.539
 7804TIP3    H123369   4.902   5.193   3.498
 7804TIP3    H223370   5.013   5.194   3.601
 7805TIP3   OH223371   5.105   5.100   3.724
 7805TIP3    H123372   5.066   5.041   3.787
 7805TIP3    H223373   5.153   5.164   3.778
 7806TIP3   OH223374   6.832   5.498   3.531
 7806TIP3    H123375   6.857   5.538   3.615
 7806TIP3    H223376   6.889   5.540   3.467
 7807TIP3   OH223377   6.855   5.521   3.815
 7807TIP3    H123378   6.811   5.436   3.805
 7807TIP3    H223379   6.935   5.501   3.864
 7808TIP3   OH223380   6.904   5.200   4.387
 7808TIP3    H123381   6.830   5.209   4.446
 7808TIP3    H223382   6.946   5.286   4.388
 7809TIP3   OH223383   6.714   4.725   3.008
 7809TIP3    H123384   6.784   4.777   2.969
 7809TIP3    H223385   6.751   4.694   3.091
 7810TIP3   OH223386   6.831   4.614   3.226
 7810TIP3    H123387   6.798   4.525   3.237
 7810TIP3    H223388   6.917   4.613   3.267
 7811TIP3   OH223389   6.902   4.972   3.630
 7811TIP3    H123390   6.954   4.906   3.585
 7811TIP3    H223391   6.906   5.048   3.573
 7812TIP3   OH223392   6.728   5.270   3.834
 7812TIP3    H123393   6.660   5.318   3.881
 7812TIP3    H223394   6.683   5.230   3.759
 7813TIP3   OH223395   6.790   4.525   2.826
 7813TIP3    H123396   6.714   4.512   2.768
 7813TIP3    H223397   6.755   4.574   2.900
 7814TIP3   OH223398   6.597   4.163   2.812
 7814TIP3    H123399   6.619   4.202   2.727
 7814TIP3    H223400   6.599   4.068   2.796
 7815TIP3   OH223401   6.634   4.418   3.345
 7815TIP3    H123402   6.657   4.331   3.313
 7815TIP3    H223403   6.675   4.423   3.432
 7816TIP3   OH223404   6.954   4.863   4.213
 7816TIP3    H123405   7.021   4.795   4.204
 7816TIP3    H223406   6.978   4.930   4.149
 7817TIP3   OH223407   7.133   4.660   4.224
 7817TIP3    H123408   7.057   4.613   4.259
 7817TIP3    H223409   7.207   4.601   4.239
 7818TIP3   OH223410   6.603   3.886   2.780
 7818TIP3    H123411   6.663   3.860   2.850
 7818TIP3    H223412   6.521   3.841   2.801
 7819TIP3   OH223413   6.682   4.157   3.244
 7819TIP3    H123414   6.705   4.065   3.260
 7819TIP3    H223415   6.755   4.191   3.192
 7820TIP3   OH223416   6.824   4.339   3.743
 7820TIP3    H123417   6.907   4.357   3.699
 7820TIP3    H223418   6.838   4.367   3.833
 7821TIP3   OH223419   6.892   4.472   3.974
 7821TIP3    H123420   6.819   4.504   4.026
 7821TIP3    H223421   6.927   4.550   3.930
 7822TIP3   OH223422   5.508   4.193   4.779
 7822TIP3    H123423   5.604   4.190   4.777
 7822TIP3    H223424   5.481   4.108   4.815
 7823TIP3   OH223425   7.342   4.066   4.525
 7823TIP3    H123426   7.401   4.000   4.487
 7823TIP3    H223427   7.310   4.116   4.450
 7824TIP3   OH223428   6.764   3.896   3.289
 7824TIP3    H123429   6.810   3.882   3.372
 7824TIP3    H223430   6.699   3.826   3.285
 7825TIP3   OH223431   5.464   3.894   4.130
 7825TIP3    H123432   5.519   3.816   4.126
 7825TIP3    H223433   5.522   3.965   4.104
 7826TIP3   OH223434   7.205   4.198   4.328
 7826TIP3    H123435   7.123   4.242   4.349
 7826TIP3    H223436   7.179   4.124   4.274
 7827TIP3   OH223437   6.835   3.823   2.921
 7827TIP3    H123438   6.880   3.768   2.857
 7827TIP3    H223439   6.885   3.905   2.922
 7828TIP3   OH223440   5.249   3.665   3.680
 7828TIP3    H123441   5.158   3.657   3.707
 7828TIP3    H223442   5.247   3.722   3.603
 7829TIP3   OH223443   6.417   5.369   3.186
 7829TIP3    H123444   6.460   5.355   3.102
 7829TIP3    H223445   6.466   5.440   3.227
 7830TIP3   OH223446   5.471   3.751   4.495
 7830TIP3    H123447   5.421   3.741   4.575
 7830TIP3    H223448   5.407   3.780   4.430
 7831TIP3   OH223449   5.509   5.174   4.566
 7831TIP3    H123450   5.418   5.151   4.549
 7831TIP3    H223451   5.524   5.150   4.658
 7832TIP3   OH223452   5.683   5.217   4.126
 7832TIP3    H123453   5.647   5.296   4.085
 7832TIP3    H223454   5.766   5.202   4.080
 7833TIP3   OH223455   6.135   5.449   4.254
 7833TIP3    H123456   6.172   5.449   4.342
 7833TIP3    H223457   6.196   5.501   4.201
 7834TIP3   OH223458   6.314   5.604   4.118
 7834TIP3    H123459   6.382   5.554   4.071
 7834TIP3    H223460   6.363   5.661   4.177
 7835TIP3   OH223461   7.109   3.958   4.212
 7835TIP3    H123462   7.019   3.949   4.181
 7835TIP3    H223463   7.145   3.869   4.206
 7836TIP3   OH223464   5.357   5.455   4.126
 7836TIP3    H123465   5.270   5.493   4.113
 7836TIP3    H223466   5.382   5.479   4.215
 7837TIP3   OH223467   5.602   5.445   3.998
 7837TIP3    H123468   5.517   5.455   4.041
 7837TIP3    H223469   5.588   5.478   3.910
 7838TIP3   OH223470   6.029   5.470   3.798
 7838TIP3    H123471   5.960   5.483   3.732
 7838TIP3    H223472   6.040   5.556   3.838
 7839TIP3   OH223473   6.297   5.404   3.845
 7839TIP3    H123474   6.204   5.423   3.831
 7839TIP3    H223475   6.343   5.476   3.802
 7840TIP3   OH223476   6.503   5.598   3.759
 7840TIP3    H123477   6.489   5.682   3.716
 7840TIP3    H223478   6.530   5.539   3.687
 7841TIP3   OH223479   5.282   5.261   3.879
 7841TIP3    H123480   5.316   5.287   3.965
 7841TIP3    H223481   5.353   5.212   3.838
 7842TIP3   OH223482   5.486   5.131   3.744
 7842TIP3    H123483   5.520   5.043   3.761
 7842TIP3    H223484   5.564   5.185   3.735
 7843TIP3   OH223485   5.744   5.225   3.750
 7843TIP3    H123486   5.767   5.133   3.738
 7843TIP3    H223487   5.788   5.250   3.831
 7844TIP3   OH223488   6.325   3.875   3.830
 7844TIP3    H123489   6.271   3.814   3.882
 7844TIP3    H223490   6.395   3.820   3.794
 7845TIP3   OH223491   6.835   3.766   3.741
 7845TIP3    H123492   6.871   3.808   3.663
 7845TIP3    H223493   6.740   3.775   3.731
 7846TIP3   OH223494   6.940   3.845   3.499
 7846TIP3    H123495   7.011   3.796   3.457
 7846TIP3    H223496   6.965   3.937   3.489
 7847TIP3   OH223497   5.562   3.582   3.853
 7847TIP3    H123498   5.470   3.558   3.853
 7847TIP3    H223499   5.609   3.499   3.846
 7848TIP3   OH223500   5.355   3.461   3.497
 7848TIP3    H123501   5.382   3.517   3.423
 7848TIP3    H223502   5.326   3.523   3.564
 7849TIP3   OH223503   6.016   3.613   3.728
 7849TIP3    H123504   6.070   3.662   3.666
 7849TIP3    H223505   6.027   3.658   3.812
 7850TIP3   OH223506   6.559   3.762   3.710
 7850TIP3    H123507   6.546   3.727   3.622
 7850TIP3    H223508   6.545   3.686   3.768
 7851TIP3   OH223509   6.581   3.687   3.280
 7851TIP3    H123510   6.498   3.734   3.288
 7851TIP3    H223511   6.564   3.602   3.321
 7852TIP3   OH223512   5.063   5.035   3.276
 7852TIP3    H123513   4.980   4.998   3.245
 7852TIP3    H223514   5.059   5.127   3.250
 7853TIP3   OH223515   5.470   3.615   3.261
 7853TIP3    H123516   5.513   3.553   3.202
 7853TIP3    H223517   5.541   3.668   3.296
 7854TIP3   OH223518   5.983   3.794   3.361
 7854TIP3    H123519   6.039   3.747   3.422
 7854TIP3    H223520   5.997   3.886   3.382
 7855TIP3   OH223521   5.841   5.212   2.856
 7855TIP3    H123522   5.927   5.239   2.824
 7855TIP3    H223523   5.815   5.140   2.799
 7856TIP3   OH223524   6.556   5.333   2.952
 7856TIP3    H123525   6.551   5.238   2.944
 7856TIP3    H223526   6.513   5.366   2.873
 7857TIP3   OH223527   5.770   3.868   4.745
 7857TIP3    H123528   5.732   3.797   4.796
 7857TIP3    H223529   5.863   3.868   4.770
 7858TIP3   OH223530   6.022   3.864   4.861
 7858TIP3    H123531   6.105   3.837   4.820
 7858TIP3    H223532   6.005   3.797   4.928
 7859TIP3   OH223533   5.144   5.050   2.912
 7859TIP3    H123534   5.148   5.075   3.005
 7859TIP3    H223535   5.229   5.008   2.896
 7860TIP3   OH223536   6.849   3.928   4.647
 7860TIP3    H123537   6.862   3.898   4.737
 7860TIP3    H223538   6.936   3.921   4.607
 7861TIP3   OH223539   6.777   5.478   4.140
 7861TIP3    H123540   6.704   5.447   4.087
 7861TIP3    H223541   6.764   5.573   4.144
 7862TIP3   OH223542   8.012   4.846   2.882
 7862TIP3    H123543   8.025   4.939   2.863
 7862TIP3    H223544   7.948   4.844   2.952
 7863TIP3   OH223545   8.048   4.843   3.286
 7863TIP3    H123546   8.079   4.840   3.376
 7863TIP3    H223547   8.005   4.759   3.273
 7864TIP3   OH223548   7.348   4.745   3.653
 7864TIP3    H123549   7.377   4.676   3.713
 7864TIP3    H223550   7.426   4.799   3.639
 7865TIP3   OH223551   8.288   5.145   2.973
 7865TIP3    H123552   8.280   5.087   3.050
 7865TIP3    H223553   8.321   5.227   3.009
 7866TIP3   OH223554   7.325   5.157   3.376
 7866TIP3    H123555   7.314   5.062   3.377
 7866TIP3    H223556   7.419   5.171   3.366
 7867TIP3   OH223557   7.089   4.642   3.339
 7867TIP3    H123558   7.137   4.564   3.366
 7867TIP3    H223559   7.132   4.668   3.257
 7868TIP3   OH223560   7.944   5.615   2.983
 7868TIP3    H123561   7.988   5.546   2.934
 7868TIP3    H223562   7.933   5.580   3.071
 7869TIP3   OH223563   7.849   5.078   3.334
 7869TIP3    H123564   7.885   5.000   3.291
 7869TIP3    H223565   7.926   5.127   3.363
 7870TIP3   OH223566   8.253   4.600   3.363
 7870TIP3    H123567   8.267   4.510   3.393
 7870TIP3    H223568   8.208   4.590   3.279
 7871TIP3   OH223569   7.600   4.239   3.327
 7871TIP3    H123570   7.580   4.311   3.268
 7871TIP3    H223571   7.557   4.163   3.288
 7872TIP3   OH223572   8.299   4.334   2.963
 7872TIP3    H123573   8.345   4.266   3.012
 7872TIP3    H223574   8.364   4.367   2.902
 7873TIP3   OH223575   7.235   4.430   3.432
 7873TIP3    H123576   7.316   4.412   3.479
 7873TIP3    H223577   7.241   4.378   3.352
 7874TIP3   OH223578   7.674   4.633   3.231
 7874TIP3    H123579   7.764   4.608   3.247
 7874TIP3    H223580   7.631   4.552   3.201
 7875TIP3   OH223581   7.593   4.224   3.767
 7875TIP3    H123582   7.537   4.258   3.697
 7875TIP3    H223583   7.543   4.238   3.847
 7876TIP3   OH223584   7.935   5.080   2.760
 7876TIP3    H123585   7.891   5.082   2.676
 7876TIP3    H223586   7.905   5.159   2.805
 7877TIP3   OH223587   7.701   5.000   3.557
 7877TIP3    H123588   7.643   5.065   3.595
 7877TIP3    H223589   7.743   5.045   3.483
 7878TIP3   OH223590   7.473   4.338   3.547
 7878TIP3    H123591   7.531   4.409   3.574
 7878TIP3    H223592   7.518   4.296   3.473
 7879TIP3   OH223593   7.529   5.196   3.659
 7879TIP3    H123594   7.509   5.281   3.619
 7879TIP3    H223595   7.453   5.176   3.713
 7880TIP3   OH223596   6.922   4.883   2.890
 7880TIP3    H123597   6.879   4.904   2.807
 7880TIP3    H223598   6.951   4.967   2.925
 7881TIP3   OH223599   8.363   5.398   3.131
 7881TIP3    H123600   8.278   5.386   3.174
 7881TIP3    H223601   8.356   5.483   3.088
 7882TIP3   OH223602   7.938   3.931   3.486
 7882TIP3    H123603   7.920   3.837   3.498
 7882TIP3    H223604   7.864   3.975   3.527
 7883TIP3   OH223605   8.069   5.440   2.806
 7883TIP3    H123606   8.115   5.359   2.785
 7883TIP3    H223607   8.124   5.509   2.770
 7884TIP3   OH223608   8.199   5.219   2.720
 7884TIP3    H123609   8.135   5.150   2.703
 7884TIP3    H223610   8.248   5.188   2.796
 7885TIP3   OH223611   0.093   5.297   3.482
 7885TIP3    H123612   0.088   5.227   3.417
 7885TIP3    H223613   0.083   5.377   3.432
 7886TIP3   OH223614   8.191   4.753   2.696
 7886TIP3    H123615   8.142   4.780   2.774
 7886TIP3    H223616   8.270   4.711   2.730
 7887TIP3   OH223617   8.445   4.803   3.618
 7887TIP3    H123618   8.471   4.886   3.658
 7887TIP3    H223619   8.356   4.819   3.585
 7888TIP3   OH223620   7.460   4.780   3.121
 7888TIP3    H123621   7.414   4.724   3.059
 7888TIP3    H223622   7.533   4.726   3.153
 7889TIP3   OH223623   7.589   5.192   3.272
 7889TIP3    H123624   7.567   5.161   3.184
 7889TIP3    H223625   7.676   5.156   3.289
 7890TIP3   OH223626   7.599   4.754   3.480
 7890TIP3    H123627   7.628   4.731   3.391
 7890TIP3    H223628   7.638   4.840   3.497
 7891TIP3   OH223629   8.125   5.391   3.258
 7891TIP3    H123630   8.109   5.474   3.303
 7891TIP3    H223631   8.105   5.324   3.322
 7892TIP3   OH223632   7.733   5.310   3.805
 7892TIP3    H123633   7.675   5.372   3.849
 7892TIP3    H223634   7.674   5.257   3.752
 7893TIP3   OH223635   7.490   4.865   3.912
 7893TIP3    H123636   7.497   4.952   3.950
 7893TIP3    H223637   7.397   4.843   3.918
 7894TIP3   OH223638   7.817   5.320   2.809
 7894TIP3    H123639   7.894   5.375   2.820
 7894TIP3    H223640   7.752   5.377   2.768
 7895TIP3   OH223641   7.528   5.476   3.889
 7895TIP3    H123642   7.496   5.482   3.799
 7895TIP3    H223643   7.450   5.455   3.941
 7896TIP3   OH223644   7.322   4.625   2.930
 7896TIP3    H123645   7.258   4.673   2.878
 7896TIP3    H223646   7.285   4.537   2.939
 7897TIP3   OH223647   8.383   5.259   2.135
 7897TIP3    H123648   8.374   5.349   2.103
 7897TIP3    H223649   8.462   5.226   2.092
 7898TIP3   OH223650   7.106   5.008   3.837
 7898TIP3    H123651   7.047   4.989   3.764
 7898TIP3    H223652   7.146   4.924   3.859
 7899TIP3   OH223653   6.964   5.200   3.479
 7899TIP3    H123654   7.057   5.197   3.458
 7899TIP3    H223655   6.952   5.283   3.525
 7900TIP3   OH223656   7.931   5.439   3.664
 7900TIP3    H123657   7.931   5.530   3.691
 7900TIP3    H223658   7.861   5.398   3.714
 7901TIP3   OH223659   7.695   5.566   2.614
 7901TIP3    H123660   7.652   5.550   2.531
 7901TIP3    H223661   7.664   5.652   2.641
 7902TIP3   OH223662   7.132   5.414   2.998
 7902TIP3    H123663   7.177   5.409   3.082
 7902TIP3    H223664   7.081   5.334   2.993
 7903TIP3   OH223665   7.895   5.471   2.252
 7903TIP3    H123666   7.951   5.405   2.212
 7903TIP3    H223667   7.931   5.483   2.339
 7904TIP3   OH223668   7.945   5.519   2.521
 7904TIP3    H123669   7.858   5.529   2.561
 7904TIP3    H223670   8.000   5.485   2.592
 7905TIP3   OH223671   7.312   5.191   3.823
 7905TIP3    H123672   7.361   5.177   3.904
 7905TIP3    H223673   7.237   5.131   3.829
 7906TIP3   OH223674   7.708   4.018   3.612
 7906TIP3    H123675   7.624   3.985   3.581
 7906TIP3    H223676   7.686   4.099   3.660
 7907TIP3   OH223677   8.230   4.141   3.815
 7907TIP3    H123678   8.278   4.093   3.883
 7907TIP3    H223679   8.138   4.127   3.836
 7908TIP3   OH223680   8.517   4.558   3.731
 7908TIP3    H123681   8.456   4.561   3.805
 7908TIP3    H223682   8.500   4.639   3.683
 7909TIP3   OH223683   8.229   4.669   2.221
 7909TIP3    H123684   8.167   4.669   2.148
 7909TIP3    H223685   8.315   4.676   2.179
 7910TIP3   OH223686   7.883   4.056   2.591
 7910TIP3    H123687   7.837   4.051   2.675
 7910TIP3    H223688   7.837   3.993   2.535
 7911TIP3   OH223689   7.645   4.535   3.631
 7911TIP3    H123690   7.594   4.552   3.710
 7911TIP3    H223691   7.631   4.613   3.577
 7912TIP3   OH223692   7.517   4.417   3.142
 7912TIP3    H123693   7.426   4.396   3.160
 7912TIP3    H223694   7.536   4.378   3.057
 7913TIP3   OH223695   8.017   4.513   2.876
 7913TIP3    H123696   7.951   4.577   2.850
 7913TIP3    H223697   8.070   4.498   2.798
 7914TIP3   OH223698   8.192   4.778   3.957
 7914TIP3    H123699   8.168   4.708   4.018
 7914TIP3    H223700   8.285   4.794   3.973
 7915TIP3   OH223701   8.163   4.535   3.107
 7915TIP3    H123702   8.102   4.551   3.035
 7915TIP3    H223703   8.209   4.455   3.082
 7916TIP3   OH223704   7.464   4.560   3.837
 7916TIP3    H123705   7.490   4.624   3.903
 7916TIP3    H223706   7.451   4.479   3.886
 7917TIP3   OH223707   7.519   4.045   2.549
 7917TIP3    H123708   7.502   4.041   2.643
 7917TIP3    H223709   7.444   4.093   2.513
 7918TIP3   OH223710   7.064   4.068   3.428
 7918TIP3    H123711   7.133   4.116   3.473
 7918TIP3    H223712   7.046   4.118   3.349
 7919TIP3   OH223713   8.163   4.787   3.534
 7919TIP3    H123714   8.204   4.725   3.473
 7919TIP3    H223715   8.138   4.733   3.609
 7920TIP3   OH223716   7.853   4.260   3.205
 7920TIP3    H123717   7.776   4.246   3.260
 7920TIP3    H223718   7.925   4.221   3.253
 7921TIP3   OH223719   7.279   4.290   3.199
 7921TIP3    H123720   7.187   4.280   3.175
 7921TIP3    H223721   7.317   4.204   3.186
 7922TIP3   OH223722   7.552   4.292   2.903
 7922TIP3    H123723   7.643   4.303   2.878
 7922TIP3    H223724   7.502   4.313   2.824
 7923TIP3   OH223725   8.270   4.336   3.402
 7923TIP3    H123726   8.256   4.341   3.496
 7923TIP3    H223727   8.337   4.269   3.391
 7924TIP3   OH223728   7.403   4.328   2.680
 7924TIP3    H123729   7.325   4.282   2.647
 7924TIP3    H223730   7.450   4.355   2.601
 7925TIP3   OH223731   0.014   6.009   3.625
 7925TIP3    H123732   0.005   6.010   3.530
 7925TIP3    H223733   0.077   6.079   3.644
 7926TIP3   OH223734   7.474   5.116   4.047
 7926TIP3    H123735   7.555   5.145   4.091
 7926TIP3    H223736   7.409   5.114   4.117
 7927TIP3   OH223737   7.941   4.571   3.307
 7927TIP3    H123738   8.003   4.522   3.253
 7927TIP3    H223739   7.938   4.524   3.390
 7928TIP3   OH223740   7.461   4.056   3.182
 7928TIP3    H123741   7.424   3.982   3.229
 7928TIP3    H223742   7.491   4.019   3.099
 7929TIP3   OH223743   7.912   4.470   3.593
 7929TIP3    H123744   7.823   4.502   3.605
 7929TIP3    H223745   7.967   4.532   3.640
 7930TIP3   OH223746   7.668   4.843   2.697
 7930TIP3    H123747   7.596   4.782   2.677
 7930TIP3    H223748   7.641   4.884   2.779
 7931TIP3   OH223749   0.049   5.088   3.300
 7931TIP3    H123750   0.064   5.112   3.209
 7931TIP3    H223751  -0.038   5.047   3.300
 7932TIP3   OH223752   8.116   4.191   2.553
 7932TIP3    H123753   8.029   4.155   2.566
 7932TIP3    H223754   8.106   4.251   2.478
 7933TIP3   OH223755   8.045   5.176   3.683
 7933TIP3    H123756   8.075   5.159   3.772
 7933TIP3    H223757   8.011   5.266   3.685
 7934TIP3   OH223758   7.350   4.884   3.358
 7934TIP3    H123759   7.379   4.854   3.272
 7934TIP3    H223760   7.382   4.817   3.419
 7935TIP3   OH223761   7.793   5.004   2.528
 7935TIP3    H123762   7.767   5.093   2.504
 7935TIP3    H223763   7.717   4.969   2.574
 7936TIP3   OH223764   7.225   4.797   3.976
 7936TIP3    H123765   7.242   4.783   4.069
 7936TIP3    H223766   7.158   4.732   3.954
 7937TIP3   OH223767   7.951   4.913   3.992
 7937TIP3    H123768   7.886   4.857   3.950
 7937TIP3    H223769   8.035   4.878   3.963
 7938TIP3   OH223770   8.209   5.428   3.586
 7938TIP3    H123771   8.113   5.431   3.593
 7938TIP3    H223772   8.240   5.484   3.657
 7939TIP3   OH223773   8.302   5.333   2.396
 7939TIP3    H123774   8.316   5.276   2.471
 7939TIP3    H223775   8.336   5.283   2.321
 7940TIP3   OH223776   8.308   4.955   3.234
 7940TIP3    H123777   8.215   4.937   3.247
 7940TIP3    H223778   8.344   4.871   3.205
 7941TIP3   OH223779   7.446   5.183   2.982
 7941TIP3    H123780   7.443   5.265   2.932
 7941TIP3    H223781   7.354   5.161   2.998
 7942TIP3   OH223782   7.021   4.491   2.695
 7942TIP3    H123783   7.063   4.575   2.714
 7942TIP3    H223784   6.940   4.493   2.745
 7943TIP3   OH223785   7.585   4.947   2.933
 7943TIP3    H123786   7.551   5.035   2.948
 7943TIP3    H223787   7.545   4.894   3.001
 7944TIP3   OH223788   7.717   5.527   3.453
 7944TIP3    H123789   7.753   5.600   3.402
 7944TIP3    H223790   7.792   5.490   3.499
 7945TIP3   OH223791   7.364   5.423   2.841
 7945TIP3    H123792   7.279   5.431   2.884
 7945TIP3    H223793   7.400   5.512   2.840
 7946TIP3   OH223794   8.098   5.153   3.417
 7946TIP3    H123795   8.084   5.158   3.512
 7946TIP3    H223796   8.184   5.113   3.408
 7947TIP3   OH223797   8.061   5.061   2.311
 7947TIP3    H123798   8.112   5.025   2.383
 7947TIP3    H223799   7.970   5.036   2.331
 7948TIP3   OH223800   8.351   5.691   3.454
 7948TIP3    H123801   8.271   5.638   3.452
 7948TIP3    H223802   8.337   5.758   3.388
 7949TIP3   OH223803   7.431   4.304   3.981
 7949TIP3    H123804   7.335   4.309   3.989
 7949TIP3    H223805   7.458   4.246   4.052
 7950TIP3   OH223806   8.209   4.974   2.528
 7950TIP3    H123807   8.219   4.891   2.576
 7950TIP3    H223808   8.294   5.017   2.537
 7951TIP3   OH223809   7.153   5.389   3.614
 7951TIP3    H123810   7.207   5.316   3.646
 7951TIP3    H223811   7.183   5.465   3.664
 7952TIP3   OH223812   7.452   5.027   2.299
 7952TIP3    H123813   7.449   4.937   2.267
 7952TIP3    H223814   7.419   5.022   2.389
 7953TIP3   OH223815   7.388   5.042   2.567
 7953TIP3    H123816   7.452   5.015   2.633
 7953TIP3    H223817   7.386   5.137   2.572
 7954TIP3   OH223818   7.126   4.741   2.775
 7954TIP3    H123819   7.056   4.774   2.831
 7954TIP3    H223820   7.132   4.806   2.704
 7955TIP3   OH223821   8.273   4.379   3.677
 7955TIP3    H123822   8.360   4.408   3.704
 7955TIP3    H223823   8.258   4.299   3.726
 7956TIP3   OH223824   8.132   4.137   2.841
 7956TIP3    H123825   8.125   4.152   2.747
 7956TIP3    H223826   8.182   4.212   2.874
 7957TIP3   OH223827   7.659   5.230   2.516
 7957TIP3    H123828   7.573   5.251   2.553
 7957TIP3    H223829   7.676   5.301   2.454
 7958TIP3   OH223830   7.838   4.304   2.936
 7958TIP3    H123831   7.911   4.365   2.923
 7958TIP3    H223832   7.837   4.287   3.030
 7959TIP3   OH223833   8.111   4.615   3.736
 7959TIP3    H123834   8.137   4.664   3.814
 7959TIP3    H223835   8.165   4.537   3.738
 7960TIP3   OH223836   7.976   4.016   3.032
 7960TIP3    H123837   7.996   4.070   3.108
 7960TIP3    H223838   8.029   4.053   2.962
 7961TIP3   OH223839   7.404   5.312   2.588
 7961TIP3    H123840   7.374   5.377   2.524
 7961TIP3    H223841   7.386   5.353   2.673
 7962TIP3   OH223842   7.495   4.027   2.828
 7962TIP3    H123843   7.488   4.116   2.862
 7962TIP3    H223844   7.589   4.007   2.829
 7963TIP3   OH223845   8.396   4.694   3.146
 7963TIP3    H123846   8.314   4.660   3.112
 7963TIP3    H223847   8.409   4.650   3.230
 7964TIP3   OH223848   7.118   4.936   2.575
 7964TIP3    H123849   7.181   5.008   2.583
 7964TIP3    H223850   7.155   4.879   2.508
 7965TIP3   OH223851   7.066   4.221   2.679
 7965TIP3    H123852   7.064   4.316   2.688
 7965TIP3    H223853   6.996   4.190   2.736
 7966TIP3   OH223854   8.384   5.672   3.050
 7966TIP3    H123855   8.334   5.716   2.981
 7966TIP3    H223856   8.475   5.684   3.025
 7967TIP3   OH223857   7.447   3.937   3.581
 7967TIP3    H123858   7.418   3.905   3.496
 7967TIP3    H223859   7.438   3.861   3.639
 7968TIP3   OH223860   6.983   5.160   2.961
 7968TIP3    H123861   6.915   5.186   3.024
 7968TIP3    H223862   6.953   5.198   2.878
 7969TIP3   OH223863   7.145   5.700   4.040
 7969TIP3    H123864   7.230   5.703   4.084
 7969TIP3    H223865   7.125   5.607   4.033
 7970TIP3   OH223866   7.620   5.654   4.083
 7970TIP3    H123867   7.715   5.646   4.087
 7970TIP3    H223868   7.594   5.596   4.012
 7971TIP3   OH223869   7.607   5.234   2.207
 7971TIP3    H123870   7.553   5.163   2.240
 7971TIP3    H223871   7.679   5.191   2.161
 7972TIP3   OH223872   8.261   5.569   3.818
 7972TIP3    H123873   8.255   5.501   3.885
 7972TIP3    H223874   8.335   5.623   3.845
 7973TIP3   OH223875   8.033   5.277   2.116
 7973TIP3    H123876   8.082   5.220   2.175
 7973TIP3    H223877   8.081   5.275   2.034
 7974TIP3   OH223878   7.272   5.101   4.237
 7974TIP3    H123879   7.290   5.007   4.240
 7974TIP3    H223880   7.188   5.107   4.191
 7975TIP3   OH223881   7.253   4.756   2.425
 7975TIP3    H123882   7.299   4.716   2.499
 7975TIP3    H223883   7.316   4.756   2.354
 7976TIP3   OH223884   7.878   5.190   4.010
 7976TIP3    H123885   7.837   5.213   3.926
 7976TIP3    H223886   7.907   5.100   3.998
 7977TIP3   OH223887   7.776   4.945   2.245
 7977TIP3    H123888   7.750   4.965   2.335
 7977TIP3    H223889   7.774   4.849   2.240
 7978TIP3   OH223890   8.378   5.199   3.619
 7978TIP3    H123891   8.455   5.237   3.577
 7978TIP3    H223892   8.309   5.265   3.606
 7979TIP3   OH223893   7.393   4.842   4.221
 7979TIP3    H123894   7.468   4.791   4.189
 7979TIP3    H223895   7.421   4.874   4.307
 7980TIP3   OH223896   7.478   4.652   2.662
 7980TIP3    H123897   7.426   4.616   2.734
 7980TIP3    H223898   7.495   4.577   2.605
 7981TIP3   OH223899   7.730   4.726   3.882
 7981TIP3    H123900   7.651   4.779   3.882
 7981TIP3    H223901   7.780   4.757   3.806
 7982TIP3   OH223902   7.549   4.452   2.479
 7982TIP3    H123903   7.506   4.448   2.393
 7982TIP3    H223904   7.642   4.443   2.459
 7983TIP3   OH223905   8.248   5.125   4.016
 7983TIP3    H123906   8.315   5.092   3.957
 7983TIP3    H223907   8.239   5.057   4.083
 7984TIP3   OH223908   7.854   4.513   4.000
 7984TIP3    H123909   7.851   4.435   3.945
 7984TIP3    H223910   7.811   4.580   3.948
 7985TIP3   OH223911   7.853   4.299   3.812
 7985TIP3    H123912   7.881   4.342   3.732
 7985TIP3    H223913   7.761   4.277   3.797
 7986TIP3   OH223914   7.879   4.834   3.686
 7986TIP3    H123915   7.964   4.848   3.645
 7986TIP3    H223916   7.821   4.897   3.642
 7987TIP3   OH223917   8.463   4.804   4.067
 7987TIP3    H123918   8.508   4.720   4.059
 7987TIP3    H223919   8.522   4.866   4.024
 7988TIP3   OH223920   0.011   5.051   3.809
 7988TIP3    H123921  -0.038   5.105   3.747
 7988TIP3    H223922   0.095   5.036   3.766
 7989TIP3   OH223923   7.732   4.614   4.239
 7989TIP3    H123924   7.664   4.549   4.256
 7989TIP3    H223925   7.762   4.596   4.150
 7990TIP3   OH223926   7.977   4.061   3.879
 7990TIP3    H123927   7.927   4.141   3.860
 7990TIP3    H223928   7.914   3.990   3.870
 7991TIP3   OH223929   8.109   4.558   4.098
 7991TIP3    H123930   8.092   4.546   4.192
 7991TIP3    H223931   8.025   4.539   4.056
 7992TIP3   OH223932   8.353   4.517   3.954
 7992TIP3    H123933   8.272   4.521   4.005
 7992TIP3    H223934   8.415   4.472   4.012
 7993TIP3   OH223935   0.051   4.414   4.118
 7993TIP3    H123936   0.119   4.354   4.149
 7993TIP3    H223937   0.051   4.486   4.181
 7994TIP3   OH223938   7.570   4.397   4.293
 7994TIP3    H123939   7.569   4.308   4.259
 7994TIP3    H223940   7.606   4.388   4.382
 7995TIP3   OH223941   8.083   4.072   4.133
 7995TIP3    H123942   8.132   3.990   4.135
 7995TIP3    H223943   8.037   4.071   4.049
 7996TIP3   OH223944   8.149   4.288   4.295
 7996TIP3    H123945   8.128   4.218   4.233
 7996TIP3    H223946   8.073   4.346   4.293
 7997TIP3   OH223947   7.370   5.511   2.397
 7997TIP3    H123948   7.464   5.505   2.382
 7997TIP3    H223949   7.337   5.563   2.324
 7998TIP3   OH223950   6.847   4.895   2.612
 7998TIP3    H123951   6.939   4.916   2.597
 7998TIP3    H223952   6.837   4.808   2.574
 7999TIP3   OH223953   6.761   5.505   3.028
 7999TIP3    H123954   6.696   5.448   2.988
 7999TIP3    H223955   6.806   5.449   3.092
 8000TIP3   OH223956   6.897   5.356   3.217
 8000TIP3    H123957   6.881   5.283   3.277
 8000TIP3    H223958   6.950   5.418   3.266
 8001TIP3   OH223959   0.199   5.747   3.292
 8001TIP3    H123960   0.147   5.667   3.284
 8001TIP3    H223961   0.173   5.783   3.376
 8002TIP3   OH223962   0.241   5.427   3.908
 8002TIP3    H123963   0.153   5.441   3.944
 8002TIP3    H223964   0.268   5.514   3.878
 8003TIP3   OH223965   8.530   5.523   3.322
 8003TIP3    H123966   8.465   5.570   3.374
 8003TIP3    H223967   8.479   5.478   3.254
 8004TIP3   OH223968   8.432   4.667   2.830
 8004TIP3    H123969   8.517   4.623   2.836
 8004TIP3    H223970   8.427   4.721   2.909
 8005TIP3   OH223971   7.083   4.764   3.587
 8005TIP3    H123972   7.076   4.729   3.498
 8005TIP3    H223973   7.177   4.767   3.604
 8006TIP3   OH223974   7.305   4.453   4.270
 8006TIP3    H123975   7.400   4.447   4.268
 8006TIP3    H223976   7.277   4.367   4.302
 8007TIP3   OH223977   7.268   4.151   3.605
 8007TIP3    H123978   7.323   4.072   3.604
 8007TIP3    H223979   7.330   4.223   3.588
 8008TIP3   OH223980   7.068   4.420   3.659
 8008TIP3    H123981   7.114   4.410   3.576
 8008TIP3    H223982   7.099   4.503   3.695
 8009TIP3   OH223983   7.029   3.910   3.134
 8009TIP3    H123984   6.949   3.896   3.183
 8009TIP3    H223985   7.038   4.005   3.128
 8010TIP3   OH223986   8.211   5.625   2.674
 8010TIP3    H123987   8.254   5.613   2.589
 8010TIP3    H223988   8.259   5.696   2.716
 8011TIP3   OH223989   7.268   4.004   3.979
 8011TIP3    H123990   7.218   3.995   4.060
 8011TIP3    H223991   7.205   4.040   3.916
 8012TIP3   OH223992   7.308   5.430   4.055
 8012TIP3    H123993   7.216   5.406   4.038
 8012TIP3    H223994   7.320   5.415   4.148
 8013TIP3   OH223995   7.491   5.469   3.601
 8013TIP3    H123996   7.439   5.542   3.565
 8013TIP3    H223997   7.576   5.477   3.559
 8014TIP3   OH223998   7.930   5.706   3.742
 8014TIP3    H123999   7.969   5.707   3.829
 8014TIP3    H224000   7.992   5.757   3.688
 8015TIP3   OH224001   8.109   5.860   3.606
 8015TIP3    H124002   8.177   5.815   3.554
 8015TIP3    H224003   8.158   5.917   3.665
 8016TIP3   OH224004   7.160   5.719   3.633
 8016TIP3    H124005   7.073   5.747   3.605
 8016TIP3    H224006   7.177   5.769   3.713
 8017TIP3   OH224007   7.396   5.698   3.486
 8017TIP3    H124008   7.312   5.710   3.530
 8017TIP3    H224009   7.382   5.730   3.397
 8018TIP3   OH224010   7.823   5.726   3.285
 8018TIP3    H124011   7.756   5.742   3.218
 8018TIP3    H224012   7.837   5.812   3.325
 8019TIP3   OH224013   8.091   5.659   3.337
 8019TIP3    H124014   8.000   5.682   3.319
 8019TIP3    H224015   8.142   5.730   3.298
 8020TIP3   OH224016   8.274   5.845   3.242
 8020TIP3    H124017   8.277   5.935   3.210
 8020TIP3    H224018   8.312   5.793   3.171
 8021TIP3   OH224019   7.075   5.508   3.373
 8021TIP3    H124020   7.099   5.486   3.462
 8021TIP3    H224021   7.144   5.470   3.319
 8022TIP3   OH224022   7.271   5.384   3.233
 8022TIP3    H124023   7.285   5.303   3.281
 8022TIP3    H224024   7.358   5.423   3.226
 8023TIP3   OH224025   7.537   5.475   3.238
 8023TIP3    H124026   7.566   5.385   3.224
 8023TIP3    H224027   7.582   5.502   3.318
 8024TIP3   OH224028   8.067   4.101   3.286
 8024TIP3    H124029   8.048   4.043   3.360
 8024TIP3    H224030   8.161   4.089   3.271
 8025TIP3   OH224031   7.364   3.841   3.333
 8025TIP3    H124032   7.270   3.822   3.336
 8025TIP3    H224033   7.405   3.755   3.329
 8026TIP3   OH224034   7.174   3.721   3.008
 8026TIP3    H124035   7.201   3.755   2.923
 8026TIP3    H224036   7.131   3.794   3.051
 8027TIP3   OH224037   7.808   3.870   3.219
 8027TIP3    H124038   7.856   3.915   3.149
 8027TIP3    H224039   7.830   3.919   3.298
 8028TIP3   OH224040   8.318   4.006   3.196
 8028TIP3    H124041   8.338   3.983   3.105
 8028TIP3    H224042   8.314   3.921   3.241
 8029TIP3   OH224043   6.860   5.291   2.760
 8029TIP3    H124044   6.777   5.253   2.730
 8029TIP3    H224045   6.855   5.383   2.734
 8030TIP3   OH224046   7.270   3.848   2.767
 8030TIP3    H124047   7.309   3.803   2.693
 8030TIP3    H224048   7.334   3.916   2.790
 8031TIP3   OH224049   7.772   4.053   2.847
 8031TIP3    H124050   7.830   4.002   2.903
 8031TIP3    H224051   7.793   4.144   2.868
 8032TIP3   OH224052   7.638   5.467   2.346
 8032TIP3    H124053   7.723   5.495   2.313
 8032TIP3    H224054   7.611   5.397   2.287
 8033TIP3   OH224055   8.340   5.596   2.439
 8033TIP3    H124056   8.336   5.501   2.430
 8033TIP3    H224057   8.314   5.630   2.354
 8034TIP3   OH224058   7.567   4.125   4.231
 8034TIP3    H124059   7.527   4.054   4.282
 8034TIP3    H224060   7.659   4.125   4.258
 8035TIP3   OH224061   7.817   4.119   4.349
 8035TIP3    H124062   7.901   4.091   4.312
 8035TIP3    H224063   7.797   4.055   4.417
 8036TIP3   OH224064   6.940   5.308   2.400
 8036TIP3    H124065   6.941   5.331   2.493
 8036TIP3    H224066   7.024   5.265   2.385
 8037TIP3   OH224067   0.063   5.740   3.638
 8037TIP3    H124068  -0.005   5.708   3.578
 8037TIP3    H224069   0.052   5.836   3.637
 8038TIP3   OH224070   0.500   5.644   4.593
 8038TIP3    H124071   0.466   5.734   4.594
 8038TIP3    H224072   0.435   5.595   4.542
 8039TIP3   OH224073   0.527   5.619   4.959
 8039TIP3    H124074   0.537   5.601   5.052
 8039TIP3    H224075   0.468   5.551   4.927
 8040TIP3   OH224076   0.747   5.944   4.661
 8040TIP3    H124077   0.736   5.876   4.727
 8040TIP3    H224078   0.778   6.020   4.710
 8041TIP3   OH224079   0.447   6.426   4.662
 8041TIP3    H124080   0.492   6.348   4.633
 8041TIP3    H224081   0.377   6.394   4.720
 8042TIP3   OH224082   0.331   5.819   5.057
 8042TIP3    H124083   0.349   5.762   4.982
 8042TIP3    H224084   0.408   5.875   5.063
 8043TIP3   OH224085   1.315   5.175   5.017
 8043TIP3    H124086   1.334   5.253   5.069
 8043TIP3    H224087   1.346   5.196   4.929
 8044TIP3   OH224088   0.709   5.362   5.060
 8044TIP3    H124089   0.761   5.283   5.075
 8044TIP3    H224090   0.677   5.353   4.971
 8045TIP3   OH224091   0.756   5.135   4.642
 8045TIP3    H124092   0.827   5.077   4.671
 8045TIP3    H224093   0.787   5.170   4.558
 8046TIP3   OH224094   1.380   5.386   5.203
 8046TIP3    H124095   1.305   5.440   5.178
 8046TIP3    H224096   1.421   5.433   5.275
 8047TIP3   OH224097   0.371   5.874   4.475
 8047TIP3    H124098   0.344   5.835   4.392
 8047TIP3    H224099   0.450   5.923   4.454
 8048TIP3   OH224100   0.809   6.187   4.821
 8048TIP3    H124101   0.721   6.178   4.859
 8048TIP3    H224102   0.808   6.273   4.779
 8049TIP3   OH224103   0.408   4.717   5.166
 8049TIP3    H124104   0.406   4.622   5.176
 8049TIP3    H224105   0.358   4.750   5.241
 8050TIP3   OH224106   0.510   6.213   4.480
 8050TIP3    H124107   0.551   6.128   4.462
 8050TIP3    H224108   0.573   6.277   4.448
 8051TIP3   OH224109   0.628   5.976   4.413
 8051TIP3    H124110   0.665   5.919   4.345
 8051TIP3    H224111   0.682   5.959   4.490
 8052TIP3   OH224112   1.038   6.094   5.168
 8052TIP3    H124113   1.029   6.019   5.109
 8052TIP3    H224114   1.021   6.170   5.112
 8053TIP3   OH224115   0.336   5.505   4.429
 8053TIP3    H124116   0.256   5.457   4.448
 8053TIP3    H224117   0.353   5.489   4.336
 8054TIP3   OH224118   0.314   5.281   4.141
 8054TIP3    H124119   0.384   5.335   4.177
 8054TIP3    H224120   0.360   5.214   4.090
 8055TIP3   OH224121   1.233   5.736   5.012
 8055TIP3    H124122   1.152   5.786   5.017
 8055TIP3    H224123   1.269   5.757   4.926
 8056TIP3   OH224124   0.682   5.574   4.398
 8056TIP3    H124125   0.628   5.597   4.474
 8056TIP3    H224126   0.767   5.550   4.436
 8057TIP3   OH224127   0.914   5.612   5.315
 8057TIP3    H124128   0.917   5.693   5.366
 8057TIP3    H224129   0.832   5.618   5.266
 8058TIP3   OH224130   0.568   6.184   4.941
 8058TIP3    H124131   0.553   6.265   4.991
 8058TIP3    H224132   0.557   6.114   5.005
 8059TIP3   OH224133   0.527   5.431   4.221
 8059TIP3    H124134   0.576   5.492   4.275
 8059TIP3    H224135   0.550   5.453   4.131
 8060TIP3   OH224136   1.034   4.674   4.272
 8060TIP3    H124137   0.954   4.693   4.320
 8060TIP3    H224138   1.050   4.753   4.219
 8061TIP3   OH224139   0.841   6.042   3.823
 8061TIP3    H124140   0.845   6.135   3.804
 8061TIP3    H224141   0.930   6.010   3.811
 8062TIP3   OH224142   1.278   6.438   5.222
 8062TIP3    H124143   1.281   6.342   5.230
 8062TIP3    H224144   1.198   6.463   5.267
 8063TIP3   OH224145   0.355   6.266   3.936
 8063TIP3    H124146   0.411   6.193   3.908
 8063TIP3    H224147   0.363   6.266   4.031
 8064TIP3   OH224148   0.397   6.312   4.219
 8064TIP3    H124149   0.329   6.306   4.285
 8064TIP3    H224150   0.478   6.290   4.265
 8065TIP3   OH224151   1.163   5.568   5.496
 8065TIP3    H124152   1.089   5.580   5.436
 8065TIP3    H224153   1.183   5.475   5.492
 8066TIP3   OH224154   0.710   4.929   5.498
 8066TIP3    H124155   0.777   4.894   5.555
 8066TIP3    H224156   0.627   4.904   5.539
 8067TIP3   OH224157   0.924   5.347   5.411
 8067TIP3    H124158   0.882   5.351   5.497
 8067TIP3    H224159   0.913   5.435   5.375
 8068TIP3   OH224160   0.598   5.478   3.968
 8068TIP3    H124161   0.557   5.455   3.884
 8068TIP3    H224162   0.681   5.519   3.943
 8069TIP3   OH224163   0.299   4.858   4.250
 8069TIP3    H124164   0.293   4.855   4.346
 8069TIP3    H224165   0.268   4.771   4.222
 8070TIP3   OH224166   0.476   5.301   4.562
 8070TIP3    H124167   0.423   5.372   4.526
 8070TIP3    H224168   0.524   5.266   4.487
 8071TIP3   OH224169   0.622   5.320   4.799
 8071TIP3    H124170   0.562   5.356   4.735
 8071TIP3    H224171   0.662   5.244   4.755
 8072TIP3   OH224172   0.629   5.561   5.224
 8072TIP3    H124173   0.666   5.501   5.159
 8072TIP3    H224174   0.604   5.504   5.297
 8073TIP3   OH224175   0.311   5.026   4.885
 8073TIP3    H124176   0.218   5.045   4.894
 8073TIP3    H224177   0.347   5.043   4.973
 8074TIP3   OH224178   0.815   5.043   5.079
 8074TIP3    H124179   0.796   5.084   5.163
 8074TIP3    H224180   0.734   4.998   5.054
 8075TIP3   OH224181   0.399   5.345   4.992
 8075TIP3    H124182   0.470   5.316   4.935
 8075TIP3    H224183   0.416   5.301   5.076
 8076TIP3   OH224184   0.396   5.244   5.269
 8076TIP3    H124185   0.329   5.312   5.265
 8076TIP3    H224186   0.468   5.284   5.318
 8077TIP3   OH224187   1.001   5.881   5.000
 8077TIP3    H124188   1.028   5.932   4.923
 8077TIP3    H224189   0.920   5.838   4.973
 8078TIP3   OH224190   0.555   4.953   4.248
 8078TIP3    H124191   0.461   4.936   4.244
 8078TIP3    H224192   0.563   5.046   4.269
 8079TIP3   OH224193   0.488   5.968   5.371
 8079TIP3    H124194   0.531   5.976   5.457
 8079TIP3    H224195   0.436   6.047   5.363
 8080TIP3   OH224196   0.631   5.207   4.346
 8080TIP3    H124197   0.727   5.211   4.352
 8080TIP3    H224198   0.608   5.283   4.293
 8081TIP3   OH224199   0.244   5.802   4.231
 8081TIP3    H124200   0.190   5.874   4.199
 8081TIP3    H224201   0.181   5.734   4.256
 8082TIP3   OH224202   0.500   5.611   5.774
 8082TIP3    H124203   0.416   5.595   5.729
 8082TIP3    H224204   0.544   5.675   5.719
 8083TIP3   OH224205   0.663   6.217   5.268
 8083TIP3    H124206   0.568   6.228   5.273
 8083TIP3    H224207   0.697   6.268   5.341
 8084TIP3   OH224208   1.064   5.300   4.176
 8084TIP3    H124209   1.006   5.252   4.116
 8084TIP3    H224210   1.067   5.389   4.140
 8085TIP3   OH224211   1.288   6.152   5.254
 8085TIP3    H124212   1.193   6.147   5.249
 8085TIP3    H224213   1.319   6.123   5.168
 8086TIP3   OH224214   0.775   6.109   4.085
 8086TIP3    H124215   0.745   6.032   4.133
 8086TIP3    H224216   0.787   6.078   3.995
 8087TIP3   OH224217   0.772   5.740   4.918
 8087TIP3    H124218   0.681   5.716   4.931
 8087TIP3    H224219   0.811   5.667   4.870
 8088TIP3   OH224220   0.569   5.947   5.106
 8088TIP3    H124221   0.556   5.953   5.200
 8088TIP3    H224222   0.653   5.903   5.095
 8089TIP3   OH224223   0.535   5.842   3.983
 8089TIP3    H124224   0.571   5.819   4.069
 8089TIP3    H224225   0.447   5.805   3.984
 8090TIP3   OH224226   0.803   6.482   5.148
 8090TIP3    H124227   0.724   6.428   5.144
 8090TIP3    H224228   0.790   6.548   5.080
 8091TIP3   OH224229   0.868   6.317   3.804
 8091TIP3    H124230   0.905   6.385   3.748
 8091TIP3    H224231   0.788   6.356   3.840
 8092TIP3   OH224232   0.699   5.786   4.221
 8092TIP3    H124233   0.683   5.711   4.279
 8092TIP3    H224234   0.790   5.776   4.194
 8093TIP3   OH224235   0.734   5.155   5.341
 8093TIP3    H124236   0.812   5.198   5.375
 8093TIP3    H224237   0.723   5.078   5.397
 8094TIP3   OH224238   0.616   4.903   4.520
 8094TIP3    H124239   0.586   4.912   4.429
 8094TIP3    H224240   0.632   4.993   4.549
 8095TIP3   OH224241   0.295   5.099   4.621
 8095TIP3    H124242   0.357   5.171   4.607
 8095TIP3    H224243   0.290   5.089   4.716
 8096TIP3   OH224244   0.581   5.390   5.429
 8096TIP3    H124245   0.595   5.417   5.519
 8096TIP3    H224246   0.635   5.311   5.419
 8097TIP3   OH224247   0.463   4.825   4.755
 8097TIP3    H124248   0.411   4.902   4.778
 8097TIP3    H224249   0.497   4.844   4.668
 8098TIP3   OH224250   1.197   5.308   5.417
 8098TIP3    H124251   1.102   5.299   5.408
 8098TIP3    H224252   1.230   5.300   5.328
 8099TIP3   OH224253   0.852   5.502   4.796
 8099TIP3    H124254   0.776   5.445   4.811
 8099TIP3    H224255   0.923   5.460   4.843
 8100TIP3   OH224256   0.828   6.455   4.747
 8100TIP3    H124257   0.782   6.500   4.676
 8100TIP3    H224258   0.920   6.472   4.731
 8101TIP3   OH224259   0.729   6.347   5.495
 8101TIP3    H124260   0.709   6.293   5.572
 8101TIP3    H224261   0.795   6.409   5.526
 8102TIP3   OH224262   0.499   6.067   3.812
 8102TIP3    H124263   0.535   5.998   3.868
 8102TIP3    H224264   0.548   6.060   3.731
 8103TIP3   OH224265   0.255   5.742   3.933
 8103TIP3    H124266   0.204   5.760   4.012
 8103TIP3    H224267   0.242   5.649   3.916
 8104TIP3   OH224268   0.822   5.994   5.306
 8104TIP3    H124269   0.902   6.025   5.265
 8104TIP3    H224270   0.757   6.062   5.290
 8105TIP3   OH224271   0.053   5.261   4.236
 8105TIP3    H124272   0.026   5.253   4.145
 8105TIP3    H224273   0.148   5.258   4.233
 8106TIP3   OH224274   0.680   5.887   5.713
 8106TIP3    H124275   0.746   5.894   5.645
 8106TIP3    H224276   0.723   5.840   5.785
 8107TIP3   OH224277   0.829   5.569   3.848
 8107TIP3    H124278   0.813   5.522   3.766
 8107TIP3    H224279   0.800   5.658   3.831
 8108TIP3   OH224280   0.273   5.038   5.423
 8108TIP3    H124281   0.320   5.103   5.371
 8108TIP3    H224282   0.233   5.088   5.494
 8109TIP3   OH224283   0.388   5.686   5.331
 8109TIP3    H124284   0.478   5.666   5.306
 8109TIP3    H224285   0.365   5.763   5.279
 8110TIP3   OH224286   0.942   5.595   5.761
 8110TIP3    H124287   0.978   5.508   5.775
 8110TIP3    H224288   1.006   5.640   5.706
 8111TIP3   OH224289   0.954   5.844   5.488
 8111TIP3    H124290   0.897   5.897   5.432
 8111TIP3    H224291   1.042   5.862   5.456
 8112TIP3   OH224292   0.448   4.848   5.555
 8112TIP3    H124293   0.388   4.917   5.528
 8112TIP3    H224294   0.399   4.767   5.542
 8113TIP3   OH224295   0.796   5.298   5.654
 8113TIP3    H124296   0.745   5.228   5.693
 8113TIP3    H224297   0.883   5.291   5.695
 8114TIP3   OH224298   1.023   5.242   5.790
 8114TIP3    H124299   1.040   5.148   5.804
 8114TIP3    H224300   1.017   5.278   5.879
 8115TIP3   OH224301   0.539   4.860   5.818
 8115TIP3    H124302   0.601   4.788   5.824
 8115TIP3    H224303   0.498   4.850   5.733
 8116TIP3   OH224304   0.614   5.091   5.947
 8116TIP3    H124305   0.591   5.008   5.905
 8116TIP3    H224306   0.530   5.133   5.964
 8117TIP3   OH224307   1.081   6.544   4.711
 8117TIP3    H124308   1.105   6.588   4.792
 8117TIP3    H224309   1.137   6.584   4.644
 8118TIP3   OH224310   1.105   6.565   5.000
 8118TIP3    H124311   1.060   6.481   4.986
 8118TIP3    H224312   1.190   6.540   5.037
 8119TIP3   OH224313   1.154   6.248   5.561
 8119TIP3    H124314   1.083   6.257   5.624
 8119TIP3    H224315   1.199   6.332   5.562
 8120TIP3   OH224316   0.970   5.757   4.180
 8120TIP3    H124317   1.032   5.822   4.145
 8120TIP3    H224318   1.015   5.720   4.256
 8121TIP3   OH224319   1.098   5.625   4.384
 8121TIP3    H124320   1.032   5.586   4.441
 8121TIP3    H224321   1.164   5.660   4.444
 8122TIP3   OH224322   1.153   6.016   4.813
 8122TIP3    H124323   1.204   5.949   4.768
 8122TIP3    H224324   1.152   6.090   4.752
 8123TIP3   OH224325   0.978   6.313   5.009
 8123TIP3    H124326   0.909   6.360   5.055
 8123TIP3    H224327   0.934   6.269   4.937
 8124TIP3   OH224328   1.031   5.534   4.030
 8124TIP3    H124329   0.964   5.532   3.962
 8124TIP3    H224330   1.007   5.608   4.085
 8125TIP3   OH224331   0.901   5.205   3.984
 8125TIP3    H124332   0.862   5.241   3.904
 8125TIP3    H224333   0.881   5.111   3.979
 8126TIP3   OH224334   0.909   5.484   4.529
 8126TIP3    H124335   0.918   5.390   4.518
 8126TIP3    H224336   0.894   5.496   4.623
 8127TIP3   OH224337   1.201   5.906   5.387
 8127TIP3    H124338   1.270   5.840   5.378
 8127TIP3    H224339   1.224   5.974   5.324
 8128TIP3   OH224340   1.379   5.703   5.401
 8128TIP3    H124341   1.307   5.655   5.441
 8128TIP3    H224342   1.455   5.646   5.413
 8129TIP3   OH224343   0.846   4.940   3.971
 8129TIP3    H124344   0.920   4.905   4.021
 8129TIP3    H224345   0.775   4.878   3.987
 8130TIP3   OH224346   0.911   5.199   4.419
 8130TIP3    H124347   0.947   5.111   4.434
 8130TIP3    H224348   0.965   5.235   4.348
 8131TIP3   OH224349   1.064   5.385   4.925
 8131TIP3    H124350   1.146   5.398   4.877
 8131TIP3    H224351   1.083   5.414   5.014
 8132TIP3   OH224352   1.140   5.521   5.157
 8132TIP3    H124353   1.061   5.555   5.198
 8132TIP3    H224354   1.174   5.595   5.106
 8133TIP3   OH224355   1.586   5.105   5.703
 8133TIP3    H124356   1.648   5.042   5.668
 8133TIP3    H224357   1.560   5.158   5.627
 8134TIP3   OH224358   1.007   4.947   4.474
 8134TIP3    H124359   1.067   4.920   4.544
 8134TIP3    H224360   0.950   4.872   4.461
 8135TIP3   OH224361   1.454   5.243   5.505
 8135TIP3    H124362   1.371   5.284   5.528
 8135TIP3    H224363   1.430   5.169   5.450
 8136TIP3   OH224364   1.095   4.879   4.095
 8136TIP3    H124365   1.130   4.809   4.041
 8136TIP3    H224366   1.160   4.949   4.090
 8137TIP3   OH224367   0.664   6.399   4.363
 8137TIP3    H124368   0.713   6.397   4.281
 8137TIP3    H224369   0.698   6.476   4.410
 8138TIP3   OH224370   0.567   6.644   5.315
 8138TIP3    H124371   0.605   6.573   5.262
 8138TIP3    H224372   0.613   6.722   5.284
 8139TIP3   OH224373   1.362   4.993   5.395
 8139TIP3    H124374   1.272   4.964   5.380
 8139TIP3    H224375   1.415   4.913   5.386
 8140TIP3   OH224376   0.542   6.462   5.040
 8140TIP3    H124377   0.452   6.490   5.053
 8140TIP3    H224378   0.579   6.525   4.978
 8141TIP3   OH224379   0.757   6.648   4.936
 8141TIP3    H124380   0.741   6.730   4.890
 8141TIP3    H224381   0.781   6.585   4.867
 8142TIP3   OH224382   0.585   4.903   5.015
 8142TIP3    H124383   0.533   4.847   5.072
 8142TIP3    H224384   0.573   4.865   4.927
 8143TIP3   OH224385   1.165   4.908   4.714
 8143TIP3    H124386   1.227   4.844   4.679
 8143TIP3    H224387   1.199   4.993   4.688
 8144TIP3   OH224388   0.278   4.658   4.909
 8144TIP3    H124389   0.327   4.708   4.844
 8144TIP3    H224390   0.311   4.689   4.994
 8145TIP3   OH224391   0.830   4.734   4.456
 8145TIP3    H124392   0.748   4.781   4.471
 8145TIP3    H224393   0.817   4.649   4.498
 8146TIP3   OH224394   0.285   4.837   4.521
 8146TIP3    H124395   0.230   4.784   4.579
 8146TIP3    H224396   0.269   4.927   4.547
 8147TIP3   OH224397   0.804   6.378   4.128
 8147TIP3    H124398   0.798   6.283   4.118
 8147TIP3    H224399   0.762   6.414   4.050
 8148TIP3   OH224400   1.098   4.974   5.823
 8148TIP3    H124401   1.111   4.942   5.912
 8148TIP3    H224402   1.185   4.968   5.783
 8149TIP3   OH224403   1.027   6.529   5.314
 8149TIP3    H124404   0.948   6.495   5.271
 8149TIP3    H224405   1.044   6.612   5.271
 8150TIP3   OH224406   2.296   5.897   4.079
 8150TIP3    H124407   2.270   5.987   4.060
 8150TIP3    H224408   2.224   5.844   4.047
 8151TIP3   OH224409   2.296   5.897   4.468
 8151TIP3    H124410   2.333   5.874   4.553
 8151TIP3    H224411   2.258   5.815   4.436
 8152TIP3   OH224412   1.596   5.790   4.835
 8152TIP3    H124413   1.624   5.721   4.895
 8152TIP3    H224414   1.676   5.839   4.814
 8153TIP3   OH224415   2.542   6.201   4.148
 8153TIP3    H124416   2.529   6.131   4.212
 8153TIP3    H224417   2.575   6.275   4.200
 8154TIP3   OH224418   1.571   6.198   4.551
 8154TIP3    H124419   1.561   6.103   4.552
 8154TIP3    H224420   1.666   6.211   4.542
 8155TIP3   OH224421   1.271   5.398   4.334
 8155TIP3    H124422   1.230   5.482   4.353
 8155TIP3    H224423   1.203   5.349   4.287
 8156TIP3   OH224424   1.334   5.689   4.514
 8156TIP3    H124425   1.381   5.612   4.546
 8156TIP3    H224426   1.394   5.730   4.452
 8157TIP3   OH224427   2.195   6.659   4.163
 8157TIP3    H124428   2.235   6.591   4.109
 8157TIP3    H224429   2.186   6.619   4.250
 8158TIP3   OH224430   2.100   6.122   4.512
 8158TIP3    H124431   2.136   6.045   4.469
 8158TIP3    H224432   2.177   6.173   4.538
 8159TIP3   OH224433   3.113   5.443   4.507
 8159TIP3    H124434   3.141   5.523   4.550
 8159TIP3    H224435   3.139   5.454   4.416
 8160TIP3   OH224436   2.507   5.620   4.540
 8160TIP3    H124437   2.552   5.539   4.564
 8160TIP3    H224438   2.477   5.605   4.450
 8161TIP3   OH224439   1.848   5.282   4.505
 8161TIP3    H124440   1.832   5.356   4.445
 8161TIP3    H224441   1.802   5.208   4.464
 8162TIP3   OH224442   2.547   5.376   4.127
 8162TIP3    H124443   2.613   5.361   4.195
 8162TIP3    H224444   2.597   5.409   4.052
 8163TIP3   OH224445   1.482   5.481   4.614
 8163TIP3    H124446   1.562   5.467   4.664
 8163TIP3    H224447   1.494   5.430   4.534
 8164TIP3   OH224448   1.921   5.679   4.414
 8164TIP3    H124449   2.014   5.659   4.424
 8164TIP3    H224450   1.883   5.598   4.379
 8165TIP3   OH224451   3.183   5.651   4.682
 8165TIP3    H124452   3.101   5.695   4.660
 8165TIP3    H224453   3.207   5.685   4.768
 8166TIP3   OH224454   1.842   5.268   4.942
 8166TIP3    H124455   1.785   5.303   4.873
 8166TIP3    H224456   1.793   5.283   5.023
 8167TIP3   OH224457   2.182   6.116   3.950
 8167TIP3    H124458   2.148   6.103   3.862
 8167TIP3    H224459   2.142   6.198   3.980
 8168TIP3   OH224460   1.950   6.044   4.733
 8168TIP3    H124461   1.892   6.111   4.770
 8168TIP3    H224462   1.994   6.088   4.660
 8169TIP3   OH224463   2.748   5.382   4.307
 8169TIP3    H124464   2.738   5.335   4.390
 8169TIP3    H224465   2.802   5.458   4.329
 8170TIP3   OH224466   1.718   5.382   4.725
 8170TIP3    H124467   1.776   5.453   4.751
 8170TIP3    H224468   1.762   5.340   4.651
 8171TIP3   OH224469   1.777   6.242   4.836
 8171TIP3    H124470   1.757   6.326   4.796
 8171TIP3    H224471   1.701   6.221   4.890
 8172TIP3   OH224472   1.167   5.929   4.069
 8172TIP3    H124473   1.130   5.954   3.985
 8172TIP3    H224474   1.200   6.011   4.106
 8173TIP3   OH224475   2.608   6.446   4.310
 8173TIP3    H124476   2.521   6.434   4.349
 8173TIP3    H224477   2.603   6.530   4.265
 8174TIP3   OH224478   2.905   5.340   4.671
 8174TIP3    H124479   2.819   5.369   4.641
 8174TIP3    H224480   2.967   5.373   4.606
 8175TIP3   OH224481   2.192   4.983   4.658
 8175TIP3    H124482   2.179   4.891   4.678
 8175TIP3    H224483   2.119   5.027   4.702
 8176TIP3   OH224484   2.312   6.487   3.979
 8176TIP3    H124485   2.356   6.404   3.964
 8176TIP3    H224486   2.372   6.553   3.943
 8177TIP3   OH224487   2.453   6.271   3.897
 8177TIP3    H124488   2.424   6.191   3.852
 8177TIP3    H224489   2.491   6.239   3.979
 8178TIP3   OH224490   2.836   6.353   4.653
 8178TIP3    H124491   2.825   6.276   4.596
 8178TIP3    H224492   2.820   6.428   4.595
 8179TIP3   OH224493   2.129   5.749   3.913
 8179TIP3    H124494   2.051   5.802   3.894
 8179TIP3    H224495   2.176   5.746   3.830
 8180TIP3   OH224496   2.090   5.536   3.624
 8180TIP3    H124497   2.152   5.589   3.674
 8180TIP3    H224498   2.144   5.472   3.577
 8181TIP3   OH224499   3.030   5.994   4.499
 8181TIP3    H124500   2.948   6.043   4.505
 8181TIP3    H224501   3.064   6.015   4.412
 8182TIP3   OH224502   2.478   5.831   3.885
 8182TIP3    H124503   2.423   5.854   3.960
 8182TIP3    H224504   2.562   5.807   3.923
 8183TIP3   OH224505   2.709   5.870   4.801
 8183TIP3    H124506   2.710   5.950   4.852
 8183TIP3    H224507   2.626   5.873   4.754
 8184TIP3   OH224508   1.709   5.826   4.302
 8184TIP3    H124509   1.668   5.771   4.236
 8184TIP3    H224510   1.784   5.775   4.333
 8185TIP3   OH224511   1.838   6.236   4.449
 8185TIP3    H124512   1.819   6.205   4.361
 8185TIP3    H224513   1.926   6.202   4.467
 8186TIP3   OH224514   1.838   5.803   4.655
 8186TIP3    H124515   1.873   5.773   4.570
 8186TIP3    H224516   1.885   5.884   4.673
 8187TIP3   OH224517   2.368   6.438   4.434
 8187TIP3    H124518   2.358   6.517   4.486
 8187TIP3    H224519   2.353   6.366   4.495
 8188TIP3   OH224520   1.982   6.356   4.980
 8188TIP3    H124521   1.924   6.417   5.025
 8188TIP3    H224522   1.923   6.302   4.928
 8189TIP3   OH224523   2.316   5.693   3.708
 8189TIP3    H124524   2.373   5.750   3.760
 8189TIP3    H224525   2.340   5.710   3.617
 8190TIP3   OH224526   1.740   5.912   5.089
 8190TIP3    H124527   1.746   6.000   5.127
 8190TIP3    H224528   1.647   5.891   5.093
 8191TIP3   OH224529   2.061   6.368   3.986
 8191TIP3    H124530   2.144   6.416   3.994
 8191TIP3    H224531   2.002   6.430   3.943
 8192TIP3   OH224532   1.775   6.521   5.066
 8192TIP3    H124533   1.744   6.526   4.975
 8192TIP3    H224534   1.697   6.501   5.117
 8193TIP3   OH224535   2.831   4.930   3.758
 8193TIP3    H124536   2.752   4.950   3.808
 8193TIP3    H224537   2.849   5.010   3.708
 8194TIP3   OH224538   1.574   5.672   4.105
 8194TIP3    H124539   1.508   5.716   4.051
 8194TIP3    H224540   1.542   5.582   4.114
 8195TIP3   OH224541   2.636   6.296   3.307
 8195TIP3    H124542   2.641   6.390   3.292
 8195TIP3    H224543   2.725   6.264   3.296
 8196TIP3   OH224544   1.355   6.055   5.013
 8196TIP3    H124545   1.292   6.034   4.944
 8196TIP3    H224546   1.394   5.970   5.036
 8197TIP3   OH224547   1.212   6.246   4.651
 8197TIP3    H124548   1.307   6.240   4.635
 8197TIP3    H224549   1.202   6.327   4.702
 8198TIP3   OH224550   3.071   6.700   4.704
 8198TIP3    H124551   3.074   6.605   4.716
 8198TIP3    H224552   2.991   6.727   4.748
 8199TIP3   OH224553   2.178   6.486   4.839
 8199TIP3    H124554   2.178   6.577   4.868
 8199TIP3    H224555   2.110   6.443   4.890
 8200TIP3   OH224556   1.943   6.612   3.790
 8200TIP3    H124557   1.898   6.596   3.706
 8200TIP3    H224558   1.912   6.698   3.817
 8201TIP3   OH224559   1.380   6.460   4.177
 8201TIP3    H124560   1.428   6.454   4.259
 8201TIP3    H224561   1.325   6.381   4.176
 8202TIP3   OH224562   2.144   6.514   3.427
 8202TIP3    H124563   2.200   6.446   3.390
 8202TIP3    H224564   2.177   6.526   3.516
 8203TIP3   OH224565   2.194   6.564   3.698
 8203TIP3    H124566   2.107   6.573   3.737
 8203TIP3    H224567   2.248   6.527   3.768
 8204TIP3   OH224568   2.960   5.826   4.978
 8204TIP3    H124569   2.881   5.838   4.926
 8204TIP3    H224570   2.980   5.732   4.970
 8205TIP3   OH224571   1.560   6.237   5.000
 8205TIP3    H124572   1.610   6.222   5.080
 8205TIP3    H224573   1.486   6.176   5.006
 8206TIP3   OH224574   1.956   5.062   4.787
 8206TIP3    H124575   1.871   5.029   4.757
 8206TIP3    H224576   1.934   5.141   4.836
 8207TIP3   OH224577   2.498   5.174   4.983
 8207TIP3    H124578   2.567   5.146   5.043
 8207TIP3    H224579   2.416   5.155   5.030
 8208TIP3   OH224580   2.727   5.604   4.898
 8208TIP3    H124581   2.680   5.602   4.981
 8208TIP3    H224582   2.709   5.691   4.862
 8209TIP3   OH224583   2.392   5.732   3.452
 8209TIP3    H124584   2.357   5.708   3.366
 8209TIP3    H224585   2.476   5.774   3.433
 8210TIP3   OH224586   2.101   5.108   3.759
 8210TIP3    H124587   2.070   5.106   3.850
 8210TIP3    H224588   2.066   5.028   3.721
 8211TIP3   OH224589   1.889   5.581   4.804
 8211TIP3    H124590   1.843   5.600   4.886
 8211TIP3    H224591   1.875   5.659   4.750
 8212TIP3   OH224592   1.774   5.461   4.317
 8212TIP3    H124593   1.684   5.438   4.338
 8212TIP3    H224594   1.789   5.424   4.231
 8213TIP3   OH224595   2.266   5.548   4.046
 8213TIP3    H124596   2.216   5.618   4.004
 8213TIP3    H224597   2.322   5.514   3.976
 8214TIP3   OH224598   2.443   5.822   5.133
 8214TIP3    H124599   2.419   5.752   5.193
 8214TIP3    H224600   2.536   5.839   5.152
 8215TIP3   OH224601   2.420   5.573   4.281
 8215TIP3    H124602   2.359   5.604   4.214
 8215TIP3    H224603   2.460   5.494   4.242
 8216TIP3   OH224604   1.710   5.605   5.016
 8216TIP3    H124605   1.753   5.666   5.076
 8216TIP3    H224606   1.704   5.523   5.066
 8217TIP3   OH224607   1.758   5.084   3.724
 8217TIP3    H124608   1.753   5.081   3.820
 8217TIP3    H224609   1.683   5.136   3.697
 8218TIP3   OH224610   1.299   5.110   4.607
 8218TIP3    H124611   1.373   5.150   4.653
 8218TIP3    H224612   1.333   5.090   4.520
 8219TIP3   OH224613   1.270   5.109   4.111
 8219TIP3    H124614   1.318   5.139   4.034
 8219TIP3    H224615   1.209   5.181   4.131
 8220TIP3   OH224616   2.429   5.817   4.706
 8220TIP3    H124617   2.464   5.751   4.646
 8220TIP3    H224618   2.401   5.767   4.783
 8221TIP3   OH224619   2.107   5.285   4.380
 8221TIP3    H124620   2.028   5.283   4.434
 8221TIP3    H224621   2.179   5.277   4.443
 8222TIP3   OH224622   1.536   5.340   4.386
 8222TIP3    H124623   1.445   5.346   4.357
 8222TIP3    H224624   1.563   5.251   4.364
 8223TIP3   OH224625   1.802   5.336   4.077
 8223TIP3    H124626   1.895   5.350   4.058
 8223TIP3    H224627   1.758   5.358   3.994
 8224TIP3   OH224628   2.594   5.361   4.585
 8224TIP3    H124629   2.563   5.376   4.675
 8224TIP3    H224630   2.530   5.301   4.547
 8225TIP3   OH224631   1.652   5.372   3.850
 8225TIP3    H124632   1.581   5.326   3.804
 8225TIP3    H224633   1.705   5.411   3.780
 8226TIP3   OH224634   2.770   7.051   4.802
 8226TIP3    H124635   2.765   7.073   4.709
 8226TIP3    H224636   2.849   7.096   4.833
 8227TIP3   OH224637   1.723   6.161   5.225
 8227TIP3    H124638   1.804   6.189   5.266
 8227TIP3    H224639   1.658   6.161   5.296
 8228TIP3   OH224640   2.186   5.613   4.476
 8228TIP3    H124641   2.260   5.579   4.425
 8228TIP3    H224642   2.193   5.569   4.561
 8229TIP3   OH224643   1.704   5.099   4.359
 8229TIP3    H124644   1.670   5.025   4.408
 8229TIP3    H224645   1.754   5.060   4.288
 8230TIP3   OH224646   2.162   5.513   4.769
 8230TIP3    H124647   2.074   5.549   4.781
 8230TIP3    H224648   2.219   5.573   4.816
 8231TIP3   OH224649   1.896   5.900   3.862
 8231TIP3    H124650   1.827   5.835   3.848
 8231TIP3    H224651   1.879   5.934   3.950
 8232TIP3   OH224652   2.797   6.138   4.486
 8232TIP3    H124653   2.823   6.188   4.408
 8232TIP3    H224654   2.715   6.095   4.461
 8233TIP3   OH224655   2.355   5.211   3.728
 8233TIP3    H124656   2.262   5.193   3.736
 8233TIP3    H224657   2.363   5.304   3.753
 8234TIP3   OH224658   2.293   6.218   4.861
 8234TIP3    H124659   2.333   6.203   4.947
 8234TIP3    H224660   2.260   6.307   4.865
 8235TIP3   OH224661   2.426   5.463   3.830
 8235TIP3    H124662   2.520   5.466   3.846
 8235TIP3    H224663   2.408   5.542   3.779
 8236TIP3   OH224664   1.591   5.919   4.534
 8236TIP3    H124665   1.626   5.896   4.448
 8236TIP3    H224666   1.643   5.867   4.596
 8237TIP3   OH224667   2.041   6.050   3.684
 8237TIP3    H124668   1.996   6.135   3.686
 8237TIP3    H224669   1.991   5.995   3.744
 8238TIP3   OH224670   1.472   5.846   5.154
 8238TIP3    H124671   1.497   5.834   5.246
 8238TIP3    H224672   1.408   5.777   5.138
 8239TIP3   OH224673   2.203   5.957   5.168
 8239TIP3    H124674   2.142   5.902   5.120
 8239TIP3    H224675   2.290   5.925   5.144
 8240TIP3   OH224676   2.455   6.479   4.760
 8240TIP3    H124677   2.360   6.478   4.769
 8240TIP3    H224678   2.486   6.531   4.834
 8241TIP3   OH224679   2.859   5.556   3.662
 8241TIP3    H124680   2.800   5.509   3.603
 8241TIP3    H224681   2.862   5.645   3.626
 8242TIP3   OH224682   3.085   6.412   4.740
 8242TIP3    H124683   2.990   6.406   4.736
 8242TIP3    H224684   3.115   6.382   4.654
 8243TIP3   OH224685   2.567   6.370   3.571
 8243TIP3    H124686   2.544   6.300   3.633
 8243TIP3    H224687   2.583   6.325   3.489
 8244TIP3   OH224688   2.562   5.999   4.404
 8244TIP3    H124689   2.470   5.978   4.419
 8244TIP3    H224690   2.598   5.921   4.361
 8245TIP3   OH224691   1.694   6.231   4.164
 8245TIP3    H124692   1.694   6.310   4.109
 8245TIP3    H224693   1.601   6.210   4.174
 8246TIP3   OH224694   1.257   5.532   3.870
 8246TIP3    H124695   1.303   5.614   3.888
 8246TIP3    H224696   1.182   5.533   3.928
 8247TIP3   OH224697   1.822   5.991   4.105
 8247TIP3    H124698   1.793   6.080   4.123
 8247TIP3    H224699   1.791   5.940   4.179
 8248TIP3   OH224700   1.965   6.571   4.631
 8248TIP3    H124701   2.004   6.643   4.580
 8248TIP3    H224702   2.039   6.532   4.677
 8249TIP3   OH224703   1.610   6.469   4.015
 8249TIP3    H124704   1.526   6.476   4.060
 8249TIP3    H224705   1.646   6.558   4.016
 8250TIP3   OH224706   2.348   6.204   4.593
 8250TIP3    H124707   2.335   6.202   4.688
 8250TIP3    H224708   2.427   6.153   4.578
 8251TIP3   OH224709   2.328   6.099   3.478
 8251TIP3    H124710   2.383   6.075   3.553
 8251TIP3    H224711   2.239   6.072   3.504
 8252TIP3   OH224712   2.595   6.737   4.639
 8252TIP3    H124713   2.517   6.682   4.634
 8252TIP3    H224714   2.583   6.801   4.569
 8253TIP3   OH224715   2.662   6.573   3.291
 8253TIP3    H124716   2.703   6.643   3.240
 8253TIP3    H224717   2.583   6.613   3.327
 8254TIP3   OH224718   1.684   5.347   5.160
 8254TIP3    H124719   1.589   5.339   5.169
 8254TIP3    H224720   1.720   5.291   5.230
 8255TIP3   OH224721   2.490   6.031   3.692
 8255TIP3    H124722   2.476   5.966   3.761
 8255TIP3    H224723   2.584   6.029   3.676
 8256TIP3   OH224724   1.400   6.433   4.792
 8256TIP3    H124725   1.454   6.361   4.825
 8256TIP3    H224726   1.432   6.510   4.839
 8257TIP3   OH224727   1.689   6.076   3.475
 8257TIP3    H124728   1.704   5.986   3.448
 8257TIP3    H224729   1.668   6.070   3.569
 8258TIP3   OH224730   1.635   6.085   3.747
 8258TIP3    H124731   1.710   6.057   3.799
 8258TIP3    H224732   1.637   6.181   3.753
 8259TIP3   OH224733   1.366   5.778   3.950
 8259TIP3    H124734   1.301   5.819   4.007
 8259TIP3    H224735   1.382   5.842   3.881
 8260TIP3   OH224736   2.521   5.412   4.845
 8260TIP3    H124737   2.602   5.452   4.877
 8260TIP3    H224738   2.511   5.333   4.897
 8261TIP3   OH224739   2.404   5.163   4.010
 8261TIP3    H124740   2.391   5.182   3.917
 8261TIP3    H224741   2.442   5.243   4.046
 8262TIP3   OH224742   1.900   6.281   3.693
 8262TIP3    H124743   1.815   6.303   3.731
 8262TIP3    H224744   1.920   6.355   3.635
 8263TIP3   OH224745   2.086   5.348   4.111
 8263TIP3    H124746   2.149   5.417   4.091
 8263TIP3    H224747   2.092   5.337   4.206
 8264TIP3   OH224748   2.361   5.659   4.916
 8264TIP3    H124749   2.386   5.710   4.993
 8264TIP3    H224750   2.413   5.579   4.923
 8265TIP3   OH224751   2.232   5.067   4.207
 8265TIP3    H124752   2.227   5.140   4.269
 8265TIP3    H224753   2.292   5.097   4.139
 8266TIP3   OH224754   1.646   6.357   3.764
 8266TIP3    H124755   1.617   6.424   3.701
 8266TIP3    H224756   1.631   6.397   3.849
 8267TIP3   OH224757   1.748   5.073   4.000
 8267TIP3    H124758   1.742   5.161   4.037
 8267TIP3    H224759   1.840   5.050   4.006
 8268TIP3   OH224760   2.995   5.562   4.900
 8268TIP3    H124761   2.899   5.560   4.906
 8268TIP3    H224762   3.015   5.523   4.815
 8269TIP3   OH224763   2.650   5.755   4.286
 8269TIP3    H124764   2.575   5.697   4.297
 8269TIP3    H224765   2.721   5.712   4.332
 8270TIP3   OH224766   1.367   5.981   3.751
 8270TIP3    H124767   1.433   6.050   3.764
 8270TIP3    H224768   1.407   5.922   3.687
 8271TIP3   OH224769   1.302   5.262   3.889
 8271TIP3    H124770   1.307   5.357   3.887
 8271TIP3    H224771   1.227   5.240   3.834
 8272TIP3   OH224772   2.620   6.717   4.229
 8272TIP3    H124773   2.575   6.762   4.158
 8272TIP3    H224774   2.713   6.733   4.213
 8273TIP3   OH224775   1.690   4.979   4.760
 8273TIP3    H124776   1.664   4.946   4.675
 8273TIP3    H224777   1.682   4.904   4.819
 8274TIP3   OH224778   1.227   6.196   4.136
 8274TIP3    H124779   1.165   6.228   4.201
 8274TIP3    H224780   1.201   6.238   4.054
 8275TIP3   OH224781   1.394   6.741   5.220
 8275TIP3    H124782   1.479   6.749   5.263
 8275TIP3    H224783   1.381   6.647   5.209
 8276TIP3   OH224784   1.868   6.700   5.257
 8276TIP3    H124785   1.962   6.690   5.266
 8276TIP3    H224786   1.843   6.641   5.187
 8277TIP3   OH224787   1.852   6.277   3.382
 8277TIP3    H124788   1.797   6.209   3.421
 8277TIP3    H224789   1.929   6.230   3.351
 8278TIP3   OH224790   2.509   6.613   4.995
 8278TIP3    H124791   2.502   6.544   5.061
 8278TIP3    H224792   2.586   6.664   5.021
 8279TIP3   OH224793   2.289   6.317   3.297
 8279TIP3    H124794   2.331   6.256   3.358
 8279TIP3    H224795   2.344   6.315   3.219
 8280TIP3   OH224796   1.519   6.146   5.413
 8280TIP3    H124797   1.537   6.053   5.420
 8280TIP3    H224798   1.435   6.151   5.367
 8281TIP3   OH224799   1.503   5.795   3.609
 8281TIP3    H124800   1.556   5.766   3.683
 8281TIP3    H224801   1.565   5.801   3.537
 8282TIP3   OH224802   2.126   6.234   5.187
 8282TIP3    H124803   2.089   6.256   5.101
 8282TIP3    H224804   2.159   6.144   5.176
 8283TIP3   OH224805   2.012   5.995   3.416
 8283TIP3    H124806   2.015   6.010   3.510
 8283TIP3    H224807   2.013   5.900   3.407
 8284TIP3   OH224808   2.620   6.250   4.794
 8284TIP3    H124809   2.698   6.285   4.751
 8284TIP3    H224810   2.553   6.316   4.778
 8285TIP3   OH224811   1.642   5.881   5.398
 8285TIP3    H124812   1.721   5.839   5.364
 8285TIP3    H224813   1.668   5.915   5.483
 8286TIP3   OH224814   1.703   5.702   3.825
 8286TIP3    H124815   1.679   5.664   3.909
 8286TIP3    H224816   1.743   5.630   3.776
 8287TIP3   OH224817   1.970   5.763   5.051
 8287TIP3    H124818   1.898   5.825   5.056
 8287TIP3    H224819   2.026   5.797   4.981
 8288TIP3   OH224820   1.811   5.499   3.666
 8288TIP3    H124821   1.784   5.507   3.575
 8288TIP3    H224822   1.906   5.500   3.663
 8289TIP3   OH224823   2.495   6.168   5.190
 8289TIP3    H124824   2.572   6.140   5.141
 8289TIP3    H224825   2.488   6.105   5.262
 8290TIP3   OH224826   2.623   5.827   3.333
 8290TIP3    H124827   2.608   5.781   3.251
 8290TIP3    H224828   2.593   5.916   3.317
 8291TIP3   OH224829   2.096   5.556   5.181
 8291TIP3    H124830   2.101   5.478   5.126
 8291TIP3    H224831   2.054   5.622   5.125
 8292TIP3   OH224832   2.101   5.344   4.991
 8292TIP3    H124833   2.132   5.384   4.910
 8292TIP3    H224834   2.010   5.320   4.972
 8293TIP3   OH224835   2.124   5.877   4.865
 8293TIP3    H124836   2.211   5.888   4.826
 8293TIP3    H224837   2.070   5.941   4.819
 8294TIP3   OH224838   2.710   5.842   5.242
 8294TIP3    H124839   2.755   5.759   5.254
 8294TIP3    H224840   2.777   5.900   5.205
 8295TIP3   OH224841   2.751   6.101   4.977
 8295TIP3    H124842   2.692   6.153   4.922
 8295TIP3    H224843   2.838   6.118   4.942
 8296TIP3   OH224844   1.974   5.662   5.414
 8296TIP3    H124845   1.909   5.594   5.431
 8296TIP3    H224846   2.011   5.639   5.328
 8297TIP3   OH224847   2.232   5.105   5.058
 8297TIP3    H124848   2.185   5.186   5.037
 8297TIP3    H224849   2.166   5.036   5.048
 8298TIP3   OH224850   2.357   5.606   5.276
 8298TIP3    H124851   2.350   5.592   5.371
 8298TIP3    H224852   2.270   5.583   5.242
 8299TIP3   OH224853   2.598   5.560   5.132
 8299TIP3    H124854   2.525   5.560   5.193
 8299TIP3    H224855   2.673   5.530   5.183
 8300TIP3   OH224856   2.825   5.499   5.279
 8300TIP3    H124857   2.840   5.405   5.293
 8300TIP3    H224858   2.824   5.536   5.368
 8301TIP3   OH224859   1.814   5.442   5.473
 8301TIP3    H124860   1.818   5.353   5.437
 8301TIP3    H224861   1.853   5.435   5.559
 8302TIP3   OH224862   2.326   5.113   5.316
 8302TIP3    H124863   2.393   5.046   5.315
 8302TIP3    H224864   2.287   5.110   5.229
 8303TIP3   OH224865   2.393   5.330   5.474
 8303TIP3    H124866   2.375   5.259   5.413
 8303TIP3    H224867   2.316   5.387   5.468
 8304TIP3   OH224868   1.618   6.558   3.573
 8304TIP3    H124869   1.712   6.548   3.557
 8304TIP3    H224870   1.587   6.610   3.499
 8305TIP3   OH224871   1.098   5.939   3.790
 8305TIP3    H124872   1.189   5.962   3.776
 8305TIP3    H224873   1.088   5.852   3.750
 8306TIP3   OH224874   1.011   6.549   4.207
 8306TIP3    H124875   0.945   6.492   4.166
 8306TIP3    H224876   1.055   6.492   4.270
 8307TIP3   OH224877   1.148   6.397   4.393
 8307TIP3    H124878   1.133   6.327   4.458
 8307TIP3    H224879   1.200   6.462   4.440
 8308TIP3   OH224880   2.874   6.807   4.194
 8308TIP3    H124881   2.902   6.836   4.281
 8308TIP3    H224882   2.941   6.841   4.134
 8309TIP3   OH224883   2.902   6.820   4.477
 8309TIP3    H124884   2.856   6.737   4.470
 8309TIP3    H224885   2.979   6.800   4.531
 8310TIP3   OH224886   2.947   6.502   5.049
 8310TIP3    H124887   2.876   6.510   5.113
 8310TIP3    H224888   2.991   6.587   5.051
 8311TIP3   OH224889   2.767   6.013   3.667
 8311TIP3    H124890   2.830   6.078   3.634
 8311TIP3    H224891   2.809   5.976   3.744
 8312TIP3   OH224892   2.892   5.882   3.872
 8312TIP3    H124893   2.828   5.842   3.931
 8312TIP3    H224894   2.960   5.915   3.930
 8313TIP3   OH224895   2.949   6.273   4.298
 8313TIP3    H124896   3.001   6.205   4.256
 8313TIP3    H224897   2.947   6.345   4.235
 8314TIP3   OH224898   2.774   6.574   4.495
 8314TIP3    H124899   2.704   6.615   4.546
 8314TIP3    H224900   2.729   6.527   4.425
 8315TIP3   OH224901   2.826   5.790   3.515
 8315TIP3    H124902   2.758   5.789   3.448
 8315TIP3    H224903   2.804   5.864   3.572
 8316TIP3   OH224904   2.697   5.460   3.469
 8316TIP3    H124905   2.657   5.497   3.390
 8316TIP3    H224906   2.677   5.366   3.463
 8317TIP3   OH224907   2.704   5.739   4.018
 8317TIP3    H124908   2.714   5.645   4.008
 8317TIP3    H224909   2.690   5.752   4.112
 8318TIP3   OH224910   1.333   5.808   4.765
 8318TIP3    H124911   1.328   5.777   4.674
 8318TIP3    H224912   1.427   5.812   4.783
 8319TIP3   OH224913   2.998   6.163   4.873
 8319TIP3    H124914   3.066   6.096   4.865
 8319TIP3    H224915   3.021   6.230   4.809
 8320TIP3   OH224916   3.177   5.961   4.888
 8320TIP3    H124917   3.103   5.914   4.926
 8320TIP3    H224918   3.251   5.902   4.901
 8321TIP3   OH224919   2.645   5.194   3.453
 8321TIP3    H124920   2.719   5.165   3.506
 8321TIP3    H224921   2.574   5.135   3.476
 8322TIP3   OH224922   2.705   5.452   3.906
 8322TIP3    H124923   2.743   5.366   3.923
 8322TIP3    H224924   2.760   5.489   3.837
 8323TIP3   OH224925   2.865   5.628   4.406
 8323TIP3    H124926   2.947   5.649   4.361
 8323TIP3    H224927   2.876   5.662   4.495
 8324TIP3   OH224928   2.935   5.773   4.636
 8324TIP3    H124929   2.858   5.806   4.684
 8324TIP3    H224930   2.969   5.850   4.590
 8325TIP3   OH224931   1.549   5.491   5.429
 8325TIP3    H124932   1.645   5.492   5.435
 8325TIP3    H224933   1.523   5.408   5.470
 8326TIP3   OH224934   3.385   5.365   5.190
 8326TIP3    H124935   3.445   5.300   5.152
 8326TIP3    H224936   3.354   5.416   5.115
 8327TIP3   OH224937   2.810   5.203   3.950
 8327TIP3    H124938   2.860   5.190   4.030
 8327TIP3    H224939   2.750   5.129   3.947
 8328TIP3   OH224940   1.511   5.190   4.772
 8328TIP3    H124941   1.567   5.114   4.778
 8328TIP3    H224942   1.571   5.264   4.760
 8329TIP3   OH224943   1.312   5.462   4.838
 8329TIP3    H124944   1.360   5.454   4.756
 8329TIP3    H224945   1.340   5.546   4.874
 8330TIP3   OH224946   3.249   5.499   4.994
 8330TIP3    H124947   3.167   5.544   5.013
 8330TIP3    H224948   3.225   5.426   4.938
 8331TIP3   OH224949   2.890   5.137   3.580
 8331TIP3    H124950   2.930   5.067   3.529
 8331TIP3    H224951   2.955   5.207   3.581
 8332TIP3   OH224952   1.297   4.975   4.344
 8332TIP3    H124953   1.204   4.962   4.363
 8332TIP3    H224954   1.298   5.029   4.265
 8333TIP3   OH224955   2.458   6.673   3.847
 8333TIP3    H124956   2.506   6.661   3.765
 8333TIP3    H224957   2.509   6.736   3.897
 8334TIP3   OH224958   1.520   5.057   5.161
 8334TIP3    H124959   1.468   5.044   5.240
 8334TIP3    H224960   1.457   5.082   5.094
 8335TIP3   OH224961   1.555   6.478   5.231
 8335TIP3    H124962   1.465   6.448   5.216
 8335TIP3    H224963   1.572   6.459   5.323
 8336TIP3   OH224964   1.738   6.514   4.777
 8336TIP3    H124965   1.689   6.587   4.741
 8336TIP3    H224966   1.824   6.521   4.737
 8337TIP3   OH224967   2.179   6.753   4.919
 8337TIP3    H124968   2.218   6.751   5.006
 8337TIP3    H224969   2.241   6.803   4.866
 8338TIP3   OH224970   2.359   6.906   4.781
 8338TIP3    H124971   2.426   6.854   4.735
 8338TIP3    H224972   2.409   6.962   4.840
 8339TIP3   OH224973   3.153   5.261   4.877
 8339TIP3    H124974   3.064   5.253   4.842
 8339TIP3    H224975   3.189   5.172   4.870
 8340TIP3   OH224976   1.409   6.763   4.810
 8340TIP3    H124977   1.322   6.791   4.783
 8340TIP3    H224978   1.428   6.815   4.887
 8341TIP3   OH224979   1.645   6.744   4.663
 8341TIP3    H124980   1.560   6.755   4.706
 8341TIP3    H224981   1.631   6.775   4.574
 8342TIP3   OH224982   2.072   6.771   4.462
 8342TIP3    H124983   2.004   6.786   4.396
 8342TIP3    H224984   2.085   6.856   4.503
 8343TIP3   OH224985   2.342   6.710   4.514
 8343TIP3    H124986   2.250   6.726   4.495
 8343TIP3    H224987   2.389   6.780   4.470
 8344TIP3   OH224988   2.548   6.900   4.423
 8344TIP3    H124989   2.534   6.984   4.378
 8344TIP3    H224990   2.576   6.840   4.354
 8345TIP3   OH224991   1.323   6.553   4.548
 8345TIP3    H124992   1.346   6.531   4.638
 8345TIP3    H224993   1.393   6.514   4.496
 8346TIP3   OH224994   1.520   6.428   4.410
 8346TIP3    H124995   1.534   6.346   4.457
 8346TIP3    H224996   1.608   6.466   4.403
 8347TIP3   OH224997   1.786   6.520   4.416
 8347TIP3    H124998   1.815   6.430   4.400
 8347TIP3    H224999   1.832   6.546   4.495
 8348TIP3   OH225000   2.356   5.177   4.494
 8348TIP3    H125001   2.316   5.107   4.546
 8348TIP3    H225002   2.432   5.136   4.453
 8349TIP3   OH225003   2.877   5.061   4.400
 8349TIP3    H125004   2.916   5.110   4.327
 8349TIP3    H225005   2.784   5.081   4.394
 8350TIP3   OH225006   2.977   5.158   4.164
 8350TIP3    H125007   3.047   5.104   4.127
 8350TIP3    H225008   3.008   5.248   4.152
 8351TIP3   OH225009   1.603   4.885   4.513
 8351TIP3    H125010   1.511   4.858   4.515
 8351TIP3    H225011   1.652   4.803   4.509
 8352TIP3   OH225012   1.391   4.762   4.161
 8352TIP3    H125013   1.426   4.812   4.087
 8352TIP3    H225014   1.371   4.828   4.227
 8353TIP3   OH225015   2.054   4.923   4.395
 8353TIP3    H125016   2.108   4.967   4.329
 8353TIP3    H225017   2.083   4.959   4.479
 8354TIP3   OH225018   2.591   5.066   4.377
 8354TIP3    H125019   2.598   5.029   4.289
 8354TIP3    H225020   2.581   4.989   4.434
 8355TIP3   OH225021   2.626   4.991   3.941
 8355TIP3    H125022   2.542   5.036   3.955
 8355TIP3    H225023   2.615   4.906   3.983
 8356TIP3   OH225024   1.108   6.337   3.938
 8356TIP3    H125025   1.024   6.301   3.907
 8356TIP3    H225026   1.105   6.429   3.914
 8357TIP3   OH225027   1.516   4.916   3.923
 8357TIP3    H125028   1.560   4.852   3.866
 8357TIP3    H225029   1.588   4.970   3.957
 8358TIP3   OH225030   2.024   5.097   4.024
 8358TIP3    H125031   2.081   5.045   4.080
 8358TIP3    H225032   2.044   5.188   4.047
 8359TIP3   OH225033   1.886   6.512   3.520
 8359TIP3    H125034   1.972   6.539   3.489
 8359TIP3    H225035   1.860   6.440   3.463
 8360TIP3   OH225036   2.601   6.636   3.614
 8360TIP3    H125037   2.595   6.540   3.607
 8360TIP3    H225038   2.557   6.669   3.536
 8361TIP3   OH225039   1.816   5.168   5.406
 8361TIP3    H125040   1.778   5.097   5.458
 8361TIP3    H225041   1.908   5.169   5.431
 8362TIP3   OH225042   2.066   5.165   5.522
 8362TIP3    H125043   2.150   5.142   5.481
 8362TIP3    H225044   2.053   5.098   5.590
 8363TIP3   OH225045   1.187   6.350   3.576
 8363TIP3    H125046   1.188   6.378   3.667
 8363TIP3    H225047   1.273   6.310   3.562
 8364TIP3   OH225048   2.893   5.229   5.310
 8364TIP3    H125049   2.908   5.198   5.399
 8364TIP3    H225050   2.980   5.224   5.269
 8365TIP3   OH225051   2.823   6.782   4.802
 8365TIP3    H125052   2.749   6.749   4.751
 8365TIP3    H225053   2.807   6.876   4.809
 8366TIP3   OH225054   4.101   6.160   3.560
 8366TIP3    H125055   4.067   6.247   3.539
 8366TIP3    H225056   4.024   6.104   3.565
 8367TIP3   OH225057   4.098   6.146   3.941
 8367TIP3    H125058   4.118   6.107   4.026
 8367TIP3    H225059   4.021   6.097   3.909
 8368TIP3   OH225060   3.392   6.049   4.321
 8368TIP3    H125061   3.419   5.980   4.381
 8368TIP3    H225062   3.475   6.089   4.292
 8369TIP3   OH225063   4.341   6.458   3.633
 8369TIP3    H125064   4.318   6.386   3.692
 8369TIP3    H225065   4.370   6.528   3.691
 8370TIP3   OH225066   3.368   6.453   4.036
 8370TIP3    H125067   3.357   6.358   4.035
 8370TIP3    H225068   3.462   6.467   4.030
 8371TIP3   OH225069   3.063   5.655   3.817
 8371TIP3    H125070   3.025   5.740   3.838
 8371TIP3    H225071   2.992   5.607   3.774
 8372TIP3   OH225072   3.132   5.944   3.998
 8372TIP3    H125073   3.178   5.867   4.032
 8372TIP3    H225074   3.195   5.986   3.940
 8373TIP3   OH225075   3.993   6.916   3.651
 8373TIP3    H125076   4.032   6.848   3.596
 8373TIP3    H225077   3.982   6.875   3.737
 8374TIP3   OH225078   3.891   6.379   4.000
 8374TIP3    H125079   3.913   6.296   3.958
 8374TIP3    H225080   3.975   6.420   4.019
 8375TIP3   OH225081   4.912   5.700   3.997
 8375TIP3    H125082   4.939   5.782   4.039
 8375TIP3    H225083   4.925   5.716   3.903
 8376TIP3   OH225084   4.309   5.879   4.026
 8376TIP3    H125085   4.344   5.792   4.044
 8376TIP3    H225086   4.267   5.871   3.941
 8377TIP3   OH225087   3.641   5.548   3.985
 8377TIP3    H125088   3.625   5.627   3.933
 8377TIP3    H225089   3.591   5.479   3.941
 8378TIP3   OH225090   4.344   5.622   3.614
 8378TIP3    H125091   4.410   5.609   3.683
 8378TIP3    H225092   4.391   5.666   3.543
 8379TIP3   OH225093   3.279   5.737   4.101
 8379TIP3    H125094   3.362   5.726   4.148
 8379TIP3    H225095   3.288   5.682   4.024
 8380TIP3   OH225096   4.981   5.911   4.166
 8380TIP3    H125097   4.898   5.953   4.143
 8380TIP3    H225098   4.995   5.935   4.257
 8381TIP3   OH225099   3.634   5.522   4.430
 8381TIP3    H125100   3.583   5.560   4.358
 8381TIP3    H225101   3.583   5.542   4.509
 8382TIP3   OH225102   3.984   6.380   3.433
 8382TIP3    H125103   3.940   6.356   3.352
 8382TIP3    H225104   3.938   6.459   3.463
 8383TIP3   OH225105   3.747   6.299   4.221
 8383TIP3    H125106   3.688   6.366   4.256
 8383TIP3    H225107   3.789   6.340   4.146
 8384TIP3   OH225108   4.547   5.634   3.796
 8384TIP3    H125109   4.515   5.598   3.879
 8384TIP3    H225110   4.593   5.715   3.821
 8385TIP3   OH225111   3.514   5.636   4.210
 8385TIP3    H125112   3.570   5.709   4.237
 8385TIP3    H225113   3.558   5.599   4.134
 8386TIP3   OH225114   3.574   6.498   4.323
 8386TIP3    H125115   3.551   6.583   4.284
 8386TIP3    H225116   3.498   6.476   4.376
 8387TIP3   OH225117   2.964   6.187   3.556
 8387TIP3    H125118   2.927   6.213   3.472
 8387TIP3    H225119   2.999   6.267   3.594
 8388TIP3   OH225120   4.406   6.704   3.799
 8388TIP3    H125121   4.319   6.690   3.838
 8388TIP3    H225122   4.398   6.787   3.753
 8389TIP3   OH225123   4.699   5.598   4.160
 8389TIP3    H125124   4.611   5.621   4.130
 8389TIP3    H225125   4.757   5.631   4.092
 8390TIP3   OH225126   3.991   5.238   4.148
 8390TIP3    H125127   3.975   5.145   4.161
 8390TIP3    H225128   3.918   5.282   4.191
 8391TIP3   OH225129   4.109   6.744   3.465
 8391TIP3    H125130   4.153   6.661   3.452
 8391TIP3    H225131   4.168   6.809   3.429
 8392TIP3   OH225132   4.252   6.528   3.383
 8392TIP3    H125133   4.208   6.451   3.348
 8392TIP3    H225134   4.292   6.498   3.465
 8393TIP3   OH225135   4.633   6.609   4.139
 8393TIP3    H125136   4.620   6.532   4.083
 8393TIP3    H225137   4.615   6.683   4.081
 8394TIP3   OH225138   3.921   5.998   3.396
 8394TIP3    H125139   3.846   6.056   3.381
 8394TIP3    H225140   3.972   6.003   3.315
 8395TIP3   OH225141   3.884   5.792   3.110
 8395TIP3    H125142   3.944   5.844   3.164
 8395TIP3    H225143   3.941   5.731   3.063
 8396TIP3   OH225144   4.828   6.254   3.987
 8396TIP3    H125145   4.744   6.299   3.994
 8396TIP3    H225146   4.859   6.275   3.899
 8397TIP3   OH225147   4.277   6.087   3.368
 8397TIP3    H125148   4.219   6.111   3.440
 8397TIP3    H225149   4.359   6.063   3.411
 8398TIP3   OH225150   4.508   6.127   4.285
 8398TIP3    H125151   4.504   6.210   4.333
 8398TIP3    H225152   4.423   6.121   4.241
 8399TIP3   OH225153   3.524   6.066   3.791
 8399TIP3    H125154   3.482   6.013   3.724
 8399TIP3    H225155   3.602   6.016   3.816
 8400TIP3   OH225156   3.636   6.497   3.935
 8400TIP3    H125157   3.615   6.460   3.849
 8400TIP3    H225158   3.723   6.461   3.956
 8401TIP3   OH225159   3.640   6.057   4.137
 8401TIP3    H125160   3.691   6.022   4.064
 8401TIP3    H225161   3.683   6.140   4.158
 8402TIP3   OH225162   4.166   6.695   3.920
 8402TIP3    H125163   4.155   6.771   3.977
 8402TIP3    H225164   4.151   6.620   3.978
 8403TIP3   OH225165   3.778   6.613   4.467
 8403TIP3    H125166   3.720   6.674   4.513
 8403TIP3    H225167   3.720   6.558   4.415
 8404TIP3   OH225168   4.114   5.949   3.195
 8404TIP3    H125169   4.171   6.005   3.247
 8404TIP3    H225170   4.138   5.967   3.104
 8405TIP3   OH225171   3.536   6.170   4.578
 8405TIP3    H125172   3.540   6.257   4.616
 8405TIP3    H225173   3.443   6.147   4.579
 8406TIP3   OH225174   3.857   6.626   3.472
 8406TIP3    H125175   3.939   6.673   3.481
 8406TIP3    H225176   3.798   6.688   3.429
 8407TIP3   OH225177   3.571   6.779   4.553
 8407TIP3    H125178   3.540   6.781   4.462
 8407TIP3    H225179   3.493   6.757   4.605
 8408TIP3   OH225180   4.628   5.187   3.248
 8408TIP3    H125181   4.548   5.207   3.296
 8408TIP3    H225182   4.646   5.266   3.197
 8409TIP3   OH225183   3.374   5.932   3.583
 8409TIP3    H125184   3.300   5.968   3.534
 8409TIP3    H225185   3.345   5.844   3.608
 8410TIP3   OH225186   4.431   6.553   2.794
 8410TIP3    H125187   4.437   6.647   2.779
 8410TIP3    H225188   4.521   6.521   2.782
 8411TIP3   OH225189   3.151   6.312   4.499
 8411TIP3    H125190   3.088   6.290   4.431
 8411TIP3    H225191   3.191   6.228   4.523
 8412TIP3   OH225192   3.009   6.505   4.132
 8412TIP3    H125193   3.103   6.492   4.119
 8412TIP3    H225194   3.003   6.581   4.189
 8413TIP3   OH225195   4.869   6.957   4.192
 8413TIP3    H125196   4.871   6.863   4.203
 8413TIP3    H225197   4.788   6.985   4.235
 8414TIP3   OH225198   3.974   6.743   4.326
 8414TIP3    H125199   3.973   6.834   4.355
 8414TIP3    H225200   3.905   6.700   4.376
 8415TIP3   OH225201   3.739   6.870   3.274
 8415TIP3    H125202   3.693   6.851   3.192
 8415TIP3    H225203   3.706   6.956   3.301
 8416TIP3   OH225204   3.176   6.716   3.665
 8416TIP3    H125205   3.224   6.710   3.747
 8416TIP3    H225206   3.127   6.635   3.660
 8417TIP3   OH225207   3.941   6.771   2.914
 8417TIP3    H125208   3.996   6.702   2.877
 8417TIP3    H225209   3.972   6.783   3.004
 8418TIP3   OH225210   3.990   6.820   3.185
 8418TIP3    H125211   3.903   6.829   3.224
 8418TIP3    H225212   4.043   6.780   3.254
 8419TIP3   OH225213   4.758   6.084   4.462
 8419TIP3    H125214   4.676   6.097   4.415
 8419TIP3    H225215   4.776   5.991   4.455
 8420TIP3   OH225216   3.355   6.495   4.487
 8420TIP3    H125217   3.406   6.479   4.566
 8420TIP3    H225218   3.282   6.433   4.492
 8421TIP3   OH225219   3.753   5.315   4.275
 8421TIP3    H125220   3.667   5.286   4.246
 8421TIP3    H225221   3.737   5.400   4.317
 8422TIP3   OH225222   4.293   5.431   4.468
 8422TIP3    H125223   4.360   5.404   4.531
 8422TIP3    H225224   4.210   5.412   4.512
 8423TIP3   OH225225   4.530   5.865   4.391
 8423TIP3    H125226   4.477   5.861   4.470
 8423TIP3    H225227   4.504   5.947   4.349
 8424TIP3   OH225228   4.190   5.989   2.938
 8424TIP3    H125229   4.153   5.966   2.853
 8424TIP3    H225230   4.273   6.032   2.918
 8425TIP3   OH225231   3.897   5.364   3.246
 8425TIP3    H125232   3.868   5.364   3.337
 8425TIP3    H225233   3.861   5.284   3.210
 8426TIP3   OH225234   3.676   5.835   4.287
 8426TIP3    H125235   3.635   5.863   4.369
 8426TIP3    H225236   3.670   5.912   4.230
 8427TIP3   OH225237   3.541   5.713   3.798
 8427TIP3    H125238   3.457   5.674   3.820
 8427TIP3    H225239   3.564   5.674   3.714
 8428TIP3   OH225240   4.060   5.798   3.527
 8428TIP3    H125241   4.009   5.872   3.493
 8428TIP3    H225242   4.116   5.772   3.455
 8429TIP3   OH225243   4.240   6.082   4.625
 8429TIP3    H125244   4.215   6.009   4.682
 8429TIP3    H225245   4.333   6.094   4.641
 8430TIP3   OH225246   4.235   5.839   3.764
 8430TIP3    H125247   4.151   5.870   3.730
 8430TIP3    H225248   4.252   5.758   3.717
 8431TIP3   OH225249   3.502   5.866   4.505
 8431TIP3    H125250   3.547   5.924   4.565
 8431TIP3    H225251   3.498   5.782   4.551
 8432TIP3   OH225252   3.553   5.340   3.211
 8432TIP3    H125253   3.550   5.338   3.306
 8432TIP3    H225254   3.480   5.396   3.185
 8433TIP3   OH225255   3.105   5.379   4.084
 8433TIP3    H125256   3.174   5.417   4.138
 8433TIP3    H225257   3.148   5.358   4.001
 8434TIP3   OH225258   3.064   5.365   3.598
 8434TIP3    H125259   3.114   5.395   3.522
 8434TIP3    H225260   3.005   5.437   3.619
 8435TIP3   OH225261   4.246   6.078   4.196
 8435TIP3    H125262   4.270   6.013   4.131
 8435TIP3    H225263   4.208   6.027   4.268
 8436TIP3   OH225264   3.902   5.528   3.870
 8436TIP3    H125265   3.818   5.532   3.915
 8436TIP3    H225266   3.962   5.578   3.925
 8437TIP3   OH225267   3.317   5.580   3.883
 8437TIP3    H125268   3.228   5.589   3.850
 8437TIP3    H225269   3.345   5.493   3.853
 8438TIP3   OH225270   3.599   5.587   3.562
 8438TIP3    H125271   3.692   5.609   3.551
 8438TIP3    H225272   3.558   5.615   3.480
 8439TIP3   OH225273   4.389   5.614   4.071
 8439TIP3    H125274   4.362   5.634   4.160
 8439TIP3    H225275   4.321   5.555   4.037
 8440TIP3   OH225276   3.446   5.630   3.336
 8440TIP3    H125277   3.376   5.585   3.288
 8440TIP3    H225278   3.500   5.669   3.267
 8441TIP3   OH225279   4.566   7.308   4.289
 8441TIP3    H125280   4.562   7.330   4.195
 8441TIP3    H225281   4.644   7.353   4.320
 8442TIP3   OH225282   3.518   6.420   4.711
 8442TIP3    H125283   3.599   6.446   4.755
 8442TIP3    H225284   3.453   6.416   4.781
 8443TIP3   OH225285   3.497   5.359   3.842
 8443TIP3    H125286   3.467   5.282   3.892
 8443TIP3    H225287   3.553   5.322   3.774
 8444TIP3   OH225288   3.955   5.751   4.292
 8444TIP3    H125289   3.877   5.790   4.252
 8444TIP3    H225290   4.019   5.822   4.295
 8445TIP3   OH225291   3.691   6.157   3.347
 8445TIP3    H125292   3.623   6.092   3.333
 8445TIP3    H225293   3.674   6.191   3.435
 8446TIP3   OH225294   4.591   6.392   3.973
 8446TIP3    H125295   4.614   6.442   3.895
 8446TIP3    H225296   4.509   6.348   3.951
 8447TIP3   OH225297   4.150   5.468   3.210
 8447TIP3    H125298   4.057   5.451   3.222
 8447TIP3    H225299   4.160   5.560   3.237
 8448TIP3   OH225300   4.100   6.481   4.343
 8448TIP3    H125301   4.122   6.454   4.432
 8448TIP3    H225302   4.056   6.565   4.354
 8449TIP3   OH225303   4.225   5.718   3.310
 8449TIP3    H125304   4.318   5.725   3.331
 8449TIP3    H225305   4.205   5.798   3.263
 8450TIP3   OH225306   3.396   6.172   4.013
 8450TIP3    H125307   3.434   6.146   3.929
 8450TIP3    H225308   3.447   6.124   4.078
 8451TIP3   OH225309   3.837   6.306   3.170
 8451TIP3    H125310   3.792   6.390   3.173
 8451TIP3    H225311   3.786   6.250   3.229
 8452TIP3   OH225312   3.267   6.102   4.641
 8452TIP3    H125313   3.290   6.088   4.733
 8452TIP3    H225314   3.203   6.034   4.621
 8453TIP3   OH225315   3.998   6.214   4.656
 8453TIP3    H125316   3.936   6.162   4.604
 8453TIP3    H225317   4.084   6.181   4.630
 8454TIP3   OH225318   4.253   6.746   4.241
 8454TIP3    H125319   4.158   6.733   4.253
 8454TIP3    H225320   4.281   6.792   4.319
 8455TIP3   OH225321   4.660   5.812   3.147
 8455TIP3    H125322   4.601   5.765   3.088
 8455TIP3    H225323   4.661   5.902   3.113
 8456TIP3   OH225324   4.882   6.669   4.226
 8456TIP3    H125325   4.787   6.663   4.223
 8456TIP3    H225326   4.911   6.637   4.141
 8457TIP3   OH225327   4.366   6.626   3.060
 8457TIP3    H125328   4.338   6.558   3.122
 8457TIP3    H225329   4.378   6.580   2.978
 8458TIP3   OH225330   4.356   6.252   3.892
 8458TIP3    H125331   4.265   6.228   3.908
 8458TIP3    H225332   4.395   6.176   3.849
 8459TIP3   OH225333   3.488   6.488   3.654
 8459TIP3    H125334   3.489   6.565   3.597
 8459TIP3    H225335   3.396   6.463   3.660
 8460TIP3   OH225336   3.052   5.788   3.355
 8460TIP3    H125337   3.099   5.869   3.374
 8460TIP3    H225338   2.977   5.789   3.415
 8461TIP3   OH225339   3.616   6.246   3.589
 8461TIP3    H125340   3.584   6.333   3.616
 8461TIP3    H225341   3.604   6.191   3.666
 8462TIP3   OH225342   3.761   6.828   4.118
 8462TIP3    H125343   3.802   6.899   4.067
 8462TIP3    H225344   3.834   6.786   4.163
 8463TIP3   OH225345   3.404   6.728   3.500
 8463TIP3    H125346   3.321   6.733   3.548
 8463TIP3    H225347   3.439   6.817   3.502
 8464TIP3   OH225348   4.146   6.460   4.076
 8464TIP3    H125349   4.134   6.460   4.171
 8464TIP3    H225350   4.217   6.397   4.060
 8465TIP3   OH225351   4.123   6.357   2.964
 8465TIP3    H125352   4.179   6.333   3.038
 8465TIP3    H225353   4.035   6.327   2.989
 8466TIP3   OH225354   4.393   6.993   4.127
 8466TIP3    H125355   4.317   6.935   4.126
 8466TIP3    H225356   4.376   7.056   4.056
 8467TIP3   OH225357   4.459   6.831   2.777
 8467TIP3    H125358   4.502   6.903   2.730
 8467TIP3    H225359   4.379   6.869   2.813
 8468TIP3   OH225360   3.476   5.606   4.645
 8468TIP3    H125361   3.381   5.607   4.654
 8468TIP3    H225362   3.507   5.549   4.716
 8469TIP3   OH225363   4.286   6.286   3.174
 8469TIP3    H125364   4.270   6.223   3.245
 8469TIP3    H225365   4.381   6.284   3.162
 8470TIP3   OH225366   3.197   6.688   4.278
 8470TIP3    H125367   3.249   6.613   4.307
 8470TIP3    H225368   3.226   6.761   4.331
 8471TIP3   OH225369   3.484   6.333   2.962
 8471TIP3    H125370   3.499   6.243   2.934
 8471TIP3    H225371   3.464   6.326   3.056
 8472TIP3   OH225372   3.430   6.342   3.235
 8472TIP3    H125373   3.504   6.309   3.286
 8472TIP3    H225374   3.434   6.437   3.243
 8473TIP3   OH225375   3.158   6.032   3.435
 8473TIP3    H125376   3.095   6.075   3.493
 8473TIP3    H225377   3.178   6.097   3.368
 8474TIP3   OH225378   4.321   5.671   4.332
 8474TIP3    H125379   4.402   5.706   4.370
 8474TIP3    H225380   4.305   5.591   4.381
 8475TIP3   OH225381   4.203   5.414   3.495
 8475TIP3    H125382   4.186   5.438   3.404
 8475TIP3    H225383   4.241   5.492   3.534
 8476TIP3   OH225384   3.696   6.538   3.180
 8476TIP3    H125385   3.611   6.559   3.218
 8476TIP3    H225386   3.714   6.610   3.120
 8477TIP3   OH225387   3.882   5.605   3.599
 8477TIP3    H125388   3.943   5.674   3.576
 8477TIP3    H225389   3.883   5.602   3.695
 8478TIP3   OH225390   4.163   5.923   4.399
 8478TIP3    H125391   4.185   5.969   4.480
 8478TIP3    H225392   4.205   5.837   4.408
 8479TIP3   OH225393   4.025   5.326   3.700
 8479TIP3    H125394   4.000   5.402   3.753
 8479TIP3    H225395   4.087   5.361   3.636
 8480TIP3   OH225396   3.443   6.615   3.250
 8480TIP3    H125397   3.414   6.682   3.188
 8480TIP3    H225398   3.427   6.654   3.336
 8481TIP3   OH225399   3.546   5.328   3.486
 8481TIP3    H125400   3.541   5.417   3.522
 8481TIP3    H225401   3.638   5.304   3.493
 8482TIP3   OH225402   4.793   5.816   4.382
 8482TIP3    H125403   4.699   5.820   4.396
 8482TIP3    H225404   4.804   5.773   4.297
 8483TIP3   OH225405   4.452   6.015   3.772
 8483TIP3    H125406   4.372   5.962   3.778
 8483TIP3    H225407   4.517   5.966   3.821
 8484TIP3   OH225408   3.164   6.239   3.237
 8484TIP3    H125409   3.233   6.304   3.251
 8484TIP3    H225410   3.202   6.178   3.173
 8485TIP3   OH225411   3.098   5.518   3.375
 8485TIP3    H125412   3.108   5.613   3.373
 8485TIP3    H225413   3.018   5.500   3.326
 8486TIP3   OH225414   4.417   6.975   3.717
 8486TIP3    H125415   4.372   7.019   3.645
 8486TIP3    H225416   4.510   6.990   3.700
 8487TIP3   OH225417   3.488   5.237   4.246
 8487TIP3    H125418   3.461   5.206   4.160
 8487TIP3    H225419   3.478   5.160   4.303
 8488TIP3   OH225420   3.027   6.458   3.623
 8488TIP3    H125421   2.962   6.486   3.688
 8488TIP3    H225422   2.997   6.498   3.542
 8489TIP3   OH225423   3.191   7.001   4.702
 8489TIP3    H125424   3.276   7.005   4.746
 8489TIP3    H225425   3.170   6.908   4.697
 8490TIP3   OH225426   3.666   6.957   4.743
 8490TIP3    H125427   3.760   6.942   4.751
 8490TIP3    H225428   3.638   6.899   4.672
 8491TIP3   OH225429   3.649   6.534   2.870
 8491TIP3    H125430   3.593   6.467   2.909
 8491TIP3    H225431   3.725   6.486   2.838
 8492TIP3   OH225432   4.305   6.870   4.482
 8492TIP3    H125433   4.298   6.801   4.547
 8492TIP3    H225434   4.382   6.920   4.508
 8493TIP3   OH225435   4.086   6.575   2.785
 8493TIP3    H125436   4.123   6.511   2.845
 8493TIP3    H225437   4.142   6.570   2.708
 8494TIP3   OH225438   3.314   6.403   4.900
 8494TIP3    H125439   3.334   6.310   4.906
 8494TIP3    H225440   3.231   6.408   4.854
 8495TIP3   OH225441   3.299   6.051   3.097
 8495TIP3    H125442   3.352   6.021   3.171
 8495TIP3    H225443   3.361   6.057   3.024
 8496TIP3   OH225444   3.922   6.490   4.673
 8496TIP3    H125445   3.884   6.511   4.588
 8496TIP3    H225446   3.954   6.400   4.664
 8497TIP3   OH225447   3.808   6.251   2.903
 8497TIP3    H125448   3.811   6.266   2.997
 8497TIP3    H225449   3.810   6.156   2.894
 8498TIP3   OH225450   4.419   6.506   4.285
 8498TIP3    H125451   4.494   6.546   4.240
 8498TIP3    H225452   4.345   6.563   4.265
 8499TIP3   OH225453   3.437   6.142   4.885
 8499TIP3    H125454   3.514   6.096   4.850
 8499TIP3    H225455   3.466   6.173   4.971
 8500TIP3   OH225456   3.497   5.961   3.310
 8500TIP3    H125457   3.476   5.929   3.398
 8500TIP3    H225458   3.537   5.886   3.266
 8501TIP3   OH225459   3.766   6.021   4.543
 8501TIP3    H125460   3.693   6.082   4.546
 8501TIP3    H225461   3.822   6.054   4.472
 8502TIP3   OH225462   3.606   5.755   3.153
 8502TIP3    H125463   3.580   5.763   3.061
 8502TIP3    H225464   3.702   5.757   3.151
 8503TIP3   OH225465   4.293   6.426   4.678
 8503TIP3    H125466   4.365   6.394   4.625
 8503TIP3    H225467   4.284   6.361   4.748
 8504TIP3   OH225468   4.422   6.083   2.819
 8504TIP3    H125469   4.405   6.036   2.738
 8504TIP3    H225470   4.390   6.172   2.803
 8505TIP3   OH225471   3.895   5.813   4.667
 8505TIP3    H125472   3.895   5.733   4.615
 8505TIP3    H225473   3.853   5.878   4.610
 8506TIP3   OH225474   3.891   5.590   4.497
 8506TIP3    H125475   3.924   5.641   4.423
 8506TIP3    H225476   3.800   5.569   4.473
 8507TIP3   OH225477   3.922   6.141   4.361
 8507TIP3    H125478   4.002   6.133   4.311
 8507TIP3    H225479   3.866   6.198   4.309
 8508TIP3   OH225480   4.507   6.099   4.730
 8508TIP3    H125481   4.551   6.015   4.738
 8508TIP3    H225482   4.572   6.157   4.691
 8509TIP3   OH225483   4.547   6.358   4.468
 8509TIP3    H125484   4.488   6.409   4.412
 8509TIP3    H225485   4.634   6.374   4.432
 8510TIP3   OH225486   3.774   5.918   4.902
 8510TIP3    H125487   3.707   5.851   4.918
 8510TIP3    H225488   3.807   5.899   4.814
 8511TIP3   OH225489   4.030   5.357   4.547
 8511TIP3    H125490   3.982   5.438   4.529
 8511TIP3    H225491   3.965   5.288   4.535
 8512TIP3   OH225492   4.153   5.861   4.762
 8512TIP3    H125493   4.140   5.848   4.856
 8512TIP3    H225494   4.068   5.840   4.723
 8513TIP3   OH225495   4.395   5.818   4.620
 8513TIP3    H125496   4.320   5.817   4.679
 8513TIP3    H225497   4.469   5.787   4.673
 8514TIP3   OH225498   4.625   5.756   4.767
 8514TIP3    H125499   4.638   5.662   4.781
 8514TIP3    H225500   4.622   5.793   4.856
 8515TIP3   OH225501   3.612   5.698   4.958
 8515TIP3    H125502   3.616   5.610   4.921
 8515TIP3    H225503   3.650   5.689   5.046
 8516TIP3   OH225504   4.123   5.368   4.804
 8516TIP3    H125505   4.189   5.300   4.800
 8516TIP3    H225506   4.083   5.368   4.717
 8517TIP3   OH225507   4.189   5.585   4.962
 8517TIP3    H125508   4.171   5.515   4.900
 8517TIP3    H225509   4.113   5.643   4.955
 8518TIP3   OH225510   3.415   6.819   3.061
 8518TIP3    H125511   3.508   6.806   3.046
 8518TIP3    H225512   3.384   6.868   2.985
 8519TIP3   OH225513   2.894   6.197   3.274
 8519TIP3    H125514   2.986   6.220   3.261
 8519TIP3    H225515   2.885   6.110   3.236
 8520TIP3   OH225516   2.807   6.807   3.695
 8520TIP3    H125517   2.742   6.749   3.654
 8520TIP3    H225518   2.852   6.751   3.758
 8521TIP3   OH225519   2.942   6.656   3.883
 8521TIP3    H125520   2.930   6.584   3.944
 8521TIP3    H225521   2.995   6.719   3.931
 8522TIP3   OH225522   4.671   7.062   3.680
 8522TIP3    H125523   4.697   7.091   3.768
 8522TIP3    H225524   4.737   7.100   3.622
 8523TIP3   OH225525   4.698   7.077   3.963
 8523TIP3    H125526   4.651   6.994   3.957
 8523TIP3    H225527   4.774   7.057   4.018
 8524TIP3   OH225528   4.745   6.759   4.536
 8524TIP3    H125529   4.673   6.766   4.599
 8524TIP3    H225530   4.787   6.844   4.538
 8525TIP3   OH225531   4.564   6.269   3.154
 8525TIP3    H125532   4.628   6.333   3.123
 8525TIP3    H225533   4.605   6.231   3.232
 8526TIP3   OH225534   4.690   6.136   3.360
 8526TIP3    H125535   4.623   6.094   3.414
 8526TIP3    H225536   4.752   6.173   3.422
 8527TIP3   OH225537   4.748   6.532   3.789
 8527TIP3    H125538   4.797   6.463   3.744
 8527TIP3    H225539   4.740   6.602   3.724
 8528TIP3   OH225540   4.571   6.831   3.982
 8528TIP3    H125541   4.501   6.871   4.034
 8528TIP3    H225542   4.525   6.784   3.912
 8529TIP3   OH225543   4.624   6.048   3.002
 8529TIP3    H125544   4.556   6.046   2.934
 8529TIP3    H225545   4.598   6.120   3.059
 8530TIP3   OH225546   4.497   5.716   2.954
 8530TIP3    H125547   4.452   5.753   2.878
 8530TIP3    H225548   4.476   5.623   2.950
 8531TIP3   OH225549   4.503   5.995   3.504
 8531TIP3    H125550   4.506   5.900   3.495
 8531TIP3    H225551   4.488   6.009   3.597
 8532TIP3   OH225552   3.129   6.067   4.249
 8532TIP3    H125553   3.125   6.033   4.160
 8532TIP3    H225554   3.223   6.070   4.269
 8533TIP3   OH225555   4.794   6.419   4.361
 8533TIP3    H125556   4.862   6.353   4.350
 8533TIP3    H225557   4.815   6.486   4.295
 8534TIP3   OH225558   4.975   6.217   4.370
 8534TIP3    H125559   4.899   6.172   4.408
 8534TIP3    H225560   5.048   6.157   4.386
 8535TIP3   OH225561   4.440   5.451   2.941
 8535TIP3    H125562   4.511   5.419   2.997
 8535TIP3    H225563   4.367   5.393   2.960
 8536TIP3   OH225564   4.502   5.712   3.394
 8536TIP3    H125565   4.536   5.625   3.411
 8536TIP3    H225566   4.557   5.746   3.323
 8537TIP3   OH225567   4.663   5.878   3.895
 8537TIP3    H125568   4.744   5.902   3.851
 8537TIP3    H225569   4.670   5.915   3.983
 8538TIP3   OH225570   4.731   6.030   4.122
 8538TIP3    H125571   4.654   6.059   4.170
 8538TIP3    H225572   4.763   6.109   4.078
 8539TIP3   OH225573   3.347   5.750   4.925
 8539TIP3    H125574   3.442   5.748   4.926
 8539TIP3    H225575   3.321   5.666   4.963
 8540TIP3   OH225576   5.179   5.620   4.676
 8540TIP3    H125577   5.241   5.557   4.638
 8540TIP3    H225578   5.149   5.673   4.602
 8541TIP3   OH225579   4.608   5.461   3.434
 8541TIP3    H125580   4.655   5.449   3.516
 8541TIP3    H225581   4.546   5.388   3.431
 8542TIP3   OH225582   3.308   5.449   4.262
 8542TIP3    H125583   3.366   5.373   4.266
 8542TIP3    H225584   3.367   5.523   4.247
 8543TIP3   OH225585   3.108   5.720   4.324
 8543TIP3    H125586   3.157   5.712   4.242
 8543TIP3    H225587   3.140   5.801   4.363
 8544TIP3   OH225588   5.047   5.756   4.481
 8544TIP3    H125589   4.966   5.802   4.503
 8544TIP3    H225590   5.019   5.684   4.425
 8545TIP3   OH225591   4.687   5.391   3.070
 8545TIP3    H125592   4.723   5.324   3.013
 8545TIP3    H225593   4.751   5.462   3.066
 8546TIP3   OH225594   3.093   5.219   3.824
 8546TIP3    H125595   3.003   5.217   3.856
 8546TIP3    H225596   3.090   5.279   3.749
 8547TIP3   OH225597   4.253   6.931   3.333
 8547TIP3    H125598   4.302   6.918   3.252
 8547TIP3    H225599   4.306   6.993   3.383
 8548TIP3   OH225600   3.312   5.304   4.643
 8548TIP3    H125601   3.263   5.299   4.725
 8548TIP3    H225602   3.250   5.341   4.580
 8549TIP3   OH225603   3.351   6.736   4.719
 8549TIP3    H125604   3.261   6.708   4.701
 8549TIP3    H225605   3.366   6.712   4.810
 8550TIP3   OH225606   3.533   6.771   4.265
 8550TIP3    H125607   3.485   6.844   4.228
 8550TIP3    H225608   3.620   6.777   4.225
 8551TIP3   OH225609   3.975   7.010   4.407
 8551TIP3    H125610   4.015   7.007   4.494
 8551TIP3    H225611   4.038   7.059   4.354
 8552TIP3   OH225612   4.155   7.163   4.267
 8552TIP3    H125613   4.220   7.110   4.221
 8552TIP3    H225614   4.206   7.218   4.326
 8553TIP3   OH225615   4.950   5.518   4.362
 8553TIP3    H125616   4.860   5.514   4.328
 8553TIP3    H225617   4.983   5.429   4.354
 8554TIP3   OH225618   3.204   7.023   4.291
 8554TIP3    H125619   3.116   7.053   4.268
 8554TIP3    H225620   3.221   7.063   4.376
 8555TIP3   OH225621   3.442   7.003   4.150
 8555TIP3    H125622   3.357   7.013   4.193
 8555TIP3    H225623   3.427   7.031   4.060
 8556TIP3   OH225624   3.868   7.028   3.949
 8556TIP3    H125625   3.800   7.043   3.883
 8556TIP3    H225626   3.881   7.113   3.990
 8557TIP3   OH225627   4.138   6.969   4.002
 8557TIP3    H125628   4.046   6.983   3.981
 8557TIP3    H225629   4.184   7.038   3.956
 8558TIP3   OH225630   4.344   7.158   3.910
 8558TIP3    H125631   4.331   7.240   3.864
 8558TIP3    H225632   4.372   7.096   3.842
 8559TIP3   OH225633   3.121   6.810   4.037
 8559TIP3    H125634   3.144   6.786   4.127
 8559TIP3    H225635   3.190   6.770   3.983
 8560TIP3   OH225636   3.317   6.685   3.898
 8560TIP3    H125637   3.329   6.602   3.944
 8560TIP3    H225638   3.405   6.721   3.890
 8561TIP3   OH225639   3.585   6.776   3.901
 8561TIP3    H125640   3.611   6.685   3.886
 8561TIP3    H225641   3.630   6.801   3.982
 8562TIP3   OH225642   4.179   5.438   4.004
 8562TIP3    H125643   4.114   5.378   4.042
 8562TIP3    H225644   4.231   5.383   3.945
 8563TIP3   OH225645   4.678   5.315   3.882
 8563TIP3    H125646   4.713   5.369   3.811
 8563TIP3    H225647   4.584   5.333   3.881
 8564TIP3   OH225648   4.774   5.415   3.647
 8564TIP3    H125649   4.846   5.365   3.608
 8564TIP3    H225650   4.802   5.507   3.638
 8565TIP3   OH225651   3.402   5.141   3.998
 8565TIP3    H125652   3.310   5.113   4.002
 8565TIP3    H225653   3.452   5.059   3.994
 8566TIP3   OH225654   3.187   5.017   3.647
 8566TIP3    H125655   3.221   5.071   3.576
 8566TIP3    H225656   3.164   5.080   3.715
 8567TIP3   OH225657   3.849   5.178   3.882
 8567TIP3    H125658   3.902   5.226   3.818
 8567TIP3    H225659   3.867   5.221   3.966
 8568TIP3   OH225660   4.403   5.319   3.856
 8568TIP3    H125661   4.379   5.287   3.770
 8568TIP3    H225662   4.385   5.245   3.915
 8569TIP3   OH225663   4.422   5.249   3.429
 8569TIP3    H125664   4.340   5.297   3.444
 8569TIP3    H225665   4.407   5.164   3.470
 8570TIP3   OH225666   2.904   6.592   3.423
 8570TIP3    H125667   2.820   6.555   3.393
 8570TIP3    H225668   2.899   6.684   3.400
 8571TIP3   OH225669   3.313   5.173   3.409
 8571TIP3    H125670   3.358   5.111   3.352
 8571TIP3    H225671   3.383   5.228   3.445
 8572TIP3   OH225672   3.823   5.353   3.512
 8572TIP3    H125673   3.882   5.304   3.570
 8572TIP3    H225674   3.838   5.444   3.535
 8573TIP3   OH225675   3.681   6.769   3.006
 8573TIP3    H125676   3.768   6.794   2.974
 8573TIP3    H225677   3.655   6.696   2.950
 8574TIP3   OH225678   4.398   6.892   3.101
 8574TIP3    H125679   4.393   6.797   3.095
 8574TIP3    H225680   4.353   6.924   3.023
 8575TIP3   OH225681   3.611   5.423   4.892
 8575TIP3    H125682   3.574   5.353   4.946
 8575TIP3    H225683   3.704   5.425   4.917
 8576TIP3   OH225684   3.862   5.422   5.010
 8576TIP3    H125685   3.945   5.401   4.967
 8576TIP3    H225686   3.849   5.353   5.075
 8577TIP3   OH225687   2.985   6.608   3.063
 8577TIP3    H125688   2.987   6.628   3.157
 8577TIP3    H225689   3.069   6.566   3.046
 8578TIP3   OH225690   4.690   5.485   4.797
 8578TIP3    H125691   4.704   5.455   4.887
 8578TIP3    H225692   4.777   5.481   4.757
 8579TIP3   OH225693   4.620   7.038   4.288
 8579TIP3    H125694   4.546   7.005   4.238
 8579TIP3    H225695   4.604   7.132   4.296
 8580TIP3   OH225696   5.889   6.411   3.052
 8580TIP3    H125697   5.862   6.501   3.033
 8580TIP3    H225698   5.817   6.358   3.018
 8581TIP3   OH225699   5.892   6.410   3.440
 8581TIP3    H125700   5.925   6.385   3.526
 8581TIP3    H225701   5.850   6.330   3.406
 8582TIP3   OH225702   5.190   6.302   3.802
 8582TIP3    H125703   5.216   6.232   3.863
 8582TIP3    H225704   5.267   6.358   3.795
 8583TIP3   OH225705   6.134   6.717   3.119
 8583TIP3    H125706   6.119   6.647   3.182
 8583TIP3    H225707   6.167   6.790   3.172
 8584TIP3   OH225708   5.165   6.714   3.524
 8584TIP3    H125709   5.153   6.619   3.525
 8584TIP3    H225710   5.259   6.727   3.517
 8585TIP3   OH225711   4.866   5.917   3.306
 8585TIP3    H125712   4.821   5.998   3.327
 8585TIP3    H225713   4.799   5.862   3.265
 8586TIP3   OH225714   4.928   6.204   3.488
 8586TIP3    H125715   4.974   6.127   3.520
 8586TIP3    H225716   4.982   6.237   3.417
 8587TIP3   OH225717   5.786   7.171   3.136
 8587TIP3    H125718   5.828   7.103   3.084
 8587TIP3    H225719   5.777   7.133   3.223
 8588TIP3   OH225720   5.691   6.636   3.485
 8588TIP3    H125721   5.726   6.559   3.440
 8588TIP3    H225722   5.769   6.686   3.511
 8589TIP3   OH225723   6.707   5.955   3.482
 8589TIP3    H125724   6.734   6.037   3.522
 8589TIP3    H225725   6.727   5.966   3.389
 8590TIP3   OH225726   6.101   6.132   3.514
 8590TIP3    H125727   6.145   6.050   3.535
 8590TIP3    H225728   6.069   6.119   3.424
 8591TIP3   OH225729   5.442   5.796   3.477
 8591TIP3    H125730   5.423   5.870   3.419
 8591TIP3    H225731   5.396   5.722   3.438
 8592TIP3   OH225732   6.139   5.890   3.101
 8592TIP3    H125733   6.206   5.874   3.167
 8592TIP3    H225734   6.188   5.923   3.025
 8593TIP3   OH225735   5.075   5.995   3.587
 8593TIP3    H125736   5.155   5.980   3.637
 8593TIP3    H225737   5.085   5.942   3.509
 8594TIP3   OH225738   5.513   6.193   3.385
 8594TIP3    H125739   5.606   6.172   3.396
 8594TIP3    H225740   5.474   6.112   3.351
 8595TIP3   OH225741   6.777   6.165   3.656
 8595TIP3    H125742   6.696   6.209   3.630
 8595TIP3    H225743   6.798   6.201   3.742
 8596TIP3   OH225744   5.434   5.781   3.917
 8596TIP3    H125745   5.378   5.817   3.848
 8596TIP3    H225746   5.384   5.796   3.998
 8597TIP3   OH225747   5.779   6.632   2.921
 8597TIP3    H125748   5.739   6.614   2.836
 8597TIP3    H225749   5.737   6.713   2.951
 8598TIP3   OH225750   5.543   6.558   3.707
 8598TIP3    H125751   5.484   6.623   3.745
 8598TIP3    H225752   5.585   6.603   3.634
 8599TIP3   OH225753   6.342   5.894   3.280
 8599TIP3    H125754   6.328   5.847   3.362
 8599TIP3    H225755   6.393   5.971   3.305
 8600TIP3   OH225756   5.312   5.895   3.698
 8600TIP3    H125757   5.370   5.967   3.724
 8600TIP3    H225758   5.357   5.854   3.623
 8601TIP3   OH225759   5.370   6.754   3.809
 8601TIP3    H125760   5.349   6.839   3.771
 8601TIP3    H225761   5.294   6.732   3.863
 8602TIP3   OH225762   4.763   6.442   3.042
 8602TIP3    H125763   4.722   6.468   2.959
 8602TIP3    H225764   4.795   6.524   3.079
 8603TIP3   OH225765   6.201   6.958   3.283
 8603TIP3    H125766   6.114   6.948   3.322
 8603TIP3    H225767   6.197   7.043   3.239
 8604TIP3   OH225768   6.497   5.854   3.647
 8604TIP3    H125769   6.410   5.879   3.616
 8604TIP3    H225770   6.557   5.885   3.580
 8605TIP3   OH225771   5.789   5.495   3.634
 8605TIP3    H125772   5.775   5.401   3.648
 8605TIP3    H225773   5.715   5.537   3.679
 8606TIP3   OH225774   5.906   7.000   2.952
 8606TIP3    H125775   5.952   6.917   2.938
 8606TIP3    H225776   5.966   7.066   2.918
 8607TIP3   OH225777   6.050   6.784   2.866
 8607TIP3    H125778   6.007   6.706   2.831
 8607TIP3    H225779   6.088   6.755   2.949
 8608TIP3   OH225780   6.429   6.865   3.628
 8608TIP3    H125781   6.418   6.789   3.570
 8608TIP3    H225782   6.411   6.941   3.572
 8609TIP3   OH225783   5.722   6.263   2.887
 8609TIP3    H125784   5.643   6.314   2.868
 8609TIP3    H225785   5.768   6.258   2.803
 8610TIP3   OH225786   5.683   6.048   2.599
 8610TIP3    H125787   5.746   6.102   2.647
 8610TIP3    H225788   5.737   5.984   2.551
 8611TIP3   OH225789   6.622   6.507   3.473
 8611TIP3    H125790   6.541   6.556   3.479
 8611TIP3    H225791   6.657   6.528   3.387
 8612TIP3   OH225792   6.070   6.346   2.858
 8612TIP3    H125793   6.015   6.369   2.933
 8612TIP3    H225794   6.154   6.322   2.896
 8613TIP3   OH225795   6.301   6.383   3.773
 8613TIP3    H125796   6.300   6.467   3.818
 8613TIP3    H225797   6.217   6.381   3.727
 8614TIP3   OH225798   5.302   6.339   3.275
 8614TIP3    H125799   5.260   6.284   3.208
 8614TIP3    H225800   5.376   6.287   3.305
 8615TIP3   OH225801   5.432   6.752   3.421
 8615TIP3    H125802   5.410   6.718   3.334
 8615TIP3    H225803   5.519   6.717   3.439
 8616TIP3   OH225804   5.440   6.312   3.630
 8616TIP3    H125805   5.470   6.287   3.542
 8616TIP3    H225806   5.480   6.397   3.646
 8617TIP3   OH225807   5.962   6.951   3.407
 8617TIP3    H125808   5.950   7.031   3.459
 8617TIP3    H225809   5.946   6.880   3.469
 8618TIP3   OH225810   5.574   6.869   3.955
 8618TIP3    H125811   5.516   6.930   4.000
 8618TIP3    H225812   5.515   6.814   3.903
 8619TIP3   OH225813   5.908   6.206   2.682
 8619TIP3    H125814   5.965   6.263   2.733
 8619TIP3    H225815   5.933   6.223   2.591
 8620TIP3   OH225816   5.330   6.424   4.059
 8620TIP3    H125817   5.338   6.511   4.098
 8620TIP3    H225818   5.238   6.401   4.070
 8621TIP3   OH225819   5.655   6.880   2.959
 8621TIP3    H125820   5.736   6.930   2.969
 8621TIP3    H225821   5.594   6.941   2.918
 8622TIP3   OH225822   5.368   7.034   4.041
 8622TIP3    H125823   5.336   7.039   3.951
 8622TIP3    H225824   5.290   7.013   4.093
 8623TIP3   OH225825   6.425   5.443   2.734
 8623TIP3    H125826   6.345   5.463   2.782
 8623TIP3    H225827   6.442   5.522   2.682
 8624TIP3   OH225828   5.166   6.184   3.078
 8624TIP3    H125829   5.100   6.228   3.025
 8624TIP3    H225830   5.131   6.096   3.091
 8625TIP3   OH225831   6.235   6.796   2.279
 8625TIP3    H125832   6.250   6.890   2.264
 8625TIP3    H225833   6.322   6.757   2.269
 8626TIP3   OH225834   4.948   6.567   3.986
 8626TIP3    H125835   4.881   6.549   3.921
 8626TIP3    H225836   4.985   6.481   4.007
 8627TIP3   OH225837   4.804   6.764   3.616
 8627TIP3    H125838   4.899   6.754   3.608
 8627TIP3    H225839   4.793   6.839   3.674
 8628TIP3   OH225840   6.666   7.215   3.681
 8628TIP3    H125841   6.666   7.119   3.690
 8628TIP3    H225842   6.584   7.242   3.723
 8629TIP3   OH225843   5.771   6.997   3.814
 8629TIP3    H125844   5.770   7.089   3.842
 8629TIP3    H225845   5.702   6.955   3.864
 8630TIP3   OH225846   5.536   7.127   2.762
 8630TIP3    H125847   5.488   7.111   2.681
 8630TIP3    H225848   5.506   7.213   2.791
 8631TIP3   OH225849   4.972   6.973   3.150
 8631TIP3    H125850   5.020   6.967   3.233
 8631TIP3    H225851   4.922   6.891   3.146
 8632TIP3   OH225852   5.736   7.027   2.403
 8632TIP3    H125853   5.795   6.960   2.368
 8632TIP3    H225854   5.765   7.040   2.493
 8633TIP3   OH225855   5.784   7.068   2.673
 8633TIP3    H125856   5.697   7.082   2.711
 8633TIP3    H225857   5.836   7.033   2.746
 8634TIP3   OH225858   6.550   6.338   3.952
 8634TIP3    H125859   6.472   6.354   3.899
 8634TIP3    H225860   6.569   6.245   3.941
 8635TIP3   OH225861   5.152   6.749   3.973
 8635TIP3    H125862   5.201   6.735   4.053
 8635TIP3    H225863   5.078   6.689   3.978
 8636TIP3   OH225864   5.550   5.575   3.762
 8636TIP3    H125865   5.466   5.543   3.730
 8636TIP3    H225866   5.529   5.656   3.810
 8637TIP3   OH225867   6.088   5.689   3.957
 8637TIP3    H125868   6.154   5.660   4.020
 8637TIP3    H225869   6.004   5.670   4.001
 8638TIP3   OH225870   6.323   6.119   3.875
 8638TIP3    H125871   6.273   6.117   3.957
 8638TIP3    H225872   6.301   6.204   3.836
 8639TIP3   OH225873   5.987   6.247   2.428
 8639TIP3    H125874   5.949   6.224   2.343
 8639TIP3    H225875   6.071   6.288   2.405
 8640TIP3   OH225876   5.695   5.619   2.733
 8640TIP3    H125877   5.662   5.619   2.823
 8640TIP3    H225878   5.658   5.540   2.693
 8641TIP3   OH225879   5.484   6.093   3.780
 8641TIP3    H125880   5.434   6.110   3.860
 8641TIP3    H225881   5.471   6.171   3.727
 8642TIP3   OH225882   5.367   5.975   3.291
 8642TIP3    H125883   5.276   5.952   3.312
 8642TIP3    H225884   5.381   5.937   3.205
 8643TIP3   OH225885   5.859   6.062   3.021
 8643TIP3    H125886   5.809   6.132   2.979
 8643TIP3    H225887   5.914   6.027   2.950
 8644TIP3   OH225888   6.034   6.336   4.108
 8644TIP3    H125889   6.009   6.266   4.168
 8644TIP3    H225890   6.128   6.349   4.125
 8645TIP3   OH225891   6.013   6.086   3.255
 8645TIP3    H125892   5.951   6.118   3.189
 8645TIP3    H225893   6.052   6.008   3.215
 8646TIP3   OH225894   5.305   6.117   3.987
 8646TIP3    H125895   5.328   6.183   4.053
 8646TIP3    H225896   5.292   6.037   4.037
 8647TIP3   OH225897   5.353   5.599   2.698
 8647TIP3    H125898   5.344   5.595   2.794
 8647TIP3    H225899   5.277   5.650   2.669
 8648TIP3   OH225900   4.898   5.638   3.569
 8648TIP3    H125901   4.971   5.671   3.621
 8648TIP3    H225902   4.938   5.611   3.486
 8649TIP3   OH225903   4.863   5.623   3.086
 8649TIP3    H125904   4.910   5.655   3.009
 8649TIP3    H225905   4.801   5.693   3.108
 8650TIP3   OH225906   6.028   6.330   3.680
 8650TIP3    H125907   6.060   6.263   3.620
 8650TIP3    H225908   5.995   6.281   3.755
 8651TIP3   OH225909   5.701   5.795   3.355
 8651TIP3    H125910   5.618   5.796   3.403
 8651TIP3    H225911   5.768   5.794   3.422
 8652TIP3   OH225912   5.129   5.854   3.359
 8652TIP3    H125913   5.038   5.865   3.331
 8652TIP3    H225914   5.151   5.764   3.337
 8653TIP3   OH225915   5.395   5.850   3.050
 8653TIP3    H125916   5.488   5.864   3.028
 8653TIP3    H225917   5.348   5.871   2.969
 8654TIP3   OH225918   6.187   5.872   3.559
 8654TIP3    H125919   6.155   5.888   3.649
 8654TIP3    H225920   6.122   5.813   3.521
 8655TIP3   OH225921   5.245   5.885   2.825
 8655TIP3    H125922   5.174   5.839   2.780
 8655TIP3    H225923   5.297   5.922   2.754
 8656TIP3   OH225924   6.363   7.564   3.775
 8656TIP3    H125925   6.357   7.586   3.682
 8656TIP3    H225926   6.441   7.609   3.806
 8657TIP3   OH225927   5.316   6.674   4.197
 8657TIP3    H125928   5.395   6.703   4.242
 8657TIP3    H225929   5.250   6.670   4.266
 8658TIP3   OH225930   5.778   6.126   3.451
 8658TIP3    H125931   5.851   6.090   3.401
 8658TIP3    H225932   5.784   6.083   3.536
 8659TIP3   OH225933   5.300   5.612   3.332
 8659TIP3    H125934   5.262   5.538   3.380
 8659TIP3    H225935   5.340   5.572   3.255
 8660TIP3   OH225936   5.754   6.027   3.741
 8660TIP3    H125937   5.665   6.061   3.753
 8660TIP3    H225938   5.809   6.088   3.788
 8661TIP3   OH225939   5.489   6.412   2.837
 8661TIP3    H125940   5.420   6.348   2.822
 8661TIP3    H225941   5.471   6.447   2.925
 8662TIP3   OH225942   6.390   6.650   3.460
 8662TIP3    H125943   6.415   6.701   3.383
 8662TIP3    H225944   6.307   6.608   3.435
 8663TIP3   OH225945   5.948   5.722   2.706
 8663TIP3    H125946   5.854   5.703   2.711
 8663TIP3    H225947   5.955   5.815   2.727
 8664TIP3   OH225948   5.890   6.734   3.833
 8664TIP3    H125949   5.914   6.716   3.924
 8664TIP3    H225950   5.852   6.822   3.835
 8665TIP3   OH225951   6.018   5.977   2.805
 8665TIP3    H125952   6.112   5.981   2.818
 8665TIP3    H225953   5.998   6.054   2.752
 8666TIP3   OH225954   5.188   6.439   3.509
 8666TIP3    H125955   5.222   6.410   3.425
 8666TIP3    H225956   5.226   6.377   3.572
 8667TIP3   OH225957   5.634   6.564   2.659
 8667TIP3    H125958   5.588   6.648   2.661
 8667TIP3    H225959   5.583   6.508   2.718
 8668TIP3   OH225960   5.067   6.352   4.125
 8668TIP3    H125961   5.082   6.340   4.219
 8668TIP3    H225962   4.996   6.291   4.104
 8669TIP3   OH225963   5.792   6.472   4.141
 8669TIP3    H125964   5.727   6.414   4.101
 8669TIP3    H225965   5.876   6.436   4.113
 8670TIP3   OH225966   6.049   6.991   3.734
 8670TIP3    H125967   5.953   6.989   3.743
 8670TIP3    H225968   6.079   7.045   3.807
 8671TIP3   OH225969   6.454   6.070   2.635
 8671TIP3    H125970   6.395   6.022   2.576
 8671TIP3    H225971   6.456   6.159   2.600
 8672TIP3   OH225972   6.678   6.924   3.715
 8672TIP3    H125973   6.583   6.919   3.710
 8672TIP3    H225974   6.708   6.894   3.629
 8673TIP3   OH225975   6.154   6.885   2.542
 8673TIP3    H125976   6.131   6.830   2.618
 8673TIP3    H225977   6.168   6.823   2.471
 8674TIP3   OH225978   6.156   6.510   3.380
 8674TIP3    H125979   6.063   6.490   3.394
 8674TIP3    H225980   6.191   6.433   3.335
 8675TIP3   OH225981   5.286   6.743   3.136
 8675TIP3    H125982   5.284   6.823   3.082
 8675TIP3    H225983   5.194   6.721   3.150
 8676TIP3   OH225984   4.851   6.045   2.845
 8676TIP3    H125985   4.896   6.128   2.864
 8676TIP3    H225986   4.774   6.046   2.902
 8677TIP3   OH225987   5.417   6.505   3.079
 8677TIP3    H125988   5.386   6.594   3.097
 8677TIP3    H225989   5.383   6.453   3.152
 8678TIP3   OH225990   5.558   7.085   3.604
 8678TIP3    H125991   5.597   7.156   3.553
 8678TIP3    H225992   5.631   7.046   3.650
 8679TIP3   OH225993   5.202   6.983   2.988
 8679TIP3    H125994   5.118   6.989   3.034
 8679TIP3    H225995   5.237   7.072   2.989
 8680TIP3   OH225996   5.940   6.717   3.566
 8680TIP3    H125997   5.929   6.717   3.661
 8680TIP3    H225998   6.019   6.665   3.550
 8681TIP3   OH225999   5.920   6.617   2.448
 8681TIP3    H126000   5.974   6.593   2.524
 8681TIP3    H226001   5.832   6.585   2.471
 8682TIP3   OH226002   6.188   7.250   3.610
 8682TIP3    H126003   6.110   7.196   3.605
 8682TIP3    H226004   6.177   7.315   3.541
 8683TIP3   OH226005   5.272   5.861   4.131
 8683TIP3    H126006   5.177   5.866   4.142
 8683TIP3    H226007   5.302   5.807   4.205
 8684TIP3   OH226008   6.082   6.543   2.659
 8684TIP3    H126009   6.067   6.479   2.730
 8684TIP3    H226010   6.177   6.542   2.647
 8685TIP3   OH226011   4.994   6.944   3.763
 8685TIP3    H126012   5.047   6.871   3.797
 8685TIP3    H226013   5.018   7.019   3.818
 8686TIP3   OH226014   5.282   6.590   2.449
 8686TIP3    H126015   5.294   6.500   2.419
 8686TIP3    H226016   5.261   6.582   2.542
 8687TIP3   OH226017   5.226   6.599   2.720
 8687TIP3    H126018   5.300   6.568   2.774
 8687TIP3    H226019   5.229   6.694   2.727
 8688TIP3   OH226020   4.960   6.292   2.924
 8688TIP3    H126021   4.894   6.333   2.981
 8688TIP3    H226022   4.975   6.356   2.855
 8689TIP3   OH226023   6.116   5.926   3.819
 8689TIP3    H126024   6.197   5.963   3.854
 8689TIP3    H226025   6.102   5.847   3.870
 8690TIP3   OH226026   5.995   5.675   2.984
 8690TIP3    H126027   5.980   5.692   2.891
 8690TIP3    H226028   6.033   5.756   3.018
 8691TIP3   OH226029   5.492   6.795   2.667
 8691TIP3    H126030   5.407   6.815   2.706
 8691TIP3    H226031   5.510   6.869   2.609
 8692TIP3   OH226032   5.682   5.860   3.084
 8692TIP3    H126033   5.743   5.930   3.064
 8692TIP3    H226034   5.686   5.850   3.179
 8693TIP3   OH226035   5.953   6.173   3.887
 8693TIP3    H126036   5.974   6.224   3.966
 8693TIP3    H226037   6.003   6.092   3.897
 8694TIP3   OH226038   5.824   5.581   3.182
 8694TIP3    H126039   5.810   5.658   3.238
 8694TIP3    H226040   5.885   5.611   3.115
 8695TIP3   OH226041   5.239   6.871   2.738
 8695TIP3    H126042   5.210   6.938   2.675
 8695TIP3    H226043   5.225   6.911   2.824
 8696TIP3   OH226044   5.339   5.586   2.975
 8696TIP3    H126045   5.333   5.675   3.011
 8696TIP3    H226046   5.432   5.565   2.979
 8697TIP3   OH226047   6.589   6.074   3.873
 8697TIP3    H126048   6.494   6.073   3.881
 8697TIP3    H226049   6.606   6.038   3.786
 8698TIP3   OH226050   6.242   6.267   3.260
 8698TIP3    H126051   6.166   6.210   3.270
 8698TIP3    H226052   6.313   6.222   3.306
 8699TIP3   OH226053   4.960   6.494   2.725
 8699TIP3    H126054   5.026   6.562   2.738
 8699TIP3    H226055   4.998   6.435   2.660
 8700TIP3   OH226056   4.897   5.775   2.863
 8700TIP3    H126057   4.900   5.870   2.861
 8700TIP3    H226058   4.819   5.752   2.812
 8701TIP3   OH226059   6.213   7.229   3.205
 8701TIP3    H126060   6.167   7.272   3.133
 8701TIP3    H226061   6.306   7.246   3.188
 8702TIP3   OH226062   5.288   5.495   3.726
 8702TIP3    H126063   5.258   5.466   3.640
 8702TIP3    H226064   5.274   5.419   3.783
 8703TIP3   OH226065   4.822   6.713   3.110
 8703TIP3    H126066   4.760   6.741   3.177
 8703TIP3    H226067   4.791   6.754   3.029
 8704TIP3   OH226068   4.987   7.258   4.188
 8704TIP3    H126069   5.071   7.261   4.233
 8704TIP3    H226070   4.964   7.165   4.184
 8705TIP3   OH226071   5.462   7.212   4.232
 8705TIP3    H126072   5.557   7.201   4.236
 8705TIP3    H226073   5.434   7.154   4.162
 8706TIP3   OH226074   5.446   6.790   2.357
 8706TIP3    H126075   5.388   6.724   2.396
 8706TIP3    H226076   5.521   6.740   2.326
 8707TIP3   OH226077   6.102   7.127   3.968
 8707TIP3    H126078   6.096   7.059   4.035
 8707TIP3    H226079   6.177   7.180   3.995
 8708TIP3   OH226080   5.887   6.835   2.275
 8708TIP3    H126081   5.921   6.767   2.333
 8708TIP3    H226082   5.942   6.829   2.197
 8709TIP3   OH226083   5.112   6.661   4.385
 8709TIP3    H126084   5.130   6.568   4.394
 8709TIP3    H226085   5.028   6.666   4.340
 8710TIP3   OH226086   5.095   6.308   2.582
 8710TIP3    H126087   5.147   6.278   2.656
 8710TIP3    H226088   5.157   6.315   2.509
 8711TIP3   OH226089   5.721   6.748   4.159
 8711TIP3    H126090   5.679   6.770   4.076
 8711TIP3    H226091   5.749   6.657   4.149
 8712TIP3   OH226092   5.607   6.510   2.391
 8712TIP3    H126093   5.608   6.524   2.486
 8712TIP3    H226094   5.609   6.415   2.380
 8713TIP3   OH226095   6.214   6.761   3.770
 8713TIP3    H126096   6.290   6.799   3.726
 8713TIP3    H226097   6.144   6.824   3.755
 8714TIP3   OH226098   5.236   6.400   4.372
 8714TIP3    H126099   5.308   6.344   4.345
 8714TIP3    H226100   5.261   6.432   4.458
 8715TIP3   OH226101   5.298   6.215   2.801
 8715TIP3    H126102   5.270   6.176   2.884
 8715TIP3    H226103   5.336   6.143   2.751
 8716TIP3   OH226104   5.571   6.284   4.032
 8716TIP3    H126105   5.491   6.337   4.033
 8716TIP3    H226106   5.620   6.316   3.956
 8717TIP3   OH226107   5.403   6.012   2.639
 8717TIP3    H126108   5.375   6.019   2.548
 8717TIP3    H226109   5.498   6.013   2.636
 8718TIP3   OH226110   6.090   6.683   4.166
 8718TIP3    H126111   6.157   6.648   4.108
 8718TIP3    H226112   6.079   6.615   4.233
 8719TIP3   OH226113   6.216   6.341   2.306
 8719TIP3    H126114   6.201   6.293   2.225
 8719TIP3    H226115   6.183   6.429   2.288
 8720TIP3   OH226116   5.694   6.071   4.150
 8720TIP3    H126117   5.692   5.992   4.095
 8720TIP3    H226118   5.650   6.138   4.098
 8721TIP3   OH226119   5.694   5.855   3.962
 8721TIP3    H126120   5.722   5.898   3.881
 8721TIP3    H226121   5.602   5.833   3.947
 8722TIP3   OH226122   5.719   6.393   3.835
 8722TIP3    H126123   5.804   6.405   3.794
 8722TIP3    H226124   5.661   6.455   3.792
 8723TIP3   OH226125   6.308   6.356   4.217
 8723TIP3    H126126   6.350   6.270   4.222
 8723TIP3    H226127   6.370   6.412   4.170
 8724TIP3   OH226128   6.343   6.614   3.954
 8724TIP3    H126129   6.284   6.666   3.899
 8724TIP3    H226130   6.430   6.632   3.919
 8725TIP3   OH226131   5.572   6.173   4.388
 8725TIP3    H126132   5.504   6.109   4.407
 8725TIP3    H226133   5.603   6.151   4.300
 8726TIP3   OH226134   5.824   5.617   4.032
 8726TIP3    H126135   5.777   5.698   4.010
 8726TIP3    H226136   5.759   5.548   4.022
 8727TIP3   OH226137   5.949   6.118   4.249
 8727TIP3    H126138   5.934   6.105   4.342
 8727TIP3    H226139   5.864   6.098   4.208
 8728TIP3   OH226140   6.192   6.076   4.109
 8728TIP3    H126141   6.116   6.075   4.167
 8728TIP3    H226142   6.264   6.043   4.162
 8729TIP3   OH226143   6.426   6.014   4.256
 8729TIP3    H126144   6.436   5.920   4.269
 8729TIP3    H226145   6.420   6.050   4.344
 8730TIP3   OH226146   5.411   5.955   4.443
 8730TIP3    H126147   5.411   5.865   4.410
 8730TIP3    H226148   5.447   5.948   4.532
 8731TIP3   OH226149   5.921   5.626   4.289
 8731TIP3    H126150   5.985   5.555   4.284
 8731TIP3    H226151   5.879   5.626   4.203
 8732TIP3   OH226152   5.987   5.843   4.447
 8732TIP3    H126153   5.967   5.773   4.385
 8732TIP3    H226154   5.911   5.902   4.442
 8733TIP3   OH226155   5.211   7.073   2.548
 8733TIP3    H126156   5.304   7.062   2.532
 8733TIP3    H226157   5.179   7.123   2.473
 8734TIP3   OH226158   4.689   6.453   2.761
 8734TIP3    H126159   4.781   6.475   2.748
 8734TIP3    H226160   4.680   6.366   2.723
 8735TIP3   OH226161   4.604   7.063   3.181
 8735TIP3    H126162   4.538   7.005   3.141
 8735TIP3    H226163   4.648   7.007   3.245
 8736TIP3   OH226164   4.739   6.912   3.369
 8736TIP3    H126165   4.725   6.840   3.431
 8736TIP3    H226166   4.791   6.976   3.417
 8737TIP3   OH226167   6.466   7.320   3.167
 8737TIP3    H126168   6.495   7.352   3.252
 8737TIP3    H226169   6.532   7.352   3.105
 8738TIP3   OH226170   6.491   7.335   3.452
 8738TIP3    H126171   6.448   7.250   3.444
 8738TIP3    H226172   6.574   7.316   3.497
 8739TIP3   OH226173   6.545   7.013   4.027
 8739TIP3    H126174   6.469   7.023   4.085
 8739TIP3    H226175   6.585   7.099   4.025
 8740TIP3   OH226176   6.360   6.528   2.640
 8740TIP3    H126177   6.424   6.591   2.607
 8740TIP3    H226178   6.402   6.490   2.717
 8741TIP3   OH226179   6.485   6.393   2.844
 8741TIP3    H126180   6.420   6.353   2.902
 8741TIP3    H226181   6.551   6.429   2.903
 8742TIP3   OH226182   6.543   6.787   3.274
 8742TIP3    H126183   6.593   6.719   3.228
 8742TIP3    H226184   6.541   6.861   3.213
 8743TIP3   OH226185   6.367   7.085   3.471
 8743TIP3    H126186   6.297   7.129   3.519
 8743TIP3    H226187   6.322   7.040   3.399
 8744TIP3   OH226188   6.419   6.304   2.490
 8744TIP3    H126189   6.351   6.303   2.422
 8744TIP3    H226190   6.395   6.378   2.546
 8745TIP3   OH226191   6.291   5.973   2.442
 8745TIP3    H126192   6.251   6.010   2.363
 8745TIP3    H226193   6.270   5.880   2.438
 8746TIP3   OH226194   6.296   6.252   2.991
 8746TIP3    H126195   6.305   6.158   2.980
 8746TIP3    H226196   6.282   6.264   3.085
 8747TIP3   OH226197   4.925   6.322   3.737
 8747TIP3    H126198   4.919   6.290   3.647
 8747TIP3    H226199   5.019   6.324   3.755
 8748TIP3   OH226200   6.589   6.676   3.849
 8748TIP3    H126201   6.658   6.611   3.838
 8748TIP3    H226202   6.609   6.743   3.783
 8749TIP3   OH226203   6.768   6.473   3.864
 8749TIP3    H126204   6.693   6.427   3.902
 8749TIP3    H226205   6.842   6.414   3.878
 8750TIP3   OH226206   6.236   5.708   2.429
 8750TIP3    H126207   6.307   5.675   2.483
 8750TIP3    H226208   6.163   5.649   2.447
 8751TIP3   OH226209   6.299   5.967   2.881
 8751TIP3    H126210   6.335   5.880   2.897
 8751TIP3    H226211   6.353   6.003   2.810
 8752TIP3   OH226212   6.459   6.139   3.382
 8752TIP3    H126213   6.540   6.161   3.337
 8752TIP3    H226214   6.469   6.175   3.470
 8753TIP3   OH226215   6.528   6.287   3.611
 8753TIP3    H126216   6.450   6.319   3.656
 8753TIP3    H226217   6.561   6.364   3.564
 8754TIP3   OH226218   5.145   6.008   4.414
 8754TIP3    H126219   5.241   6.005   4.416
 8754TIP3    H226220   5.118   5.924   4.450
 8755TIP3   OH226221   6.978   5.878   4.164
 8755TIP3    H126222   7.038   5.816   4.124
 8755TIP3    H226223   6.945   5.930   4.090
 8756TIP3   OH226224   6.404   5.716   2.924
 8756TIP3    H126225   6.452   5.702   3.005
 8756TIP3    H226226   6.343   5.643   2.919
 8757TIP3   OH226227   5.107   5.703   3.739
 8757TIP3    H126228   5.166   5.628   3.748
 8757TIP3    H226229   5.165   5.779   3.732
 8758TIP3   OH226230   4.907   5.975   3.814
 8758TIP3    H126231   4.953   5.971   3.730
 8758TIP3    H226232   4.931   6.060   3.851
 8759TIP3   OH226233   6.840   6.010   3.970
 8759TIP3    H126234   6.757   6.057   3.981
 8759TIP3    H226235   6.818   5.937   3.912
 8760TIP3   OH226236   6.484   5.648   2.556
 8760TIP3    H126237   6.520   5.579   2.500
 8760TIP3    H226238   6.548   5.719   2.552
 8761TIP3   OH226239   4.889   5.480   3.315
 8761TIP3    H126240   4.799   5.472   3.345
 8761TIP3    H226241   4.885   5.537   3.238
 8762TIP3   OH226242   6.055   7.183   2.823
 8762TIP3    H126243   6.110   7.176   2.745
 8762TIP3    H226244   6.095   7.254   2.874
 8763TIP3   OH226245   5.106   5.556   4.127
 8763TIP3    H126246   5.060   5.554   4.211
 8763TIP3    H226247   5.045   5.599   4.067
 8764TIP3   OH226248   5.148   6.989   4.206
 8764TIP3    H126249   5.057   6.964   4.188
 8764TIP3    H226250   5.160   6.968   4.298
 8765TIP3   OH226251   5.331   7.026   3.752
 8765TIP3    H126252   5.280   7.099   3.716
 8765TIP3    H226253   5.417   7.035   3.710
 8766TIP3   OH226254   5.772   7.264   3.892
 8766TIP3    H126255   5.811   7.264   3.979
 8766TIP3    H226256   5.834   7.315   3.839
 8767TIP3   OH226257   5.951   7.419   3.755
 8767TIP3    H126258   6.018   7.369   3.707
 8767TIP3    H226259   6.001   7.475   3.814
 8768TIP3   OH226260   6.744   5.775   3.850
 8768TIP3    H126261   6.656   5.772   3.812
 8768TIP3    H226262   6.778   5.686   3.841
 8769TIP3   OH226263   5.001   7.279   3.780
 8769TIP3    H126264   4.913   7.308   3.755
 8769TIP3    H226265   5.018   7.322   3.863
 8770TIP3   OH226266   5.238   7.257   3.637
 8770TIP3    H126267   5.153   7.268   3.680
 8770TIP3    H226268   5.223   7.288   3.548
 8771TIP3   OH226269   5.665   7.284   3.435
 8771TIP3    H126270   5.597   7.299   3.369
 8771TIP3    H226271   5.678   7.369   3.476
 8772TIP3   OH226272   5.934   7.222   3.488
 8772TIP3    H126273   5.842   7.240   3.469
 8772TIP3    H226274   5.982   7.292   3.443
 8773TIP3   OH226275   6.138   7.412   3.396
 8773TIP3    H126276   6.126   7.496   3.352
 8773TIP3    H226277   6.168   7.353   3.327
 8774TIP3   OH226278   4.918   7.068   3.523
 8774TIP3    H126279   4.940   7.043   3.613
 8774TIP3    H226280   4.986   7.028   3.469
 8775TIP3   OH226281   5.112   6.942   3.383
 8775TIP3    H126282   5.124   6.860   3.431
 8775TIP3    H226283   5.200   6.979   3.377
 8776TIP3   OH226284   5.380   7.033   3.388
 8776TIP3    H126285   5.407   6.942   3.375
 8776TIP3    H226286   5.424   7.060   3.468
 8777TIP3   OH226287   5.955   5.693   3.477
 8777TIP3    H126288   5.910   5.623   3.524
 8777TIP3    H226289   6.025   5.648   3.428
 8778TIP3   OH226290   6.472   5.576   3.379
 8778TIP3    H126291   6.509   5.624   3.305
 8778TIP3    H226292   6.378   5.590   3.372
 8779TIP3   OH226293   6.570   5.669   3.140
 8779TIP3    H126294   6.639   5.617   3.100
 8779TIP3    H226295   6.598   5.760   3.128
 8780TIP3   OH226296   5.197   5.399   3.483
 8780TIP3    H126297   5.105   5.372   3.486
 8780TIP3    H226298   5.246   5.317   3.478
 8781TIP3   OH226299   4.994   5.274   3.139
 8781TIP3    H126300   5.020   5.327   3.063
 8781TIP3    H226301   4.963   5.338   3.203
 8782TIP3   OH226302   5.649   5.431   3.368
 8782TIP3    H126303   5.701   5.477   3.302
 8782TIP3    H226304   5.670   5.475   3.450
 8783TIP3   OH226305   6.190   5.580   3.348
 8783TIP3    H126306   6.188   5.544   3.260
 8783TIP3    H226307   6.177   5.504   3.405
 8784TIP3   OH226308   6.219   5.505   2.915
 8784TIP3    H126309   6.135   5.550   2.927
 8784TIP3    H226310   6.206   5.419   2.956
 8785TIP3   OH226311   4.701   6.847   2.910
 8785TIP3    H126312   4.618   6.810   2.879
 8785TIP3    H226313   4.695   6.940   2.889
 8786TIP3   OH226314   5.108   5.427   2.897
 8786TIP3    H126315   5.152   5.365   2.838
 8786TIP3    H226316   5.179   5.481   2.932
 8787TIP3   OH226317   5.616   5.609   2.998
 8787TIP3    H126318   5.675   5.558   3.053
 8787TIP3    H226319   5.636   5.700   3.020
 8788TIP3   OH226320   5.476   7.026   2.493
 8788TIP3    H126321   5.563   7.052   2.462
 8788TIP3    H226322   5.452   6.952   2.437
 8789TIP3   OH226323   6.186   7.152   2.581
 8789TIP3    H126324   6.186   7.056   2.573
 8789TIP3    H226325   6.104   7.179   2.539
 8790TIP3   OH226326   5.408   5.683   4.379
 8790TIP3    H126327   5.368   5.612   4.429
 8790TIP3    H226328   5.500   5.682   4.405
 8791TIP3   OH226329   5.658   5.676   4.496
 8791TIP3    H126330   5.742   5.651   4.459
 8791TIP3    H226331   5.641   5.611   4.564
 8792TIP3   OH226332   4.782   6.867   2.551
 8792TIP3    H126333   4.782   6.884   2.645
 8792TIP3    H226334   4.866   6.824   2.534
 8793TIP3   OH226335   6.487   5.742   4.283
 8793TIP3    H126336   6.501   5.713   4.373
 8793TIP3    H226337   6.573   5.738   4.242
 8794TIP3   OH226338   6.414   7.293   3.778
 8794TIP3    H126339   6.341   7.262   3.724
 8794TIP3    H226340   6.401   7.388   3.782
 8795TIP3   OH226341   7.686   6.641   2.561
 8795TIP3    H126342   7.660   6.733   2.557
 8795TIP3    H226343   7.616   6.594   2.516
 8796TIP3   OH226344   7.684   6.660   2.920
 8796TIP3    H126345   7.707   6.629   3.008
 8796TIP3    H226346   7.636   6.587   2.881
 8797TIP3   OH226347   6.985   6.562   3.296
 8797TIP3    H126348   7.017   6.493   3.354
 8797TIP3    H226349   7.065   6.609   3.268
 8798TIP3   OH226350   7.926   6.959   2.616
 8798TIP3    H126351   7.891   6.896   2.679
 8798TIP3    H226352   7.914   7.044   2.658
 8799TIP3   OH226353   6.957   6.966   3.017
 8799TIP3    H126354   6.948   6.870   3.018
 8799TIP3    H226355   7.050   6.981   2.996
 8800TIP3   OH226356   6.661   6.169   2.793
 8800TIP3    H126357   6.620   6.253   2.813
 8800TIP3    H226358   6.592   6.119   2.749
 8801TIP3   OH226359   6.723   6.459   2.972
 8801TIP3    H126360   6.771   6.383   3.004
 8801TIP3    H226361   6.784   6.504   2.914
 8802TIP3   OH226362   7.482   6.891   2.973
 8802TIP3    H126363   7.513   6.828   2.908
 8802TIP3    H226364   7.562   6.932   3.006
 8803TIP3   OH226365  -0.006   6.219   2.975
 8803TIP3    H126366   0.023   6.299   3.019
 8803TIP3    H226367   0.009   6.236   2.882
 8804TIP3   OH226368   7.895   6.389   3.001
 8804TIP3    H126369   7.936   6.306   3.022
 8804TIP3    H226370   7.864   6.379   2.911
 8805TIP3   OH226371   7.238   6.051   2.964
 8805TIP3    H126372   7.221   6.126   2.907
 8805TIP3    H226373   7.191   5.978   2.924
 8806TIP3   OH226374   7.937   6.146   2.596
 8806TIP3    H126375   8.009   6.127   2.656
 8806TIP3    H226376   7.981   6.180   2.517
 8807TIP3   OH226377   6.870   6.251   3.075
 8807TIP3    H126378   6.951   6.238   3.124
 8807TIP3    H226379   6.881   6.200   2.996
 8808TIP3   OH226380   7.309   6.448   2.877
 8808TIP3    H126381   7.402   6.427   2.885
 8808TIP3    H226382   7.270   6.369   2.839
 8809TIP3   OH226383   7.229   6.038   3.404
 8809TIP3    H126384   7.175   6.073   3.333
 8809TIP3    H226385   7.179   6.057   3.484
 8810TIP3   OH226386   7.339   6.813   3.195
 8810TIP3    H126387   7.280   6.881   3.229
 8810TIP3    H226388   7.380   6.853   3.119
 8811TIP3   OH226389   8.149   6.143   2.774
 8811TIP3    H126390   8.110   6.108   2.854
 8811TIP3    H226391   8.187   6.227   2.800
 8812TIP3   OH226392   7.108   6.151   3.185
 8812TIP3    H126393   7.165   6.223   3.210
 8812TIP3    H226394   7.152   6.110   3.110
 8813TIP3   OH226395   7.168   7.011   3.297
 8813TIP3    H126396   7.150   7.093   3.251
 8813TIP3    H226397   7.089   6.995   3.349
 8814TIP3   OH226398   6.558   6.699   2.532
 8814TIP3    H126399   6.526   6.727   2.446
 8814TIP3    H226400   6.592   6.778   2.572
 8815TIP3   OH226401   8.295   6.102   3.135
 8815TIP3    H126402   8.208   6.133   3.110
 8815TIP3    H226403   8.354   6.138   3.069
 8816TIP3   OH226404   7.585   5.752   3.122
 8816TIP3    H126405   7.568   5.658   3.133
 8816TIP3    H226406   7.511   5.794   3.165
 8817TIP3   OH226407   7.797   6.999   2.363
 8817TIP3    H126408   7.707   6.968   2.368
 8817TIP3    H226409   7.835   6.977   2.448
 8818TIP3   OH226410   7.517   6.511   2.375
 8818TIP3    H126411   7.442   6.569   2.366
 8818TIP3    H226412   7.565   6.520   2.293
 8819TIP3   OH226413   7.477   6.302   2.084
 8819TIP3    H126414   7.533   6.359   2.137
 8819TIP3    H226415   7.539   6.245   2.037
 8820TIP3   OH226416   8.449   6.743   2.996
 8820TIP3    H126417   8.359   6.773   3.010
 8820TIP3    H226418   8.472   6.775   2.909
 8821TIP3   OH226419   7.860   6.576   2.360
 8821TIP3    H126420   7.808   6.603   2.435
 8821TIP3    H226421   7.949   6.565   2.395
 8822TIP3   OH226422   8.096   6.637   3.261
 8822TIP3    H126423   8.097   6.719   3.309
 8822TIP3    H226424   8.010   6.636   3.218
 8823TIP3   OH226425   7.086   6.588   2.774
 8823TIP3    H126426   7.052   6.539   2.699
 8823TIP3    H226427   7.167   6.543   2.797
 8824TIP3   OH226428   7.213   6.982   2.918
 8824TIP3    H126429   7.196   6.982   2.824
 8824TIP3    H226430   7.306   6.959   2.926
 8825TIP3   OH226431   7.227   6.572   3.117
 8825TIP3    H126432   7.258   6.545   3.031
 8825TIP3    H226433   7.271   6.655   3.134
 8826TIP3   OH226434   7.789   7.207   2.902
 8826TIP3    H126435   7.707   7.251   2.879
 8826TIP3    H226436   7.760   7.126   2.946
 8827TIP3   OH226437   7.367   7.122   3.449
 8827TIP3    H126438   7.308   7.186   3.490
 8827TIP3    H226439   7.310   7.070   3.392
 8828TIP3   OH226440   7.706   6.453   2.168
 8828TIP3    H126441   7.761   6.509   2.222
 8828TIP3    H226442   7.733   6.472   2.078
 8829TIP3   OH226443   7.129   6.676   3.556
 8829TIP3    H126444   7.135   6.766   3.588
 8829TIP3    H226445   7.035   6.658   3.553
 8830TIP3   OH226446   7.165   7.292   3.525
 8830TIP3    H126447   7.136   7.299   3.434
 8830TIP3    H226448   7.085   7.269   3.573
 8831TIP3   OH226449   8.213   5.700   2.219
 8831TIP3    H126450   8.135   5.712   2.273
 8831TIP3    H226451   8.239   5.789   2.194
 8832TIP3   OH226452   6.962   6.437   2.565
 8832TIP3    H126453   6.903   6.486   2.509
 8832TIP3    H226454   6.922   6.350   2.573
 8833TIP3   OH226455   6.742   6.825   3.474
 8833TIP3    H126456   6.679   6.808   3.405
 8833TIP3    H226457   6.781   6.739   3.493
 8834TIP3   OH226458   6.603   7.017   3.109
 8834TIP3    H126459   6.697   7.006   3.090
 8834TIP3    H226460   6.599   7.096   3.163
 8835TIP3   OH226461   7.556   7.256   3.298
 8835TIP3    H126462   7.559   7.347   3.325
 8835TIP3    H226463   7.491   7.216   3.355
 8836TIP3   OH226464   7.258   7.457   2.240
 8836TIP3    H126465   7.255   7.389   2.172
 8836TIP3    H226466   7.351   7.471   2.256
 8837TIP3   OH226467   6.765   7.229   2.641
 8837TIP3    H126468   6.822   7.227   2.718
 8837TIP3    H226469   6.713   7.149   2.648
 8838TIP3   OH226470   8.355   6.603   3.451
 8838TIP3    H126471   8.295   6.624   3.379
 8838TIP3    H226472   8.388   6.516   3.429
 8839TIP3   OH226473   6.947   7.007   3.460
 8839TIP3    H126474   6.998   6.991   3.540
 8839TIP3    H226475   6.874   6.946   3.466
 8840TIP3   OH226476   7.346   5.830   3.249
 8840TIP3    H126477   7.262   5.798   3.218
 8840TIP3    H226478   7.326   5.912   3.294
 8841TIP3   OH226479   7.885   5.944   3.443
 8841TIP3    H126480   7.952   5.918   3.506
 8841TIP3    H226481   7.802   5.927   3.489
 8842TIP3   OH226482   8.113   6.370   3.355
 8842TIP3    H126483   8.069   6.371   3.440
 8842TIP3    H226484   8.103   6.460   3.323
 8843TIP3   OH226485   7.782   6.496   1.913
 8843TIP3    H126486   7.746   6.476   1.827
 8843TIP3    H226487   7.836   6.574   1.899
 8844TIP3   OH226488   7.489   5.875   2.219
 8844TIP3    H126489   7.457   5.875   2.309
 8844TIP3    H226490   7.452   5.796   2.181
 8845TIP3   OH226491   7.280   6.350   3.264
 8845TIP3    H126492   7.232   6.368   3.345
 8845TIP3    H226493   7.266   6.428   3.210
 8846TIP3   OH226494   7.166   6.229   2.778
 8846TIP3    H126495   7.074   6.212   2.797
 8846TIP3    H226496   7.179   6.193   2.691
 8847TIP3   OH226497   7.654   6.314   2.505
 8847TIP3    H126498   7.602   6.384   2.466
 8847TIP3    H226499   7.711   6.284   2.434
 8848TIP3   OH226500   7.832   6.592   3.593
 8848TIP3    H126501   7.810   6.521   3.653
 8848TIP3    H226502   7.924   6.610   3.608
 8849TIP3   OH226503   7.809   6.348   2.741
 8849TIP3    H126504   7.749   6.386   2.677
 8849TIP3    H226505   7.843   6.269   2.699
 8850TIP3   OH226506   7.102   6.376   3.474
 8850TIP3    H126507   7.131   6.443   3.536
 8850TIP3    H226508   7.092   6.297   3.527
 8851TIP3   OH226509   7.145   5.852   2.185
 8851TIP3    H126510   7.139   5.852   2.281
 8851TIP3    H226511   7.074   5.909   2.157
 8852TIP3   OH226512   6.694   5.891   3.060
 8852TIP3    H126513   6.767   5.928   3.110
 8852TIP3    H226514   6.731   5.870   2.974
 8853TIP3   OH226515   6.658   5.879   2.573
 8853TIP3    H126516   6.705   5.910   2.495
 8853TIP3    H226517   6.598   5.950   2.594
 8854TIP3   OH226518   7.826   6.586   3.172
 8854TIP3    H126519   7.857   6.521   3.109
 8854TIP3    H226520   7.791   6.534   3.245
 8855TIP3   OH226521   7.496   6.044   2.842
 8855TIP3    H126522   7.413   6.049   2.889
 8855TIP3    H226523   7.563   6.058   2.909
 8856TIP3   OH226524   6.924   6.111   2.848
 8856TIP3    H126525   6.833   6.119   2.820
 8856TIP3    H226526   6.949   6.022   2.823
 8857TIP3   OH226527   7.192   6.106   2.536
 8857TIP3    H126528   7.284   6.123   2.514
 8857TIP3    H226529   7.145   6.127   2.455
 8858TIP3   OH226530   7.979   6.128   3.038
 8858TIP3    H126531   7.955   6.145   3.129
 8858TIP3    H226532   7.911   6.069   3.006
 8859TIP3   OH226533   7.043   6.133   2.310
 8859TIP3    H126534   6.972   6.094   2.260
 8859TIP3    H226535   7.095   6.179   2.245
 8860TIP3   OH226536   7.110   6.928   3.685
 8860TIP3    H126537   7.191   6.959   3.726
 8860TIP3    H226538   7.045   6.933   3.755
 8861TIP3   OH226539   7.574   6.376   2.935
 8861TIP3    H126540   7.650   6.350   2.884
 8861TIP3    H226541   7.588   6.335   3.021
 8862TIP3   OH226542   7.095   5.869   2.819
 8862TIP3    H126543   7.059   5.793   2.865
 8862TIP3    H226544   7.134   5.833   2.740
 8863TIP3   OH226545   7.551   6.279   3.235
 8863TIP3    H126546   7.463   6.317   3.241
 8863TIP3    H226547   7.607   6.342   3.279
 8864TIP3   OH226548   7.292   6.657   2.316
 8864TIP3    H126549   7.207   6.612   2.316
 8864TIP3    H226550   7.291   6.710   2.395
 8865TIP3   OH226551   8.188   6.817   2.945
 8865TIP3    H126552   8.174   6.903   2.906
 8865TIP3    H226553   8.102   6.775   2.943
 8866TIP3   OH226554   7.745   5.976   2.195
 8866TIP3    H126555   7.651   5.962   2.196
 8866TIP3    H226556   7.756   6.070   2.211
 8867TIP3   OH226557   7.683   6.980   3.329
 8867TIP3    H126558   7.710   6.973   3.420
 8867TIP3    H226559   7.653   7.070   3.319
 8868TIP3   OH226560   7.813   6.231   2.290
 8868TIP3    H126561   7.907   6.242   2.301
 8868TIP3    H226562   7.786   6.306   2.238
 8869TIP3   OH226563   6.973   6.685   3.002
 8869TIP3    H126564   7.005   6.666   2.914
 8869TIP3    H226565   7.030   6.635   3.060
 8870TIP3   OH226566   7.431   6.815   2.122
 8870TIP3    H126567   7.398   6.903   2.143
 8870TIP3    H226568   7.413   6.763   2.200
 8871TIP3   OH226569   6.860   6.611   3.614
 8871TIP3    H126570   6.878   6.596   3.707
 8871TIP3    H226571   6.791   6.547   3.593
 8872TIP3   OH226572   7.590   6.725   3.631
 8872TIP3    H126573   7.528   6.673   3.579
 8872TIP3    H226574   7.676   6.693   3.603
 8873TIP3   OH226575   7.832   7.223   3.247
 8873TIP3    H126576   7.743   7.238   3.216
 8873TIP3    H226577   7.841   7.281   3.323
 8874TIP3   OH226578   7.934   6.752   2.875
 8874TIP3    H126579   7.841   6.733   2.887
 8874TIP3    H226580   7.966   6.683   2.817
 8875TIP3   OH226581   7.088   7.016   2.649
 8875TIP3    H126582   7.098   7.083   2.582
 8875TIP3    H226583   7.003   6.976   2.630
 8876TIP3   OH226584   6.646   6.301   2.330
 8876TIP3    H126585   6.693   6.382   2.348
 8876TIP3    H226586   6.571   6.303   2.389
 8877TIP3   OH226587   7.183   6.744   2.552
 8877TIP3    H126588   7.230   6.827   2.565
 8877TIP3    H226589   7.156   6.718   2.640
 8878TIP3   OH226590   7.358   7.332   3.088
 8878TIP3    H126591   7.400   7.385   3.021
 8878TIP3    H226592   7.430   7.300   3.142
 8879TIP3   OH226593   6.994   7.236   2.473
 8879TIP3    H126594   6.911   7.241   2.521
 8879TIP3    H226595   7.032   7.323   2.480
 8880TIP3   OH226596   7.733   6.963   3.055
 8880TIP3    H126597   7.722   6.961   3.150
 8880TIP3    H226598   7.811   6.910   3.039
 8881TIP3   OH226599   7.625   6.833   1.926
 8881TIP3    H126600   7.708   6.859   1.965
 8881TIP3    H226601   7.565   6.824   2.000
 8882TIP3   OH226602   7.068   6.117   3.619
 8882TIP3    H126603   6.972   6.122   3.626
 8882TIP3    H226604   7.095   6.059   3.690
 8883TIP3   OH226605   7.893   6.762   2.153
 8883TIP3    H126606   7.846   6.726   2.228
 8883TIP3    H226607   7.982   6.727   2.162
 8884TIP3   OH226608   6.787   7.204   3.252
 8884TIP3    H126609   6.843   7.130   3.276
 8884TIP3    H226610   6.823   7.279   3.299
 8885TIP3   OH226611   7.064   6.849   1.938
 8885TIP3    H126612   7.105   6.766   1.910
 8885TIP3    H226613   7.054   6.839   2.033
 8886TIP3   OH226614   7.022   6.854   2.214
 8886TIP3    H126615   7.107   6.829   2.251
 8886TIP3    H226616   7.021   6.949   2.218
 8887TIP3   OH226617   6.755   6.544   2.411
 8887TIP3    H126618   6.692   6.591   2.466
 8887TIP3    H226619   6.780   6.608   2.344
 8888TIP3   OH226620   7.915   6.179   3.297
 8888TIP3    H126621   7.991   6.225   3.332
 8888TIP3    H226622   7.904   6.103   3.355
 8889TIP3   OH226623   7.793   5.931   2.471
 8889TIP3    H126624   7.776   5.948   2.378
 8889TIP3    H226625   7.829   6.014   2.504
 8890TIP3   OH226626   7.281   7.045   2.158
 8890TIP3    H126627   7.196   7.066   2.198
 8890TIP3    H226628   7.302   7.122   2.105
 8891TIP3   OH226629   7.478   6.114   2.570
 8891TIP3    H126630   7.538   6.185   2.547
 8891TIP3    H226631   7.483   6.107   2.665
 8892TIP3   OH226632   7.747   6.428   3.378
 8892TIP3    H126633   7.771   6.483   3.452
 8892TIP3    H226634   7.803   6.350   3.387
 8893TIP3   OH226635   7.621   5.838   2.670
 8893TIP3    H126636   7.600   5.915   2.722
 8893TIP3    H226637   7.682   5.870   2.603
 8894TIP3   OH226638   7.021   7.126   2.224
 8894TIP3    H126639   6.997   7.195   2.162
 8894TIP3    H226640   7.013   7.167   2.310
 8895TIP3   OH226641   7.136   5.843   2.463
 8895TIP3    H126642   7.130   5.933   2.495
 8895TIP3    H226643   7.230   5.822   2.467
 8896TIP3   OH226644   8.384   6.344   3.345
 8896TIP3    H126645   8.289   6.342   3.357
 8896TIP3    H226646   8.398   6.311   3.256
 8897TIP3   OH226647   8.036   6.522   2.746
 8897TIP3    H126648   7.956   6.470   2.752
 8897TIP3    H226649   8.101   6.474   2.796
 8898TIP3   OH226650   6.757   6.755   2.210
 8898TIP3    H126651   6.828   6.817   2.228
 8898TIP3    H226652   6.795   6.694   2.147
 8899TIP3   OH226653   6.690   6.031   2.350
 8899TIP3    H126654   6.698   6.126   2.349
 8899TIP3    H226655   6.613   6.012   2.296
 8900TIP3   OH226656   7.083   5.749   3.218
 8900TIP3    H126657   7.054   5.719   3.132
 8900TIP3    H226658   7.071   5.673   3.275
 8901TIP3   OH226659   6.617   6.961   2.601
 8901TIP3    H126660   6.551   6.998   2.660
 8901TIP3    H226661   6.603   7.006   2.518
 8902TIP3   OH226662   6.783   7.515   3.676
 8902TIP3    H126663   6.867   7.520   3.721
 8902TIP3    H226664   6.764   7.421   3.670
 8903TIP3   OH226665   7.255   7.466   3.723
 8903TIP3    H126666   7.351   7.462   3.724
 8903TIP3    H226667   7.230   7.410   3.650
 8904TIP3   OH226668   7.237   7.043   1.842
 8904TIP3    H126669   7.180   6.978   1.883
 8904TIP3    H226670   7.314   6.994   1.815
 8905TIP3   OH226671   7.882   7.378   3.466
 8905TIP3    H126672   7.885   7.311   3.534
 8905TIP3    H226673   7.967   7.421   3.470
 8906TIP3   OH226674   6.907   6.915   3.875
 8906TIP3    H126675   6.925   6.821   3.875
 8906TIP3    H226676   6.824   6.923   3.828
 8907TIP3   OH226677   6.889   6.562   2.074
 8907TIP3    H126678   6.943   6.535   2.148
 8907TIP3    H226679   6.950   6.571   2.001
 8908TIP3   OH226680   7.515   7.003   3.649
 8908TIP3    H126681   7.475   7.030   3.566
 8908TIP3    H226682   7.544   6.913   3.633
 8909TIP3   OH226683   7.345   6.747   1.868
 8909TIP3    H126684   7.371   6.774   1.956
 8909TIP3    H226685   7.373   6.656   1.861
 8910TIP3   OH226686   8.009   7.016   3.248
 8910TIP3    H126687   8.065   7.081   3.207
 8910TIP3    H226688   7.924   7.060   3.256
 8911TIP3   OH226689   7.029   6.651   3.861
 8911TIP3    H126690   7.109   6.620   3.818
 8911TIP3    H226691   7.060   6.686   3.945
 8912TIP3   OH226692   7.069   6.468   2.279
 8912TIP3    H126693   7.067   6.436   2.370
 8912TIP3    H226694   7.121   6.403   2.232
 8913TIP3   OH226695   7.365   6.536   3.515
 8913TIP3    H126696   7.289   6.593   3.519
 8913TIP3    H226697   7.417   6.569   3.442
 8914TIP3   OH226698   7.200   6.267   2.129
 8914TIP3    H126699   7.173   6.278   2.038
 8914TIP3    H226700   7.296   6.271   2.125
 8915TIP3   OH226701   7.888   6.933   3.650
 8915TIP3    H126702   7.958   6.902   3.592
 8915TIP3    H226703   7.883   6.867   3.719
 8916TIP3   OH226704   7.488   6.327   3.640
 8916TIP3    H126705   7.489   6.249   3.584
 8916TIP3    H226706   7.447   6.395   3.586
 8917TIP3   OH226707   7.490   6.111   3.452
 8917TIP3    H126708   7.520   6.156   3.373
 8917TIP3    H226709   7.398   6.090   3.434
 8918TIP3   OH226710   7.515   6.650   3.326
 8918TIP3    H126711   7.601   6.666   3.287
 8918TIP3    H226712   7.456   6.711   3.282
 8919TIP3   OH226713   8.105   6.613   3.702
 8919TIP3    H126714   8.152   6.529   3.703
 8919TIP3    H226715   8.166   6.675   3.664
 8920TIP3   OH226716   8.111   6.874   3.456
 8920TIP3    H126717   8.058   6.923   3.392
 8920TIP3    H226718   8.199   6.875   3.419
 8921TIP3   OH226719   7.367   6.430   3.877
 8921TIP3    H126720   7.300   6.364   3.891
 8921TIP3    H226721   7.399   6.415   3.789
 8922TIP3   OH226722   7.620   5.874   3.521
 8922TIP3    H126723   7.574   5.956   3.498
 8922TIP3    H226724   7.554   5.806   3.508
 8923TIP3   OH226725   7.746   6.374   3.736
 8923TIP3    H126726   7.733   6.362   3.830
 8923TIP3    H226727   7.661   6.354   3.697
 8924TIP3   OH226728   7.988   6.330   3.593
 8924TIP3    H126729   7.914   6.332   3.653
 8924TIP3    H226730   8.062   6.302   3.646
 8925TIP3   OH226731   8.216   6.270   3.743
 8925TIP3    H126732   8.227   6.176   3.757
 8925TIP3    H226733   8.215   6.308   3.831
 8926TIP3   OH226734   7.204   6.211   3.932
 8926TIP3    H126735   7.208   6.124   3.894
 8926TIP3    H226736   7.242   6.201   4.019
 8927TIP3   OH226737   7.713   5.880   3.778
 8927TIP3    H126738   7.780   5.811   3.772
 8927TIP3    H226739   7.673   5.881   3.691
 8928TIP3   OH226740   7.779   6.097   3.938
 8928TIP3    H126741   7.761   6.028   3.874
 8928TIP3    H226742   7.705   6.157   3.930
 8929TIP3   OH226743   6.997   7.329   2.038
 8929TIP3    H126744   7.091   7.312   2.034
 8929TIP3    H226745   6.978   7.378   1.958
 8930TIP3   OH226746   6.490   6.709   2.247
 8930TIP3    H126747   6.582   6.733   2.234
 8930TIP3    H226748   6.483   6.621   2.209
 8931TIP3   OH226749   6.404   7.317   2.656
 8931TIP3    H126750   6.339   7.258   2.619
 8931TIP3    H226751   6.448   7.265   2.724
 8932TIP3   OH226752   6.533   7.170   2.853
 8932TIP3    H126753   6.522   7.099   2.916
 8932TIP3    H226754   6.588   7.234   2.899
 8933TIP3   OH226755   8.063   6.231   1.950
 8933TIP3    H126756   8.056   6.282   1.869
 8933TIP3    H226757   8.048   6.141   1.922
 8934TIP3   OH226758   8.098   6.505   2.479
 8934TIP3    H126759   8.098   6.410   2.467
 8934TIP3    H226760   8.082   6.517   2.573
 8935TIP3   OH226761   6.721   6.575   3.225
 8935TIP3    H126762   6.717   6.546   3.134
 8935TIP3    H226763   6.815   6.582   3.243
 8936TIP3   OH226764   8.341   6.905   3.316
 8936TIP3    H126765   8.429   6.876   3.340
 8936TIP3    H226766   8.355   6.965   3.243
 8937TIP3   OH226767   8.028   5.957   1.920
 8937TIP3    H126768   8.074   5.923   1.997
 8937TIP3    H226769   7.946   5.909   1.918
 8938TIP3   OH226770   8.092   6.225   2.379
 8938TIP3    H126771   8.126   6.137   2.392
 8938TIP3    H226772   8.135   6.257   2.300
 8939TIP3   OH226773   8.253   6.390   2.861
 8939TIP3    H126774   8.324   6.435   2.814
 8939TIP3    H226775   8.258   6.423   2.950
 8940TIP3   OH226776   8.299   6.523   3.090
 8940TIP3    H126777   8.229   6.564   3.141
 8940TIP3    H226778   8.362   6.593   3.075
 8941TIP3   OH226779   6.938   6.262   3.901
 8941TIP3    H126780   7.034   6.260   3.900
 8941TIP3    H226781   6.913   6.178   3.938
 8942TIP3   OH226782   8.181   5.972   2.424
 8942TIP3    H126783   8.241   5.946   2.494
 8942TIP3    H226784   8.123   5.896   2.414
 8943TIP3   OH226785   6.902   5.960   3.234
 8943TIP3    H126786   6.961   5.885   3.238
 8943TIP3    H226787   6.960   6.035   3.221
 8944TIP3   OH226788   6.702   6.233   3.300
 8944TIP3    H126789   6.749   6.226   3.217
 8944TIP3    H226790   6.725   6.320   3.333
 8945TIP3   OH226791   6.685   5.738   2.802
 8945TIP3    H126792   6.594   5.730   2.830
 8945TIP3    H226793   6.682   5.795   2.726
 8946TIP3   OH226794   6.904   5.815   3.616
 8946TIP3    H126795   6.855   5.814   3.698
 8946TIP3    H226796   6.844   5.854   3.553
 8947TIP3   OH226797   6.944   7.244   3.690
 8947TIP3    H126798   6.853   7.219   3.674
 8947TIP3    H226799   6.955   7.235   3.785
 8948TIP3   OH226800   7.131   7.285   3.240
 8948TIP3    H126801   7.079   7.354   3.199
 8948TIP3    H226802   7.216   7.290   3.196
 8949TIP3   OH226803   7.585   7.534   3.373
 8949TIP3    H126804   7.613   7.530   3.464
 8949TIP3    H226805   7.657   7.576   3.327
 8950TIP3   OH226806   0.020   6.002   3.354
 8950TIP3    H126807  -0.041   6.057   3.305
 8950TIP3    H226808   0.077   5.965   3.287
 8951TIP3   OH226809   6.791   7.533   3.269
 8951TIP3    H126810   6.704   7.565   3.246
 8951TIP3    H226811   6.813   7.580   3.350
 8952TIP3   OH226812   7.021   7.501   3.122
 8952TIP3    H126813   6.936   7.515   3.163
 8952TIP3    H226814   7.009   7.532   3.032
 8953TIP3   OH226815   6.711   7.323   3.010
 8953TIP3    H126816   6.735   7.301   3.100
 8953TIP3    H226817   6.779   7.284   2.956
 8954TIP3   OH226818   6.904   7.195   2.872
 8954TIP3    H126819   6.918   7.111   2.916
 8954TIP3    H226820   6.991   7.235   2.868
 8955TIP3   OH226821   7.161   7.290   2.886
 8955TIP3    H126822   7.210   7.222   2.839
 8955TIP3    H226823   7.218   7.315   2.958
 8956TIP3   OH226824   7.757   5.951   2.968
 8956TIP3    H126825   7.706   5.883   3.013
 8956TIP3    H226826   7.821   5.902   2.915
 8957TIP3   OH226827   8.273   5.829   2.860
 8957TIP3    H126828   8.308   5.880   2.787
 8957TIP3    H226829   8.179   5.846   2.859
 8958TIP3   OH226830   8.378   5.921   2.620
 8958TIP3    H126831   8.448   5.870   2.578
 8958TIP3    H226832   8.406   6.012   2.611
 8959TIP3   OH226833   6.994   5.654   2.973
 8959TIP3    H126834   6.902   5.628   2.975
 8959TIP3    H226835   7.042   5.571   2.967
 8960TIP3   OH226836   6.789   5.531   2.624
 8960TIP3    H126837   6.816   5.584   2.549
 8960TIP3    H226838   6.759   5.595   2.689
 8961TIP3   OH226839   7.447   5.686   2.855
 8961TIP3    H126840   7.497   5.734   2.789
 8961TIP3    H226841   7.463   5.733   2.937
 8962TIP3   OH226842   7.992   5.835   2.835
 8962TIP3    H126843   7.983   5.802   2.746
 8962TIP3    H226844   7.975   5.759   2.891
 8963TIP3   OH226845   8.009   5.759   2.401
 8963TIP3    H126846   7.927   5.805   2.415
 8963TIP3    H226847   7.996   5.674   2.442
 8964TIP3   OH226848   6.501   7.110   2.404
 8964TIP3    H126849   6.437   7.070   2.345
 8964TIP3    H226850   6.490   7.204   2.391
 8965TIP3   OH226851   6.905   5.684   2.385
 8965TIP3    H126852   6.949   5.623   2.325
 8965TIP3    H226853   6.975   5.740   2.419
 8966TIP3   OH226854   7.413   5.864   2.485
 8966TIP3    H126855   7.472   5.816   2.541
 8966TIP3    H226856   7.430   5.956   2.505
 8967TIP3   OH226857   7.265   7.276   2.000
 8967TIP3    H126858   7.331   7.333   1.962
 8967TIP3    H226859   7.254   7.206   1.936
 8968TIP3   OH226860   7.204   5.935   3.866
 8968TIP3    H126861   7.166   5.866   3.920
 8968TIP3    H226862   7.296   5.938   3.891
 8969TIP3   OH226863   7.454   5.936   3.983
 8969TIP3    H126864   7.538   5.917   3.941
 8969TIP3    H226865   7.443   5.865   4.047
 8970TIP3   OH226866   6.576   7.115   2.047
 8970TIP3    H126867   6.603   7.153   2.130
 8970TIP3    H226868   6.655   7.071   2.014
 8971TIP3   OH226869   8.279   5.998   3.772
 8971TIP3    H126870   8.297   5.969   3.861
 8971TIP3    H226871   8.365   5.996   3.729
 8972TIP3   OH226872   0.955   6.998   4.659
 8972TIP3    H126873   0.979   7.080   4.702
 8972TIP3    H226874   0.976   7.012   4.567
 8973TIP3   OH226875   0.385   6.891   4.272
 8973TIP3    H126876   0.443   6.908   4.346
 8973TIP3    H226877   0.418   6.947   4.202
 8974TIP3   OH226878   1.016   7.208   4.842
 8974TIP3    H126879   0.937   7.258   4.819
 8974TIP3    H226880   1.054   7.255   4.916
 8975TIP3   OH226881   0.577   6.952   4.459
 8975TIP3    H126882   0.606   6.870   4.499
 8975TIP3    H226883   0.643   7.016   4.485
 8976TIP3   OH226884   0.748   6.905   4.821
 8976TIP3    H126885   0.671   6.949   4.785
 8976TIP3    H226886   0.819   6.927   4.762
 8977TIP3   OH226887   0.669   7.922   4.811
 8977TIP3    H126888   0.651   7.840   4.765
 8977TIP3    H226889   0.705   7.979   4.743
 8978TIP3   OH226890   0.874   7.550   4.651
 8978TIP3    H126891   0.792   7.600   4.658
 8978TIP3    H226892   0.908   7.573   4.564
 8979TIP3   OH226893   0.679   6.487   3.908
 8979TIP3    H126894   0.599   6.506   3.957
 8979TIP3    H226895   0.695   6.567   3.857
 8980TIP3   OH226896   0.821   7.382   5.138
 8980TIP3    H126897   0.751   7.418   5.083
 8980TIP3    H226898   0.818   7.287   5.121
 8981TIP3   OH226899   0.644   7.700   4.645
 8981TIP3    H126900   0.682   7.749   4.572
 8981TIP3    H226901   0.555   7.680   4.617
 8982TIP3   OH226902   0.709   7.112   3.805
 8982TIP3    H126903   0.647   7.068   3.749
 8982TIP3    H226904   0.709   7.203   3.775
 8983TIP3   OH226905   0.921   7.954   4.900
 8983TIP3    H126906   0.826   7.963   4.890
 8983TIP3    H226907   0.953   7.935   4.812
 8984TIP3   OH226908   0.816   7.122   5.052
 8984TIP3    H126909   0.731   7.078   5.046
 8984TIP3    H226910   0.859   7.103   4.968
 8985TIP3   OH226911   0.483   7.293   4.438
 8985TIP3    H126912   0.425   7.216   4.442
 8985TIP3    H226913   0.565   7.263   4.477
 8986TIP3   OH226914   0.484   7.380   3.473
 8986TIP3    H126915   0.433   7.337   3.405
 8986TIP3    H226916   0.466   7.474   3.460
 8987TIP3   OH226917   0.612   7.557   3.816
 8987TIP3    H126918   0.679   7.620   3.788
 8987TIP3    H226919   0.648   7.519   3.896
 8988TIP3   OH226920   0.741   7.434   4.022
 8988TIP3    H126921   0.678   7.389   4.078
 8988TIP3    H226922   0.805   7.471   4.082
 8989TIP3   OH226923   0.782   7.829   4.454
 8989TIP3    H126924   0.838   7.770   4.405
 8989TIP3    H226925   0.776   7.907   4.399
 8990TIP3   OH226926   0.672   7.343   3.663
 8990TIP3    H126927   0.605   7.341   3.594
 8990TIP3    H226928   0.646   7.415   3.720
 8991TIP3   OH226929   0.540   7.019   3.615
 8991TIP3    H126930   0.491   7.063   3.545
 8991TIP3    H226931   0.524   6.925   3.600
 8992TIP3   OH226932   0.574   7.288   4.176
 8992TIP3    H126933   0.553   7.198   4.149
 8992TIP3    H226934   0.537   7.295   4.264
 8993TIP3   OH226935   0.830   7.712   5.027
 8993TIP3    H126936   0.904   7.653   5.016
 8993TIP3    H226937   0.845   7.782   4.963
 8994TIP3   OH226938   1.026   7.519   5.033
 8994TIP3    H126939   0.953   7.478   5.079
 8994TIP3    H226940   1.100   7.460   5.045
 8995TIP3   OH226941   0.503   6.749   3.600
 8995TIP3    H126942   0.577   6.730   3.657
 8995TIP3    H226943   0.432   6.694   3.633
 8996TIP3   OH226944   0.552   7.017   4.080
 8996TIP3    H126945   0.590   6.929   4.089
 8996TIP3    H226946   0.583   7.047   3.994
 8997TIP3   OH226947   0.710   7.188   4.564
 8997TIP3    H126948   0.790   7.208   4.515
 8997TIP3    H226949   0.722   7.229   4.649
 8998TIP3   OH226950   0.766   7.336   4.791
 8998TIP3    H126951   0.682   7.364   4.827
 8998TIP3    H226952   0.801   7.415   4.748
 8999TIP3   OH226953   1.237   6.929   5.346
 8999TIP3    H126954   1.290   6.861   5.304
 8999TIP3    H226955   1.187   6.968   5.274
 9000TIP3   OH226956   0.662   6.758   4.095
 9000TIP3    H126957   0.705   6.750   4.180
 9000TIP3    H226958   0.596   6.690   4.095
 9001TIP3   OH226959   1.087   7.052   5.149
 9001TIP3    H126960   1.006   7.093   5.180
 9001TIP3    H226961   1.058   6.978   5.096
 9002TIP3   OH226962   0.739   6.694   3.734
 9002TIP3    H126963   0.775   6.627   3.677
 9002TIP3    H226964   0.802   6.765   3.731
 9003TIP3   OH226965   1.000   6.823   5.018
 9003TIP3    H126966   0.908   6.812   4.995
 9003TIP3    H226967   1.036   6.734   5.017
 9004TIP3   OH226968   0.741   6.615   4.552
 9004TIP3    H126969   0.779   6.660   4.477
 9004TIP3    H226970   0.647   6.635   4.547
 9005TIP3   OH226971   0.821   6.717   4.316
 9005TIP3    H126972   0.888   6.661   4.276
 9005TIP3    H226973   0.851   6.806   4.301
 9006TIP3   OH226974   0.481   6.659   4.519
 9006TIP3    H126975   0.414   6.666   4.451
 9006TIP3    H226976   0.458   6.579   4.567
 9007TIP3   OH226977   0.476   6.543   4.086
 9007TIP3    H126978   0.392   6.570   4.050
 9007TIP3    H226979   0.456   6.462   4.134
 9008TIP3   OH226980   1.936   7.694   3.725
 9008TIP3    H126981   1.906   7.781   3.697
 9008TIP3    H226982   1.868   7.634   3.694
 9009TIP3   OH226983   1.943   7.709   4.100
 9009TIP3    H126984   1.973   7.685   4.188
 9009TIP3    H226985   1.898   7.630   4.068
 9010TIP3   OH226986   1.233   7.606   4.469
 9010TIP3    H126987   1.265   7.538   4.528
 9010TIP3    H226988   1.309   7.665   4.457
 9011TIP3   OH226989   2.157   8.010   3.791
 9011TIP3    H126990   2.150   7.939   3.855
 9011TIP3    H226991   2.204   8.080   3.836
 9012TIP3   OH226992   1.273   7.941   4.281
 9012TIP3    H126993   1.231   7.866   4.240
 9012TIP3    H226994   1.348   7.960   4.225
 9013TIP3   OH226995   0.912   7.214   3.971
 9013TIP3    H126996   0.871   7.298   3.991
 9013TIP3    H226997   0.842   7.162   3.930
 9014TIP3   OH226998   0.970   7.506   4.156
 9014TIP3    H126999   1.018   7.428   4.183
 9014TIP3    H227000   1.035   7.561   4.114
 9015TIP3   OH227001   1.754   7.925   4.143
 9015TIP3    H127002   1.798   7.849   4.105
 9015TIP3    H227003   1.825   7.982   4.171
 9016TIP3   OH227004   2.750   7.257   4.145
 9016TIP3    H127005   2.779   7.338   4.188
 9016TIP3    H227006   2.772   7.269   4.053
 9017TIP3   OH227007   2.147   7.435   4.176
 9017TIP3    H127008   2.189   7.352   4.199
 9017TIP3    H227009   2.114   7.421   4.088
 9018TIP3   OH227010   1.487   7.097   4.140
 9018TIP3    H127011   1.468   7.171   4.082
 9018TIP3    H227012   1.440   7.023   4.102
 9019TIP3   OH227013   2.184   7.190   3.764
 9019TIP3    H127014   2.250   7.174   3.831
 9019TIP3    H227015   2.234   7.224   3.690
 9020TIP3   OH227016   1.119   7.295   4.253
 9020TIP3    H127017   1.200   7.280   4.301
 9020TIP3    H227018   1.129   7.245   4.172
 9021TIP3   OH227019   1.558   7.493   4.050
 9021TIP3    H127020   1.650   7.472   4.060
 9021TIP3    H227021   1.518   7.413   4.016
 9022TIP3   OH227022   2.821   7.468   4.316
 9022TIP3    H127023   2.738   7.510   4.295
 9022TIP3    H227024   2.839   7.494   4.406
 9023TIP3   OH227025   1.478   7.082   4.580
 9023TIP3    H127026   1.423   7.117   4.510
 9023TIP3    H227027   1.428   7.099   4.660
 9024TIP3   OH227028   1.825   7.895   3.579
 9024TIP3    H127029   1.768   7.893   3.502
 9024TIP3    H227030   1.839   7.988   3.596
 9025TIP3   OH227031   1.584   7.865   4.372
 9025TIP3    H127032   1.517   7.926   4.403
 9025TIP3    H227033   1.618   7.905   4.291
 9026TIP3   OH227034   2.386   7.195   3.944
 9026TIP3    H127035   2.370   7.149   4.027
 9026TIP3    H227036   2.437   7.272   3.969
 9027TIP3   OH227037   1.357   7.196   4.361
 9027TIP3    H127038   1.414   7.268   4.387
 9027TIP3    H227039   1.402   7.155   4.286
 9028TIP3   OH227040   4.243   0.065   4.481
 9028TIP3    H127041   4.206   0.054   4.393
 9028TIP3    H227042   4.168   0.062   4.539
 9029TIP3   OH227043   0.815   7.712   3.716
 9029TIP3    H127044   0.775   7.721   3.630
 9029TIP3    H227045   0.829   7.803   3.745
 9030TIP3   OH227046   2.542   7.157   4.312
 9030TIP3    H127047   2.455   7.182   4.280
 9030TIP3    H227048   2.602   7.188   4.244
 9031TIP3   OH227049   1.832   6.796   4.296
 9031TIP3    H127050   1.819   6.703   4.311
 9031TIP3    H227051   1.758   6.838   4.341
 9032TIP3   OH227052   2.191   8.022   3.510
 9032TIP3    H127053   2.155   7.945   3.465
 9032TIP3    H227054   2.196   7.996   3.602
 9033TIP3   OH227055   5.300   0.152   4.293
 9033TIP3    H127056   5.286   0.073   4.240
 9033TIP3    H227057   5.318   0.221   4.229
 9034TIP3   OH227058   1.768   7.556   3.554
 9034TIP3    H127059   1.689   7.608   3.543
 9034TIP3    H227060   1.810   7.558   3.469
 9035TIP3   OH227061   1.728   7.347   3.263
 9035TIP3    H127062   1.790   7.402   3.312
 9035TIP3    H227063   1.784   7.284   3.216
 9036TIP3   OH227064   2.670   7.811   4.136
 9036TIP3    H127065   2.586   7.856   4.147
 9036TIP3    H227066   2.698   7.833   4.048
 9037TIP3   OH227067   2.117   7.636   3.529
 9037TIP3    H127068   2.060   7.657   3.603
 9037TIP3    H227069   2.201   7.613   3.569
 9038TIP3   OH227070   2.346   7.684   4.437
 9038TIP3    H127071   2.347   7.766   4.486
 9038TIP3    H227072   2.261   7.685   4.392
 9039TIP3   OH227073   1.353   7.639   3.929
 9039TIP3    H127074   1.311   7.583   3.864
 9039TIP3    H227075   1.427   7.588   3.961
 9040TIP3   OH227076   1.485   8.004   4.135
 9040TIP3    H127077   1.445   8.009   4.048
 9040TIP3    H227078   1.579   8.007   4.117
 9041TIP3   OH227079   1.479   7.619   4.290
 9041TIP3    H127080   1.512   7.593   4.204
 9041TIP3    H227081   1.521   7.703   4.307
 9042TIP3   OH227082   4.496   0.060   4.614
 9042TIP3    H127083   4.462   0.147   4.635
 9042TIP3    H227084   4.427   0.020   4.560
 9043TIP3   OH227085   1.953   7.503   3.347
 9043TIP3    H127086   2.009   7.562   3.397
 9043TIP3    H227087   1.980   7.515   3.256
 9044TIP3   OH227088   1.377   7.722   4.724
 9044TIP3    H127089   1.385   7.811   4.761
 9044TIP3    H227090   1.284   7.701   4.734
 9045TIP3   OH227091   2.468   6.744   3.396
 9045TIP3    H127092   2.389   6.764   3.446
 9045TIP3    H227093   2.486   6.823   3.346
 9046TIP3   OH227094   1.214   7.482   3.738
 9046TIP3    H127095   1.151   7.530   3.683
 9046TIP3    H227096   1.170   7.400   3.760
 9047TIP3   OH227097   1.007   7.870   4.657
 9047TIP3    H127098   0.943   7.856   4.588
 9047TIP3    H227099   1.042   7.783   4.675
 9048TIP3   OH227100   2.600   7.642   4.613
 9048TIP3    H127101   2.517   7.656   4.567
 9048TIP3    H227102   2.617   7.548   4.603
 9049TIP3   OH227103   4.029   0.058   4.659
 9049TIP3    H127104   4.087   0.019   4.724
 9049TIP3    H227105   3.960  -0.007   4.647
 9050TIP3   OH227106   1.595   6.875   4.426
 9050TIP3    H127107   1.510   6.843   4.394
 9050TIP3    H227108   1.573   6.956   4.473
 9051TIP3   OH227109   2.133   6.988   4.620
 9051TIP3    H127110   2.202   6.961   4.681
 9051TIP3    H227111   2.051   6.970   4.666
 9052TIP3   OH227112   2.367   7.421   4.538
 9052TIP3    H127113   2.317   7.417   4.620
 9052TIP3    H227114   2.345   7.507   4.501
 9053TIP3   OH227115   2.031   7.528   3.090
 9053TIP3    H127116   1.998   7.508   3.002
 9053TIP3    H227117   2.084   7.607   3.078
 9054TIP3   OH227118   1.740   6.920   3.397
 9054TIP3    H127119   1.708   6.920   3.487
 9054TIP3    H227120   1.703   6.842   3.358
 9055TIP3   OH227121   1.528   7.397   4.440
 9055TIP3    H127122   1.479   7.414   4.521
 9055TIP3    H227123   1.513   7.475   4.387
 9056TIP3   OH227124   1.412   7.275   3.954
 9056TIP3    H127125   1.321   7.255   3.976
 9056TIP3    H227126   1.425   7.237   3.868
 9057TIP3   OH227127   1.906   7.360   3.684
 9057TIP3    H127128   1.854   7.428   3.642
 9057TIP3    H227129   1.961   7.325   3.614
 9058TIP3   OH227130   2.083   7.634   4.767
 9058TIP3    H127131   2.058   7.565   4.828
 9058TIP3    H227132   2.175   7.653   4.788
 9059TIP3   OH227133   2.059   7.388   3.918
 9059TIP3    H127134   1.996   7.419   3.854
 9059TIP3    H227135   2.097   7.309   3.879
 9060TIP3   OH227136   1.352   7.420   4.651
 9060TIP3    H127137   1.376   7.487   4.714
 9060TIP3    H227138   1.342   7.340   4.703
 9061TIP3   OH227139   1.396   6.899   3.362
 9061TIP3    H127140   1.388   6.897   3.457
 9061TIP3    H227141   1.322   6.953   3.333
 9062TIP3   OH227142   0.945   6.935   4.238
 9062TIP3    H127143   1.018   6.973   4.287
 9062TIP3    H227144   0.981   6.919   4.151
 9063TIP3   OH227145   0.909   6.924   3.747
 9063TIP3    H127146   0.955   6.958   3.671
 9063TIP3    H227147   0.846   6.993   3.771
 9064TIP3   OH227148   2.073   7.632   4.344
 9064TIP3    H127149   2.105   7.565   4.284
 9064TIP3    H227150   2.040   7.583   4.419
 9065TIP3   OH227151   1.745   7.096   4.018
 9065TIP3    H127152   1.663   7.097   4.067
 9065TIP3    H227153   1.813   7.094   4.084
 9066TIP3   OH227154   1.172   7.156   4.024
 9066TIP3    H127155   1.082   7.168   3.996
 9066TIP3    H227156   1.194   7.067   3.999
 9067TIP3   OH227157   1.440   7.150   3.714
 9067TIP3    H127158   1.532   7.166   3.692
 9067TIP3    H227159   1.392   7.171   3.634
 9068TIP3   OH227160   2.231   7.174   4.220
 9068TIP3    H127161   2.202   7.190   4.310
 9068TIP3    H227162   2.165   7.115   4.184
 9069TIP3   OH227163   1.292   7.181   3.489
 9069TIP3    H127164   1.218   7.140   3.444
 9069TIP3    H227165   1.343   7.221   3.419
 9070TIP3   OH227166   1.365   7.970   4.859
 9070TIP3    H127167   1.444   7.999   4.906
 9070TIP3    H227168   1.299   7.960   4.927
 9071TIP3   OH227169   1.823   7.428   4.115
 9071TIP3    H127170   1.895   7.391   4.065
 9071TIP3    H227171   1.828   7.384   4.200
 9072TIP3   OH227172   1.345   6.912   3.996
 9072TIP3    H127173   1.308   6.838   4.044
 9072TIP3    H227174   1.386   6.874   3.920
 9073TIP3   OH227175   1.799   7.328   4.406
 9073TIP3    H127176   1.710   7.363   4.417
 9073TIP3    H227177   1.854   7.389   4.453
 9074TIP3   OH227178   1.537   7.699   3.511
 9074TIP3    H127179   1.462   7.642   3.493
 9074TIP3    H227180   1.514   7.745   3.591
 9075TIP3   OH227181   2.433   7.945   4.130
 9075TIP3    H127182   2.460   7.995   4.053
 9075TIP3    H227183   2.351   7.903   4.104
 9076TIP3   OH227184   1.993   7.024   3.367
 9076TIP3    H127185   1.899   7.006   3.373
 9076TIP3    H227186   2.000   7.117   3.390
 9077TIP3   OH227187   4.781   0.045   4.497
 9077TIP3    H127188   4.812  -0.007   4.570
 9077TIP3    H227189   4.695   0.078   4.525
 9078TIP3   OH227190   2.063   7.276   3.467
 9078TIP3    H127191   2.158   7.282   3.481
 9078TIP3    H227192   2.042   7.355   3.417
 9079TIP3   OH227193   1.209   7.689   4.160
 9079TIP3    H127194   1.256   7.682   4.077
 9079TIP3    H227195   1.269   7.652   4.225
 9080TIP3   OH227196   1.643   7.884   3.341
 9080TIP3    H127197   1.607   7.957   3.391
 9080TIP3    H227198   1.610   7.806   3.385
 9081TIP3   OH227199   1.115   7.647   4.791
 9081TIP3    H127200   1.127   7.634   4.885
 9081TIP3    H227201   1.042   7.588   4.768
 9082TIP3   OH227202   1.843   7.760   4.812
 9082TIP3    H127203   1.777   7.713   4.760
 9082TIP3    H227204   1.927   7.727   4.780
 9083TIP3   OH227205   2.501   7.371   3.298
 9083TIP3    H127206   2.443   7.323   3.240
 9083TIP3    H227207   2.502   7.460   3.263
 9084TIP3   OH227208   5.556   0.191   4.379
 9084TIP3    H127209   5.461   0.203   4.374
 9084TIP3    H227210   5.584   0.179   4.288
 9085TIP3   OH227211   2.200   7.816   4.032
 9085TIP3    H127212   2.109   7.794   4.054
 9085TIP3    H227213   2.235   7.735   3.994
 9086TIP3   OH227214   0.898   7.346   3.508
 9086TIP3    H127215   0.941   7.429   3.524
 9086TIP3    H227216   0.821   7.347   3.564
 9087TIP3   OH227217   1.462   7.820   3.747
 9087TIP3    H127218   1.418   7.900   3.775
 9087TIP3    H227219   1.438   7.756   3.814
 9088TIP3   OH227220   1.993   8.017   4.227
 9088TIP3    H127221   1.979   8.030   4.320
 9088TIP3    H227222   2.076   7.969   4.221
 9089TIP3   OH227223   1.993   7.841   3.082
 9089TIP3    H127224   2.026   7.833   3.171
 9089TIP3    H227225   1.917   7.898   3.089
 9090TIP3   OH227226   1.319   7.160   4.797
 9090TIP3    H127227   1.223   7.159   4.807
 9090TIP3    H227228   1.351   7.105   4.869
 9091TIP3   OH227229   2.122   7.819   3.328
 9091TIP3    H127230   2.115   7.751   3.394
 9091TIP3    H227231   2.216   7.824   3.309
 9092TIP3   OH227232   1.315   7.841   3.157
 9092TIP3    H127233   1.353   7.756   3.137
 9092TIP3    H227234   1.339   7.857   3.248
 9093TIP3   OH227235   1.015   7.590   3.582
 9093TIP3    H127236   0.950   7.621   3.645
 9093TIP3    H227237   1.020   7.659   3.516
 9094TIP3   OH227238   2.162   7.226   4.481
 9094TIP3    H127239   2.241   7.265   4.517
 9094TIP3    H227240   2.148   7.147   4.533
 9095TIP3   OH227241   2.041   6.976   3.647
 9095TIP3    H127242   2.027   6.995   3.554
 9095TIP3    H227243   2.079   7.056   3.683
 9096TIP3   OH227244   1.727   7.160   3.748
 9096TIP3    H127245   1.788   7.231   3.729
 9096TIP3    H227246   1.730   7.149   3.843
 9097TIP3   OH227247   1.997   7.475   4.552
 9097TIP3    H127248   2.021   7.527   4.628
 9097TIP3    H227249   2.048   7.394   4.560
 9098TIP3   OH227250   1.869   6.881   3.846
 9098TIP3    H127251   1.857   6.957   3.903
 9098TIP3    H227252   1.930   6.912   3.778
 9099TIP3   OH227253   1.385   6.887   3.638
 9099TIP3    H127254   1.378   6.976   3.673
 9099TIP3    H227255   1.478   6.867   3.643
 9100TIP3   OH227256   2.633   7.376   4.533
 9100TIP3    H127257   2.537   7.377   4.544
 9100TIP3    H227258   2.647   7.329   4.451
 9101TIP3   OH227259   2.287   7.569   3.923
 9101TIP3    H127260   2.210   7.513   3.934
 9101TIP3    H227261   2.357   7.524   3.970
 9102TIP3   OH227262   1.007   7.801   3.395
 9102TIP3    H127263   1.029   7.894   3.387
 9102TIP3    H227264   1.061   7.759   3.328
 9103TIP3   OH227265   0.941   7.076   3.523
 9103TIP3    H127266   0.948   7.171   3.526
 9103TIP3    H227267   0.854   7.059   3.486
 9104TIP3   OH227268   1.331   6.793   4.395
 9104TIP3    H127269   1.302   6.763   4.309
 9104TIP3    H227270   1.320   6.718   4.452
 9105TIP3   OH227271   1.158   7.936   5.034
 9105TIP3    H127272   1.181   7.844   5.044
 9105TIP3    H227273   1.070   7.935   4.995
 9106TIP3   OH227274   1.135   7.602   3.247
 9106TIP3    H127275   1.179   7.571   3.326
 9106TIP3    H227276   1.204   7.606   3.181
 9107TIP3   OH227277   1.784   8.024   4.854
 9107TIP3    H127278   1.750   8.042   4.766
 9107TIP3    H227279   1.818   7.935   4.848
 9108TIP3   OH227280   1.590   7.781   3.063
 9108TIP3    H127281   1.619   7.800   3.152
 9108TIP3    H227282   1.617   7.691   3.048
 9109TIP3   OH227283   5.089   0.035   4.429
 9109TIP3    H127284   5.155   0.092   4.389
 9109TIP3    H227285   5.008   0.087   4.428
 9110TIP3   OH227286   1.286   7.689   5.039
 9110TIP3    H127287   1.367   7.649   5.006
 9110TIP3    H227288   1.311   7.726   5.124
 9111TIP3   OH227289   1.336   7.515   3.463
 9111TIP3    H127290   1.306   7.476   3.546
 9111TIP3    H227291   1.375   7.442   3.415
 9112TIP3   OH227292   1.614   7.582   4.692
 9112TIP3    H127293   1.536   7.638   4.696
 9112TIP3    H227294   1.665   7.616   4.618
 9113TIP3   OH227295   1.448   7.311   3.306
 9113TIP3    H127296   1.420   7.315   3.214
 9113TIP3    H227297   1.544   7.315   3.301
 9114TIP3   OH227298   2.136   7.971   4.827
 9114TIP3    H127299   2.215   7.948   4.779
 9114TIP3    H227300   2.133   7.909   4.900
 9115TIP3   OH227301   2.269   7.648   2.964
 9115TIP3    H127302   2.243   7.596   2.888
 9115TIP3    H227303   2.248   7.738   2.939
 9116TIP3   OH227304   1.736   7.371   4.816
 9116TIP3    H127305   1.737   7.293   4.760
 9116TIP3    H227306   1.694   7.438   4.762
 9117TIP3   OH227307   1.738   7.157   4.627
 9117TIP3    H127308   1.768   7.199   4.546
 9117TIP3    H227309   1.647   7.135   4.610
 9118TIP3   OH227310   1.760   7.699   4.501
 9118TIP3    H127311   1.843   7.707   4.454
 9118TIP3    H227312   1.702   7.762   4.458
 9119TIP3   OH227313   2.348   7.658   4.879
 9119TIP3    H127314   2.396   7.576   4.888
 9119TIP3    H227315   2.412   7.720   4.846
 9120TIP3   OH227316   2.389   7.911   4.616
 9120TIP3    H127317   2.330   7.962   4.560
 9120TIP3    H227318   2.476   7.929   4.581
 9121TIP3   OH227319   1.615   7.476   5.052
 9121TIP3    H127320   1.547   7.410   5.068
 9121TIP3    H227321   1.648   7.455   4.965
 9122TIP3   OH227322   1.869   6.919   4.697
 9122TIP3    H127323   1.822   7.000   4.674
 9122TIP3    H227324   1.804   6.850   4.685
 9123TIP3   OH227325   1.994   7.420   4.913
 9123TIP3    H127326   1.984   7.408   5.007
 9123TIP3    H227327   1.909   7.398   4.876
 9124TIP3   OH227328   2.235   7.372   4.769
 9124TIP3    H127329   2.161   7.374   4.829
 9124TIP3    H227330   2.309   7.343   4.822
 9125TIP3   OH227331   2.466   7.314   4.917
 9125TIP3    H127332   2.478   7.220   4.930
 9125TIP3    H227333   2.462   7.351   5.005
 9126TIP3   OH227334   1.452   7.256   5.108
 9126TIP3    H127335   1.458   7.168   5.072
 9126TIP3    H227336   1.489   7.249   5.196
 9127TIP3   OH227337   1.963   6.926   4.955
 9127TIP3    H127338   2.029   6.858   4.951
 9127TIP3    H227339   1.922   6.925   4.868
 9128TIP3   OH227340   2.029   7.143   5.113
 9128TIP3    H127341   2.011   7.074   5.050
 9128TIP3    H227342   1.954   7.202   5.106
 9129TIP3   OH227343   0.745   7.705   3.430
 9129TIP3    H127344   0.824   7.750   3.401
 9129TIP3    H227345   0.736   7.631   3.369
 9130TIP3   OH227346   5.452   0.319   4.664
 9130TIP3    H127347   5.376   0.301   4.719
 9130TIP3    H227348   5.487   0.401   4.697
 9131TIP3   OH227349   2.397   7.819   3.313
 9131TIP3    H127350   2.461   7.881   3.277
 9131TIP3    H227351   2.442   7.781   3.389
 9132TIP3   OH227352   2.532   7.693   3.515
 9132TIP3    H127353   2.465   7.650   3.568
 9132TIP3    H227354   2.591   7.732   3.579
 9133TIP3   OH227355   5.404   0.070   3.942
 9133TIP3    H127356   5.464   0.013   3.894
 9133TIP3    H227357   5.399   0.150   3.889
 9134TIP3   OH227358   2.462   7.605   3.151
 9134TIP3    H127359   2.397   7.605   3.081
 9134TIP3    H227360   2.436   7.677   3.208
 9135TIP3   OH227361   2.340   7.273   3.106
 9135TIP3    H127362   2.292   7.315   3.034
 9135TIP3    H227363   2.317   7.180   3.098
 9136TIP3   OH227364   2.345   7.551   3.657
 9136TIP3    H127365   2.351   7.456   3.644
 9136TIP3    H227366   2.330   7.561   3.751
 9137TIP3   OH227367   0.969   7.624   4.403
 9137TIP3    H127368   0.961   7.591   4.314
 9137TIP3    H227369   1.064   7.628   4.419
 9138TIP3   OH227370   2.633   7.974   4.513
 9138TIP3    H127371   2.703   7.910   4.502
 9138TIP3    H227372   2.656   8.044   4.453
 9139TIP3   OH227373   2.818   7.775   4.522
 9139TIP3    H127374   2.742   7.732   4.560
 9139TIP3    H227375   2.891   7.715   4.537
 9140TIP3   OH227376   2.281   7.008   3.091
 9140TIP3    H127377   2.353   6.977   3.146
 9140TIP3    H227378   2.208   6.950   3.111
 9141TIP3   OH227379   2.344   7.269   3.544
 9141TIP3    H127380   2.380   7.182   3.562
 9141TIP3    H227381   2.398   7.303   3.473
 9142TIP3   OH227382   2.501   7.441   4.044
 9142TIP3    H127383   2.583   7.462   4.000
 9142TIP3    H227384   2.512   7.476   4.133
 9143TIP3   OH227385   2.571   7.588   4.273
 9143TIP3    H127386   2.495   7.619   4.322
 9143TIP3    H227387   2.605   7.666   4.229
 9144TIP3   OH227388   1.185   7.301   5.068
 9144TIP3    H127389   1.281   7.303   5.075
 9144TIP3    H227390   1.160   7.217   5.106
 9145TIP3   OH227391   3.021   7.179   4.826
 9145TIP3    H127392   3.082   7.115   4.789
 9145TIP3    H227393   2.991   7.231   4.752
 9146TIP3   OH227394   2.448   7.018   3.587
 9146TIP3    H127395   2.496   7.004   3.668
 9146TIP3    H227396   2.387   6.944   3.583
 9147TIP3   OH227397   1.151   7.005   4.413
 9147TIP3    H127398   1.210   6.930   4.416
 9147TIP3    H227399   1.210   7.080   4.399
 9148TIP3   OH227400   0.953   7.276   4.480
 9148TIP3    H127401   0.997   7.270   4.395
 9148TIP3    H227402   0.973   7.365   4.510
 9149TIP3   OH227403   2.887   7.314   4.630
 9149TIP3    H127404   2.805   7.359   4.650
 9149TIP3    H227405   2.861   7.240   4.575
 9150TIP3   OH227406   2.528   6.950   3.219
 9150TIP3    H127407   2.565   6.881   3.165
 9150TIP3    H227408   2.592   7.020   3.216
 9151TIP3   OH227409   0.933   6.780   3.976
 9151TIP3    H127410   0.843   6.774   4.007
 9151TIP3    H227411   0.929   6.839   3.901
 9152TIP3   OH227412   1.155   6.858   4.788
 9152TIP3    H127413   1.107   6.859   4.871
 9152TIP3    H227414   1.094   6.897   4.725
 9153TIP3   OH227415   2.790   7.075   4.514
 9153TIP3    H127416   2.701   7.067   4.479
 9153TIP3    H227417   2.826   6.986   4.507
 9154TIP3   OH227418   1.998   6.993   4.137
 9154TIP3    H127419   1.954   6.923   4.186
 9154TIP3    H227420   2.070   6.949   4.091
 9155TIP3   OH227421   2.515   6.876   4.037
 9155TIP3    H127422   2.552   6.925   3.964
 9155TIP3    H227423   2.421   6.893   4.032
 9156TIP3   OH227424   2.615   6.974   3.801
 9156TIP3    H127425   2.685   6.920   3.765
 9156TIP3    H227426   2.645   7.064   3.788
 9157TIP3   OH227427   1.243   6.700   4.149
 9157TIP3    H127428   1.151   6.673   4.151
 9157TIP3    H227429   1.291   6.617   4.144
 9158TIP3   OH227430   1.038   6.576   3.801
 9158TIP3    H127431   1.063   6.630   3.726
 9158TIP3    H227432   1.006   6.638   3.866
 9159TIP3   OH227433   1.694   6.732   4.032
 9159TIP3    H127434   1.746   6.779   3.966
 9159TIP3    H227435   1.716   6.774   4.115
 9160TIP3   OH227436   2.231   6.880   4.013
 9160TIP3    H127437   2.235   6.842   3.925
 9160TIP3    H227438   2.220   6.804   4.071
 9161TIP3   OH227439   2.263   6.806   3.578
 9161TIP3    H127440   2.180   6.852   3.593
 9161TIP3    H227441   2.251   6.721   3.621
 9162TIP3   OH227442   1.153   6.729   3.561
 9162TIP3    H127443   1.198   6.668   3.502
 9162TIP3    H227444   1.222   6.784   3.596
 9163TIP3   OH227445   1.662   6.911   3.661
 9163TIP3    H127446   1.720   6.861   3.718
 9163TIP3    H227447   1.680   7.002   3.683
 9164TIP3   OH227448   1.454   6.980   5.039
 9164TIP3    H127449   1.412   6.915   5.096
 9164TIP3    H227450   1.545   6.981   5.066
 9165TIP3   OH227451   1.703   6.979   5.159
 9165TIP3    H127452   1.787   6.960   5.117
 9165TIP3    H227453   1.692   6.909   5.224
 9166TIP3   OH227454   2.531   7.043   4.947
 9166TIP3    H127455   2.546   7.013   5.037
 9166TIP3    H227456   2.617   7.039   4.905
 9167TIP3   OH227457   3.730   7.953   3.210
 9167TIP3    H127458   3.695   8.039   3.189
 9167TIP3    H227459   3.665   7.892   3.177
 9168TIP3   OH227460   3.730   7.966   3.591
 9168TIP3    H127461   3.767   7.945   3.677
 9168TIP3    H227462   3.693   7.883   3.560
 9169TIP3   OH227463   3.030   7.863   3.948
 9169TIP3    H127464   3.048   7.793   4.011
 9169TIP3    H227465   3.114   7.909   3.939
 9170TIP3   OH227466   6.783   0.256   3.280
 9170TIP3    H127467   6.782   0.184   3.343
 9170TIP3    H227468   6.842   0.321   3.319
 9171TIP3   OH227469   2.706   7.476   3.456
 9171TIP3    H127470   2.659   7.557   3.475
 9171TIP3    H227471   2.641   7.419   3.415
 9172TIP3   OH227472   2.776   7.762   3.638
 9172TIP3    H127473   2.819   7.685   3.674
 9172TIP3    H227474   2.814   7.774   3.552
 9173TIP3   OH227475   6.375   0.166   3.633
 9173TIP3    H127476   6.421   0.089   3.599
 9173TIP3    H227477   6.445   0.226   3.659
 9174TIP3   OH227478   4.546   7.515   3.632
 9174TIP3    H127479   4.575   7.595   3.675
 9174TIP3    H227480   4.570   7.527   3.540
 9175TIP3   OH227481   3.942   7.692   3.663
 9175TIP3    H127482   3.985   7.610   3.687
 9175TIP3    H227483   3.909   7.676   3.574
 9176TIP3   OH227484   3.281   7.354   3.628
 9176TIP3    H127485   3.264   7.427   3.568
 9176TIP3    H227486   3.236   7.279   3.588
 9177TIP3   OH227487   3.980   7.447   3.250
 9177TIP3    H127488   4.045   7.431   3.318
 9177TIP3    H227489   4.031   7.480   3.176
 9178TIP3   OH227490   2.916   7.552   3.738
 9178TIP3    H127491   2.996   7.536   3.788
 9178TIP3    H227492   2.926   7.499   3.659
 9179TIP3   OH227493   3.352   7.753   3.535
 9179TIP3    H127494   3.445   7.732   3.546
 9179TIP3    H227495   3.313   7.671   3.503
 9180TIP3   OH227496   4.618   7.723   3.804
 9180TIP3    H127497   4.534   7.766   3.783
 9180TIP3    H227498   4.639   7.754   3.892
 9181TIP3   OH227499   3.275   7.339   4.066
 9181TIP3    H127500   3.218   7.374   3.997
 9181TIP3    H227501   3.226   7.354   4.147
 9182TIP3   OH227502   6.440   0.144   3.075
 9182TIP3    H127503   6.403   0.142   2.987
 9182TIP3    H227504   6.478   0.231   3.083
 9183TIP3   OH227505   6.215   0.106   3.853
 9183TIP3    H127506   6.157   0.174   3.886
 9183TIP3    H227507   6.260   0.145   3.779
 9184TIP3   OH227508   4.182   7.453   3.430
 9184TIP3    H127509   4.171   7.403   3.512
 9184TIP3    H227510   4.234   7.529   3.455
 9185TIP3   OH227511   3.152   7.454   3.848
 9185TIP3    H127512   3.211   7.524   3.875
 9185TIP3    H227513   3.197   7.411   3.774
 9186TIP3   OH227514   6.041   0.314   3.955
 9186TIP3    H127515   6.009   0.361   3.878
 9186TIP3    H227516   5.965   0.308   4.013
 9187TIP3   OH227517   2.601   7.966   3.199
 9187TIP3    H127518   2.569   7.960   3.109
 9187TIP3    H227519   2.617   8.060   3.212
 9188TIP3   OH227520   4.338   7.413   3.797
 9188TIP3    H127521   4.252   7.440   3.765
 9188TIP3    H227522   4.399   7.445   3.730
 9189TIP3   OH227523   3.626   7.051   3.781
 9189TIP3    H127524   3.616   6.958   3.799
 9189TIP3    H227525   3.553   7.092   3.827
 9190TIP3   OH227526   6.817   0.266   2.997
 9190TIP3    H127527   6.790   0.188   2.951
 9190TIP3    H227528   6.827   0.238   3.088
 9191TIP3   OH227529   7.095   0.409   3.779
 9191TIP3    H127530   7.084   0.332   3.724
 9191TIP3    H227531   7.127   0.477   3.720
 9192TIP3   OH227532   3.565   7.814   3.040
 9192TIP3    H127533   3.486   7.864   3.025
 9192TIP3    H227534   3.609   7.812   2.955
 9193TIP3   OH227535   3.523   7.604   2.752
 9193TIP3    H127536   3.586   7.658   2.800
 9193TIP3    H227537   3.577   7.540   2.704
 9194TIP3   OH227538   7.299   0.050   3.622
 9194TIP3    H127539   7.217   0.098   3.631
 9194TIP3    H227540   7.332   0.073   3.536
 9195TIP3   OH227541   3.913   7.893   3.016
 9195TIP3    H127542   3.857   7.914   3.091
 9195TIP3    H227543   3.997   7.869   3.054
 9196TIP3   OH227544   4.142   7.941   3.925
 9196TIP3    H127545   4.144   8.022   3.976
 9196TIP3    H227546   4.058   7.944   3.878
 9197TIP3   OH227547   3.146   7.901   3.423
 9197TIP3    H127548   3.101   7.845   3.360
 9197TIP3    H227549   3.219   7.848   3.455
 9198TIP3   OH227550   6.094   0.271   3.596
 9198TIP3    H127551   6.134   0.205   3.540
 9198TIP3    H227552   6.167   0.324   3.627
 9199TIP3   OH227553   3.274   7.876   3.777
 9199TIP3    H127554   3.308   7.846   3.693
 9199TIP3    H227555   3.320   7.958   3.794
 9200TIP3   OH227556   6.283   0.312   4.103
 9200TIP3    H127557   6.254   0.401   4.126
 9200TIP3    H227558   6.212   0.277   4.050
 9201TIP3   OH227559   3.749   7.760   2.834
 9201TIP3    H127560   3.805   7.818   2.885
 9201TIP3    H227561   3.777   7.772   2.744
 9202TIP3   OH227562   3.170   7.984   4.207
 9202TIP3    H127563   3.178   8.071   4.247
 9202TIP3    H227564   3.079   7.960   4.221
 9203TIP3   OH227565   4.265   7.001   2.883
 9203TIP3    H127566   4.185   7.019   2.933
 9203TIP3    H227567   4.280   7.082   2.833
 9204TIP3   OH227568   3.003   7.746   3.240
 9204TIP3    H127569   2.943   7.787   3.178
 9204TIP3    H227570   2.977   7.654   3.242
 9205TIP3   OH227571   5.641   0.111   4.134
 9205TIP3    H127572   5.564   0.093   4.080
 9205TIP3    H227573   5.671   0.024   4.162
 9206TIP3   OH227574   4.396   7.897   4.101
 9206TIP3    H127575   4.314   7.910   4.053
 9206TIP3    H227576   4.415   7.804   4.093
 9207TIP3   OH227577   5.831   0.310   4.134
 9207TIP3    H127578   5.884   0.277   4.206
 9207TIP3    H227579   5.758   0.247   4.128
 9208TIP3   OH227580   3.390   7.133   3.913
 9208TIP3    H127581   3.306   7.099   3.881
 9208TIP3    H227582   3.368   7.212   3.961
 9209TIP3   OH227583   3.929   7.246   4.107
 9209TIP3    H127584   3.999   7.217   4.166
 9209TIP3    H227585   3.848   7.226   4.153
 9210TIP3   OH227586   4.161   7.676   4.023
 9210TIP3    H127587   4.114   7.673   4.106
 9210TIP3    H227588   4.142   7.763   3.987
 9211TIP3   OH227589   3.832   7.785   2.579
 9211TIP3    H127590   3.795   7.765   2.493
 9211TIP3    H227591   3.869   7.873   2.569
 9212TIP3   OH227592   3.537   7.177   2.884
 9212TIP3    H127593   3.504   7.177   2.974
 9212TIP3    H227594   3.500   7.098   2.844
 9213TIP3   OH227595   3.323   7.654   3.927
 9213TIP3    H127596   3.276   7.671   4.009
 9213TIP3    H227597   3.308   7.732   3.874
 9214TIP3   OH227598   3.206   7.534   3.441
 9214TIP3    H127599   3.117   7.509   3.463
 9214TIP3    H227600   3.222   7.496   3.355
 9215TIP3   OH227601   3.702   7.617   3.171
 9215TIP3    H127602   3.650   7.684   3.128
 9215TIP3    H227603   3.758   7.581   3.102
 9216TIP3   OH227604   3.879   7.891   4.255
 9216TIP3    H127605   3.855   7.821   4.315
 9216TIP3    H227606   3.971   7.909   4.275
 9217TIP3   OH227607   3.855   7.644   3.404
 9217TIP3    H127608   3.792   7.674   3.339
 9217TIP3    H227609   3.894   7.565   3.366
 9218TIP3   OH227610   3.141   7.676   4.136
 9218TIP3    H127611   3.176   7.739   4.199
 9218TIP3    H227612   3.132   7.594   4.185
 9219TIP3   OH227613   3.193   7.156   2.848
 9219TIP3    H127614   3.185   7.153   2.943
 9219TIP3    H227615   3.118   7.208   2.819
 9220TIP3   OH227616   2.739   7.196   3.719
 9220TIP3    H127617   2.813   7.228   3.771
 9220TIP3    H227618   2.778   7.165   3.638
 9221TIP3   OH227619   2.703   7.181   3.236
 9221TIP3    H127620   2.750   7.211   3.159
 9221TIP3    H227621   2.641   7.251   3.257
 9222TIP3   OH227622   3.863   7.888   3.829
 9222TIP3    H127623   3.898   7.822   3.770
 9222TIP3    H227624   3.835   7.838   3.906
 9223TIP3   OH227625   3.541   7.358   3.505
 9223TIP3    H127626   3.461   7.355   3.558
 9223TIP3    H227627   3.612   7.347   3.568
 9224TIP3   OH227628   2.969   7.411   3.510
 9224TIP3    H127629   2.878   7.419   3.481
 9224TIP3    H227630   2.994   7.321   3.488
 9225TIP3   OH227631   3.236   7.409   3.201
 9225TIP3    H127632   3.329   7.421   3.181
 9225TIP3    H227633   3.191   7.429   3.118
 9226TIP3   OH227634   4.026   7.433   3.708
 9226TIP3    H127635   3.997   7.446   3.798
 9226TIP3    H227636   3.963   7.371   3.671
 9227TIP3   OH227637   3.085   7.445   2.976
 9227TIP3    H127638   3.015   7.398   2.930
 9227TIP3    H227639   3.139   7.481   2.905
 9228TIP3   OH227640   5.993   0.219   4.346
 9228TIP3    H127641   6.072   0.243   4.393
 9228TIP3    H227642   5.927   0.205   4.414
 9229TIP3   OH227643   3.618   7.687   3.601
 9229TIP3    H127644   3.690   7.648   3.550
 9229TIP3    H227645   3.622   7.643   3.686
 9230TIP3   OH227646   3.138   7.170   3.483
 9230TIP3    H127647   3.102   7.096   3.533
 9230TIP3    H227648   3.187   7.129   3.412
 9231TIP3   OH227649   3.594   7.586   3.890
 9231TIP3    H127650   3.506   7.621   3.904
 9231TIP3    H227651   3.651   7.644   3.940
 9232TIP3   OH227652   3.333   7.953   2.990
 9232TIP3    H127653   3.259   7.894   2.973
 9232TIP3    H227654   3.312   7.995   3.073
 9233TIP3   OH227655   7.065   0.190   3.613
 9233TIP3    H127656   7.093   0.239   3.536
 9233TIP3    H227657   6.983   0.148   3.586
 9234TIP3   OH227658   3.788   7.283   2.851
 9234TIP3    H127659   3.695   7.262   2.861
 9234TIP3    H227660   3.794   7.375   2.878
 9235TIP3   OH227661   6.574   0.297   3.984
 9235TIP3    H127662   6.610   0.247   4.057
 9235TIP3    H227663   6.496   0.340   4.020
 9236TIP3   OH227664   3.860   7.533   2.955
 9236TIP3    H127665   3.954   7.538   2.971
 9236TIP3    H227666   3.840   7.612   2.905
 9237TIP3   OH227667   3.018   8.007   3.643
 9237TIP3    H127668   3.060   7.962   3.570
 9237TIP3    H227669   3.039   7.954   3.719
 9238TIP3   OH227670   6.276   0.131   2.831
 9238TIP3    H127671   6.234   0.202   2.881
 9238TIP3    H227672   6.243   0.051   2.872
 9239TIP3   OH227673   2.909   7.906   4.278
 9239TIP3    H127674   2.925   7.892   4.371
 9239TIP3    H227675   2.838   7.845   4.256
 9240TIP3   OH227676   3.640   8.016   4.298
 9240TIP3    H127677   3.576   7.966   4.246
 9240TIP3    H227678   3.725   7.984   4.268
 9241TIP3   OH227679   4.294   7.627   2.786
 9241TIP3    H127680   4.239   7.579   2.723
 9241TIP3    H227681   4.296   7.716   2.752
 9242TIP3   OH227682   7.351   0.446   3.869
 9242TIP3    H127683   7.257   0.462   3.863
 9242TIP3    H227684   7.378   0.432   3.778
 9243TIP3   OH227685   6.828   0.061   3.517
 9243TIP3    H127686   6.738   0.038   3.540
 9243TIP3    H227687   6.864  -0.021   3.481
 9244TIP3   OH227688   2.693   7.602   2.996
 9244TIP3    H127689   2.737   7.686   3.010
 9244TIP3    H227690   2.614   7.606   3.050
 9245TIP3   OH227691   6.094   0.049   3.226
 9245TIP3    H127692   6.084   0.140   3.254
 9245TIP3    H227693   6.068  -0.002   3.303
 9246TIP3   OH227694   6.615   0.257   3.714
 9246TIP3    H127695   6.605   0.270   3.808
 9246TIP3    H227696   6.702   0.218   3.704
 9247TIP3   OH227697   6.624   0.078   2.571
 9247TIP3    H127698   6.658   0.076   2.660
 9247TIP3    H227699   6.549   0.138   2.575
 9248TIP3   OH227700   3.114   7.419   4.281
 9248TIP3    H127701   3.018   7.422   4.291
 9248TIP3    H227702   3.144   7.363   4.353
 9249TIP3   OH227703   6.752   0.063   2.817
 9249TIP3    H127704   6.746  -0.006   2.883
 9249TIP3    H227705   6.845   0.068   2.795
 9250TIP3   OH227706   5.942   0.082   2.646
 9250TIP3    H127707   5.980  -0.002   2.621
 9250TIP3    H227708   5.976   0.098   2.734
 9251TIP3   OH227709   2.811   7.847   3.070
 9251TIP3    H127710   2.744   7.879   3.130
 9251TIP3    H227711   2.816   7.914   3.001
 9252TIP3   OH227712   3.955   7.484   3.969
 9252TIP3    H127713   4.036   7.523   4.003
 9252TIP3    H227714   3.943   7.405   4.021
 9253TIP3   OH227715   3.836   7.234   3.133
 9253TIP3    H127716   3.823   7.252   3.041
 9253TIP3    H227717   3.875   7.314   3.169
 9254TIP3   OH227718   3.520   7.419   3.236
 9254TIP3    H127719   3.584   7.488   3.216
 9254TIP3    H227720   3.526   7.406   3.330
 9255TIP3   OH227721   3.794   7.731   4.039
 9255TIP3    H127722   3.820   7.781   4.116
 9255TIP3    H227723   3.846   7.650   4.045
 9256TIP3   OH227724   3.666   7.138   3.331
 9256TIP3    H127725   3.661   7.211   3.393
 9256TIP3    H227726   3.726   7.168   3.263
 9257TIP3   OH227727   3.180   7.143   3.124
 9257TIP3    H127728   3.174   7.231   3.162
 9257TIP3    H227729   3.273   7.121   3.129
 9258TIP3   OH227730   4.428   7.632   4.022
 9258TIP3    H127731   4.333   7.632   4.029
 9258TIP3    H227732   4.446   7.589   3.938
 9259TIP3   OH227733   4.082   7.826   3.412
 9259TIP3    H127734   4.007   7.768   3.423
 9259TIP3    H227735   4.154   7.782   3.457
 9260TIP3   OH227736   5.640   0.046   2.884
 9260TIP3    H127737   5.660   0.139   2.867
 9260TIP3    H227738   5.691  -0.001   2.817
 9261TIP3   OH227739   2.736   7.332   3.013
 9261TIP3    H127740   2.741   7.427   3.014
 9261TIP3    H227741   2.659   7.312   2.961
 9262TIP3   OH227742   3.126   7.050   3.882
 9262TIP3    H127743   3.098   7.018   3.797
 9262TIP3    H227744   3.117   6.975   3.941
 9263TIP3   OH227745   5.788   0.183   4.522
 9263TIP3    H127746   5.811   0.091   4.531
 9263TIP3    H227747   5.700   0.182   4.483
 9264TIP3   OH227748   2.930   7.859   2.736
 9264TIP3    H127749   2.976   7.825   2.813
 9264TIP3    H227750   2.997   7.864   2.668
 9265TIP3   OH227751   6.410   0.265   4.338
 9265TIP3    H127752   6.375   0.280   4.251
 9265TIP3    H227753   6.447   0.177   4.334
 9266TIP3   OH227754   6.215   0.024   2.554
 9266TIP3    H127755   6.252   0.043   2.640
 9266TIP3    H227756   6.245  -0.065   2.534
 9267TIP3   OH227757   6.883   0.296   3.914
 9267TIP3    H127758   6.956   0.343   3.873
 9267TIP3    H227759   6.809   0.356   3.909
 9268TIP3   OH227760   3.082   7.950   4.523
 9268TIP3    H127761   3.158   7.899   4.494
 9268TIP3    H227762   3.108   7.984   4.608
 9269TIP3   OH227763   3.132   7.768   2.949
 9269TIP3    H127764   3.106   7.722   3.029
 9269TIP3    H227765   3.174   7.700   2.895
 9270TIP3   OH227766   3.406   7.837   4.177
 9270TIP3    H127767   3.331   7.896   4.179
 9270TIP3    H227768   3.460   7.870   4.105
 9271TIP3   OH227769   3.245   7.570   2.792
 9271TIP3    H127770   3.217   7.572   2.700
 9271TIP3    H227771   3.340   7.571   2.787
 9272TIP3   OH227772   6.766   0.216   4.312
 9272TIP3    H127773   6.847   0.195   4.266
 9272TIP3    H227774   6.764   0.154   4.385
 9273TIP3   OH227775   4.076   7.906   2.443
 9273TIP3    H127776   4.038   7.854   2.373
 9273TIP3    H227777   4.050   7.996   2.423
 9274TIP3   OH227778   3.531   7.628   4.304
 9274TIP3    H127779   3.534   7.549   4.250
 9274TIP3    H227780   3.489   7.694   4.249
 9275TIP3   OH227781   3.534   7.416   4.114
 9275TIP3    H127782   3.564   7.455   4.032
 9275TIP3    H227783   3.443   7.392   4.097
 9276TIP3   OH227784   3.557   7.951   3.988
 9276TIP3    H127785   3.642   7.956   3.944
 9276TIP3    H227786   3.503   8.016   3.942
 9277TIP3   OH227787   4.144   7.915   4.366
 9277TIP3    H127788   4.191   7.832   4.375
 9277TIP3    H227789   4.209   7.977   4.334
 9278TIP3   OH227790   7.017   0.154   4.101
 9278TIP3    H127791   6.959   0.205   4.045
 9278TIP3    H227792   7.105   0.172   4.067
 9279TIP3   OH227793   3.409   7.733   4.539
 9279TIP3    H127794   3.344   7.665   4.556
 9279TIP3    H227795   3.444   7.712   4.453
 9280TIP3   OH227796   3.665   7.176   4.183
 9280TIP3    H127797   3.617   7.256   4.161
 9280TIP3    H227798   3.601   7.106   4.173
 9281TIP3   OH227799   3.790   7.677   4.400
 9281TIP3    H127800   3.782   7.662   4.494
 9281TIP3    H227801   3.704   7.655   4.365
 9282TIP3   OH227802   4.032   7.631   4.256
 9282TIP3    H127803   3.958   7.630   4.317
 9282TIP3    H227804   4.107   7.601   4.308
 9283TIP3   OH227805   4.260   7.570   4.403
 9283TIP3    H127806   4.274   7.477   4.417
 9283TIP3    H227807   4.257   7.607   4.492
 9284TIP3   OH227808   3.251   7.512   4.595
 9284TIP3    H127809   3.252   7.423   4.560
 9284TIP3    H227810   3.289   7.503   4.683
 9285TIP3   OH227811   3.760   7.184   4.441
 9285TIP3    H127812   3.826   7.116   4.439
 9285TIP3    H227813   3.720   7.182   4.354
 9286TIP3   OH227814   3.826   7.400   4.599
 9286TIP3    H127815   3.808   7.330   4.537
 9286TIP3    H227816   3.750   7.458   4.593
 9287TIP3   OH227817   2.546   7.955   2.934
 9287TIP3    H127818   2.616   8.007   2.895
 9287TIP3    H227819   2.526   7.888   2.869
 9288TIP3   OH227820   7.244   0.579   4.147
 9288TIP3    H127821   7.170   0.561   4.206
 9288TIP3    H227822   7.290   0.651   4.188
 9289TIP3   OH227823   7.025   0.062   2.798
 9289TIP3    H127824   7.090   0.121   2.760
 9289TIP3    H227825   7.069   0.024   2.874
 9290TIP3   OH227826   4.324   7.948   2.997
 9290TIP3    H127827   4.263   7.908   3.058
 9290TIP3    H227828   4.395   7.982   3.052
 9291TIP3   OH227829   7.199   0.325   3.420
 9291TIP3    H127830   7.262   0.267   3.377
 9291TIP3    H227831   7.205   0.407   3.371
 9292TIP3   OH227832   4.258   7.860   2.641
 9292TIP3    H127833   4.194   7.863   2.570
 9292TIP3    H227834   4.234   7.933   2.698
 9293TIP3   OH227835   4.141   7.528   2.582
 9293TIP3    H127836   4.073   7.571   2.530
 9293TIP3    H227837   4.118   7.435   2.580
 9294TIP3   OH227838   4.138   7.807   3.145
 9294TIP3    H127839   4.149   7.713   3.133
 9294TIP3    H227840   4.125   7.819   3.239
 9295TIP3   OH227841   2.766   7.891   3.884
 9295TIP3    H127842   2.762   7.851   3.797
 9295TIP3    H227843   2.859   7.889   3.907
 9296TIP3   OH227844   7.262   0.216   3.999
 9296TIP3    H127845   7.332   0.152   3.988
 9296TIP3    H227846   7.287   0.288   3.941
 9297TIP3   OH227847   4.612   8.031   4.010
 9297TIP3    H127848   4.537   7.986   4.049
 9297TIP3    H227849   4.686   7.973   4.025
 9298TIP3   OH227850   4.077   7.263   2.572
 9298TIP3    H127851   4.148   7.235   2.629
 9298TIP3    H227852   4.003   7.208   2.597
 9299TIP3   OH227853   4.139   7.524   3.030
 9299TIP3    H127854   4.175   7.437   3.047
 9299TIP3    H227855   4.195   7.560   2.961
 9300TIP3   OH227856   4.298   7.699   3.530
 9300TIP3    H127857   4.380   7.720   3.486
 9300TIP3    H227858   4.309   7.732   3.619
 9301TIP3   OH227859   4.367   7.844   3.759
 9301TIP3    H127860   4.292   7.876   3.809
 9301TIP3    H227861   4.402   7.922   3.715
 9302TIP3   OH227862   2.986   7.565   4.565
 9302TIP3    H127863   3.082   7.561   4.565
 9302TIP3    H227864   2.959   7.481   4.601
 9303TIP3   OH227865   4.819   7.436   4.313
 9303TIP3    H127866   4.878   7.372   4.275
 9303TIP3    H227867   4.787   7.487   4.239
 9304TIP3   OH227868   4.244   7.274   3.074
 9304TIP3    H127869   4.293   7.261   3.154
 9304TIP3    H227870   4.183   7.200   3.070
 9305TIP3   OH227871   2.946   7.262   3.894
 9305TIP3    H127872   3.003   7.185   3.901
 9305TIP3    H227873   3.007   7.335   3.884
 9306TIP3   OH227874   2.744   7.534   3.962
 9306TIP3    H127875   2.793   7.527   3.880
 9306TIP3    H227876   2.780   7.611   4.005
 9307TIP3   OH227877   4.683   7.569   4.118
 9307TIP3    H127878   4.601   7.615   4.139
 9307TIP3    H227879   4.656   7.497   4.062
 9308TIP3   OH227880   4.322   7.209   2.703
 9308TIP3    H127881   4.361   7.138   2.652
 9308TIP3    H227882   4.389   7.277   2.704
 9309TIP3   OH227883   2.730   7.040   3.466
 9309TIP3    H127884   2.639   7.032   3.494
 9309TIP3    H227885   2.726   7.096   3.389
 9310TIP3   OH227886   2.950   7.121   4.281
 9310TIP3    H127887   2.900   7.112   4.363
 9310TIP3    H227888   2.886   7.155   4.218
 9311TIP3   OH227889   4.586   7.331   4.000
 9311TIP3    H127890   4.497   7.323   3.966
 9311TIP3    H227891   4.623   7.242   3.992
 9312TIP3   OH227892   3.789   7.247   3.618
 9312TIP3    H127893   3.749   7.178   3.671
 9312TIP3    H227894   3.864   7.205   3.577
 9313TIP3   OH227895   4.311   7.134   3.524
 9313TIP3    H127896   4.348   7.182   3.450
 9313TIP3    H227897   4.217   7.150   3.518
 9314TIP3   OH227898   4.411   7.230   3.287
 9314TIP3    H127899   4.481   7.176   3.251
 9314TIP3    H227900   4.441   7.320   3.275
 9315TIP3   OH227901   3.039   6.955   3.635
 9315TIP3    H127902   2.947   6.927   3.639
 9315TIP3    H227903   3.089   6.873   3.632
 9316TIP3   OH227904   2.828   6.832   3.286
 9316TIP3    H127905   2.859   6.885   3.212
 9316TIP3    H227906   2.803   6.896   3.352
 9317TIP3   OH227907   3.487   6.993   3.519
 9317TIP3    H127908   3.541   7.037   3.454
 9317TIP3    H227909   3.517   7.028   3.603
 9318TIP3   OH227910   4.026   7.136   3.500
 9318TIP3    H127911   4.032   7.097   3.413
 9318TIP3    H227912   4.016   7.061   3.559
 9319TIP3   OH227913   4.059   7.062   3.065
 9319TIP3    H127914   3.975   7.105   3.079
 9319TIP3    H227915   4.050   6.977   3.108
 9320TIP3   OH227916   2.949   6.986   3.047
 9320TIP3    H127917   2.993   6.923   2.989
 9320TIP3    H227918   3.020   7.040   3.082
 9321TIP3   OH227919   3.457   7.168   3.148
 9321TIP3    H127920   3.514   7.116   3.204
 9321TIP3    H227921   3.477   7.259   3.171
 9322TIP3   OH227922   3.249   7.240   4.531
 9322TIP3    H127923   3.211   7.169   4.583
 9322TIP3    H227924   3.342   7.240   4.555
 9323TIP3   OH227925   3.500   7.236   4.647
 9323TIP3    H127926   3.583   7.214   4.605
 9323TIP3    H227927   3.486   7.168   4.713
 9324TIP3   OH227928   4.327   7.300   4.434
 9324TIP3    H127929   4.342   7.269   4.523
 9324TIP3    H227930   4.414   7.295   4.393
 9325TIP3   OH227931   8.359   0.194   2.700
 9325TIP3    H127932   8.326   0.281   2.677
 9325TIP3    H227933   8.294   0.133   2.666
 9326TIP3   OH227934   8.364   0.210   3.076
 9326TIP3    H127935   8.397   0.185   3.162
 9326TIP3    H227936   8.323   0.130   3.042
 9327TIP3   OH227937   7.658   0.104   3.443
 9327TIP3    H127938   7.688   0.036   3.503
 9327TIP3    H227939   7.733   0.161   3.431
 9328TIP3   OH227940   0.079   0.511   2.767
 9328TIP3    H127941   0.078   0.437   2.827
 9328TIP3    H227942   0.135   0.576   2.809
 9329TIP3   OH227943   7.695   0.445   3.249
 9329TIP3    H127944   7.659   0.365   3.212
 9329TIP3    H227945   7.773   0.463   3.196
 9330TIP3   OH227946   4.504   7.725   2.942
 9330TIP3    H127947   4.466   7.811   2.963
 9330TIP3    H227948   4.432   7.677   2.901
 9331TIP3   OH227949   4.561   8.016   3.123
 9331TIP3    H127950   4.609   7.939   3.154
 9331TIP3    H227951   4.629   8.074   3.088
 9332TIP3   OH227952   8.180   0.425   3.117
 9332TIP3    H127953   8.224   0.348   3.082
 9332TIP3    H227954   8.251   0.483   3.145
 9333TIP3   OH227955   6.341   7.770   3.118
 9333TIP3    H127956   6.371   7.852   3.157
 9333TIP3    H227957   6.367   7.776   3.026
 9334TIP3   OH227958   5.736   7.947   3.151
 9334TIP3    H127959   5.782   7.866   3.174
 9334TIP3    H227960   5.707   7.933   3.061
 9335TIP3   OH227961   5.078   7.610   3.115
 9335TIP3    H127962   5.061   7.684   3.056
 9335TIP3    H227963   5.031   7.536   3.075
 9336TIP3   OH227964   5.779   7.705   2.736
 9336TIP3    H127965   5.845   7.688   2.803
 9336TIP3    H227966   5.829   7.734   2.660
 9337TIP3   OH227967   4.712   7.810   3.225
 9337TIP3    H127968   4.792   7.795   3.275
 9337TIP3    H227969   4.723   7.759   3.146
 9338TIP3   OH227970   5.150   8.007   3.024
 9338TIP3    H127971   5.243   7.987   3.033
 9338TIP3    H227972   5.111   7.926   2.990
 9339TIP3   OH227973   6.414   7.981   3.291
 9339TIP3    H127974   6.332   8.023   3.268
 9339TIP3    H227975   6.431   8.009   3.381
 9340TIP3   OH227976   5.071   7.596   3.554
 9340TIP3    H127977   5.015   7.632   3.484
 9340TIP3    H227978   5.021   7.611   3.634
 9341TIP3   OH227979   8.240   0.397   2.560
 9341TIP3    H127980   8.200   0.397   2.473
 9341TIP3    H227981   8.271   0.487   2.572
 9342TIP3   OH227982   8.011   0.363   3.345
 9342TIP3    H127983   7.945   0.426   3.376
 9342TIP3    H227984   8.046   0.403   3.265
 9343TIP3   OH227985   5.977   7.707   2.920
 9343TIP3    H127986   5.965   7.664   3.005
 9343TIP3    H227987   6.033   7.783   2.938
 9344TIP3   OH227988   4.948   7.710   3.335
 9344TIP3    H127989   5.006   7.782   3.361
 9344TIP3    H227990   4.993   7.668   3.261
 9345TIP3   OH227991   7.835   0.577   3.453
 9345TIP3    H127992   7.797   0.565   3.366
 9345TIP3    H227993   7.759   0.573   3.513
 9346TIP3   OH227994   7.231   0.207   2.688
 9346TIP3    H127995   7.200   0.219   2.598
 9346TIP3    H227996   7.251   0.295   2.719
 9347TIP3   OH227997   6.134   7.668   3.284
 9347TIP3    H127998   6.047   7.695   3.252
 9347TIP3    H227999   6.195   7.700   3.217
 9348TIP3   OH228000   5.424   7.308   3.271
 9348TIP3    H128001   5.411   7.214   3.286
 9348TIP3    H228002   5.350   7.350   3.315
 9349TIP3   OH228003   0.109   0.526   2.481
 9349TIP3    H128004   0.089   0.447   2.431
 9349TIP3    H228005   0.123   0.495   2.571
 9350TIP3   OH228006   0.394   0.666   3.265
 9350TIP3    H128007   0.382   0.587   3.212
 9350TIP3    H228008   0.422   0.733   3.203
 9351TIP3   OH228009   8.195   0.056   2.528
 9351TIP3    H128010   8.116   0.109   2.514
 9351TIP3    H228011   8.239   0.056   2.444
 9352TIP3   OH228012   5.320   7.861   2.237
 9352TIP3    H128013   5.381   7.916   2.287
 9352TIP3    H228014   5.376   7.800   2.188
 9353TIP3   OH228015   0.592   0.306   3.109
 9353TIP3    H128016   0.510   0.353   3.118
 9353TIP3    H228017   0.623   0.328   3.022
 9354TIP3   OH228018   0.040   0.134   2.502
 9354TIP3    H128019  -0.013   0.155   2.579
 9354TIP3    H228020   0.126   0.109   2.538
 9355TIP3   OH228021   0.272   0.183   3.411
 9355TIP3    H128022   0.274   0.265   3.460
 9355TIP3    H228023   0.188   0.185   3.365
 9356TIP3   OH228024   7.778   0.139   2.904
 9356TIP3    H128025   7.737   0.082   2.839
 9356TIP3    H228026   7.852   0.089   2.937
 9357TIP3   OH228027   7.913   0.505   3.109
 9357TIP3    H128028   7.874   0.508   3.021
 9357TIP3    H228029   8.007   0.505   3.094
 9358TIP3   OH228030   7.902   0.120   3.263
 9358TIP3    H128031   7.937   0.091   3.178
 9358TIP3    H228032   7.947   0.202   3.281
 9359TIP3   OH228033   8.088   0.573   3.587
 9359TIP3    H128034   8.053   0.660   3.609
 9359TIP3    H228035   8.019   0.533   3.534
 9360TIP3   OH228036   8.375   0.003   2.321
 9360TIP3    H128037   8.434   0.058   2.372
 9360TIP3    H228038   8.402   0.017   2.230
 9361TIP3   OH228039   7.801   0.224   3.696
 9361TIP3    H128040   7.810   0.311   3.735
 9361TIP3    H228041   7.709   0.201   3.707
 9362TIP3   OH228042   4.807   7.997   2.713
 9362TIP3    H128043   4.743   8.041   2.657
 9362TIP3    H228044   4.768   7.912   2.732
 9363TIP3   OH228045   7.435   0.367   3.625
 9363TIP3    H128046   7.370   0.347   3.558
 9363TIP3    H228047   7.470   0.281   3.650
 9364TIP3   OH228048   0.527   0.141   3.586
 9364TIP3    H128049   0.444   0.155   3.539
 9364TIP3    H228050   0.544   0.048   3.577
 9365TIP3   OH228051   7.621   0.572   3.631
 9365TIP3    H128052   7.678   0.535   3.698
 9365TIP3    H228053   7.553   0.506   3.619
 9366TIP3   OH228054   5.186   7.389   3.399
 9366TIP3    H128055   5.102   7.357   3.368
 9366TIP3    H228056   5.165   7.469   3.447
 9367TIP3   OH228057   5.725   7.501   3.593
 9367TIP3    H128058   5.793   7.475   3.655
 9367TIP3    H228059   5.643   7.484   3.639
 9368TIP3   OH228060   5.959   7.933   3.511
 9368TIP3    H128061   5.910   7.930   3.593
 9368TIP3    H228062   5.939   8.019   3.474
 9369TIP3   OH228063   8.450   0.029   2.063
 9369TIP3    H128064   8.420   0.008   1.974
 9369TIP3    H228065   8.520   0.093   2.050
 9370TIP3   OH228066   5.333   7.434   2.371
 9370TIP3    H128067   5.302   7.434   2.461
 9370TIP3    H228068   5.295   7.355   2.332
 9371TIP3   OH228069   5.119   7.911   3.414
 9371TIP3    H128070   5.072   7.928   3.495
 9371TIP3    H228071   5.104   7.989   3.360
 9372TIP3   OH228072   5.004   7.789   2.928
 9372TIP3    H128073   4.913   7.767   2.949
 9372TIP3    H228074   5.018   7.751   2.842
 9373TIP3   OH228075   5.499   7.871   2.656
 9373TIP3    H128076   5.447   7.939   2.614
 9373TIP3    H228077   5.558   7.840   2.587
 9374TIP3   OH228078   0.009   0.133   3.741
 9374TIP3    H128079  -0.016   0.063   3.802
 9374TIP3    H228080   0.100   0.152   3.762
 9375TIP3   OH228081   5.652   7.901   2.891
 9375TIP3    H128082   5.590   7.932   2.826
 9375TIP3    H228083   5.692   7.823   2.851
 9376TIP3   OH228084   4.942   7.932   3.624
 9376TIP3    H128085   4.971   7.997   3.688
 9376TIP3    H228086   4.932   7.851   3.675
 9377TIP3   OH228087   4.988   7.410   2.335
 9377TIP3    H128088   4.983   7.408   2.431
 9377TIP3    H228089   4.915   7.466   2.309
 9378TIP3   OH228090   4.536   7.452   3.206
 9378TIP3    H128091   4.607   7.487   3.260
 9378TIP3    H228092   4.578   7.426   3.124
 9379TIP3   OH228093   4.498   7.437   2.720
 9379TIP3    H128094   4.550   7.470   2.646
 9379TIP3    H228095   4.440   7.510   2.743
 9380TIP3   OH228096   8.495   0.131   3.317
 9380TIP3    H128097   8.528   0.064   3.257
 9380TIP3    H228098   8.464   0.082   3.393
 9381TIP3   OH228099   5.337   7.610   2.991
 9381TIP3    H128100   5.256   7.610   3.043
 9381TIP3    H228101   5.407   7.606   3.055
 9382TIP3   OH228102   4.766   7.669   2.997
 9382TIP3    H128103   4.675   7.677   2.969
 9382TIP3    H228104   4.790   7.579   2.975
 9383TIP3   OH228105   5.032   7.662   2.688
 9383TIP3    H128106   5.125   7.678   2.669
 9383TIP3    H228107   4.987   7.684   2.606
 9384TIP3   OH228108   5.825   7.688   3.197
 9384TIP3    H128109   5.794   7.702   3.287
 9384TIP3    H228110   5.761   7.629   3.158
 9385TIP3   OH228111   4.883   7.696   2.462
 9385TIP3    H128112   4.808   7.657   2.417
 9385TIP3    H228113   4.935   7.735   2.391
 9386TIP3   OH228114   7.790   0.471   3.833
 9386TIP3    H128115   7.869   0.499   3.880
 9386TIP3    H228116   7.725   0.460   3.902
 9387TIP3   OH228117   5.416   7.940   3.087
 9387TIP3    H128118   5.490   7.906   3.036
 9387TIP3    H228119   5.423   7.896   3.171
 9388TIP3   OH228120   4.934   7.426   2.970
 9388TIP3    H128121   4.899   7.352   3.019
 9388TIP3    H228122   4.982   7.387   2.898
 9389TIP3   OH228123   5.390   7.840   3.380
 9389TIP3    H128124   5.302   7.876   3.391
 9389TIP3    H228125   5.447   7.901   3.427
 9390TIP3   OH228126   7.962   0.198   2.481
 9390TIP3    H128127   7.886   0.141   2.465
 9390TIP3    H228128   7.940   0.243   2.563
 9391TIP3   OH228129   0.359   0.445   3.103
 9391TIP3    H128130   0.387   0.495   3.026
 9391TIP3    H228131   0.277   0.403   3.076
 9392TIP3   OH228132   5.585   7.543   2.336
 9392TIP3    H128133   5.491   7.527   2.348
 9392TIP3    H228134   5.597   7.634   2.364
 9393TIP3   OH228135   8.371   0.556   3.471
 9393TIP3    H128136   8.406   0.505   3.544
 9393TIP3    H228137   8.287   0.590   3.503
 9394TIP3   OH228138   5.665   7.789   2.440
 9394TIP3    H128139   5.760   7.792   2.452
 9394TIP3    H228140   5.646   7.866   2.386
 9395TIP3   OH228141   7.634   0.187   3.135
 9395TIP3    H128142   7.681   0.182   3.052
 9395TIP3    H228143   7.696   0.151   3.200
 9396TIP3   OH228144   8.069   0.387   2.317
 9396TIP3    H128145   8.031   0.458   2.368
 9396TIP3    H228146   8.038   0.307   2.360
 9397TIP3   OH228147   7.540   0.148   3.765
 9397TIP3    H128148   7.555   0.134   3.859
 9397TIP3    H228149   7.469   0.087   3.743
 9398TIP3   OH228150   8.268   0.259   3.785
 9398TIP3    H128151   8.204   0.211   3.733
 9398TIP3    H228152   8.353   0.227   3.754
 9399TIP3   OH228153   0.649   0.707   3.354
 9399TIP3    H128154   0.554   0.718   3.347
 9399TIP3    H228155   0.679   0.690   3.265
 9400TIP3   OH228156   0.125   0.316   3.007
 9400TIP3    H128157   0.034   0.294   3.027
 9400TIP3    H228158   0.161   0.235   2.969
 9401TIP3   OH228159   4.477   7.861   2.471
 9401TIP3    H128160   4.528   7.940   2.485
 9401TIP3    H228161   4.408   7.864   2.537
 9402TIP3   OH228162   7.887   0.317   2.719
 9402TIP3    H128163   7.851   0.400   2.750
 9402TIP3    H228164   7.863   0.254   2.786
 9403TIP3   OH228165   8.418   0.517   3.200
 9403TIP3    H128166   8.406   0.529   3.294
 9403TIP3    H228167   8.501   0.471   3.192
 9404TIP3   OH228168   8.422   0.350   2.056
 9404TIP3    H128169   8.455   0.335   2.145
 9404TIP3    H228170   8.344   0.404   2.068
 9405TIP3   OH228171   4.910   7.675   3.768
 9405TIP3    H128172   4.815   7.678   3.778
 9405TIP3    H228173   4.940   7.619   3.840
 9406TIP3   OH228174   0.046   0.320   2.304
 9406TIP3    H128175   0.039   0.251   2.370
 9406TIP3    H228176   0.139   0.324   2.283
 9407TIP3   OH228177   7.736   0.338   2.134
 9407TIP3    H128178   7.778   0.255   2.111
 9407TIP3    H228179   7.775   0.361   2.218
 9408TIP3   OH228180   7.438   0.087   2.556
 9408TIP3    H128181   7.372   0.120   2.616
 9408TIP3    H228182   7.445   0.155   2.489
 9409TIP3   OH228183   5.751   7.741   3.456
 9409TIP3    H128184   5.832   7.780   3.490
 9409TIP3    H228185   5.739   7.661   3.508
 9410TIP3   OH228186   5.636   7.491   2.621
 9410TIP3    H128187   5.624   7.512   2.528
 9410TIP3    H228188   5.677   7.569   2.658
 9411TIP3   OH228189   5.316   7.674   2.721
 9411TIP3    H128190   5.379   7.743   2.700
 9411TIP3    H228191   5.322   7.664   2.816
 9412TIP3   OH228192   5.589   7.988   3.525
 9412TIP3    H128193   5.614   8.039   3.602
 9412TIP3    H228194   5.640   7.907   3.532
 9413TIP3   OH228195   5.463   7.395   2.817
 9413TIP3    H128196   5.454   7.469   2.878
 9413TIP3    H228197   5.524   7.426   2.751
 9414TIP3   OH228198   4.978   7.400   2.611
 9414TIP3    H128199   4.971   7.488   2.648
 9414TIP3    H228200   5.071   7.378   2.617
 9415TIP3   OH228201   6.225   7.889   3.507
 9415TIP3    H128202   6.130   7.889   3.517
 9415TIP3    H228203   6.241   7.847   3.423
 9416TIP3   OH228204   0.212   0.069   2.898
 9416TIP3    H128205   0.138   0.010   2.907
 9416TIP3    H228206   0.284   0.024   2.943
 9417TIP3   OH228207   7.432   0.302   2.370
 9417TIP3    H128208   7.457   0.394   2.359
 9417TIP3    H228209   7.485   0.255   2.305
 9418TIP3   OH228210   4.536   7.596   2.498
 9418TIP3    H128211   4.542   7.690   2.485
 9418TIP3    H228212   4.451   7.572   2.462
 9419TIP3   OH228213   4.923   7.307   3.369
 9419TIP3    H128214   4.894   7.275   3.284
 9419TIP3    H228215   4.914   7.232   3.428
 9420TIP3   OH228216   7.584   0.437   4.008
 9420TIP3    H128217   7.607   0.345   4.017
 9420TIP3    H228218   7.497   0.437   3.969
 9421TIP3   OH228219   7.561   0.101   2.226
 9421TIP3    H128220   7.609   0.069   2.302
 9421TIP3    H228221   7.628   0.108   2.157
 9422TIP3   OH228222   8.208   0.523   3.827
 9422TIP3    H128223   8.175   0.540   3.739
 9422TIP3    H228224   8.243   0.434   3.822
 9423TIP3   OH228225   8.007   0.277   2.041
 9423TIP3    H128226   8.048   0.301   2.124
 9423TIP3    H228227   8.038   0.188   2.023
 9424TIP3   OH228228   0.183   0.550   3.402
 9424TIP3    H128229   0.252   0.603   3.361
 9424TIP3    H228230   0.105   0.606   3.398
 9425TIP3   OH228231   7.710   0.190   4.011
 9425TIP3    H128232   7.788   0.144   3.980
 9425TIP3    H228233   7.735   0.226   4.096
 9426TIP3   OH228234   4.925   8.027   2.435
 9426TIP3    H128235   4.901   7.988   2.518
 9426TIP3    H228236   4.967   7.956   2.386
 9427TIP3   OH228237   8.038   0.080   3.664
 9427TIP3    H128238   7.962   0.138   3.669
 9427TIP3    H228239   8.090   0.114   3.592
 9428TIP3   OH228240   5.040   7.824   2.277
 9428TIP3    H128241   5.013   7.826   2.186
 9428TIP3    H228242   5.136   7.828   2.274
 9429TIP3   OH228243   0.062   0.472   3.801
 9429TIP3    H128244   0.142   0.450   3.753
 9429TIP3    H228245   0.059   0.409   3.873
 9430TIP3   OH228246   0.171   0.150   1.936
 9430TIP3    H128247   0.156   0.096   1.859
 9430TIP3    H228248   0.155   0.240   1.907
 9431TIP3   OH228249   5.328   7.885   3.790
 9431TIP3    H128250   5.330   7.807   3.735
 9431TIP3    H228251   5.286   7.951   3.736
 9432TIP3   OH228252   5.331   7.670   3.601
 9432TIP3    H128253   5.360   7.712   3.520
 9432TIP3    H228254   5.239   7.648   3.584
 9433TIP3   OH228255   8.186   0.197   3.474
 9433TIP3    H128256   8.270   0.204   3.428
 9433TIP3    H228257   8.129   0.260   3.430
 9434TIP3   OH228258   0.273   0.157   3.852
 9434TIP3    H128259   0.322   0.075   3.860
 9434TIP3    H228260   0.337   0.221   3.820
 9435TIP3   OH228261   0.315   0.410   3.588
 9435TIP3    H128262   0.256   0.462   3.532
 9435TIP3    H228263   0.403   0.429   3.554
 9436TIP3   OH228264   5.207   7.989   4.026
 9436TIP3    H128265   5.140   7.922   4.043
 9436TIP3    H228266   5.240   7.968   3.939
 9437TIP3   OH228267   5.461   7.432   3.670
 9437TIP3    H128268   5.414   7.513   3.648
 9437TIP3    H228269   5.396   7.363   3.659
 9438TIP3   OH228270   5.587   7.933   3.887
 9438TIP3    H128271   5.576   7.920   3.981
 9438TIP3    H228272   5.501   7.912   3.850
 9439TIP3   OH228273   5.828   7.886   3.742
 9439TIP3    H128274   5.754   7.888   3.803
 9439TIP3    H228275   5.902   7.857   3.795
 9440TIP3   OH228276   6.057   7.828   3.891
 9440TIP3    H128277   6.070   7.734   3.905
 9440TIP3    H228278   6.054   7.865   3.979
 9441TIP3   OH228279   5.046   7.769   4.081
 9441TIP3    H128280   5.049   7.680   4.046
 9441TIP3    H228281   5.083   7.761   4.169
 9442TIP3   OH228282   5.556   7.440   3.927
 9442TIP3    H128283   5.622   7.370   3.923
 9442TIP3    H228284   5.515   7.439   3.841
 9443TIP3   OH228285   5.621   7.656   4.087
 9443TIP3    H128286   5.603   7.586   4.024
 9443TIP3    H228287   5.546   7.714   4.080
 9444TIP3   OH228288   7.169   0.207   2.414
 9444TIP3    H128289   7.245   0.257   2.383
 9444TIP3    H228290   7.157   0.139   2.348
 9445TIP3   OH228291   0.539   0.837   3.634
 9445TIP3    H128292   0.466   0.819   3.693
 9445TIP3    H228293   0.591   0.903   3.679
 9446TIP3   OH228294   0.316   0.327   2.286
 9446TIP3    H128295   0.385   0.384   2.251
 9446TIP3    H228296   0.354   0.290   2.366
 9447TIP3   OH228297   0.441   0.217   2.495
 9447TIP3    H128298   0.391   0.150   2.540
 9447TIP3    H228299   0.524   0.222   2.543
 9448TIP3   OH228300   0.492   0.578   2.909
 9448TIP3    H128301   0.553   0.518   2.866
 9448TIP3    H228302   0.496   0.658   2.857
 9449TIP3   OH228303   0.389   0.129   2.101
 9449TIP3    H128304   0.311   0.129   2.046
 9449TIP3    H228305   0.365   0.184   2.176
 9450TIP3   OH228306   5.872   7.779   2.087
 9450TIP3    H128307   5.898   7.844   2.021
 9450TIP3    H228308   5.874   7.696   2.041
 9451TIP3   OH228309   0.267   0.044   2.626
 9451TIP3    H128310   0.279  -0.050   2.612
 9451TIP3    H228311   0.256   0.053   2.721
 9452TIP3   OH228312   7.395   0.129   3.374
 9452TIP3    H128313   7.389   0.094   3.285
 9452TIP3    H228314   7.489   0.130   3.393
 9453TIP3   OH228315   0.560   0.473   3.484
 9453TIP3    H128316   0.632   0.411   3.476
 9453TIP3    H228317   0.584   0.545   3.426
 9454TIP3   OH228318   0.746   0.275   3.501
 9454TIP3    H128319   0.669   0.233   3.538
 9454TIP3    H228320   0.817   0.213   3.516
 9455TIP3   OH228321   5.879   7.494   2.059
 9455TIP3    H128322   5.921   7.522   2.141
 9455TIP3    H228323   5.788   7.477   2.084
 9456TIP3   OH228324   5.948   7.781   2.517
 9456TIP3    H128325   5.969   7.690   2.539
 9456TIP3    H228326   6.021   7.810   2.463
 9457TIP3   OH228327   6.095   7.955   3.018
 9457TIP3    H128328   6.177   7.976   2.973
 9457TIP3    H228329   6.107   7.989   3.107
 9458TIP3   OH228330   0.498   0.086   3.248
 9458TIP3    H128331   0.421   0.118   3.296
 9458TIP3    H228332   0.530   0.163   3.200
 9459TIP3   OH228333   4.781   7.820   4.048
 9459TIP3    H128334   4.876   7.819   4.051
 9459TIP3    H228335   4.755   7.737   4.087
 9460TIP3   OH228336   6.613   7.691   3.800
 9460TIP3    H128337   6.674   7.628   3.762
 9460TIP3    H228338   6.583   7.744   3.726
 9461TIP3   OH228339   6.006   7.527   2.582
 9461TIP3    H128340   6.078   7.515   2.644
 9461TIP3    H228341   5.969   7.440   2.570
 9462TIP3   OH228342   4.742   7.518   3.381
 9462TIP3    H128343   4.800   7.442   3.388
 9462TIP3    H228344   4.802   7.592   3.371
 9463TIP3   OH228345   4.541   7.791   3.449
 9463TIP3    H128346   4.590   7.786   3.366
 9463TIP3    H228347   4.570   7.873   3.489
 9464TIP3   OH228348   6.479   7.827   3.605
 9464TIP3    H128349   6.397   7.872   3.625
 9464TIP3    H228350   6.453   7.754   3.549
 9465TIP3   OH228351   6.160   7.466   2.161
 9465TIP3    H128352   6.248   7.497   2.138
 9465TIP3    H228353   6.139   7.514   2.241
 9466TIP3   OH228354   4.526   7.293   2.949
 9466TIP3    H128355   4.436   7.288   2.981
 9466TIP3    H228356   4.521   7.352   2.874
 9467TIP3   OH228357   4.746   7.376   3.767
 9467TIP3    H128358   4.697   7.369   3.849
 9467TIP3    H228359   4.683   7.411   3.704
 9468TIP3   OH228360   6.381   7.589   3.488
 9468TIP3    H128361   6.293   7.583   3.451
 9468TIP3    H228362   6.417   7.500   3.480
 9469TIP3   OH228363   5.587   7.505   3.108
 9469TIP3    H128364   5.546   7.435   3.159
 9469TIP3    H228365   5.662   7.464   3.066
 9470TIP3   OH228366   6.104   7.385   3.011
 9470TIP3    H128367   6.144   7.434   2.939
 9470TIP3    H228368   6.012   7.409   3.008
 9471TIP3   OH228369   6.207   7.475   2.772
 9471TIP3    H128370   6.278   7.425   2.732
 9471TIP3    H228371   6.233   7.567   2.762
 9472TIP3   OH228372   4.835   7.212   3.122
 9472TIP3    H128373   4.743   7.183   3.127
 9472TIP3    H228374   4.885   7.130   3.118
 9473TIP3   OH228375   4.621   7.089   2.772
 9473TIP3    H128376   4.655   7.143   2.700
 9473TIP3    H228377   4.598   7.153   2.840
 9474TIP3   OH228378   5.284   7.247   3.005
 9474TIP3    H128379   5.336   7.294   2.940
 9474TIP3    H228380   5.309   7.286   3.089
 9475TIP3   OH228381   5.820   7.395   2.990
 9475TIP3    H128382   5.824   7.362   2.901
 9475TIP3    H228383   5.810   7.316   3.044
 9476TIP3   OH228384   5.861   7.298   2.549
 9476TIP3    H128385   5.783   7.352   2.558
 9476TIP3    H228386   5.841   7.217   2.595
 9477TIP3   OH228387   4.747   7.244   2.534
 9477TIP3    H128388   4.792   7.180   2.477
 9477TIP3    H228389   4.818   7.298   2.569
 9478TIP3   OH228390   5.254   7.424   2.635
 9478TIP3    H128391   5.313   7.375   2.692
 9478TIP3    H228392   5.271   7.516   2.656
 9479TIP3   OH228393   5.045   7.494   4.016
 9479TIP3    H128394   5.006   7.426   4.070
 9479TIP3    H228395   5.137   7.496   4.042
 9480TIP3   OH228396   5.295   7.493   4.134
 9480TIP3    H128397   5.379   7.471   4.093
 9480TIP3    H228398   5.282   7.425   4.200
 9481TIP3   OH228399   6.124   7.556   3.920
 9481TIP3    H128400   6.138   7.527   4.010
 9481TIP3    H228401   6.210   7.553   3.879
 9482TIP3   OH228402   0.948   0.354   2.915
 9482TIP3    H128403   1.002   0.312   2.982
 9482TIP3    H228404   1.011   0.392   2.854
 9483TIP3   OH228405   0.698   0.259   2.613
 9483TIP3    H128406   0.744   0.181   2.645
 9483TIP3    H228407   0.749   0.287   2.537
 9484TIP3   OH228408   6.817   7.864   2.616
 9484TIP3    H128409   6.813   7.930   2.546
 9484TIP3    H228410   6.793   7.782   2.573
 9485TIP3   OH228411   0.837   0.044   2.705
 9485TIP3    H128412   0.917   0.030   2.756
 9485TIP3    H228413   0.846  -0.014   2.630
 9486TIP3   OH228414   6.854   7.847   3.051
 9486TIP3    H128415   6.803   7.886   2.980
 9486TIP3    H228416   6.803   7.865   3.130
 9487TIP3   OH228417   6.733   7.975   2.842
 9487TIP3    H128418   6.798   8.042   2.862
 9487TIP3    H228419   6.766   7.931   2.764
 9488TIP3   OH228420   0.533   0.466   2.190
 9488TIP3    H128421   0.506   0.484   2.100
 9488TIP3    H228422   0.571   0.549   2.221
 9489TIP3   OH228423   7.206   7.574   2.736
 9489TIP3    H128424   7.267   7.512   2.778
 9489TIP3    H228425   7.137   7.585   2.801
 9490TIP3   OH228426   1.058   0.488   3.186
 9490TIP3    H128427   1.043   0.577   3.216
 9490TIP3    H228428   0.973   0.445   3.195
 9491TIP3   OH228429   0.926   0.216   2.160
 9491TIP3    H128430   0.904   0.305   2.189
 9491TIP3    H228431   0.862   0.160   2.204
 9492TIP3   OH228432   0.720   0.619   3.114
 9492TIP3    H128433   0.657   0.605   3.044
 9492TIP3    H228434   0.754   0.531   3.134
 9493TIP3   OH228435   6.974   7.647   2.896
 9493TIP3    H128436   6.893   7.612   2.858
 9493TIP3    H228437   6.946   7.722   2.948
 9494TIP3   OH228438   7.476   7.794   3.138
 9494TIP3    H128439   7.544   7.735   3.171
 9494TIP3    H228440   7.398   7.739   3.132
 9495TIP3   OH228441   1.259   0.140   2.916
 9495TIP3    H128442   1.201   0.178   2.982
 9495TIP3    H228443   1.267   0.209   2.850
 9496TIP3   OH228444   1.096   0.012   2.395
 9496TIP3    H128445   1.010  -0.017   2.426
 9496TIP3    H228446   1.079   0.054   2.311
 9497TIP3   OH228447   1.086   0.186   3.124
 9497TIP3    H128448   1.064   0.250   3.191
 9497TIP3    H228449   1.068   0.101   3.164
 9498TIP3   OH228450   6.758   7.627   1.815
 9498TIP3    H128451   6.765   7.632   1.911
 9498TIP3    H228452   6.692   7.693   1.792
 9499TIP3   OH228453   6.318   7.707   2.706
 9499TIP3    H128454   6.400   7.746   2.737
 9499TIP3    H228455   6.313   7.733   2.614
 9500TIP3   OH228456   7.074   7.822   2.526
 9500TIP3    H128457   7.001   7.815   2.587
 9500TIP3    H228458   7.151   7.832   2.582
 9501TIP3   OH228459   6.530   7.899   2.476
 9501TIP3    H128460   6.443   7.874   2.443
 9501TIP3    H228461   6.582   7.819   2.466
 9502TIP3   OH228462   6.618   7.939   1.984
 9502TIP3    H128463   6.556   7.895   1.926
 9502TIP3    H228464   6.625   8.027   1.948
 9503TIP3   OH228465   6.737   7.676   2.446
 9503TIP3    H128466   6.701   7.602   2.495
 9503TIP3    H228467   6.809   7.639   2.396
 9504TIP3   OH228468   0.815   0.392   3.257
 9504TIP3    H128469   0.820   0.374   3.351
 9504TIP3    H228470   0.740   0.341   3.227
 9505TIP3   OH228471   0.619   0.104   1.968
 9505TIP3    H128472   0.653   0.191   1.990
 9505TIP3    H228473   0.536   0.098   2.016
 9506TIP3   OH228474   6.702   7.935   3.260
 9506TIP3    H128475   6.607   7.936   3.267
 9506TIP3    H228476   6.731   7.877   3.331
 9507TIP3   OH228477   6.739   7.650   2.089
 9507TIP3    H128478   6.718   7.738   2.121
 9507TIP3    H228479   6.830   7.637   2.115
 9508TIP3   OH228480   6.314   7.846   1.938
 9508TIP3    H128481   6.321   7.940   1.955
 9508TIP3    H228482   6.284   7.809   2.021
 9509TIP3   OH228483   6.713   7.565   2.857
 9509TIP3    H128484   6.690   7.534   2.770
 9509TIP3    H228485   6.706   7.487   2.913
 9510TIP3   OH228486   0.891   0.701   3.480
 9510TIP3    H128487   0.925   0.611   3.478
 9510TIP3    H228488   0.804   0.695   3.442
 9511TIP3   OH228489   1.012   0.454   3.493
 9511TIP3    H128490   1.076   0.384   3.478
 9511TIP3    H228491   1.028   0.483   3.582
 9512TIP3   OH228492   1.425   0.139   3.276
 9512TIP3    H128493   1.470   0.055   3.261
 9512TIP3    H228494   1.373   0.152   3.197
 9513TIP3   OH228495   7.103   7.949   3.061
 9513TIP3    H128496   7.078   7.985   2.976
 9513TIP3    H228497   7.024   7.904   3.091
 9514TIP3   OH228498   1.336   0.230   3.519
 9514TIP3    H128499   1.268   0.164   3.535
 9514TIP3    H228500   1.370   0.209   3.432
 9515TIP3   OH228501   7.224   7.681   3.168
 9515TIP3    H128502   7.179   7.754   3.125
 9515TIP3    H228503   7.167   7.606   3.152
 9516TIP3   OH228504   6.844   8.024   3.568
 9516TIP3    H128505   6.845   7.936   3.531
 9516TIP3    H228506   6.878   8.013   3.657
 9517TIP3   OH228507   7.343   7.682   3.417
 9517TIP3    H128508   7.419   7.626   3.403
 9517TIP3    H228509   7.299   7.685   3.332
 9518TIP3   OH228510   7.414   7.894   3.582
 9518TIP3    H128511   7.399   7.831   3.512
 9518TIP3    H228512   7.350   7.964   3.567
 9519TIP3   OH228513   0.443   0.471   1.872
 9519TIP3    H128514   0.528   0.508   1.849
 9519TIP3    H228515   0.436   0.392   1.819
 9520TIP3   OH228516   0.686   0.385   2.859
 9520TIP3    H128517   0.681   0.347   2.772
 9520TIP3    H228518   0.779   0.383   2.880
 9521TIP3   OH228519   0.912   0.064   3.539
 9521TIP3    H128520   1.008   0.061   3.540
 9521TIP3    H228521   0.885  -0.021   3.574
 9522TIP3   OH228522   6.537   7.778   2.882
 9522TIP3    H128523   6.594   7.701   2.879
 9522TIP3    H228524   6.598   7.852   2.873
 9523TIP3   OH228525   0.672   0.034   2.936
 9523TIP3    H128526   0.720   0.023   2.854
 9523TIP3    H228527   0.702   0.118   2.970
 9524TIP3   OH228528   6.540   7.635   3.256
 9524TIP3    H128529   6.489   7.629   3.337
 9524TIP3    H228530   6.479   7.669   3.191
 9525TIP3   OH228531   6.636   7.470   2.608
 9525TIP3    H128532   6.545   7.443   2.617
 9525TIP3    H228533   6.686   7.388   2.605
 9526TIP3   OH228534   6.410   7.349   2.249
 9526TIP3    H128535   6.458   7.389   2.176
 9526TIP3    H228536   6.399   7.419   2.312
 9527TIP3   OH228537   7.059   7.494   2.519
 9527TIP3    H128538   7.118   7.511   2.445
 9527TIP3    H228539   7.104   7.529   2.595
 9528TIP3   OH228540   6.528   7.482   2.024
 9528TIP3    H128541   6.578   7.426   1.964
 9528TIP3    H228542   6.592   7.544   2.058
 9529TIP3   OH228543   7.005   7.661   2.156
 9529TIP3    H128544   7.055   7.583   2.133
 9529TIP3    H228545   7.064   7.734   2.137
 9530TIP3   OH228546   6.840   7.752   3.501
 9530TIP3    H128547   6.802   7.683   3.556
 9530TIP3    H228548   6.933   7.753   3.526
 9531TIP3   OH228549   7.090   7.747   3.617
 9531TIP3    H128550   7.176   7.738   3.575
 9531TIP3    H228551   7.087   7.675   3.680
 9532TIP3   OH228552   5.108   4.948   0.577
 9532TIP3    H128553   5.098   4.884   0.647
 9532TIP3    H228554   5.137   5.028   0.620
 9533TIP3   OH228555   4.759   5.397   0.596
 9533TIP3    H128556   4.822   5.344   0.547
 9533TIP3    H228557   4.770   5.370   0.687
 9534TIP3   OH228558   4.775   4.895   0.397
 9534TIP3    H128559   4.735   4.860   0.317
 9534TIP3    H228560   4.767   4.990   0.387
 9535TIP3   OH228561   4.929   5.244   0.456
 9535TIP3    H128562   4.958   5.160   0.420
 9535TIP3    H228563   4.971   5.310   0.401
 9536TIP3   OH228564   5.030   5.025   0.327
 9536TIP3    H128565   4.997   4.949   0.279
 9536TIP3    H228566   5.062   4.988   0.410
 9537TIP3   OH228567   5.039   4.605   0.332
 9537TIP3    H128568   4.981   4.597   0.407
 9537TIP3    H228569   5.120   4.563   0.360
 9538TIP3   OH228570   4.666   5.155   0.372
 9538TIP3    H128571   4.706   5.213   0.437
 9538TIP3    H228572   4.576   5.186   0.364
 9539TIP3   OH228573   2.373   1.046   6.680
 9539TIP3    H128574   2.385   1.141   6.671
 9539TIP3    H228575   2.461   1.010   6.669
 9540TIP3   OH228576   4.498   5.367   0.224
 9540TIP3    H128577   4.463   5.361   0.135
 9540TIP3    H228578   4.477   5.456   0.252
 9541TIP3   OH228579   1.885   1.253   6.806
 9541TIP3    H128580   1.941   1.180   6.780
 9541TIP3    H228581   1.913   1.274   6.895
 9542TIP3   OH228582   4.754   5.312   0.136
 9542TIP3    H128583   4.668   5.317   0.179
 9542TIP3    H228584   4.810   5.267   0.199
 9543TIP3   OH228585   2.118   0.498   6.824
 9543TIP3    H128586   2.093   0.451   6.744
 9543TIP3    H228587   2.206   0.530   6.807
 9544TIP3   OH228588   4.675   4.867   0.068
 9544TIP3    H128589   4.611   4.937   0.081
 9544TIP3    H228590   4.645   4.796   0.125
 9545TIP3   OH228591   5.446   4.316   0.088
 9545TIP3    H128592   5.386   4.256   0.043
 9545TIP3    H228593   5.427   4.402   0.052
 9546TIP3   OH228594   5.120   5.113   0.003
 9546TIP3    H128595   5.109   5.048   0.072
 9546TIP3    H228596   5.153   5.063  -0.072
 9547TIP3   OH228597   2.063   0.857   6.852
 9547TIP3    H128598   2.124   0.822   6.917
 9547TIP3    H228599   1.979   0.860   6.897
 9548TIP3   OH228600   2.402   1.323   6.676
 9548TIP3    H128601   2.447   1.392   6.626
 9548TIP3    H228602   2.322   1.365   6.708
 9549TIP3   OH228603   5.059   4.789   0.125
 9549TIP3    H128604   5.037   4.722   0.190
 9549TIP3    H228605   5.154   4.781   0.113
 9550TIP3   OH228606   4.480   5.048   0.125
 9550TIP3    H128607   4.410   5.052   0.191
 9550TIP3    H228608   4.482   5.136   0.086
 9551TIP3   OH228609   5.186   5.478   0.703
 9551TIP3    H128610   5.140   5.522   0.631
 9551TIP3    H228611   5.279   5.483   0.678
 9552TIP3   OH228612   1.595   1.003   6.778
 9552TIP3    H128613   1.601   0.958   6.863
 9552TIP3    H228614   1.667   0.968   6.727
 9553TIP3   OH228615   2.050   1.063   6.666
 9553TIP3    H128616   2.068   0.992   6.727
 9553TIP3    H228617   2.128   1.118   6.668
 9554TIP3   OH228618   2.361   0.576   6.705
 9554TIP3    H128619   2.349   0.530   6.622
 9554TIP3    H228620   2.327   0.664   6.688
 9555TIP3   OH228621   1.363   1.325   6.936
 9555TIP3    H128622   1.456   1.303   6.929
 9555TIP3    H228623   1.342   1.371   6.855
 9556TIP3   OH228624   5.460   5.543   0.650
 9556TIP3    H128625   5.470   5.622   0.705
 9556TIP3    H228626   5.498   5.568   0.566
 9557TIP3   OH228627   5.337   4.768   0.103
 9557TIP3    H128628   5.401   4.832   0.069
 9557TIP3    H228629   5.379   4.730   0.179
 9558TIP3   OH228630   5.458   4.637   0.308
 9558TIP3    H128631   5.389   4.599   0.363
 9558TIP3    H228632   5.515   4.682   0.370
 9559TIP3   OH228633   5.491   5.028   0.730
 9559TIP3    H128634   5.563   4.968   0.709
 9559TIP3    H228635   5.507   5.104   0.674
 9560TIP3   OH228636   2.557   0.540   6.890
 9560TIP3    H128637   2.490   0.543   6.822
 9560TIP3    H228638   2.534   0.613   6.948
 9561TIP3   OH228639   2.440   0.195   6.840
 9561TIP3    H128640   2.401   0.268   6.792
 9561TIP3    H228641   2.387   0.119   6.816
 9562TIP3   OH228642   5.273   4.492   0.459
 9562TIP3    H128643   5.293   4.400   0.443
 9562TIP3    H228644   5.271   4.500   0.555
 9563TIP3   OH228645   5.021   5.428   0.283
 9563TIP3    H128646   5.069   5.415   0.201
 9563TIP3    H228647   5.074   5.490   0.332
 9564TIP3   OH228648   1.626   1.258   6.894
 9564TIP3    H128649   1.714   1.279   6.861
 9564TIP3    H228650   1.598   1.185   6.839
 9565TIP3   OH228651   5.158   5.375   0.052
 9565TIP3    H128652   5.148   5.280   0.038
 9565TIP3    H228653   5.120   5.415  -0.026
 9566TIP3   OH228654   3.829   0.900   6.944
 9566TIP3    H128655   3.804   0.990   6.924
 9566TIP3    H228656   3.757   0.847   6.910
 9567TIP3   OH228657   6.668   4.905   0.390
 9567TIP3    H128658   6.689   4.880   0.480
 9567TIP3    H228659   6.634   4.825   0.351
 9568TIP3   OH228660   6.912   5.205   0.074
 9568TIP3    H128661   6.890   5.140   0.140
 9568TIP3    H228662   6.939   5.282   0.124
 9569TIP3   OH228663   5.940   5.216   0.478
 9569TIP3    H128664   5.923   5.122   0.468
 9569TIP3    H228665   6.034   5.226   0.464
 9570TIP3   OH228666   5.622   4.421   0.283
 9570TIP3    H128667   5.571   4.503   0.284
 9570TIP3    H228668   5.574   4.364   0.223
 9571TIP3   OH228669   5.696   4.720   0.431
 9571TIP3    H128670   5.736   4.639   0.463
 9571TIP3    H228671   5.740   4.737   0.347
 9572TIP3   OH228672   6.562   5.668   0.088
 9572TIP3    H128673   6.603   5.600   0.035
 9572TIP3    H228674   6.548   5.627   0.174
 9573TIP3   OH228675   6.462   5.126   0.442
 9573TIP3    H128676   6.496   5.050   0.396
 9573TIP3    H228677   6.540   5.177   0.466
 9574TIP3   OH228678   6.891   4.645   0.476
 9574TIP3    H128679   6.904   4.552   0.492
 9574TIP3    H228680   6.852   4.648   0.388
 9575TIP3   OH228681   6.176   4.265   0.431
 9575TIP3    H128682   6.166   4.335   0.367
 9575TIP3    H228683   6.126   4.192   0.394
 9576TIP3   OH228684   6.869   4.418   0.100
 9576TIP3    H128685   6.878   4.358   0.174
 9576TIP3    H228686   6.941   4.396   0.041
 9577TIP3   OH228687   5.833   4.506   0.530
 9577TIP3    H128688   5.886   4.455   0.591
 9577TIP3    H228689   5.819   4.448   0.455
 9578TIP3   OH228690   6.276   4.679   0.347
 9578TIP3    H128691   6.371   4.667   0.359
 9578TIP3    H228692   6.246   4.597   0.309
 9579TIP3   OH228693   7.524   4.671   0.592
 9579TIP3    H128694   7.446   4.726   0.592
 9579TIP3    H228695   7.579   4.708   0.662
 9580TIP3   OH228696   3.718   1.121   6.814
 9580TIP3    H128697   3.680   1.105   6.728
 9580TIP3    H228698   3.676   1.200   6.845
 9581TIP3   OH228699   6.320   5.054   0.671
 9581TIP3    H128700   6.254   5.120   0.693
 9581TIP3    H228701   6.355   5.082   0.587
 9582TIP3   OH228702   6.094   4.450   0.626
 9582TIP3    H128703   6.159   4.422   0.690
 9582TIP3    H228704   6.094   4.381   0.560
 9583TIP3   OH228705   6.131   5.238   0.766
 9583TIP3    H128706   6.103   5.313   0.712
 9583TIP3    H228707   6.070   5.238   0.839
 9584TIP3   OH228708   2.702   0.926   6.935
 9584TIP3    H128709   2.664   0.952   6.851
 9584TIP3    H228710   2.731   1.008   6.975
 9585TIP3   OH228711   6.979   5.454   0.234
 9585TIP3    H128712   6.893   5.442   0.275
 9585TIP3    H228713   6.972   5.537   0.188
 9586TIP3   OH228714   3.848   1.488   6.848
 9586TIP3    H128715   3.892   1.404   6.831
 9586TIP3    H228716   3.906   1.554   6.812
 9587TIP3   OH228717   3.989   1.271   6.764
 9587TIP3    H128718   3.948   1.194   6.723
 9587TIP3    H228719   4.027   1.237   6.845
 9588TIP3   OH228720   7.201   5.360   0.579
 9588TIP3    H128721   7.192   5.282   0.525
 9588TIP3    H228722   7.182   5.432   0.520
 9589TIP3   OH228723   3.661   0.758   6.774
 9589TIP3    H128724   3.581   0.808   6.759
 9589TIP3    H228725   3.702   0.751   6.687
 9590TIP3   OH228726   3.621   0.531   6.497
 9590TIP3    H128727   3.689   0.585   6.537
 9590TIP3    H228728   3.670   0.466   6.446
 9591TIP3   OH228729   4.010   0.832   6.751
 9591TIP3    H128730   3.953   0.856   6.824
 9591TIP3    H228731   4.095   0.815   6.791
 9592TIP3   OH228732   7.067   4.881   0.727
 9592TIP3    H128733   7.070   4.958   0.784
 9592TIP3    H228734   6.983   4.888   0.682
 9593TIP3   OH228735   6.081   4.836   0.220
 9593TIP3    H128736   6.039   4.774   0.160
 9593TIP3    H228737   6.149   4.785   0.263
 9594TIP3   OH228738   6.200   5.234   0.377
 9594TIP3    H128739   6.183   5.212   0.286
 9594TIP3    H228740   6.288   5.200   0.394
 9595TIP3   OH228741   6.742   5.446   0.359
 9595TIP3    H128742   6.721   5.525   0.408
 9595TIP3    H228743   6.722   5.374   0.419
 9596TIP3   OH228744   6.349   5.392   0.855
 9596TIP3    H128745   6.294   5.460   0.894
 9596TIP3    H228746   6.288   5.323   0.830
 9597TIP3   OH228747   3.851   0.691   6.573
 9597TIP3    H128748   3.904   0.752   6.624
 9597TIP3    H228749   3.876   0.707   6.482
 9598TIP3   OH228750   3.596   1.368   6.855
 9598TIP3    H128751   3.676   1.420   6.861
 9598TIP3    H228752   3.534   1.425   6.808
 9599TIP3   OH228753   6.142   5.577   0.903
 9599TIP3    H128754   6.139   5.589   0.808
 9599TIP3    H228755   6.076   5.510   0.922
 9600TIP3   OH228756   5.936   4.671   0.033
 9600TIP3    H128757   5.876   4.725  -0.020
 9600TIP3    H228758   5.897   4.583   0.030
 9601TIP3   OH228759   4.168   1.298   6.174
 9601TIP3    H128760   4.172   1.392   6.158
 9601TIP3    H228761   4.258   1.267   6.163
 9602TIP3   OH228762   5.579   5.261   0.582
 9602TIP3    H128763   5.671   5.266   0.558
 9602TIP3    H228764   5.558   5.348   0.616
 9603TIP3   OH228765   7.439   5.706   0.636
 9603TIP3    H128766   7.439   5.611   0.648
 9603TIP3    H228767   7.356   5.735   0.675
 9604TIP3   OH228768   6.570   5.495   0.752
 9604TIP3    H128769   6.558   5.588   0.772
 9604TIP3    H228770   6.491   5.453   0.787
 9605TIP3   OH228771   3.480   1.614   6.655
 9605TIP3    H128772   3.433   1.596   6.574
 9605TIP3    H228773   3.445   1.698   6.685
 9606TIP3   OH228774   5.761   5.454   0.091
 9606TIP3    H128775   5.804   5.451   0.176
 9606TIP3    H228776   5.671   5.425   0.109
 9607TIP3   OH228777   3.678   1.517   6.293
 9607TIP3    H128778   3.734   1.449   6.256
 9607TIP3    H228779   3.710   1.528   6.382
 9608TIP3   OH228780   3.729   1.565   6.563
 9608TIP3    H128781   3.641   1.576   6.600
 9608TIP3    H228782   3.780   1.527   6.635
 9609TIP3   OH228783   7.328   4.822   0.879
 9609TIP3    H128784   7.248   4.870   0.858
 9609TIP3    H228785   7.298   4.732   0.895
 9610TIP3   OH228786   7.142   4.630   0.845
 9610TIP3    H128787   7.083   4.606   0.916
 9610TIP3    H228788   7.094   4.697   0.796
 9611TIP3   OH228789   3.933   0.725   6.319
 9611TIP3    H128790   3.889   0.708   6.236
 9611TIP3    H228791   4.007   0.781   6.296
 9612TIP3   OH228792   6.245   4.681   0.728
 9612TIP3    H128793   6.271   4.615   0.793
 9612TIP3    H228794   6.327   4.719   0.698
 9613TIP3   OH228795   6.139   4.460   0.250
 9613TIP3    H128796   6.044   4.451   0.255
 9613TIP3    H228797   6.160   4.438   0.159
 9614TIP3   OH228798   3.789   0.558   6.913
 9614TIP3    H128799   3.744   0.627   6.864
 9614TIP3    H228800   3.858   0.528   6.854
 9615TIP3   OH228801   6.775   4.638   0.221
 9615TIP3    H128802   6.715   4.675   0.156
 9615TIP3    H228803   6.802   4.554   0.185
 9616TIP3   OH228804   5.713   4.236   0.077
 9616TIP3    H128805   5.732   4.231  -0.017
 9616TIP3    H228806   5.619   4.256   0.082
 9617TIP3   OH228807   6.789   4.833   0.639
 9617TIP3    H128808   6.835   4.773   0.580
 9617TIP3    H228809   6.775   4.782   0.719
 9618TIP3   OH228810   5.881   4.348   0.298
 9618TIP3    H128811   5.792   4.380   0.284
 9618TIP3    H228812   5.886   4.268   0.245
 9619TIP3   OH228813   3.352   0.363   6.941
 9619TIP3    H128814   3.441   0.348   6.909
 9619TIP3    H228815   3.297   0.351   6.864
 9620TIP3   OH228816   3.185   0.345   6.715
 9620TIP3    H128817   3.112   0.324   6.658
 9620TIP3    H228818   3.247   0.392   6.660
 9621TIP3   OH228819   7.138   6.060   0.722
 9621TIP3    H128820   7.135   6.086   0.630
 9621TIP3    H228821   7.214   6.107   0.757
 9622TIP3   OH228822   6.540   4.610   0.410
 9622TIP3    H128823   6.623   4.575   0.378
 9622TIP3    H228824   6.540   4.590   0.503
 9623TIP3   OH228825   6.533   4.571   0.685
 9623TIP3    H128826   6.484   4.505   0.734
 9623TIP3    H228827   6.602   4.599   0.746
 9624TIP3   OH228828   3.428   0.901   6.730
 9624TIP3    H128829   3.358   0.838   6.716
 9624TIP3    H228830   3.411   0.937   6.818
 9625TIP3   OH228831   7.170   5.140   0.419
 9625TIP3    H128832   7.208   5.173   0.337
 9625TIP3    H228833   7.088   5.098   0.391
 9626TIP3   OH228834   3.869   0.284   6.549
 9626TIP3    H128835   3.809   0.232   6.602
 9626TIP3    H228836   3.905   0.349   6.610
 9627TIP3   OH228837   6.674   5.230   0.778
 9627TIP3    H128838   6.663   5.186   0.862
 9627TIP3    H228839   6.629   5.314   0.789
 9628TIP3   OH228840   3.967   0.480   6.711
 9628TIP3    H128841   4.061   0.492   6.723
 9628TIP3    H228842   3.940   0.556   6.659
 9629TIP3   OH228843   3.577   1.054   6.557
 9629TIP3    H128844   3.531   1.137   6.556
 9629TIP3    H228845   3.524   0.998   6.614
 9630TIP3   OH228846   6.835   5.489   0.692
 9630TIP3    H128847   6.742   5.468   0.692
 9630TIP3    H228848   6.842   5.569   0.743
 9631TIP3   OH228849   4.396   0.553   6.517
 9631TIP3    H128850   4.341   0.501   6.459
 9631TIP3    H228851   4.385   0.643   6.485
 9632TIP3   OH228852   7.450   5.417   0.666
 9632TIP3    H128853   7.355   5.411   0.662
 9632TIP3    H228854   7.480   5.387   0.580
 9633TIP3   OH228855   4.106   1.370   6.439
 9633TIP3    H128856   4.073   1.301   6.498
 9633TIP3    H228857   4.116   1.327   6.355
 9634TIP3   OH228858   6.929   5.006   0.335
 9634TIP3    H128859   6.837   4.983   0.347
 9634TIP3    H228860   6.966   4.930   0.290
 9635TIP3   OH228861   6.059   5.242   0.093
 9635TIP3    H128862   6.064   5.320   0.036
 9635TIP3    H228863   5.966   5.221   0.097
 9636TIP3   OH228864   2.790   0.533   6.741
 9636TIP3    H128865   2.835   0.616   6.756
 9636TIP3    H228866   2.712   0.537   6.796
 9637TIP3   OH228867   6.190   5.004   0.031
 9637TIP3    H128868   6.158   5.092   0.051
 9637TIP3    H228869   6.157   4.950   0.103
 9638TIP3   OH228870   6.333   5.582   0.543
 9638TIP3    H128871   6.370   5.657   0.495
 9638TIP3    H228872   6.407   5.549   0.595
 9639TIP3   OH228873   3.156   1.465   6.879
 9639TIP3    H128874   3.070   1.468   6.921
 9639TIP3    H228875   3.187   1.556   6.881
 9640TIP3   OH228876   6.716   5.212   0.514
 9640TIP3    H128877   6.708   5.212   0.609
 9640TIP3    H228878   6.791   5.154   0.497
 9641TIP3   OH228879   3.860   1.098   6.342
 9641TIP3    H128880   3.910   1.075   6.420
 9641TIP3    H228881   3.770   1.073   6.363
 9642TIP3   OH228882   6.958   5.746   0.562
 9642TIP3    H128883   6.879   5.695   0.546
 9642TIP3    H228884   6.957   5.814   0.493
 9643TIP3   OH228885   4.195   1.574   6.158
 9643TIP3    H128886   4.234   1.642   6.103
 9643TIP3    H228887   4.117   1.614   6.195
 9644TIP3   OH228888   4.022   1.030   6.556
 9644TIP3    H128889   4.009   0.967   6.627
 9644TIP3    H228890   4.116   1.030   6.541
 9645TIP3   OH228891   5.782   5.453   0.701
 9645TIP3    H128892   5.807   5.364   0.728
 9645TIP3    H228893   5.745   5.493   0.779
 9646TIP3   OH228894   3.226   1.077   6.342
 9646TIP3    H128895   3.235   0.987   6.312
 9646TIP3    H228896   3.202   1.070   6.435
 9647TIP3   OH228897   3.168   1.085   6.614
 9647TIP3    H128898   3.243   1.060   6.668
 9647TIP3    H228899   3.166   1.181   6.618
 9648TIP3   OH228900   2.902   0.780   6.818
 9648TIP3    H128901   2.836   0.823   6.873
 9648TIP3    H228902   2.917   0.843   6.747
 9649TIP3   OH228903   3.434   1.283   6.561
 9649TIP3    H128904   3.348   1.303   6.597
 9649TIP3    H228905   3.451   1.354   6.499
 9650TIP3   OH228906   6.478   4.340   0.001
 9650TIP3    H128907   6.522   4.424  -0.011
 9650TIP3    H228908   6.488   4.320   0.094
 9651TIP3   OH228909   6.752   4.680   0.865
 9651TIP3    H128910   6.760   4.742   0.938
 9651TIP3    H228911   6.770   4.594   0.905
 9652TIP3   OH228912   3.179   1.356   6.627
 9652TIP3    H128913   3.151   1.424   6.565
 9652TIP3    H228914   3.168   1.397   6.713
 9653TIP3   OH228915   7.022   4.765   0.212
 9653TIP3    H128916   6.935   4.726   0.218
 9653TIP3    H228917   7.077   4.708   0.266
 9654TIP3   OH228918   2.897   0.981   6.617
 9654TIP3    H128919   2.958   1.054   6.630
 9654TIP3    H228920   2.940   0.924   6.554
 9655TIP3   OH228921   2.838   0.261   6.745
 9655TIP3    H128922   2.835   0.357   6.737
 9655TIP3    H228923   2.747   0.233   6.731
 9656TIP3   OH228924   6.988   5.724   0.156
 9656TIP3    H128925   6.942   5.768   0.085
 9656TIP3    H228926   7.080   5.740   0.139
 9657TIP3   OH228927   5.587   5.187   0.067
 9657TIP3    H128928   5.532   5.233   0.130
 9657TIP3    H228929   5.577   5.237  -0.014
 9658TIP3   OH228930   3.387   1.279   6.250
 9658TIP3    H128931   3.332   1.211   6.287
 9658TIP3    H228932   3.461   1.232   6.213
 9659TIP3   OH228933   6.889   5.607   0.951
 9659TIP3    H128934   6.932   5.532   0.910
 9659TIP3    H228935   6.960   5.669   0.968
 9660TIP3   OH228936   3.823   1.320   6.164
 9660TIP3    H128937   3.866   1.258   6.222
 9660TIP3    H228938   3.875   1.318   6.083
 9661TIP3   OH228939   3.036   0.797   6.476
 9661TIP3    H128940   3.091   0.769   6.550
 9661TIP3    H228941   3.097   0.804   6.402
 9662TIP3   OH228942   3.553   1.000   6.287
 9662TIP3    H128943   3.549   1.014   6.381
 9662TIP3    H228944   3.552   0.905   6.276
 9663TIP3   OH228945   6.993   5.256   0.730
 9663TIP3    H128946   7.068   5.291   0.681
 9663TIP3    H228947   6.921   5.315   0.709
 9664TIP3   OH228948   3.237   0.704   6.695
 9664TIP3    H128949   3.214   0.663   6.779
 9664TIP3    H228950   3.275   0.632   6.643
 9665TIP3   OH228951   3.341   0.498   6.540
 9665TIP3    H128952   3.312   0.505   6.449
 9665TIP3    H228953   3.436   0.499   6.534
 9666TIP3   OH228954   4.162   0.826   6.196
 9666TIP3    H128955   4.141   0.783   6.114
 9666TIP3    H228956   4.133   0.916   6.184
 9667TIP3   OH228957   6.490   4.888   0.805
 9667TIP3    H128958   6.578   4.885   0.766
 9667TIP3    H228959   6.441   4.949   0.750
 9668TIP3   OH228960   7.128   5.104   0.908
 9668TIP3    H128961   7.064   5.154   0.857
 9668TIP3    H228962   7.212   5.124   0.867
 9669TIP3   OH228963   3.151   1.556   6.438
 9669TIP3    H128964   3.245   1.549   6.420
 9669TIP3    H228965   3.118   1.610   6.366
 9670TIP3   OH228966   2.628   0.938   6.659
 9670TIP3    H128967   2.719   0.963   6.643
 9670TIP3    H228968   2.619   0.853   6.617
 9671TIP3   OH228969   5.346   5.552   0.140
 9671TIP3    H128970   5.293   5.483   0.100
 9671TIP3    H228971   5.416   5.504   0.185
 9672TIP3   OH228972   5.522   5.404   0.302
 9672TIP3    H128973   5.498   5.341   0.370
 9672TIP3    H228974   5.568   5.473   0.348
 9673TIP3   OH228975   7.245   5.806   0.121
 9673TIP3    H128976   7.268   5.848   0.204
 9673TIP3    H228977   7.301   5.849   0.057
 9674TIP3   OH228978   7.264   5.831   0.406
 9674TIP3    H128979   7.223   5.745   0.395
 9674TIP3    H228980   7.346   5.812   0.452
 9675TIP3   OH228981   7.320   5.513   0.957
 9675TIP3    H128982   7.246   5.516   1.019
 9675TIP3    H228983   7.361   5.599   0.966
 9676TIP3   OH228984   4.299   1.014   6.527
 9676TIP3    H128985   4.360   1.081   6.496
 9676TIP3    H228986   4.341   0.978   6.605
 9677TIP3   OH228987   4.421   0.883   6.730
 9677TIP3    H128988   4.356   0.847   6.790
 9677TIP3    H228989   4.486   0.924   6.787
 9678TIP3   OH228990   7.330   5.272   0.219
 9678TIP3    H128991   7.357   5.235   0.135
 9678TIP3    H228992   7.300   5.361   0.197
 9679TIP3   OH228993   7.139   5.580   0.421
 9679TIP3    H128994   7.070   5.624   0.471
 9679TIP3    H228995   7.093   5.537   0.349
 9680TIP3   OH228996   4.354   0.788   6.382
 9680TIP3    H128997   4.290   0.794   6.312
 9680TIP3    H228998   4.335   0.863   6.439
 9681TIP3   OH228999   4.225   0.445   6.319
 9681TIP3    H129000   4.213   0.532   6.282
 9681TIP3    H229001   4.167   0.388   6.268
 9682TIP3   OH229002   4.239   0.750   6.881
 9682TIP3    H129003   4.235   0.658   6.855
 9682TIP3    H229004   4.227   0.749   6.976
 9683TIP3   OH229005   5.712   4.873   0.665
 9683TIP3    H129006   5.699   4.829   0.581
 9683TIP3    H229007   5.731   4.803   0.727
 9684TIP3   OH229008   7.365   5.171   0.791
 9684TIP3    H129009   7.431   5.102   0.784
 9684TIP3    H229010   7.395   5.240   0.732
 9685TIP3   OH229011   7.538   4.965   0.795
 9685TIP3    H129012   7.468   4.915   0.836
 9685TIP3    H229013   7.618   4.917   0.819
 9686TIP3   OH229014   4.241   0.499   6.753
 9686TIP3    H129015   4.272   0.422   6.801
 9686TIP3    H229016   4.299   0.504   6.677
 9687TIP3   OH229017   7.238   4.634   0.340
 9687TIP3    H129018   7.306   4.682   0.291
 9687TIP3    H229019   7.244   4.669   0.429
 9688TIP3   OH229020   7.277   4.813   0.552
 9688TIP3    H129021   7.209   4.806   0.619
 9688TIP3    H229022   7.275   4.906   0.526
 9689TIP3   OH229023   3.994   1.671   6.715
 9689TIP3    H129024   4.040   1.660   6.632
 9689TIP3    H229025   4.041   1.742   6.759
 9690TIP3   OH229026   6.100   5.489   0.649
 9690TIP3    H129027   6.042   5.558   0.617
 9690TIP3    H229028   6.186   5.510   0.611
 9691TIP3   OH229029   6.532   5.757   0.813
 9691TIP3    H129030   6.557   5.763   0.906
 9691TIP3    H229031   6.596   5.812   0.768
 9692TIP3   OH229032   6.726   5.909   0.701
 9692TIP3    H129033   6.795   5.872   0.645
 9692TIP3    H229034   6.773   5.970   0.759
 9693TIP3   OH229035   5.775   5.783   0.718
 9693TIP3    H129036   5.691   5.819   0.689
 9693TIP3    H229037   5.780   5.802   0.811
 9694TIP3   OH229038   6.015   5.746   0.584
 9694TIP3    H129039   5.932   5.758   0.629
 9694TIP3    H229040   6.000   5.781   0.496
 9695TIP3   OH229041   6.441   5.780   0.386
 9695TIP3    H129042   6.372   5.794   0.321
 9695TIP3    H229043   6.453   5.866   0.427
 9696TIP3   OH229044   6.709   5.716   0.441
 9696TIP3    H129045   6.617   5.733   0.423
 9696TIP3    H229046   6.755   5.785   0.393
 9697TIP3   OH229047   6.915   5.908   0.350
 9697TIP3    H129048   6.900   5.992   0.307
 9697TIP3    H229049   6.941   5.849   0.279
 9698TIP3   OH229050   5.687   5.560   0.471
 9698TIP3    H129051   5.720   5.543   0.559
 9698TIP3    H229052   5.754   5.526   0.412
 9699TIP3   OH229053   5.886   5.442   0.335
 9699TIP3    H129054   5.901   5.363   0.386
 9699TIP3    H229055   5.972   5.482   0.325
 9700TIP3   OH229056   6.150   5.531   0.335
 9700TIP3    H129057   6.180   5.442   0.316
 9700TIP3    H229058   6.202   5.557   0.411
 9701TIP3   OH229059   2.644   1.339   6.811
 9701TIP3    H129060   2.560   1.307   6.779
 9701TIP3    H229061   2.643   1.433   6.793
 9702TIP3   OH229062   3.420   1.513   6.387
 9702TIP3    H129063   3.505   1.541   6.354
 9702TIP3    H229064   3.393   1.442   6.329
 9703TIP3   OH229065   4.135   1.637   6.481
 9703TIP3    H129066   4.130   1.542   6.473
 9703TIP3    H229067   4.089   1.670   6.404
 9704TIP3   OH229068   2.723   1.358   6.445
 9704TIP3    H129069   2.729   1.387   6.536
 9704TIP3    H229070   2.807   1.314   6.429
 9705TIP3   OH229071   7.183   5.791   0.728
 9705TIP3    H129072   7.114   5.762   0.669
 9705TIP3    H229073   7.175   5.886   0.730
 9706TIP3   OH229074   5.623   1.151   6.435
 9706TIP3    H129075   5.602   1.243   6.418
 9706TIP3    H229076   5.550   1.103   6.396
 9707TIP3   OH229077   5.630   1.155   6.818
 9707TIP3    H129078   5.660   1.134   6.906
 9707TIP3    H229079   5.588   1.075   6.787
 9708TIP3   OH229080   7.762   5.032   0.255
 9708TIP3    H129081   7.792   5.025   0.346
 9708TIP3    H229082   7.769   5.125   0.235
 9709TIP3   OH229083   5.872   1.455   6.500
 9709TIP3    H129084   5.856   1.392   6.570
 9709TIP3    H229085   5.900   1.535   6.546
 9710TIP3   OH229086   4.901   1.453   6.905
 9710TIP3    H129087   4.893   1.358   6.909
 9710TIP3    H229088   4.995   1.468   6.891
 9711TIP3   OH229089   4.582   0.665   6.721
 9711TIP3    H129090   4.535   0.748   6.721
 9711TIP3    H229091   4.537   0.613   6.654
 9712TIP3   OH229092   4.652   0.960   6.850
 9712TIP3    H129093   4.707   0.890   6.886
 9712TIP3    H229094   4.714   1.019   6.806
 9713TIP3   OH229095   5.471   1.856   6.533
 9713TIP3    H129096   5.531   1.836   6.461
 9713TIP3    H229097   5.528   1.893   6.601
 9714TIP3   OH229098   5.428   1.378   6.867
 9714TIP3    H129099   5.465   1.304   6.819
 9714TIP3    H229100   5.503   1.429   6.895
 9715TIP3   OH229101   5.841   0.879   6.911
 9715TIP3    H129102   5.866   0.790   6.937
 9715TIP3    H229103   5.805   0.869   6.823
 9716TIP3   OH229104   5.139   0.507   6.851
 9716TIP3    H129105   5.127   0.587   6.801
 9716TIP3    H229106   5.089   0.440   6.804
 9717TIP3   OH229107   5.834   0.653   6.533
 9717TIP3    H129108   5.891   0.610   6.596
 9717TIP3    H229109   5.888   0.661   6.454
 9718TIP3   OH229110   7.611   4.755   0.047
 9718TIP3    H129111   7.699   4.718   0.038
 9718TIP3    H229112   7.557   4.700  -0.009
 9719TIP3   OH229113   5.246   0.938   6.770
 9719TIP3    H129114   5.339   0.919   6.782
 9719TIP3    H229115   5.209   0.855   6.740
 9720TIP3   OH229116   0.805   4.898   0.127
 9720TIP3    H129117   0.735   4.952   0.090
 9720TIP3    H229118   0.868   4.961   0.161
 9721TIP3   OH229119   5.516   1.377   6.301
 9721TIP3    H129120   5.478   1.366   6.214
 9721TIP3    H229121   5.479   1.459   6.333
 9722TIP3   OH229122   8.110   5.305   0.145
 9722TIP3    H129123   8.054   5.373   0.182
 9722TIP3    H229124   8.154   5.348   0.071
 9723TIP3   OH229125   7.867   4.722   0.105
 9723TIP3    H129126   7.945   4.760   0.147
 9723TIP3    H229127   7.897   4.638   0.072
 9724TIP3   OH229128   7.940   5.505   0.247
 9724TIP3    H129129   7.921   5.590   0.208
 9724TIP3    H229130   7.864   5.487   0.303
 9725TIP3   OH229131   4.499   1.187   6.422
 9725TIP3    H129132   4.459   1.211   6.339
 9725TIP3    H229133   4.529   1.270   6.459
 9726TIP3   OH229134   5.942   1.704   6.660
 9726TIP3    H129135   5.858   1.692   6.704
 9726TIP3    H229136   5.933   1.788   6.614
 9727TIP3   OH229137   5.649   1.748   6.340
 9727TIP3    H129138   5.690   1.664   6.319
 9727TIP3    H229139   5.708   1.814   6.304
 9728TIP3   OH229140   5.787   1.526   6.247
 9728TIP3    H129141   5.739   1.450   6.213
 9728TIP3    H229142   5.824   1.495   6.330
 9729TIP3   OH229143   0.498   5.618   0.066
 9729TIP3    H129144   0.487   5.541   0.009
 9729TIP3    H229145   0.480   5.693   0.009
 9730TIP3   OH229146   5.457   1.011   6.262
 9730TIP3    H129147   5.379   1.063   6.246
 9730TIP3    H229148   5.501   1.008   6.178
 9731TIP3   OH229149   5.417   0.789   5.981
 9731TIP3    H129150   5.483   0.843   6.025
 9731TIP3    H229151   5.468   0.724   5.932
 9732TIP3   OH229152   6.361   1.256   6.853
 9732TIP3    H129153   6.278   1.303   6.859
 9732TIP3    H229154   6.394   1.276   6.766
 9733TIP3   OH229155   5.804   1.088   6.239
 9733TIP3    H129156   5.749   1.112   6.314
 9733TIP3    H229157   5.890   1.070   6.277
 9734TIP3   OH229158   0.370   5.136   0.217
 9734TIP3    H129159   0.370   5.216   0.270
 9734TIP3    H229160   0.287   5.138   0.170
 9735TIP3   OH229161   5.036   1.083   6.655
 9735TIP3    H129162   4.997   1.028   6.588
 9735TIP3    H229163   5.112   1.035   6.686
 9736TIP3   OH229164   5.163   1.481   6.806
 9736TIP3    H129165   5.148   1.466   6.713
 9736TIP3    H229166   5.253   1.453   6.821
 9737TIP3   OH229167   7.994   5.064   0.068
 9737TIP3    H129168   8.035   5.035  -0.014
 9737TIP3    H229169   8.041   5.145   0.090
 9738TIP3   OH229170   5.710   1.694   6.793
 9738TIP3    H129171   5.685   1.774   6.838
 9738TIP3    H229172   5.684   1.624   6.853
 9739TIP3   OH229173   8.144   5.620   0.393
 9739TIP3    H129174   8.087   5.681   0.439
 9739TIP3    H229175   8.085   5.567   0.341
 9740TIP3   OH229176   5.646   0.947   6.061
 9740TIP3    H129177   5.700   1.007   6.112
 9740TIP3    H229178   5.671   0.964   5.970
 9741TIP3   OH229179   7.881   5.188   0.482
 9741TIP3    H129180   7.901   5.267   0.532
 9741TIP3    H229181   7.792   5.165   0.508
 9742TIP3   OH229182   5.389   1.624   6.336
 9742TIP3    H129183   5.459   1.675   6.376
 9742TIP3    H229184   5.331   1.689   6.297
 9743TIP3   OH229185   7.939   5.786   0.479
 9743TIP3    H129186   7.907   5.792   0.389
 9743TIP3    H229187   7.860   5.765   0.531
 9744TIP3   OH229188   4.901   0.927   6.459
 9744TIP3    H129189   4.841   0.979   6.405
 9744TIP3    H229190   4.861   0.840   6.462
 9745TIP3   OH229191   5.963   1.554   5.659
 9745TIP3    H129192   5.968   1.648   5.646
 9745TIP3    H229193   6.053   1.523   5.648
 9746TIP3   OH229194   7.518   5.312   0.427
 9746TIP3    H129195   7.453   5.294   0.359
 9746TIP3    H229196   7.547   5.225   0.455
 9747TIP3   OH229197   7.376   5.517   0.063
 9747TIP3    H129198   7.471   5.514   0.050
 9747TIP3    H229199   7.361   5.598   0.112
 9748TIP3   OH229200   0.735   5.966   0.117
 9748TIP3    H129201   0.738   5.871   0.128
 9748TIP3    H229202   0.654   5.993   0.161
 9749TIP3   OH229203   8.343   5.749   0.253
 9749TIP3    H129204   8.341   5.840   0.281
 9749TIP3    H229205   8.273   5.707   0.304
 9750TIP3   OH229206   5.268   1.863   6.142
 9750TIP3    H129207   5.228   1.857   6.056
 9750TIP3    H229208   5.245   1.951   6.173
 9751TIP3   OH229209   4.709   1.719   6.530
 9751TIP3    H129210   4.758   1.713   6.612
 9751TIP3    H229211   4.652   1.641   6.531
 9752TIP3   OH229212   5.472   1.772   5.782
 9752TIP3    H129213   5.530   1.704   5.747
 9752TIP3    H229214   5.504   1.787   5.871
 9753TIP3   OH229215   5.523   1.823   6.054
 9753TIP3    H129216   5.437   1.832   6.095
 9753TIP3    H229217   5.582   1.800   6.127
 9754TIP3   OH229218   0.623   5.079   0.374
 9754TIP3    H129219   0.542   5.110   0.335
 9754TIP3    H229220   0.614   4.984   0.375
 9755TIP3   OH229221   7.722   5.501   0.413
 9755TIP3    H129222   7.773   5.488   0.493
 9755TIP3    H229223   7.649   5.440   0.421
 9756TIP3   OH229224   0.395   4.877   0.335
 9756TIP3    H129225   0.367   4.911   0.420
 9756TIP3    H229226   0.382   4.950   0.275
 9757TIP3   OH229227   5.725   0.982   5.805
 9757TIP3    H129228   5.686   0.963   5.719
 9757TIP3    H229229   5.802   1.036   5.785
 9758TIP3   OH229230   8.070   4.851   0.231
 9758TIP3    H129231   8.033   4.875   0.316
 9758TIP3    H229232   8.060   4.930   0.177
 9759TIP3   OH229233   5.106   0.715   6.680
 9759TIP3    H129234   5.010   0.710   6.689
 9759TIP3    H229235   5.123   0.690   6.590
 9760TIP3   OH229236   5.588   0.810   6.397
 9760TIP3    H129237   5.543   0.882   6.354
 9760TIP3    H229238   5.655   0.783   6.334
 9761TIP3   OH229239   0.116   5.117   0.532
 9761TIP3    H129240   0.089   5.040   0.581
 9761TIP3    H229241   0.208   5.130   0.554
 9762TIP3   OH229242   5.729   0.873   6.657
 9762TIP3    H129243   5.679   0.925   6.594
 9762TIP3    H229244   5.753   0.794   6.608
 9763TIP3   OH229245   7.872   4.861   0.447
 9763TIP3    H129246   7.912   4.925   0.507
 9763TIP3    H229247   7.868   4.780   0.498
 9764TIP3   OH229248   4.673   0.485   6.507
 9764TIP3    H129249   4.696   0.485   6.414
 9764TIP3    H229250   4.579   0.501   6.509
 9765TIP3   OH229251   0.088   5.088   0.122
 9765TIP3    H129252   0.126   5.023   0.064
 9765TIP3    H229253   0.064   5.039   0.201
 9766TIP3   OH229254   4.845   0.604   6.731
 9766TIP3    H129255   4.754   0.634   6.725
 9766TIP3    H229256   4.851   0.531   6.669
 9767TIP3   OH229257   5.144   0.617   6.431
 9767TIP3    H129258   5.235   0.605   6.403
 9767TIP3    H229259   5.093   0.606   6.351
 9768TIP3   OH229260   4.980   0.600   6.201
 9768TIP3    H129261   4.906   0.583   6.143
 9768TIP3    H229262   5.042   0.648   6.147
 9769TIP3   OH229263   0.431   6.315   0.214
 9769TIP3    H129264   0.425   6.336   0.120
 9769TIP3    H229265   0.507   6.365   0.244
 9770TIP3   OH229266   7.887   5.424   0.637
 9770TIP3    H129267   7.968   5.451   0.680
 9770TIP3    H229268   7.822   5.421   0.706
 9771TIP3   OH229269   5.502   0.866   6.830
 9771TIP3    H129270   5.587   0.849   6.791
 9771TIP3    H229271   5.511   0.836   6.921
 9772TIP3   OH229272   8.346   4.807   0.154
 9772TIP3    H129273   8.259   4.802   0.192
 9772TIP3    H229274   8.399   4.849   0.222
 9773TIP3   OH229275   5.225   1.157   6.217
 9773TIP3    H129276   5.154   1.095   6.201
 9773TIP3    H229277   5.208   1.192   6.304
 9774TIP3   OH229278   6.126   1.395   6.840
 9774TIP3    H129279   6.151   1.445   6.763
 9774TIP3    H229280   6.043   1.353   6.816
 9775TIP3   OH229281   5.662   0.540   6.037
 9775TIP3    H129282   5.605   0.490   6.096
 9775TIP3    H229283   5.701   0.607   6.094
 9776TIP3   OH229284   8.454   5.482   0.276
 9776TIP3    H129285   8.493   5.470   0.362
 9776TIP3    H229286   8.422   5.572   0.276
 9777TIP3   OH229287   5.765   0.735   6.196
 9777TIP3    H129288   5.860   0.746   6.206
 9777TIP3    H229289   5.738   0.812   6.146
 9778TIP3   OH229290   4.926   1.162   6.894
 9778TIP3    H129291   4.949   1.154   6.801
 9778TIP3    H229292   5.001   1.124   6.940
 9779TIP3   OH229293   5.372   1.308   6.038
 9779TIP3    H129294   5.326   1.392   6.038
 9779TIP3    H229295   5.321   1.254   6.099
 9780TIP3   OH229296   7.635   5.103   0.582
 9780TIP3    H129297   7.692   5.128   0.654
 9780TIP3    H229298   7.578   5.035   0.618
 9781TIP3   OH229299   8.367   5.226   0.581
 9781TIP3    H129300   8.310   5.174   0.524
 9781TIP3    H229301   8.456   5.201   0.556
 9782TIP3   OH229302   0.119   5.739   0.177
 9782TIP3    H129303   0.024   5.741   0.183
 9782TIP3    H229304   0.149   5.794   0.249
 9783TIP3   OH229305   6.192   0.810   6.002
 9783TIP3    H129306   6.136   0.758   5.945
 9783TIP3    H229307   6.182   0.900   5.971
 9784TIP3   OH229308   0.748   5.676   0.152
 9784TIP3    H129309   0.652   5.670   0.147
 9784TIP3    H229310   0.777   5.646   0.066
 9785TIP3   OH229311   5.904   1.629   5.927
 9785TIP3    H129312   5.869   1.567   5.991
 9785TIP3    H229313   5.911   1.578   5.846
 9786TIP3   OH229314   5.893   1.258   6.759
 9786TIP3    H129315   5.800   1.236   6.774
 9786TIP3    H229316   5.928   1.182   6.713
 9787TIP3   OH229317   5.025   1.490   6.518
 9787TIP3    H129318   5.031   1.568   6.463
 9787TIP3    H229319   4.931   1.472   6.525
 9788TIP3   OH229320   4.585   0.790   6.225
 9788TIP3    H129321   4.631   0.873   6.240
 9788TIP3    H229322   4.509   0.794   6.283
 9789TIP3   OH229323   5.151   1.248   6.458
 9789TIP3    H129324   5.124   1.339   6.474
 9789TIP3    H229325   5.118   1.200   6.535
 9790TIP3   OH229326   8.128   5.836   0.041
 9790TIP3    H129327   8.165   5.908  -0.010
 9790TIP3    H229328   8.202   5.798   0.087
 9791TIP3   OH229329   4.941   1.727   6.370
 9791TIP3    H129330   4.857   1.735   6.414
 9791TIP3    H229331   4.977   1.816   6.371
 9792TIP3   OH229332   0.008   5.466   0.009
 9792TIP3    H129333  -0.002   5.464   0.104
 9792TIP3    H229334   0.091   5.420  -0.007
 9793TIP3   OH229335   5.656   1.353   5.829
 9793TIP3    H129336   5.710   1.329   5.905
 9793TIP3    H229337   5.566   1.333   5.856
 9794TIP3   OH229338   0.257   6.002   0.049
 9794TIP3    H129339   0.178   5.949   0.042
 9794TIP3    H229340   0.248   6.068  -0.020
 9795TIP3   OH229341   5.991   1.830   5.644
 9795TIP3    H129342   6.029   1.900   5.591
 9795TIP3    H229343   5.912   1.869   5.682
 9796TIP3   OH229344   5.819   1.281   6.039
 9796TIP3    H129345   5.806   1.220   6.113
 9796TIP3    H229346   5.914   1.285   6.028
 9797TIP3   OH229347   7.565   5.698   0.204
 9797TIP3    H129348   7.621   5.628   0.239
 9797TIP3    H229349   7.593   5.777   0.251
 9798TIP3   OH229350   5.019   1.334   5.828
 9798TIP3    H129351   5.033   1.244   5.801
 9798TIP3    H229352   4.999   1.329   5.922
 9799TIP3   OH229353   4.965   1.343   6.101
 9799TIP3    H129354   5.042   1.319   6.153
 9799TIP3    H229355   4.963   1.438   6.103
 9800TIP3   OH229356   4.697   1.037   6.304
 9800TIP3    H129357   4.632   1.080   6.360
 9800TIP3    H229358   4.713   1.100   6.233
 9801TIP3   OH229359   5.227   1.536   6.044
 9801TIP3    H129360   5.143   1.560   6.083
 9801TIP3    H229361   5.256   1.615   5.998
 9802TIP3   OH229362   5.430   0.594   6.425
 9802TIP3    H129363   5.479   0.675   6.413
 9802TIP3    H229364   5.449   0.568   6.515
 9803TIP3   OH229365   0.034   4.928   0.334
 9803TIP3    H129366   0.031   4.990   0.407
 9803TIP3    H229367   0.086   4.855   0.367
 9804TIP3   OH229368   4.973   1.614   6.117
 9804TIP3    H129369   4.946   1.681   6.054
 9804TIP3    H229370   4.961   1.656   6.203
 9805TIP3   OH229371   5.981   1.015   6.640
 9805TIP3    H129372   5.902   0.966   6.662
 9805TIP3    H229373   6.051   0.970   6.687
 9806TIP3   OH229374   4.696   1.238   6.106
 9806TIP3    H129375   4.759   1.309   6.119
 9806TIP3    H229376   4.736   1.182   6.040
 9807TIP3   OH229377   4.631   0.518   6.237
 9807TIP3    H129378   4.634   0.613   6.226
 9807TIP3    H229379   4.544   0.493   6.206
 9808TIP3   OH229380   5.947   1.977   6.583
 9808TIP3    H129381   5.899   2.017   6.511
 9808TIP3    H229382   6.039   1.990   6.561
 9809TIP3   OH229383   4.556   1.451   6.490
 9809TIP3    H129384   4.492   1.484   6.554
 9809TIP3    H229385   4.531   1.494   6.408
 9810TIP3   OH229386   7.558   6.009   0.630
 9810TIP3    H129387   7.643   6.014   0.674
 9810TIP3    H229388   7.541   5.915   0.622
 9811TIP3   OH229389   8.031   5.965   0.671
 9811TIP3    H129390   8.126   5.953   0.679
 9811TIP3    H229391   8.005   5.906   0.600
 9812TIP3   OH229392   5.181   1.537   5.733
 9812TIP3    H129393   5.126   1.469   5.774
 9812TIP3    H229394   5.258   1.489   5.703
 9813TIP3   OH229395   0.173   5.879   0.408
 9813TIP3    H129396   0.165   5.810   0.474
 9813TIP3    H229397   0.248   5.930   0.435
 9814TIP3   OH229398   5.619   1.575   5.650
 9814TIP3    H129399   5.662   1.514   5.710
 9814TIP3    H229400   5.674   1.574   5.571
 9815TIP3   OH229401   7.682   5.418   0.822
 9815TIP3    H129402   7.698   5.327   0.847
 9815TIP3    H229403   7.597   5.416   0.778
 9816TIP3   OH229404   4.832   1.052   5.963
 9816TIP3    H129405   4.887   1.027   6.037
 9816TIP3    H229406   4.893   1.059   5.889
 9817TIP3   OH229407   8.290   5.501   0.600
 9817TIP3    H129408   8.252   5.522   0.515
 9817TIP3    H229409   8.320   5.411   0.591
 9818TIP3   OH229410   5.343   1.255   5.771
 9818TIP3    H129411   5.345   1.270   5.865
 9818TIP3    H229412   5.343   1.160   5.762
 9819TIP3   OH229413   0.282   5.514   0.207
 9819TIP3    H129414   0.360   5.550   0.163
 9819TIP3    H229415   0.215   5.580   0.193
 9820TIP3   OH229416   7.805   5.149   0.794
 9820TIP3    H129417   7.870   5.079   0.788
 9820TIP3    H229418   7.822   5.188   0.880
 9821TIP3   OH229419   5.031   0.960   6.180
 9821TIP3    H129420   5.011   0.922   6.265
 9821TIP3    H229421   5.071   0.889   6.130
 9822TIP3   OH229422   8.120   5.050   0.453
 9822TIP3    H129423   8.046   5.111   0.452
 9822TIP3    H229424   8.179   5.082   0.385
 9823TIP3   OH229425   5.137   0.753   6.027
 9823TIP3    H129426   5.109   0.762   5.936
 9823TIP3    H229427   5.233   0.756   6.023
 9824TIP3   OH229428   0.159   5.435   0.604
 9824TIP3    H129429   0.230   5.401   0.550
 9824TIP3    H229430   0.146   5.368   0.672
 9825TIP3   OH229431   5.956   1.082   5.684
 9825TIP3    H129432   5.937   1.039   5.601
 9825TIP3    H229433   5.926   1.172   5.672
 9826TIP3   OH229434   8.225   4.839   0.584
 9826TIP3    H129435   8.182   4.776   0.525
 9826TIP3    H229436   8.196   4.925   0.551
 9827TIP3   OH229437   8.296   5.150   0.275
 9827TIP3    H129438   8.381   5.157   0.232
 9827TIP3    H229439   8.240   5.211   0.228
 9828TIP3   OH229440   0.369   5.116   0.636
 9828TIP3    H129441   0.398   5.051   0.700
 9828TIP3    H229442   0.450   5.160   0.608
 9829TIP3   OH229443   0.414   5.365   0.387
 9829TIP3    H129444   0.354   5.417   0.334
 9829TIP3    H229445   0.501   5.385   0.352
 9830TIP3   OH229446   8.107   4.967   0.811
 9830TIP3    H129447   8.055   4.905   0.862
 9830TIP3    H229448   8.162   4.911   0.755
 9831TIP3   OH229449   8.503   4.893   0.627
 9831TIP3    H129450   8.532   4.859   0.712
 9831TIP3    H229451   8.408   4.882   0.629
 9832TIP3   OH229452   4.946   1.812   5.924
 9832TIP3    H129453   5.041   1.804   5.912
 9832TIP3    H229454   4.917   1.866   5.851
 9833TIP3   OH229455   4.427   1.196   6.144
 9833TIP3    H129456   4.518   1.220   6.129
 9833TIP3    H229457   4.417   1.110   6.102
 9834TIP3   OH229458   4.340   1.807   6.559
 9834TIP3    H129459   4.275   1.750   6.519
 9834TIP3    H229460   4.386   1.751   6.622
 9835TIP3   OH229461   4.477   1.655   6.746
 9835TIP3    H129462   4.461   1.586   6.810
 9835TIP3    H229463   4.530   1.720   6.792
 9836TIP3   OH229464   6.208   2.053   6.547
 9836TIP3    H129465   6.230   2.089   6.633
 9836TIP3    H229466   6.261   2.104   6.486
 9837TIP3   OH229467   6.231   2.078   6.831
 9837TIP3    H129468   6.183   1.996   6.820
 9837TIP3    H229469   6.305   2.054   6.887
 9838TIP3   OH229470   0.611   5.767   0.463
 9838TIP3    H129471   0.537   5.776   0.523
 9838TIP3    H229472   0.653   5.853   0.465
 9839TIP3   OH229473   6.097   1.270   6.017
 9839TIP3    H129474   6.158   1.337   5.986
 9839TIP3    H229475   6.139   1.235   6.096
 9840TIP3   OH229476   6.221   1.143   6.224
 9840TIP3    H129477   6.154   1.107   6.282
 9840TIP3    H229478   6.285   1.182   6.283
 9841TIP3   OH229479   6.281   1.533   6.656
 9841TIP3    H129480   6.329   1.464   6.610
 9841TIP3    H229481   6.275   1.605   6.594
 9842TIP3   OH229482   6.103   1.832   6.849
 9842TIP3    H129483   6.033   1.874   6.898
 9842TIP3    H229484   6.059   1.787   6.777
 9843TIP3   OH229485   6.150   1.046   5.869
 9843TIP3    H129486   6.085   1.053   5.799
 9843TIP3    H229487   6.130   1.120   5.927
 9844TIP3   OH229488   6.020   0.704   5.808
 9844TIP3    H129489   6.007   0.788   5.765
 9844TIP3    H229490   5.969   0.642   5.756
 9845TIP3   OH229491   6.033   1.010   6.368
 9845TIP3    H129492   6.037   0.918   6.344
 9845TIP3    H229493   6.021   1.010   6.463
 9846TIP3   OH229494   0.657   5.428   0.279
 9846TIP3    H129495   0.727   5.363   0.275
 9846TIP3    H229496   0.683   5.495   0.216
 9847TIP3   OH229497   0.839   5.230   0.307
 9847TIP3    H129498   0.764   5.178   0.336
 9847TIP3    H229499   0.915   5.172   0.318
 9848TIP3   OH229500   6.036   0.757   6.237
 9848TIP3    H129501   6.065   0.681   6.288
 9848TIP3    H229502   6.096   0.760   6.163
 9849TIP3   OH229503   6.191   0.890   6.767
 9849TIP3    H129504   6.273   0.910   6.722
 9849TIP3    H229505   6.203   0.925   6.855
 9850TIP3   OH229506   0.588   5.048   0.049
 9850TIP3    H129507   0.513   5.082   0.098
 9850TIP3    H229508   0.624   5.125   0.004
 9851TIP3   OH229509   7.714   4.761   0.832
 9851TIP3    H129510   7.791   4.793   0.878
 9851TIP3    H229511   7.688   4.682   0.880
 9852TIP3   OH229512   5.802   1.913   6.197
 9852TIP3    H129513   5.856   1.914   6.118
 9852TIP3    H229514   5.809   2.002   6.232
 9853TIP3   OH229515   7.717   5.740   0.644
 9853TIP3    H129516   7.626   5.714   0.630
 9853TIP3    H229517   7.734   5.720   0.736
 9854TIP3   OH229518   7.902   5.778   0.190
 9854TIP3    H129519   7.851   5.850   0.154
 9854TIP3    H229520   7.988   5.786   0.149
 9855TIP3   OH229521   8.341   6.016   0.332
 9855TIP3    H129522   8.380   6.015   0.419
 9855TIP3    H229523   8.402   6.067   0.278
 9856TIP3   OH229524   0.020   6.170   0.194
 9856TIP3    H129525   0.086   6.120   0.145
 9856TIP3    H229526   0.071   6.225   0.254
 9857TIP3   OH229527   7.570   6.026   0.224
 9857TIP3    H129528   7.482   6.055   0.196
 9857TIP3    H229529   7.590   6.079   0.300
 9858TIP3   OH229530   7.808   6.008   0.078
 9858TIP3    H129531   7.722   6.020   0.120
 9858TIP3    H229532   7.795   6.039  -0.012
 9859TIP3   OH229533   5.402   2.028   6.818
 9859TIP3    H129534   5.340   2.036   6.747
 9859TIP3    H229535   5.410   2.116   6.854
 9860TIP3   OH229536   5.670   1.966   6.867
 9860TIP3    H129537   5.577   1.982   6.853
 9860TIP3    H229538   5.714   2.036   6.818
 9861TIP3   OH229539   5.881   2.161   6.776
 9861TIP3    H129540   5.863   2.243   6.731
 9861TIP3    H229541   5.904   2.100   6.705
 9862TIP3   OH229542   4.653   1.811   6.901
 9862TIP3    H129543   4.676   1.789   6.991
 9862TIP3    H229544   4.723   1.772   6.848
 9863TIP3   OH229545   4.848   1.685   6.763
 9863TIP3    H129546   4.863   1.603   6.811
 9863TIP3    H229547   4.935   1.726   6.758
 9864TIP3   OH229548   5.110   1.780   6.770
 9864TIP3    H129549   5.150   1.698   6.742
 9864TIP3    H229550   5.158   1.805   6.849
 9865TIP3   OH229551   4.437   1.593   6.292
 9865TIP3    H129552   4.353   1.558   6.262
 9865TIP3    H229553   4.435   1.686   6.267
 9866TIP3   OH229554   5.214   1.772   5.873
 9866TIP3    H129555   5.300   1.798   5.841
 9866TIP3    H229556   5.189   1.698   5.817
 9867TIP3   OH229557   5.940   1.897   5.960
 9867TIP3    H129558   5.931   1.801   5.955
 9867TIP3    H229559   5.887   1.929   5.886
 9868TIP3   OH229560   4.516   1.606   5.930
 9868TIP3    H129561   4.520   1.636   6.020
 9868TIP3    H229562   4.602   1.566   5.914
 9869TIP3   OH229563   0.485   6.045   0.215
 9869TIP3    H129564   0.411   6.012   0.164
 9869TIP3    H229565   0.470   6.139   0.222
 9870TIP3   OH229566   7.422   1.412   5.918
 9870TIP3    H129567   7.396   1.502   5.899
 9870TIP3    H229568   7.351   1.358   5.885
 9871TIP3   OH229569   7.413   1.417   6.294
 9871TIP3    H129570   7.438   1.398   6.384
 9871TIP3    H229571   7.373   1.335   6.262
 9872TIP3   OH229572   6.721   1.303   6.666
 9872TIP3    H129573   6.749   1.233   6.726
 9872TIP3    H229574   6.799   1.358   6.657
 9873TIP3   OH229575   7.672   1.716   5.985
 9873TIP3    H129576   7.646   1.648   6.047
 9873TIP3    H229577   7.701   1.789   6.040
 9874TIP3   OH229578   6.699   1.715   6.392
 9874TIP3    H129579   6.687   1.620   6.393
 9874TIP3    H229580   6.794   1.726   6.382
 9875TIP3   OH229581   6.385   0.928   6.189
 9875TIP3    H129582   6.334   1.008   6.202
 9875TIP3    H229583   6.330   0.873   6.133
 9876TIP3   OH229584   6.454   1.216   6.350
 9876TIP3    H129585   6.491   1.133   6.380
 9876TIP3    H229586   6.517   1.247   6.284
 9877TIP3   OH229587   7.323   2.176   6.004
 9877TIP3    H129588   7.363   2.108   5.949
 9877TIP3    H229589   7.306   2.132   6.087
 9878TIP3   OH229590   7.223   1.635   6.352
 9878TIP3    H129591   7.256   1.558   6.306
 9878TIP3    H229592   7.302   1.684   6.377
 9879TIP3   OH229593   7.630   1.141   6.401
 9879TIP3    H129594   7.660   1.052   6.422
 9879TIP3    H229595   7.598   1.134   6.311
 9880TIP3   OH229596   6.944   0.750   6.351
 9880TIP3    H129597   6.937   0.837   6.311
 9880TIP3    H229598   6.889   0.694   6.297
 9881TIP3   OH229599   7.632   0.912   6.024
 9881TIP3    H129600   7.687   0.864   6.087
 9881TIP3    H229601   7.683   0.911   5.943
 9882TIP3   OH229602   6.580   0.995   6.443
 9882TIP3    H129603   6.668   1.007   6.479
 9882TIP3    H229604   6.592   0.936   6.369
 9883TIP3   OH229605   7.041   1.194   6.255
 9883TIP3    H129606   7.134   1.176   6.271
 9883TIP3    H229607   7.004   1.108   6.232
 9884TIP3   OH229608   7.312   1.633   5.788
 9884TIP3    H129609   7.273   1.615   5.703
 9884TIP3    H229610   7.268   1.713   5.818
 9885TIP3   OH229611   7.081   1.557   6.577
 9885TIP3    H129612   7.019   1.620   6.613
 9885TIP3    H229613   7.117   1.600   6.500
 9886TIP3   OH229614   6.836   0.979   6.514
 9886TIP3    H129615   6.909   1.018   6.561
 9886TIP3    H229616   6.850   0.885   6.520
 9887TIP3   OH229617   6.903   1.753   6.675
 9887TIP3    H129618   6.880   1.837   6.636
 9887TIP3    H229619   6.828   1.729   6.729
 9888TIP3   OH229620   6.295   1.444   5.908
 9888TIP3    H129621   6.254   1.469   5.826
 9888TIP3    H229622   6.326   1.526   5.946
 9889TIP3   OH229623   7.735   1.960   6.151
 9889TIP3    H129624   7.649   1.949   6.191
 9889TIP3    H229625   7.729   2.043   6.104
 9890TIP3   OH229626   7.439   2.002   5.820
 9890TIP3    H129627   7.483   1.919   5.804
 9890TIP3    H229628   7.498   2.068   5.784
 9891TIP3   OH229629   7.580   1.786   5.736
 9891TIP3    H129630   7.543   1.709   5.694
 9891TIP3    H229631   7.619   1.754   5.817
 9892TIP3   OH229632   7.951   1.859   6.493
 9892TIP3    H129633   7.944   1.789   6.429
 9892TIP3    H229634   7.945   1.940   6.441
 9893TIP3   OH229635   7.255   1.270   5.750
 9893TIP3    H129636   7.175   1.319   5.733
 9893TIP3    H229637   7.296   1.261   5.664
 9894TIP3   OH229638   7.213   1.045   5.470
 9894TIP3    H129639   7.282   1.098   5.510
 9894TIP3    H229640   7.261   0.978   5.421
 9895TIP3   OH229641   8.188   1.510   6.335
 9895TIP3    H129642   8.096   1.534   6.347
 9895TIP3    H229643   8.207   1.532   6.244
 9896TIP3   OH229644   7.602   1.347   5.723
 9896TIP3    H129645   7.546   1.369   5.798
 9896TIP3    H229646   7.687   1.326   5.761
 9897TIP3   OH229647   7.848   1.367   6.511
 9897TIP3    H129648   7.910   1.434   6.540
 9897TIP3    H229649   7.801   1.408   6.439
 9898TIP3   OH229650   6.836   1.340   6.140
 9898TIP3    H129651   6.794   1.284   6.075
 9898TIP3    H229652   6.909   1.288   6.173
 9899TIP3   OH229653   6.965   1.754   6.287
 9899TIP3    H129654   6.941   1.722   6.200
 9899TIP3    H229655   7.051   1.716   6.304
 9900TIP3   OH229656   6.979   1.307   6.505
 9900TIP3    H129657   7.000   1.279   6.415
 9900TIP3    H229658   7.018   1.394   6.513
 9901TIP3   OH229659   7.498   1.952   6.275
 9901TIP3    H129660   7.484   2.032   6.326
 9901TIP3    H229661   7.479   1.881   6.336
 9902TIP3   OH229662   7.102   1.870   6.819
 9902TIP3    H129663   7.044   1.932   6.864
 9902TIP3    H229664   7.043   1.816   6.767
 9903TIP3   OH229665   7.443   1.203   5.547
 9903TIP3    H129666   7.497   1.264   5.598
 9903TIP3    H229667   7.467   1.220   5.456
 9904TIP3   OH229668   6.845   1.446   6.911
 9904TIP3    H129669   6.854   1.524   6.966
 9904TIP3    H229670   6.758   1.413   6.931
 9905TIP3   OH229671   7.189   1.881   5.828
 9905TIP3    H129672   7.269   1.933   5.834
 9905TIP3    H229673   7.127   1.938   5.781
 9906TIP3   OH229674   6.901   2.039   6.909
 9906TIP3    H129675   6.869   2.041   6.819
 9906TIP3    H229676   6.824   2.015   6.961
 9907TIP3   OH229677   6.699   1.185   5.944
 9907TIP3    H129678   6.633   1.230   5.892
 9907TIP3    H229679   6.664   1.097   5.956
 9908TIP3   OH229680   7.754   1.813   5.148
 9908TIP3    H129681   7.762   1.907   5.132
 9908TIP3    H229682   7.843   1.779   5.138
 9909TIP3   OH229683   6.482   1.570   6.851
 9909TIP3    H129684   6.415   1.552   6.785
 9909TIP3    H229685   6.519   1.484   6.872
 9910TIP3   OH229686   6.335   1.762   6.489
 9910TIP3    H129687   6.430   1.762   6.477
 9910TIP3    H229688   6.317   1.842   6.537
 9911TIP3   OH229689   8.181   2.223   6.535
 9911TIP3    H129690   8.202   2.130   6.544
 9911TIP3    H229691   8.101   2.233   6.587
 9912TIP3   OH229692   7.301   1.995   6.678
 9912TIP3    H129693   7.304   2.086   6.707
 9912TIP3    H229694   7.230   1.956   6.729
 9913TIP3   OH229695   7.071   2.128   5.627
 9913TIP3    H129696   7.024   2.108   5.547
 9913TIP3    H229697   7.036   2.212   5.656
 9914TIP3   OH229698   6.507   1.974   6.016
 9914TIP3    H129699   6.552   1.968   6.100
 9914TIP3    H229700   6.450   1.898   6.013
 9915TIP3   OH229701   7.271   2.030   5.267
 9915TIP3    H129702   7.326   1.961   5.230
 9915TIP3    H229703   7.302   2.040   5.356
 9916TIP3   OH229704   7.321   2.078   5.538
 9916TIP3    H129705   7.233   2.089   5.574
 9916TIP3    H229706   7.371   2.037   5.608
 9917TIP3   OH229707   6.686   1.753   6.840
 9917TIP3    H129708   6.736   1.735   6.920
 9917TIP3    H229709   6.613   1.691   6.844
 9918TIP3   OH229710   7.523   1.244   5.293
 9918TIP3    H129711   7.480   1.223   5.210
 9918TIP3    H229712   7.603   1.290   5.268
 9919TIP3   OH229713   7.036   1.097   6.668
 9919TIP3    H129714   6.974   1.115   6.738
 9919TIP3    H229715   7.026   1.171   6.608
 9920TIP3   OH229716   6.906   0.964   6.173
 9920TIP3    H129717   6.812   0.951   6.186
 9920TIP3    H229718   6.921   0.941   6.081
 9921TIP3   OH229719   7.387   1.071   5.887
 9921TIP3    H129720   7.339   1.140   5.842
 9921TIP3    H229721   7.452   1.041   5.824
 9922TIP3   OH229722   7.531   1.135   6.141
 9922TIP3    H129723   7.472   1.179   6.080
 9922TIP3    H229724   7.556   1.054   6.096
 9923TIP3   OH229725   6.838   1.126   6.857
 9923TIP3    H129726   6.857   1.186   6.929
 9923TIP3    H229727   6.817   1.043   6.900
 9924TIP3   OH229728   6.468   0.736   5.989
 9924TIP3    H129729   6.489   0.738   5.895
 9924TIP3    H229730   6.375   0.756   5.993
 9925TIP3   OH229731   7.506   1.339   6.536
 9925TIP3    H129732   7.539   1.263   6.489
 9925TIP3    H229733   7.567   1.352   6.609
 9926TIP3   OH229734   6.645   0.857   6.207
 9926TIP3    H129735   6.556   0.891   6.193
 9926TIP3    H229736   6.646   0.774   6.160
 9927TIP3   OH229737   6.943   0.876   5.917
 9927TIP3    H129738   7.032   0.861   5.886
 9927TIP3    H229739   6.888   0.864   5.839
 9928TIP3   OH229740   6.777   0.857   5.688
 9928TIP3    H129741   6.703   0.839   5.630
 9928TIP3    H229742   6.839   0.905   5.633
 9929TIP3   OH229743   7.895   2.566   6.638
 9929TIP3    H129744   7.892   2.590   6.546
 9929TIP3    H229745   7.959   2.626   6.676
 9930TIP3   OH229746   1.181   5.688   0.125
 9930TIP3    H129747   1.261   5.716   0.170
 9930TIP3    H229748   1.115   5.681   0.195
 9931TIP3   OH229749   7.299   1.137   6.327
 9931TIP3    H129750   7.373   1.099   6.281
 9931TIP3    H229751   7.292   1.087   6.408
 9932TIP3   OH229752   7.312   1.051   6.606
 9932TIP3    H129753   7.219   1.054   6.628
 9932TIP3    H229754   7.356   1.086   6.684
 9933TIP3   OH229755   7.021   1.415   5.704
 9933TIP3    H129756   6.952   1.350   5.689
 9933TIP3    H229757   7.004   1.449   5.791
 9934TIP3   OH229758   7.931   1.636   6.327
 9934TIP3    H129759   7.959   1.688   6.251
 9934TIP3    H229760   7.848   1.598   6.300
 9935TIP3   OH229761   7.459   0.799   5.524
 9935TIP3    H129762   7.401   0.746   5.579
 9935TIP3    H229763   7.497   0.863   5.585
 9936TIP3   OH229764   7.440   1.748   6.708
 9936TIP3    H129765   7.394   1.696   6.774
 9936TIP3    H229766   7.390   1.829   6.703
 9937TIP3   OH229767   7.562   0.994   5.686
 9937TIP3    H129768   7.656   1.004   5.694
 9937TIP3    H229769   7.534   1.068   5.633
 9938TIP3   OH229770   6.724   1.440   6.376
 9938TIP3    H129771   6.757   1.411   6.291
 9938TIP3    H229772   6.757   1.375   6.438
 9939TIP3   OH229773   7.169   1.566   5.529
 9939TIP3    H129774   7.123   1.650   5.529
 9939TIP3    H229775   7.116   1.510   5.586
 9940TIP3   OH229776   0.931   5.364   0.050
 9940TIP3    H129777   0.957   5.352   0.142
 9940TIP3    H229778   0.861   5.300   0.037
 9941TIP3   OH229779   1.645   5.492   0.067
 9941TIP3    H129780   1.572   5.444   0.026
 9941TIP3    H229781   1.717   5.429   0.068
 9942TIP3   OH229782   7.577   1.999   6.590
 9942TIP3    H129783   7.483   1.983   6.592
 9942TIP3    H229784   7.596   2.048   6.670
 9943TIP3   OH229785   7.988   1.064   5.488
 9943TIP3    H129786   7.931   1.014   5.430
 9943TIP3    H229787   7.980   1.154   5.456
 9944TIP3   OH229788   7.698   1.883   5.414
 9944TIP3    H129789   7.666   1.815   5.474
 9944TIP3    H229790   7.706   1.839   5.330
 9945TIP3   OH229791   7.687   1.502   6.265
 9945TIP3    H129792   7.593   1.487   6.265
 9945TIP3    H229793   7.723   1.434   6.208
 9946TIP3   OH229794   6.819   1.746   6.005
 9946TIP3    H129795   6.816   1.824   5.949
 9946TIP3    H229796   6.727   1.721   6.016
 9947TIP3   OH229797   6.380   1.047   5.712
 9947TIP3    H129798   6.426   1.129   5.728
 9947TIP3    H229799   6.304   1.050   5.770
 9948TIP3   OH229800   6.950   1.507   5.946
 9948TIP3    H129801   6.918   1.595   5.964
 9948TIP3    H229802   6.917   1.455   6.019
 9949TIP3   OH229803   7.090   2.087   6.470
 9949TIP3    H129804   7.129   2.158   6.419
 9949TIP3    H229805   7.164   2.046   6.515
 9950TIP3   OH229806   6.736   1.982   5.855
 9950TIP3    H129807   6.652   1.988   5.900
 9950TIP3    H229808   6.769   2.072   5.856
 9951TIP3   OH229809   7.474   1.718   6.436
 9951TIP3    H129810   7.471   1.717   6.531
 9951TIP3    H229811   7.546   1.660   6.412
 9952TIP3   OH229812   7.452   1.614   5.316
 9952TIP3    H129813   7.504   1.590   5.392
 9952TIP3    H229814   7.363   1.585   5.337
 9953TIP3   OH229815   7.718   2.252   6.478
 9953TIP3    H129816   7.642   2.195   6.472
 9953TIP3    H229817   7.707   2.315   6.407
 9954TIP3   OH229818   7.788   2.091   5.131
 9954TIP3    H129819   7.819   2.161   5.074
 9954TIP3    H229820   7.708   2.125   5.170
 9955TIP3   OH229821   7.615   1.547   5.530
 9955TIP3    H129822   7.601   1.481   5.599
 9955TIP3    H229823   7.709   1.545   5.514
 9956TIP3   OH229824   6.530   1.946   6.628
 9956TIP3    H129825   6.579   1.870   6.661
 9956TIP3    H229826   6.553   2.016   6.689
 9957TIP3   OH229827   6.816   1.591   5.315
 9957TIP3    H129828   6.827   1.501   5.285
 9957TIP3    H229829   6.794   1.583   5.408
 9958TIP3   OH229830   6.760   1.600   5.587
 9958TIP3    H129831   6.834   1.571   5.641
 9958TIP3    H229832   6.762   1.695   5.592
 9959TIP3   OH229833   6.492   1.292   5.790
 9959TIP3    H129834   6.427   1.335   5.847
 9959TIP3    H229835   6.508   1.356   5.720
 9960TIP3   OH229836   7.027   1.797   5.535
 9960TIP3    H129837   6.941   1.818   5.572
 9960TIP3    H229838   7.042   1.865   5.470
 9961TIP3   OH229839   7.233   0.849   5.910
 9961TIP3    H129840   7.281   0.931   5.905
 9961TIP3    H229841   7.238   0.823   6.002
 9962TIP3   OH229842   7.497   1.143   6.810
 9962TIP3    H129843   7.526   1.233   6.792
 9962TIP3    H229844   7.569   1.088   6.777
 9963TIP3   OH229845   6.773   1.872   5.603
 9963TIP3    H129846   6.744   1.939   5.541
 9963TIP3    H229847   6.757   1.911   5.689
 9964TIP3   OH229848   7.772   1.281   6.125
 9964TIP3    H129849   7.694   1.228   6.142
 9964TIP3    H229850   7.842   1.236   6.172
 9965TIP3   OH229851   6.492   1.494   5.592
 9965TIP3    H129852   6.556   1.564   5.604
 9965TIP3    H229853   6.531   1.437   5.526
 9966TIP3   OH229854   6.431   0.776   5.720
 9966TIP3    H129855   6.428   0.871   5.710
 9966TIP3    H229856   6.343   0.747   5.694
 9967TIP3   OH229857   7.745   2.232   6.070
 9967TIP3    H129858   7.699   2.276   5.999
 9967TIP3    H229859   7.838   2.249   6.053
 9968TIP3   OH229860   6.353   1.711   5.976
 9968TIP3    H129861   6.292   1.742   6.044
 9968TIP3    H229862   6.322   1.753   5.896
 9969TIP3   OH229863   0.852   6.264   0.113
 9969TIP3    H129864   0.937   6.262   0.156
 9969TIP3    H229865   0.825   6.172   0.108
 9970TIP3   OH229866   1.333   6.226   0.152
 9970TIP3    H129867   1.425   6.201   0.160
 9970TIP3    H229868   1.298   6.170   0.083
 9971TIP3   OH229869   6.980   1.792   5.225
 9971TIP3    H129870   6.924   1.724   5.261
 9971TIP3    H229871   7.054   1.745   5.188
 9972TIP3   OH229872   7.597   2.122   6.835
 9972TIP3    H129873   7.593   2.053   6.901
 9972TIP3    H229874   7.678   2.170   6.854
 9973TIP3   OH229875   7.416   1.833   5.137
 9973TIP3    H129876   7.454   1.769   5.197
 9973TIP3    H229877   7.470   1.829   5.059
 9974TIP3   OH229878   0.977   5.672   0.311
 9974TIP3    H129879   0.993   5.579   0.327
 9974TIP3    H229880   0.893   5.674   0.264
 9975TIP3   OH229881   6.628   1.309   5.448
 9975TIP3    H129882   6.682   1.280   5.522
 9975TIP3    H229883   6.689   1.315   5.375
 9976TIP3   OH229884   1.593   5.764   0.069
 9976TIP3    H129885   1.536   5.786  -0.005
 9976TIP3    H229886   1.606   5.669   0.061
 9977TIP3   OH229887   7.143   1.512   5.260
 9977TIP3    H129888   7.142   1.526   5.354
 9977TIP3    H229889   7.144   1.417   5.249
 9978TIP3   OH229890   7.755   1.764   6.659
 9978TIP3    H129891   7.818   1.802   6.598
 9978TIP3    H229892   7.672   1.807   6.637
 9979TIP3   OH229893   1.110   5.397   0.280
 9979TIP3    H129894   1.183   5.336   0.271
 9979TIP3    H229895   1.111   5.421   0.373
 9980TIP3   OH229896   6.829   1.218   5.668
 9980TIP3    H129897   6.806   1.180   5.753
 9980TIP3    H229898   6.868   1.145   5.619
 9981TIP3   OH229899   7.093   1.339   6.884
 9981TIP3    H129900   7.006   1.378   6.881
 9981TIP3    H229901   7.133   1.361   6.800
 9982TIP3   OH229902   6.933   1.011   5.513
 9982TIP3    H129903   6.905   1.018   5.422
 9982TIP3    H229904   7.029   1.012   5.509
 9983TIP3   OH229905   7.751   1.340   5.171
 9983TIP3    H129906   7.735   1.295   5.088
 9983TIP3    H229907   7.720   1.429   5.157
 9984TIP3   OH229908   1.539   5.122   0.033
 9984TIP3    H129909   1.503   5.053  -0.022
 9984TIP3    H229910   1.510   5.203  -0.007
 9985TIP3   OH229911   7.281   1.410   6.696
 9985TIP3    H129912   7.348   1.384   6.633
 9985TIP3    H229913   7.221   1.464   6.646
 9986TIP3   OH229914   1.369   5.193   0.240
 9986TIP3    H129915   1.330   5.106   0.241
 9986TIP3    H229916   1.435   5.189   0.170
 9987TIP3   OH229917   6.745   2.075   5.415
 9987TIP3    H129918   6.838   2.064   5.397
 9987TIP3    H229919   6.711   2.124   5.340
 9988TIP3   OH229920   6.222   1.453   5.629
 9988TIP3    H129921   6.314   1.477   5.616
 9988TIP3    H229922   6.213   1.367   5.589
 9989TIP3   OH229923   6.141   2.066   6.043
 9989TIP3    H129924   6.074   2.011   6.003
 9989TIP3    H229925   6.183   2.008   6.108
 9990TIP3   OH229926   6.275   1.912   6.232
 9990TIP3    H129927   6.251   1.844   6.294
 9990TIP3    H229928   6.324   1.976   6.284
 9991TIP3   OH229929   8.000   2.318   6.034
 9991TIP3    H129930   8.030   2.353   6.118
 9991TIP3    H229931   8.065   2.348   5.971
 9992TIP3   OH229932   8.025   2.338   6.318
 9992TIP3    H129933   7.979   2.255   6.306
 9992TIP3    H229934   8.102   2.315   6.371
 9993TIP3   OH229935   7.892   1.530   5.502
 9993TIP3    H129936   7.956   1.595   5.471
 9993TIP3    H229937   7.931   1.495   5.582
 9994TIP3   OH229938   8.009   1.411   5.716
 9994TIP3    H129939   7.943   1.365   5.766
 9994TIP3    H229940   8.071   1.444   5.781
 9995TIP3   OH229941   8.069   1.790   6.139
 9995TIP3    H129942   8.120   1.723   6.094
 9995TIP3    H229943   8.064   1.863   6.077
 9996TIP3   OH229944   7.902   2.088   6.335
 9996TIP3    H129945   7.830   2.126   6.384
 9996TIP3    H229946   7.861   2.043   6.261
 9997TIP3   OH229947   7.945   1.303   5.356
 9997TIP3    H129948   7.881   1.307   5.286
 9997TIP3    H229949   7.925   1.378   5.412
 9998TIP3   OH229950   7.816   0.961   5.296
 9998TIP3    H129951   7.802   1.041   5.244
 9998TIP3    H229952   7.768   0.893   5.248
 9999TIP3   OH229953   7.830   1.265   5.853
 9999TIP3    H129954   7.832   1.173   5.827
 9999TIP3    H229955   7.815   1.263   5.947
10000TIP3   OH229956   6.457   1.322   6.603
10000TIP3    H129957   6.451   1.294   6.512
10000TIP3    H229958   6.551   1.324   6.621
10001TIP3   OH229959   7.834   1.016   5.724
10001TIP3    H129960   7.859   0.939   5.775
10001TIP3    H229961   7.895   1.016   5.650
10002TIP3   OH229962   7.985   1.166   6.254
10002TIP3    H129963   8.077   1.156   6.228
10002TIP3    H229964   7.988   1.177   6.349
10003TIP3   OH229965   0.996   5.010   0.325
10003TIP3    H129966   1.091   5.014   0.336
10003TIP3    H229967   0.969   4.929   0.369
10004TIP3   OH229968   6.435   0.976   6.680
10004TIP3    H129969   6.477   0.978   6.594
10004TIP3    H229970   6.460   1.059   6.721
10005TIP3   OH229971   7.586   2.187   5.688
10005TIP3    H129972   7.632   2.173   5.605
10005TIP3    H229973   7.638   2.253   5.734
10006TIP3   OH229974   1.015   6.001   0.136
10006TIP3    H129975   0.926   5.974   0.116
10006TIP3    H229976   1.029   5.973   0.227
10007TIP3   OH229977   6.865   2.029   6.621
10007TIP3    H129978   6.811   2.098   6.584
10007TIP3    H229979   6.950   2.038   6.577
10008TIP3   OH229980   7.303   2.263   6.759
10008TIP3    H129981   7.341   2.267   6.847
10008TIP3    H229982   7.365   2.312   6.704
10009TIP3   OH229983   7.479   2.416   6.616
10009TIP3    H129984   7.544   2.367   6.566
10009TIP3    H229985   7.532   2.477   6.669
10010TIP3   OH229986   6.535   2.283   6.645
10010TIP3    H129987   6.449   2.311   6.616
10010TIP3    H229988   6.543   2.314   6.735
10011TIP3   OH229989   6.773   2.260   6.503
10011TIP3    H129990   6.688   2.271   6.547
10011TIP3    H229991   6.757   2.289   6.413
10012TIP3   OH229992   7.198   2.286   6.302
10012TIP3    H129993   7.129   2.297   6.236
10012TIP3    H229994   7.209   2.372   6.340
10013TIP3   OH229995   7.467   2.225   6.355
10013TIP3    H129996   7.374   2.240   6.336
10013TIP3    H229997   7.513   2.293   6.304
10014TIP3   OH229998   7.676   2.415   6.264
10014TIP3    H129999   7.660   2.498   6.218
10014TIP3    H230000   7.702   2.354   6.194
10015TIP3   OH230001   6.452   2.070   6.389
10015TIP3    H130002   6.474   2.045   6.479
10015TIP3    H230003   6.520   2.029   6.336
10016TIP3   OH230004   6.646   1.943   6.249
10016TIP3    H130005   6.658   1.861   6.298
10016TIP3    H230006   6.734   1.979   6.242
10017TIP3   OH230007   6.914   2.035   6.253
10017TIP3    H130008   6.940   1.944   6.237
10017TIP3    H230009   6.957   2.059   6.335
10018TIP3   OH230010   6.235   1.849   5.775
10018TIP3    H130011   6.150   1.813   5.747
10018TIP3    H230012   6.229   1.942   5.754
10019TIP3   OH230013   7.011   2.027   5.359
10019TIP3    H130014   7.097   2.054   5.326
10019TIP3    H230015   6.985   1.955   5.302
10020TIP3   OH230016   7.728   2.149   5.455
10020TIP3    H130017   7.723   2.054   5.448
10020TIP3    H230018   7.682   2.182   5.378
10021TIP3   OH230019   6.313   1.867   5.416
10021TIP3    H130020   6.312   1.889   5.509
10021TIP3    H230021   6.399   1.825   5.403
10022TIP3   OH230022   7.933   2.295   6.643
10022TIP3    H130023   7.865   2.268   6.582
10022TIP3    H230024   7.927   2.391   6.644
10023TIP3   OH230025   8.473   1.955   5.928
10023TIP3    H130026   8.431   1.885   5.878
10023TIP3    H230027   8.562   1.959   5.894
10024TIP3   OH230028   8.195   1.206   5.697
10024TIP3    H130029   8.122   1.265   5.679
10024TIP3    H230030   8.181   1.132   5.638
10025TIP3   OH230031   8.277   1.455   5.833
10025TIP3    H130032   8.281   1.360   5.819
10025TIP3    H230033   8.315   1.492   5.753
10026TIP3   OH230034   8.093   1.698   5.396
10026TIP3    H130035   8.047   1.725   5.316
10026TIP3    H230036   8.120   1.781   5.436
10027TIP3   OH230037   8.288   1.809   6.306
10027TIP3    H130038   8.217   1.822   6.244
10027TIP3    H230039   8.252   1.750   6.372
10028TIP3   OH230040   8.136   2.020   5.976
10028TIP3    H130041   8.231   2.022   5.967
10028TIP3    H230042   8.116   2.099   6.027
10029TIP3   OH230043   8.271   2.226   5.497
10029TIP3    H130044   8.354   2.240   5.542
10029TIP3    H230045   8.236   2.147   5.537
10030TIP3   OH230046   8.258   0.995   5.467
10030TIP3    H130047   8.276   1.002   5.373
10030TIP3    H230048   8.163   1.006   5.474
10031TIP3   OH230049   8.174   1.295   5.199
10031TIP3    H130050   8.223   1.376   5.216
10031TIP3    H230051   8.099   1.300   5.258
10032TIP3   OH230052   8.314   2.208   6.118
10032TIP3    H130053   8.372   2.136   6.143
10032TIP3    H230054   8.351   2.284   6.162
10033TIP3   OH230055   8.275   1.543   5.262
10033TIP3    H130056   8.214   1.583   5.323
10033TIP3    H230057   8.277   1.602   5.187
10034TIP3   OH230058   8.277   1.735   5.062
10034TIP3    H130059   8.345   1.794   5.095
10034TIP3    H230060   8.299   1.722   4.970
10035TIP3   OH230061   8.234   1.028   5.191
10035TIP3    H130062   8.224   1.124   5.192
10035TIP3    H230063   8.145   0.995   5.176
10036TIP3   OH230064   8.133   1.956   5.466
10036TIP3    H130065   8.072   1.997   5.528
10036TIP3    H230066   8.123   2.007   5.385
10037TIP3   OH230067   8.269   2.477   6.516
10037TIP3    H130068   8.359   2.477   6.549
10037TIP3    H230069   8.242   2.385   6.520
10038TIP3   OH230070   8.008   1.707   5.115
10038TIP3    H130071   8.100   1.725   5.100
10038TIP3    H230072   7.994   1.619   5.080
10039TIP3   OH230073   7.933   2.322   5.534
10039TIP3    H130074   7.867   2.264   5.495
10039TIP3    H230075   7.980   2.265   5.595
10040TIP3   OH230076   8.068   2.166   5.719
10040TIP3    H130077   8.055   2.098   5.785
10040TIP3    H230078   8.121   2.232   5.764
10041TIP3   OH230079   8.253   1.589   6.072
10041TIP3    H130080   8.253   1.541   5.990
10041TIP3    H230081   8.345   1.608   6.090
10042TIP3   OH230082   8.320   2.530   6.142
10042TIP3    H130083   8.242   2.566   6.101
10042TIP3    H230084   8.316   2.559   6.233
10043TIP3   OH230085   0.084   2.515   6.014
10043TIP3    H130086  -0.007   2.520   6.044
10043TIP3    H230087   0.080   2.543   5.923
10044TIP3   OH230088   8.239   2.328   5.878
10044TIP3    H130089   8.265   2.307   5.967
10044TIP3    H230090   8.308   2.290   5.823
10045TIP3   OH230091   8.427   2.193   5.735
10045TIP3    H130092   8.432   2.099   5.753
10045TIP3    H230093   8.514   2.217   5.704
10046TIP3   OH230094   8.038   2.100   5.252
10046TIP3    H130095   7.950   2.071   5.226
10046TIP3    H230096   8.035   2.196   5.246
10047TIP3   OH230097   8.111   2.135   4.922
10047TIP3    H130098   8.073   2.168   5.003
10047TIP3    H230099   8.175   2.070   4.951
10048TIP3   OH230100   4.506   6.461   0.154
10048TIP3    H130101   4.481   6.552   0.139
10048TIP3    H230102   4.430   6.410   0.124
10049TIP3   OH230103   4.482   6.469   0.524
10049TIP3    H130104   4.536   6.457   0.602
10049TIP3    H230105   4.449   6.381   0.503
10050TIP3   OH230106   4.751   6.767   0.225
10050TIP3    H130107   4.737   6.699   0.290
10050TIP3    H230108   4.781   6.843   0.276
10051TIP3   OH230109   3.781   6.768   0.619
10051TIP3    H130110   3.765   6.673   0.624
10051TIP3    H230111   3.876   6.776   0.619
10052TIP3   OH230112   3.530   6.239   0.559
10052TIP3    H130113   3.584   6.205   0.631
10052TIP3    H230114   3.585   6.306   0.518
10053TIP3   OH230115   4.401   7.226   0.239
10053TIP3    H130116   4.442   7.156   0.188
10053TIP3    H230117   4.397   7.192   0.328
10054TIP3   OH230118   4.308   6.686   0.574
10054TIP3    H130119   4.346   6.607   0.537
10054TIP3    H230120   4.382   6.734   0.611
10055TIP3   OH230121   5.311   6.009   0.575
10055TIP3    H130122   5.328   6.088   0.626
10055TIP3    H230123   5.336   6.032   0.486
10056TIP3   OH230124   4.699   6.162   0.622
10056TIP3    H130125   4.758   6.089   0.641
10056TIP3    H230126   4.682   6.155   0.528
10057TIP3   OH230127   4.085   5.851   0.583
10057TIP3    H130128   4.043   5.929   0.546
10057TIP3    H230129   4.024   5.780   0.562
10058TIP3   OH230130   4.754   5.942   0.204
10058TIP3    H130131   4.820   5.927   0.272
10058TIP3    H230132   4.805   5.972   0.128
10059TIP3   OH230133   4.131   6.246   0.490
10059TIP3    H130134   4.224   6.225   0.497
10059TIP3    H230135   4.091   6.167   0.454
10060TIP3   OH230136   5.372   6.205   0.757
10060TIP3    H130137   5.287   6.248   0.751
10060TIP3    H230138   5.425   6.263   0.811
10061TIP3   OH230139   4.394   6.684   0.024
10061TIP3    H130140   4.354   6.668  -0.061
10061TIP3    H230141   4.352   6.765   0.055
10062TIP3   OH230142   4.949   5.952   0.391
10062TIP3    H130143   4.962   5.895   0.467
10062TIP3    H230144   5.007   6.026   0.406
10063TIP3   OH230145   3.392   6.489   0.145
10063TIP3    H130146   3.341   6.513   0.067
10063TIP3    H230147   3.412   6.573   0.186
10064TIP3   OH230148   4.815   7.011   0.382
10064TIP3    H130149   4.730   6.998   0.424
10064TIP3    H230150   4.809   7.097   0.341
10065TIP3   OH230151   5.110   5.898   0.759
10065TIP3    H130152   5.023   5.922   0.727
10065TIP3    H230153   5.169   5.933   0.692
10066TIP3   OH230154   4.520   7.052   0.055
10066TIP3    H130155   4.566   6.970   0.041
10066TIP3    H230156   4.579   7.119   0.019
10067TIP3   OH230157   1.830   2.829   6.914
10067TIP3    H130158   1.791   2.751   6.876
10067TIP3    H230159   1.868   2.799   6.997
10068TIP3   OH230160   5.043   6.918   0.728
10068TIP3    H130161   5.031   6.842   0.671
10068TIP3    H230162   5.024   6.993   0.672
10069TIP3   OH230163   1.501   2.306   6.928
10069TIP3    H130164   1.424   2.359   6.910
10069TIP3    H230165   1.549   2.304   6.846
10070TIP3   OH230166   1.464   2.094   6.641
10070TIP3    H130167   1.526   2.148   6.691
10070TIP3    H230168   1.518   2.032   6.594
10071TIP3   OH230169   5.238   6.558   0.577
10071TIP3    H130170   5.157   6.607   0.587
10071TIP3    H230171   5.270   6.582   0.490
10072TIP3   OH230172   1.853   2.390   6.900
10072TIP3    H130173   1.797   2.413   6.975
10072TIP3    H230174   1.937   2.367   6.939
10073TIP3   OH230175   4.904   6.465   0.846
10073TIP3    H130176   4.908   6.559   0.862
10073TIP3    H230177   4.826   6.453   0.791
10074TIP3   OH230178   3.919   6.393   0.375
10074TIP3    H130179   3.880   6.336   0.309
10074TIP3    H230180   3.993   6.344   0.411
10075TIP3   OH230181   4.055   6.808   0.523
10075TIP3    H130182   4.033   6.767   0.439
10075TIP3    H230183   4.141   6.772   0.546
10076TIP3   OH230184   4.035   6.389   0.708
10076TIP3    H130185   4.065   6.329   0.640
10076TIP3    H230186   4.112   6.441   0.731
10077TIP3   OH230187   4.578   6.998   0.507
10077TIP3    H130188   4.565   7.083   0.549
10077TIP3    H230189   4.556   6.934   0.574
10078TIP3   OH230190   1.690   2.252   6.724
10078TIP3    H130191   1.748   2.308   6.776
10078TIP3    H230192   1.714   2.269   6.634
10079TIP3   OH230193   4.270   6.933   0.058
10079TIP3    H130194   4.352   6.981   0.071
10079TIP3    H230195   4.209   6.997   0.022
10080TIP3   OH230196   2.202   1.486   6.775
10080TIP3    H130197   2.124   1.510   6.825
10080TIP3    H230198   2.222   1.565   6.724
10081TIP3   OH230199   3.786   6.237   0.177
10081TIP3    H130200   3.717   6.277   0.123
10081TIP3    H230201   3.751   6.151   0.199
10082TIP3   OH230202   2.009   2.854   6.323
10082TIP3    H130203   2.015   2.949   6.309
10082TIP3    H230204   2.099   2.822   6.312
10083TIP3   OH230205   5.282   7.266   0.769
10083TIP3    H130206   5.289   7.172   0.787
10083TIP3    H230207   5.206   7.295   0.820
10084TIP3   OH230208   4.399   7.074   0.928
10084TIP3    H130209   4.363   7.138   0.989
10084TIP3    H230210   4.335   7.002   0.927
10085TIP3   OH230211   1.316   3.172   6.804
10085TIP3    H130212   1.271   3.155   6.722
10085TIP3    H230213   1.284   3.258   6.832
10086TIP3   OH230214   3.587   7.026   0.253
10086TIP3    H130215   3.637   7.022   0.334
10086TIP3    H230216   3.542   6.942   0.249
10087TIP3   OH230217   1.518   3.073   6.444
10087TIP3    H130218   1.574   3.005   6.408
10087TIP3    H230219   1.550   3.085   6.533
10088TIP3   OH230220   1.567   3.122   6.715
10088TIP3    H130221   1.480   3.131   6.755
10088TIP3    H230222   1.621   3.085   6.785
10089TIP3   OH230223   1.764   2.290   6.466
10089TIP3    H130224   1.730   2.269   6.379
10089TIP3    H230225   1.849   2.332   6.449
10090TIP3   OH230226   1.479   1.663   6.771
10090TIP3    H130227   1.448   1.660   6.862
10090TIP3    H230228   1.436   1.589   6.729
10091TIP3   OH230229   3.995   6.032   0.387
10091TIP3    H130230   3.908   5.998   0.407
10091TIP3    H230231   4.015   5.997   0.300
10092TIP3   OH230232   4.475   6.114   0.121
10092TIP3    H130233   4.424   6.185   0.080
10092TIP3    H230234   4.530   6.081   0.051
10093TIP3   OH230235   4.628   6.138   0.354
10093TIP3    H130236   4.568   6.173   0.287
10093TIP3    H230237   4.667   6.061   0.313
10094TIP3   OH230238   1.143   1.639   6.751
10094TIP3    H130239   1.119   1.626   6.843
10094TIP3    H230240   1.072   1.691   6.714
10095TIP3   OH230241   4.650   6.409   0.730
10095TIP3    H130242   4.669   6.319   0.706
10095TIP3    H230243   4.620   6.404   0.821
10096TIP3   OH230244   4.322   5.842   0.452
10096TIP3    H130245   4.236   5.848   0.495
10096TIP3    H230246   4.384   5.868   0.520
10097TIP3   OH230247   3.777   5.885   0.435
10097TIP3    H130248   3.688   5.900   0.466
10097TIP3    H230249   3.793   5.792   0.452
10098TIP3   OH230250   4.018   5.906   0.148
10098TIP3    H130251   4.109   5.923   0.123
10098TIP3    H230252   3.967   5.930   0.070
10099TIP3   OH230253   4.807   5.913   0.684
10099TIP3    H130254   4.773   5.927   0.773
10099TIP3    H230255   4.737   5.864   0.640
10100TIP3   OH230256   1.021   1.935   6.872
10100TIP3    H130257   0.948   1.887   6.833
10100TIP3    H230258   1.074   1.963   6.797
10101TIP3   OH230259   4.997   7.612   0.859
10101TIP3    H130260   4.996   7.627   0.764
10101TIP3    H230261   5.075   7.659   0.889
10102TIP3   OH230262   4.400   6.176   0.533
10102TIP3    H130263   4.475   6.151   0.478
10102TIP3    H230264   4.430   6.159   0.623
10103TIP3   OH230265   3.945   5.642   0.454
10103TIP3    H130266   3.885   5.588   0.402
10103TIP3    H230267   4.020   5.657   0.396
10104TIP3   OH230268   1.270   2.458   6.877
10104TIP3    H130269   1.201   2.393   6.863
10104TIP3    H230270   1.254   2.493   6.965
10105TIP3   OH230271   5.008   6.701   0.561
10105TIP3    H130272   5.032   6.754   0.485
10105TIP3    H230273   4.923   6.662   0.537
10106TIP3   OH230274   1.732   1.768   6.747
10106TIP3    H130275   1.638   1.751   6.753
10106TIP3    H230276   1.740   1.861   6.770
10107TIP3   OH230277   1.801   2.022   6.847
10107TIP3    H130278   1.896   2.026   6.862
10107TIP3    H230279   1.783   2.100   6.794
10108TIP3   OH230280   3.800   6.488   0.607
10108TIP3    H130281   3.832   6.465   0.520
10108TIP3    H230282   3.868   6.458   0.667
10109TIP3   OH230283   1.415   2.609   6.699
10109TIP3    H130284   1.369   2.693   6.701
10109TIP3    H230285   1.365   2.553   6.759
10110TIP3   OH230286   4.663   7.028   0.853
10110TIP3    H130287   4.574   7.055   0.872
10110TIP3    H230288   4.718   7.083   0.909
10111TIP3   OH230289   2.224   2.121   6.695
10111TIP3    H130290   2.177   2.068   6.632
10111TIP3    H230291   2.227   2.208   6.656
10112TIP3   OH230292   5.287   6.979   0.818
10112TIP3    H130293   5.191   6.973   0.813
10112TIP3    H230294   5.317   6.944   0.734
10113TIP3   OH230295   1.942   2.929   6.589
10113TIP3    H130296   1.917   2.861   6.652
10113TIP3    H230297   1.956   2.881   6.507
10114TIP3   OH230298   4.773   6.571   0.471
10114TIP3    H130299   4.683   6.549   0.494
10114TIP3    H230300   4.807   6.492   0.430
10115TIP3   OH230301   3.901   6.794   0.233
10115TIP3    H130302   3.898   6.875   0.182
10115TIP3    H230303   3.809   6.776   0.253
10116TIP3   OH230304   0.611   2.096   6.908
10116TIP3    H130305   0.679   2.163   6.901
10116TIP3    H230306   0.554   2.125   6.979
10117TIP3   OH230307   4.031   6.557   0.178
10117TIP3    H130308   4.001   6.646   0.197
10117TIP3    H230309   4.002   6.505   0.253
10118TIP3   OH230310   4.171   7.140   0.693
10118TIP3    H130311   4.214   7.213   0.648
10118TIP3    H230312   4.241   7.097   0.742
10119TIP3   OH230313   3.816   7.038   0.090
10119TIP3    H130314   3.732   7.045   0.137
10119TIP3    H230315   3.851   7.127   0.092
10120TIP3   OH230316   4.561   6.769   0.675
10120TIP3    H130317   4.591   6.794   0.762
10120TIP3    H230318   4.637   6.726   0.635
10121TIP3   OH230319   1.701   2.658   6.494
10121TIP3    H130320   1.757   2.634   6.568
10121TIP3    H230321   1.613   2.630   6.521
10122TIP3   OH230322   4.800   7.296   0.707
10122TIP3    H130323   4.718   7.247   0.705
10122TIP3    H230324   4.787   7.368   0.645
10123TIP3   OH230325   2.037   3.132   6.308
10123TIP3    H130326   2.077   3.202   6.257
10123TIP3    H230327   1.957   3.171   6.344
10124TIP3   OH230328   1.864   2.588   6.705
10124TIP3    H130329   1.850   2.524   6.776
10124TIP3    H230330   1.959   2.588   6.692
10125TIP3   OH230331   1.062   2.635   6.492
10125TIP3    H130332   1.077   2.545   6.464
10125TIP3    H230333   1.043   2.629   6.586
10126TIP3   OH230334   1.009   2.645   6.764
10126TIP3    H130335   1.083   2.614   6.817
10126TIP3    H230336   1.012   2.740   6.770
10127TIP3   OH230337   3.579   6.338   0.019
10127TIP3    H130338   3.516   6.380   0.077
10127TIP3    H230339   3.598   6.405  -0.047
10128TIP3   OH230340   4.613   5.728   0.087
10128TIP3    H130341   4.598   5.745  -0.006
10128TIP3    H230342   4.653   5.808   0.120
10129TIP3   OH230343   1.273   2.839   6.708
10129TIP3    H130344   1.189   2.861   6.748
10129TIP3    H230345   1.294   2.915   6.653
10130TIP3   OH230346   4.299   5.915   0.185
10130TIP3    H130347   4.360   5.986   0.166
10130TIP3    H230348   4.303   5.905   0.280
10131TIP3   OH230349   4.445   5.641   0.289
10131TIP3    H130350   4.423   5.720   0.339
10131TIP3    H230351   4.507   5.671   0.222
10132TIP3   OH230352   1.020   2.918   6.780
10132TIP3    H130353   0.992   2.985   6.718
10132TIP3    H230354   1.005   2.957   6.866
10133TIP3   OH230355   3.970   5.645   0.096
10133TIP3    H130356   3.976   5.739   0.114
10133TIP3    H230357   4.061   5.616   0.089
10134TIP3   OH230358   4.856   6.320   0.362
10134TIP3    H130359   4.782   6.260   0.371
10134TIP3    H230360   4.928   6.276   0.408
10135TIP3   OH230361   0.746   2.542   6.765
10135TIP3    H130362   0.814   2.609   6.779
10135TIP3    H230363   0.784   2.482   6.701
10136TIP3   OH230364   0.728   1.855   6.820
10136TIP3    H130365   0.714   1.937   6.866
10136TIP3    H230366   0.671   1.792   6.864
10137TIP3   OH230367   4.828   7.282   0.305
10137TIP3    H130368   4.783   7.327   0.233
10137TIP3    H230369   4.921   7.299   0.289
10138TIP3   OH230370   3.439   6.780   0.219
10138TIP3    H130371   3.359   6.805   0.265
10138TIP3    H230372   3.425   6.809   0.129
10139TIP3   OH230373   1.226   2.835   6.399
10139TIP3    H130374   1.168   2.770   6.438
10139TIP3    H230375   1.304   2.786   6.372
10140TIP3   OH230376   1.663   2.877   6.315
10140TIP3    H130377   1.702   2.815   6.376
10140TIP3    H230378   1.719   2.874   6.238
10141TIP3   OH230379   0.877   2.352   6.626
10141TIP3    H130380   0.931   2.323   6.700
10141TIP3    H230381   0.939   2.358   6.553
10142TIP3   OH230382   1.386   2.556   6.432
10142TIP3    H130383   1.389   2.570   6.526
10142TIP3    H230384   1.387   2.461   6.422
10143TIP3   OH230385   4.814   6.791   0.828
10143TIP3    H130386   4.905   6.818   0.817
10143TIP3    H230387   4.767   6.872   0.849
10144TIP3   OH230388   1.074   2.262   6.841
10144TIP3    H130389   1.052   2.226   6.927
10144TIP3    H230390   1.114   2.189   6.794
10145TIP3   OH230391   1.184   2.058   6.684
10145TIP3    H130392   1.156   2.062   6.593
10145TIP3    H230393   1.280   2.059   6.680
10146TIP3   OH230394   1.996   2.386   6.350
10146TIP3    H130395   1.982   2.338   6.268
10146TIP3    H230396   1.965   2.474   6.332
10147TIP3   OH230397   0.993   3.120   6.591
10147TIP3    H130398   1.086   3.108   6.576
10147TIP3    H230399   0.962   3.169   6.515
10148TIP3   OH230400   0.481   2.488   6.809
10148TIP3    H130401   0.572   2.515   6.795
10148TIP3    H230402   0.474   2.404   6.765
10149TIP3   OH230403   3.197   7.118   0.288
10149TIP3    H130404   3.159   7.051   0.230
10149TIP3    H230405   3.243   7.069   0.355
10150TIP3   OH230406   3.340   6.978   0.473
10150TIP3    H130407   3.368   6.892   0.504
10150TIP3    H230408   3.395   7.040   0.521
10151TIP3   OH230409   5.082   7.372   0.270
10151TIP3    H130410   5.107   7.395   0.360
10151TIP3    H230411   5.150   7.412   0.216
10152TIP3   OH230412   5.113   7.384   0.551
10152TIP3    H130413   5.063   7.303   0.545
10152TIP3    H230414   5.181   7.365   0.616
10153TIP3   OH230415   2.141   2.574   6.684
10153TIP3    H130416   2.205   2.637   6.651
10153TIP3    H230417   2.182   2.536   6.762
10154TIP3   OH230418   2.266   2.443   6.890
10154TIP3    H130419   2.200   2.400   6.944
10154TIP3    H230420   2.330   2.477   6.952
10155TIP3   OH230421   5.160   6.842   0.377
10155TIP3    H130422   5.209   6.774   0.332
10155TIP3    H230423   5.151   6.912   0.313
10156TIP3   OH230424   4.981   7.140   0.569
10156TIP3    H130425   4.914   7.181   0.623
10156TIP3    H230426   4.932   7.094   0.500
10157TIP3   OH230427   2.199   2.352   6.533
10157TIP3    H130428   2.131   2.349   6.466
10157TIP3    H230429   2.173   2.426   6.589
10158TIP3   OH230430   2.069   2.021   6.492
10158TIP3    H130431   2.040   2.057   6.408
10158TIP3    H230432   2.053   1.927   6.485
10159TIP3   OH230433   4.912   6.306   0.092
10159TIP3    H130434   4.919   6.212   0.078
10159TIP3    H230435   4.899   6.315   0.186
10160TIP3   OH230436   5.178   6.698   0.923
10160TIP3    H130437   5.267   6.676   0.949
10160TIP3    H230438   5.181   6.791   0.903
10161TIP3   OH230439   5.386   6.528   0.977
10161TIP3    H130440   5.303   6.484   0.997
10161TIP3    H230441   5.446   6.456   0.954
10162TIP3   OH230442   2.022   1.754   6.467
10162TIP3    H130443   2.096   1.724   6.520
10162TIP3    H230444   1.949   1.698   6.494
10163TIP3   OH230445   2.078   2.019   6.923
10163TIP3    H130446   2.112   1.932   6.942
10163TIP3    H230447   2.135   2.052   6.853
10164TIP3   OH230448   5.072   6.197   0.487
10164TIP3    H130449   5.155   6.217   0.443
10164TIP3    H230450   5.083   6.232   0.575
10165TIP3   OH230451   5.136   6.345   0.723
10165TIP3    H130452   5.062   6.381   0.772
10165TIP3    H230453   5.172   6.419   0.675
10166TIP3   OH230454   4.989   5.776   0.047
10166TIP3    H130455   5.059   5.762   0.110
10166TIP3    H230456   4.947   5.691   0.037
10167TIP3   OH230457   2.259   1.691   6.600
10167TIP3    H130458   2.316   1.628   6.556
10167TIP3    H230459   2.307   1.774   6.597
10168TIP3   OH230460   1.830   3.234   6.862
10168TIP3    H130461   1.881   3.222   6.782
10168TIP3    H230462   1.882   3.294   6.915
10169TIP3   OH230463   3.924   7.078   0.843
10169TIP3    H130464   3.907   7.164   0.805
10169TIP3    H230465   4.018   7.064   0.831
10170TIP3   OH230466   4.567   7.475   0.814
10170TIP3    H130467   4.640   7.417   0.834
10170TIP3    H230468   4.560   7.533   0.890
10171TIP3   OH230469   3.844   7.317   0.730
10171TIP3    H130470   3.776   7.364   0.778
10171TIP3    H230471   3.832   7.343   0.639
10172TIP3   OH230472   4.282   7.341   0.533
10172TIP3    H130473   4.210   7.355   0.472
10172TIP3    H230474   4.296   7.426   0.574
10173TIP3   OH230475   4.548   7.267   0.574
10173TIP3    H130476   4.456   7.288   0.564
10173TIP3    H230477   4.594   7.350   0.562
10174TIP3   OH230478   4.762   7.469   0.501
10174TIP3    H130479   4.743   7.550   0.454
10174TIP3    H230480   4.782   7.405   0.432
10175TIP3   OH230481   3.532   7.118   0.613
10175TIP3    H130482   3.551   7.110   0.707
10175TIP3    H230483   3.605   7.075   0.570
10176TIP3   OH230484   3.732   6.994   0.481
10176TIP3    H130485   3.743   6.911   0.528
10176TIP3    H230486   3.820   7.031   0.478
10177TIP3   OH230487   3.996   7.082   0.491
10177TIP3    H130488   4.021   6.990   0.480
10177TIP3    H230489   4.044   7.111   0.568
10178TIP3   OH230490   4.595   5.757   0.579
10178TIP3    H130491   4.550   5.679   0.611
10178TIP3    H230492   4.661   5.723   0.518
10179TIP3   OH230493   5.090   5.621   0.477
10179TIP3    H130494   5.128   5.672   0.406
10179TIP3    H230495   4.997   5.643   0.476
10180TIP3   OH230496   5.183   5.735   0.244
10180TIP3    H130497   5.245   5.673   0.206
10180TIP3    H230498   5.219   5.821   0.221
10181TIP3   OH230499   4.241   5.504   0.429
10181TIP3    H130500   4.312   5.554   0.388
10181TIP3    H230501   4.250   5.522   0.523
10182TIP3   OH230502   4.798   5.627   0.451
10182TIP3    H130503   4.812   5.597   0.361
10182TIP3    H230504   4.783   5.546   0.500
10183TIP3   OH230505   4.829   5.550   0.015
10183TIP3    H130506   4.750   5.602   0.031
10183TIP3    H230507   4.814   5.468   0.062
10184TIP3   OH230508   0.468   2.893   6.959
10184TIP3    H130509   0.405   2.841   6.910
10184TIP3    H230510   0.465   2.980   6.918
10185TIP3   OH230511   4.245   5.663   0.098
10185TIP3    H130512   4.301   5.614   0.159
10185TIP3    H230513   4.262   5.755   0.118
10186TIP3   OH230514   1.259   3.072   6.536
10186TIP3    H130515   1.346   3.097   6.505
10186TIP3    H230516   1.233   2.999   6.479
10187TIP3   OH230517   1.977   3.195   6.631
10187TIP3    H130518   1.970   3.100   6.624
10187TIP3    H230519   1.932   3.227   6.553
10188TIP3   OH230520   0.564   2.911   6.595
10188TIP3    H130521   0.568   2.948   6.684
10188TIP3    H230522   0.649   2.871   6.582
10189TIP3   OH230523   5.031   7.337   0.857
10189TIP3    H130524   4.950   7.310   0.814
10189TIP3    H230525   5.016   7.428   0.883
10190TIP3   OH230526   3.467   2.714   6.582
10190TIP3    H130527   3.440   2.804   6.562
10190TIP3    H230528   3.396   2.659   6.549
10191TIP3   OH230529   6.304   6.720   0.029
10191TIP3    H130530   6.337   6.695   0.116
10191TIP3    H230531   6.261   6.641  -0.004
10192TIP3   OH230532   5.601   6.612   0.388
10192TIP3    H130533   5.626   6.544   0.450
10192TIP3    H230534   5.678   6.669   0.383
10193TIP3   OH230535   3.715   3.016   6.651
10193TIP3    H130536   3.696   2.947   6.714
10193TIP3    H230537   3.744   3.090   6.705
10194TIP3   OH230538   5.574   7.023   0.112
10194TIP3    H130539   5.564   6.928   0.113
10194TIP3    H230540   5.669   7.036   0.109
10195TIP3   OH230541   2.443   2.225   6.836
10195TIP3    H130542   2.395   2.306   6.855
10195TIP3    H230543   2.377   2.166   6.801
10196TIP3   OH230544   5.339   6.511   0.078
10196TIP3    H130545   5.385   6.433   0.108
10196TIP3    H230546   5.393   6.544   0.006
10197TIP3   OH230547   3.367   3.477   6.667
10197TIP3    H130548   3.407   3.408   6.614
10197TIP3    H230549   3.353   3.436   6.752
10198TIP3   OH230550   6.102   6.946   0.075
10198TIP3    H130551   6.137   6.869   0.029
10198TIP3    H230552   6.180   6.995   0.101
10199TIP3   OH230553   7.118   6.265   0.073
10199TIP3    H130554   7.145   6.347   0.114
10199TIP3    H230555   7.138   6.277  -0.020
10200TIP3   OH230556   6.513   6.442   0.103
10200TIP3    H130557   6.555   6.359   0.125
10200TIP3    H230558   6.480   6.429   0.014
10201TIP3   OH230559   5.846   6.092   0.062
10201TIP3    H130560   5.826   6.164   0.003
10201TIP3    H230561   5.790   6.020   0.033
10202TIP3   OH230562   3.717   2.192   6.632
10202TIP3    H130563   3.785   2.176   6.698
10202TIP3    H230564   3.766   2.226   6.556
10203TIP3   OH230565   5.485   6.299   0.174
10203TIP3    H130566   5.567   6.286   0.222
10203TIP3    H230567   5.493   6.244   0.097
10204TIP3   OH230568   3.090   2.494   6.915
10204TIP3    H130569   3.182   2.472   6.924
10204TIP3    H230570   3.049   2.413   6.884
10205TIP3   OH230571   7.188   6.475   0.246
10205TIP3    H130572   7.106   6.519   0.222
10205TIP3    H230573   7.210   6.510   0.332
10206TIP3   OH230574   5.846   6.091   0.503
10206TIP3    H130575   5.792   6.123   0.431
10206TIP3    H230576   5.796   6.111   0.582
10207TIP3   OH230577   3.355   2.934   6.452
10207TIP3    H130578   3.317   2.916   6.366
10207TIP3    H230579   3.313   3.014   6.482
10208TIP3   OH230580   5.955   6.867   0.297
10208TIP3    H130581   5.895   6.932   0.335
10208TIP3    H230582   5.996   6.912   0.224
10209TIP3   OH230583   3.920   2.195   6.810
10209TIP3    H130584   3.902   2.152   6.893
10209TIP3    H230585   3.971   2.273   6.835
10210TIP3   OH230586   5.724   6.203   0.284
10210TIP3    H130587   5.781   6.275   0.311
10210TIP3    H230588   5.769   6.162   0.210
10211TIP3   OH230589   5.781   7.063   0.397
10211TIP3    H130590   5.760   7.149   0.361
10211TIP3    H230591   5.705   7.040   0.451
10212TIP3   OH230592   2.340   2.745   6.572
10212TIP3    H130593   2.301   2.771   6.489
10212TIP3    H230594   2.373   2.827   6.610
10213TIP3   OH230595   3.780   3.262   6.814
10213TIP3    H130596   3.693   3.249   6.854
10213TIP3    H230597   3.773   3.346   6.769
10214TIP3   OH230598   6.909   6.161   0.237
10214TIP3    H130599   6.822   6.187   0.207
10214TIP3    H230600   6.968   6.194   0.170
10215TIP3   OH230601   6.203   5.807   0.228
10215TIP3    H130602   6.185   5.713   0.232
10215TIP3    H230603   6.128   5.848   0.270
10216TIP3   OH230604   3.484   3.304   6.484
10216TIP3    H130605   3.528   3.220   6.469
10216TIP3    H230606   3.543   3.369   6.447
10217TIP3   OH230607   3.625   3.087   6.400
10217TIP3    H130608   3.589   3.010   6.358
10217TIP3    H230609   3.663   3.055   6.482
10218TIP3   OH230610   6.840   7.176   0.216
10218TIP3    H130611   6.828   7.099   0.160
10218TIP3    H230612   6.823   7.250   0.158
10219TIP3   OH230613   3.300   2.566   6.417
10219TIP3    H130614   3.221   2.616   6.399
10219TIP3    H230615   3.344   2.560   6.332
10220TIP3   OH230616   3.261   2.351   6.128
10220TIP3    H130617   3.324   2.405   6.175
10220TIP3    H230618   3.314   2.287   6.081
10221TIP3   OH230619   7.034   6.818   0.064
10221TIP3    H130620   6.952   6.866   0.070
10221TIP3    H230621   7.067   6.839  -0.024
10222TIP3   OH230622   3.648   2.648   6.388
10222TIP3    H130623   3.593   2.671   6.462
10222TIP3    H230624   3.732   2.624   6.428
10223TIP3   OH230625   6.712   6.693   0.364
10223TIP3    H130626   6.713   6.774   0.414
10223TIP3    H230627   6.629   6.694   0.317
10224TIP3   OH230628   2.880   2.642   6.805
10224TIP3    H130629   2.836   2.587   6.740
10224TIP3    H230630   2.954   2.589   6.835
10225TIP3   OH230631   3.011   3.057   6.950
10225TIP3    H130632   2.988   3.021   6.865
10225TIP3    H230633   3.098   3.021   6.968
10226TIP3   OH230634   5.853   6.621   0.219
10226TIP3    H130635   5.880   6.597   0.131
10226TIP3    H230636   5.893   6.707   0.234
10227TIP3   OH230637   6.375   7.260  -0.002
10227TIP3    H130638   6.362   7.339   0.050
10227TIP3    H230639   6.357   7.188   0.058
10228TIP3   OH230640   5.984   7.178   0.542
10228TIP3    H130641   5.927   7.239   0.589
10228TIP3    H230642   5.924   7.124   0.491
10229TIP3   OH230643   3.487   2.507   6.212
10229TIP3    H130644   3.543   2.565   6.263
10229TIP3    H230645   3.511   2.524   6.121
10230TIP3   OH230646   5.746   6.729   0.648
10230TIP3    H130647   5.755   6.819   0.681
10230TIP3    H230648   5.652   6.711   0.654
10231TIP3   OH230649   3.233   3.182   6.490
10231TIP3    H130650   3.314   3.233   6.498
10231TIP3    H230651   3.172   3.241   6.445
10232TIP3   OH230652   5.779   7.342   0.632
10232TIP3    H130653   5.744   7.346   0.543
10232TIP3    H230654   5.702   7.322   0.687
10233TIP3   OH230655   4.002   1.745   6.264
10233TIP3    H130656   3.922   1.765   6.312
10233TIP3    H230657   4.019   1.824   6.212
10234TIP3   OH230658   2.743   2.488   6.612
10234TIP3    H130659   2.676   2.529   6.557
10234TIP3    H230660   2.716   2.396   6.617
10235TIP3   OH230661   3.806   3.112   5.812
10235TIP3    H130662   3.811   3.206   5.796
10235TIP3    H230663   3.895   3.080   5.800
10236TIP3   OH230664   5.358   6.879   0.577
10236TIP3    H130665   5.289   6.862   0.513
10236TIP3    H230666   5.396   6.793   0.595
10237TIP3   OH230667   5.216   7.074   0.205
10237TIP3    H130668   5.311   7.065   0.200
10237TIP3    H230669   5.201   7.147   0.265
10238TIP3   OH230670   7.076   7.523   0.267
10238TIP3    H130671   7.078   7.429   0.279
10238TIP3    H230672   6.995   7.551   0.311
10239TIP3   OH230673   6.181   7.307   0.402
10239TIP3    H130674   6.181   7.398   0.432
10239TIP3    H230675   6.112   7.264   0.453
10240TIP3   OH230676   3.114   3.429   6.291
10240TIP3    H130677   3.068   3.409   6.210
10240TIP3    H230678   3.080   3.514   6.318
10241TIP3   OH230679   2.550   3.275   6.680
10241TIP3    H130680   2.597   3.270   6.763
10241TIP3    H230681   2.500   3.194   6.676
10242TIP3   OH230682   3.315   3.330   5.931
10242TIP3    H130683   3.371   3.262   5.894
10242TIP3    H230684   3.347   3.342   6.020
10243TIP3   OH230685   3.365   3.380   6.202
10243TIP3    H130686   3.277   3.389   6.239
10243TIP3    H230687   3.416   3.338   6.271
10244TIP3   OH230688   6.966   6.649   0.540
10244TIP3    H130689   6.883   6.663   0.494
10244TIP3    H230690   6.983   6.555   0.532
10245TIP3   OH230691   5.563   7.060   0.559
10245TIP3    H130692   5.613   7.048   0.639
10245TIP3    H230693   5.488   7.001   0.569
10246TIP3   OH230694   5.964   5.885   0.352
10246TIP3    H130695   5.879   5.851   0.325
10246TIP3    H230696   5.943   5.967   0.398
10247TIP3   OH230697   6.497   5.998   0.545
10247TIP3    H130698   6.565   5.973   0.608
10247TIP3    H230699   6.414   5.981   0.590
10248TIP3   OH230700   6.735   6.429   0.463
10248TIP3    H130701   6.685   6.424   0.545
10248TIP3    H230702   6.713   6.515   0.427
10249TIP3   OH230703   3.566   2.548   5.957
10249TIP3    H130704   3.526   2.526   5.873
10249TIP3    H230705   3.649   2.591   5.934
10250TIP3   OH230706   3.275   1.920   6.263
10250TIP3    H130707   3.242   1.920   6.353
10250TIP3    H230708   3.235   1.843   6.222
10251TIP3   OH230709   5.896   6.401   0.368
10251TIP3    H130710   5.844   6.419   0.447
10251TIP3    H230711   5.883   6.479   0.314
10252TIP3   OH230712   2.939   2.275   6.827
10252TIP3    H130713   2.848   2.247   6.842
10252TIP3    H230714   2.957   2.248   6.737
10253TIP3   OH230715   3.438   2.367   6.551
10253TIP3    H130716   3.387   2.436   6.509
10253TIP3    H230717   3.492   2.331   6.480
10254TIP3   OH230718   6.450   6.648   0.691
10254TIP3    H130719   6.425   6.577   0.750
10254TIP3    H230720   6.541   6.667   0.713
10255TIP3   OH230721   3.591   2.389   6.784
10255TIP3    H130722   3.529   2.421   6.719
10255TIP3    H230723   3.629   2.311   6.745
10256TIP3   OH230724   5.717   6.429   0.575
10256TIP3    H130725   5.737   6.497   0.638
10256TIP3    H230726   5.706   6.350   0.627
10257TIP3   OH230727   2.933   1.901   6.223
10257TIP3    H130728   2.925   1.897   6.318
10257TIP3    H230729   2.858   1.954   6.195
10258TIP3   OH230730   5.322   5.945   0.149
10258TIP3    H130731   5.390   5.979   0.208
10258TIP3    H230732   5.369   5.928   0.067
10259TIP3   OH230733   2.411   1.918   6.566
10259TIP3    H130734   2.506   1.915   6.557
10259TIP3    H230735   2.396   1.967   6.646
10260TIP3   OH230736   6.437   6.639   0.270
10260TIP3    H130737   6.470   6.572   0.210
10260TIP3    H230738   6.405   6.590   0.346
10261TIP3   OH230739   3.278   2.097   6.884
10261TIP3    H130740   3.195   2.096   6.931
10261TIP3    H230741   3.344   2.098   6.954
10262TIP3   OH230742   2.698   2.146   6.884
10262TIP3    H130743   2.610   2.175   6.862
10262TIP3    H230744   2.699   2.052   6.864
10263TIP3   OH230745   2.977   2.173   6.581
10263TIP3    H130746   3.068   2.170   6.550
10263TIP3    H230747   2.924   2.174   6.501
10264TIP3   OH230748   6.597   6.181   0.146
10264TIP3    H130749   6.569   6.198   0.236
10264TIP3    H230750   6.530   6.122   0.111
10265TIP3   OH230751   2.818   2.190   6.359
10265TIP3    H130752   2.743   2.146   6.319
10265TIP3    H230753   2.869   2.222   6.284
10266TIP3   OH230754   6.774   7.873   0.365
10266TIP3    H130755   6.770   7.895   0.272
10266TIP3    H230756   6.851   7.919   0.397
10267TIP3   OH230757   5.745   6.983   0.774
10267TIP3    H130758   5.820   7.013   0.825
10267TIP3    H230759   5.671   6.987   0.834
10268TIP3   OH230760   6.189   6.435   0.040
10268TIP3    H130761   6.263   6.400  -0.011
10268TIP3    H230762   6.197   6.391   0.125
10269TIP3   OH230763   6.166   6.334   0.334
10269TIP3    H130764   6.077   6.369   0.344
10269TIP3    H230765   6.221   6.397   0.380
10270TIP3   OH230766   3.066   2.715   6.367
10270TIP3    H130767   2.998   2.649   6.353
10270TIP3    H230768   3.049   2.749   6.455
10271TIP3   OH230769   6.800   6.959   0.050
10271TIP3    H130770   6.824   7.010  -0.027
10271TIP3    H230771   6.718   6.916   0.025
10272TIP3   OH230772   3.526   2.025   6.236
10272TIP3    H130773   3.432   2.005   6.241
10272TIP3    H230774   3.532   2.118   6.257
10273TIP3   OH230775   6.303   7.044   0.423
10273TIP3    H130776   6.329   7.025   0.513
10273TIP3    H230777   6.262   7.130   0.429
10274TIP3   OH230778   3.595   2.279   6.335
10274TIP3    H130779   3.690   2.284   6.348
10274TIP3    H230780   3.575   2.356   6.282
10275TIP3   OH230781   5.599   6.749   0.098
10275TIP3    H130782   5.634   6.719   0.014
10275TIP3    H230783   5.635   6.687   0.162
10276TIP3   OH230784   3.213   2.866   6.191
10276TIP3    H130785   3.167   2.950   6.192
10276TIP3    H230786   3.161   2.810   6.249
10277TIP3   OH230787   5.481   6.660   0.702
10277TIP3    H130788   5.500   6.663   0.796
10277TIP3    H230789   5.400   6.609   0.695
10278TIP3   OH230790   6.207   6.780   0.729
10278TIP3    H130791   6.144   6.727   0.681
10278TIP3    H230792   6.292   6.749   0.700
10279TIP3   OH230793   6.459   7.305   0.320
10279TIP3    H130794   6.365   7.299   0.332
10279TIP3    H230795   6.490   7.354   0.396
10280TIP3   OH230796   4.033   2.371   6.165
10280TIP3    H130797   3.974   2.324   6.106
10280TIP3    H230798   4.035   2.461   6.130
10281TIP3   OH230799   7.089   7.234   0.303
10281TIP3    H130800   6.994   7.229   0.299
10281TIP3    H230801   7.119   7.203   0.217
10282TIP3   OH230802   3.742   3.185   6.077
10282TIP3    H130803   3.712   3.116   6.137
10282TIP3    H230804   3.753   3.141   5.993
10283TIP3   OH230805   3.734   2.813   6.909
10283TIP3    H130806   3.641   2.793   6.924
10283TIP3    H230807   3.768   2.736   6.865
10284TIP3   OH230808   2.864   3.046   6.666
10284TIP3    H130809   2.861   3.125   6.611
10284TIP3    H230810   2.772   3.023   6.680
10285TIP3   OH230811   2.422   2.354   6.374
10285TIP3    H130812   2.469   2.434   6.394
10285TIP3    H230813   2.347   2.353   6.434
10286TIP3   OH230814   2.995   2.807   6.609
10286TIP3    H130815   2.963   2.896   6.627
10286TIP3    H230816   2.962   2.755   6.682
10287TIP3   OH230817   5.969   7.394   0.194
10287TIP3    H130818   6.009   7.465   0.144
10287TIP3    H230819   6.042   7.354   0.242
10288TIP3   OH230820   2.779   3.285   6.518
10288TIP3    H130821   2.695   3.291   6.565
10288TIP3    H230822   2.813   3.375   6.519
10289TIP3   OH230823   6.352   7.026   0.157
10289TIP3    H130824   6.340   7.026   0.252
10289TIP3    H230825   6.430   6.973   0.142
10290TIP3   OH230826   3.497   2.917   5.981
10290TIP3    H130827   3.551   2.892   6.056
10290TIP3    H230828   3.409   2.886   6.003
10291TIP3   OH230829   6.599   7.558   0.202
10291TIP3    H130830   6.522   7.502   0.200
10291TIP3    H230831   6.584   7.622   0.132
10292TIP3   OH230832   3.833   3.389   5.795
10292TIP3    H130833   3.872   3.459   5.741
10292TIP3    H230834   3.753   3.428   5.831
10293TIP3   OH230835   5.686   6.165   0.713
10293TIP3    H130836   5.592   6.164   0.729
10293TIP3    H230837   5.723   6.112   0.784
10294TIP3   OH230838   3.660   2.848   6.194
10294TIP3    H130839   3.645   2.783   6.263
10294TIP3    H230840   3.754   2.845   6.179
10295TIP3   OH230841   5.406   7.253   0.352
10295TIP3    H130842   5.459   7.181   0.388
10295TIP3    H230843   5.420   7.325   0.414
10296TIP3   OH230844   2.859   2.892   5.979
10296TIP3    H130845   2.872   2.802   5.950
10296TIP3    H230846   2.838   2.884   6.072
10297TIP3   OH230847   2.804   2.901   6.251
10297TIP3    H130848   2.878   2.870   6.303
10297TIP3    H230849   2.807   2.997   6.258
10298TIP3   OH230850   2.538   2.595   6.454
10298TIP3    H130851   2.472   2.636   6.511
10298TIP3    H230852   2.553   2.659   6.385
10299TIP3   OH230853   6.528   6.234   0.406
10299TIP3    H130854   6.606   6.275   0.444
10299TIP3    H230855   6.513   6.156   0.458
10300TIP3   OH230856   3.576   1.976   6.514
10300TIP3    H130857   3.558   1.994   6.421
10300TIP3    H230858   3.612   2.058   6.548
10301TIP3   OH230859   3.071   3.097   6.198
10301TIP3    H130860   2.986   3.118   6.235
10301TIP3    H230861   3.088   3.167   6.134
10302TIP3   OH230862   3.268   2.158   6.613
10302TIP3    H130863   3.325   2.233   6.596
10302TIP3    H230864   3.266   2.153   6.709
10303TIP3   OH230865   6.364   6.483   0.479
10303TIP3    H130866   6.388   6.537   0.554
10303TIP3    H230867   6.416   6.403   0.489
10304TIP3   OH230868   3.404   1.885   6.715
10304TIP3    H130869   3.385   1.964   6.766
10304TIP3    H230870   3.465   1.915   6.647
10305TIP3   OH230871   2.818   3.174   6.267
10305TIP3    H130872   2.789   3.241   6.205
10305TIP3    H230873   2.802   3.213   6.353
10306TIP3   OH230874   2.917   1.879   6.495
10306TIP3    H130875   2.890   1.938   6.566
10306TIP3    H230876   3.012   1.871   6.506
10307TIP3   OH230877   6.999   6.382   0.462
10307TIP3    H130878   6.904   6.382   0.471
10307TIP3    H230879   7.015   6.348   0.374
10308TIP3   OH230880   3.820   2.570   6.789
10308TIP3    H130881   3.744   2.513   6.799
10308TIP3    H230882   3.890   2.524   6.835
10309TIP3   OH230883   2.538   2.797   6.254
10309TIP3    H130884   2.605   2.863   6.267
10309TIP3    H230885   2.575   2.737   6.190
10310TIP3   OH230886   2.492   2.090   6.345
10310TIP3    H130887   2.476   2.182   6.367
10310TIP3    H230888   2.426   2.042   6.395
10311TIP3   OH230889   3.791   3.534   6.733
10311TIP3    H130890   3.745   3.578   6.662
10311TIP3    H230891   3.883   3.549   6.716
10312TIP3   OH230892   5.699   5.808   0.345
10312TIP3    H130893   5.670   5.776   0.260
10312TIP3    H230894   5.691   5.733   0.404
10313TIP3   OH230895   2.401   3.016   6.640
10313TIP3    H130896   2.338   3.044   6.707
10313TIP3    H230897   2.369   3.056   6.560
10314TIP3   OH230898   5.397   7.569   0.777
10314TIP3    H130899   5.481   7.568   0.823
10314TIP3    H230900   5.371   7.477   0.774
10315TIP3   OH230901   5.874   7.528   0.815
10315TIP3    H130902   5.967   7.508   0.828
10315TIP3    H230903   5.845   7.467   0.747
10316TIP3   OH230904   3.023   3.093   5.888
10316TIP3    H130905   2.968   3.024   5.925
10316TIP3    H230906   3.099   3.046   5.853
10317TIP3   OH230907   6.516   7.435   0.555
10317TIP3    H130908   6.507   7.366   0.622
10317TIP3    H230909   6.591   7.487   0.585
10318TIP3   OH230910   3.460   3.134   5.802
10318TIP3    H130911   3.498   3.070   5.861
10318TIP3    H230912   3.515   3.130   5.724
10319TIP3   OH230913   5.533   6.984   0.939
10319TIP3    H130914   5.543   6.892   0.966
10319TIP3    H230915   5.441   6.990   0.910
10320TIP3   OH230916   2.672   2.610   6.112
10320TIP3    H130917   2.724   2.578   6.186
10320TIP3    H230918   2.734   2.617   6.040
10321TIP3   OH230919   6.133   7.060   0.746
10321TIP3    H130920   6.090   7.079   0.663
10321TIP3    H230921   6.162   6.969   0.738
10322TIP3   OH230922   3.186   2.812   5.922
10322TIP3    H130923   3.186   2.825   6.016
10322TIP3    H230924   3.186   2.717   5.911
10323TIP3   OH230925   6.625   7.070   0.357
10323TIP3    H130926   6.701   7.110   0.315
10323TIP3    H230927   6.554   7.133   0.344
10324TIP3   OH230928   5.638   6.700   0.939
10324TIP3    H130929   5.726   6.684   0.906
10324TIP3    H230930   5.637   6.661   1.026
10325TIP3   OH230931   2.876   2.516   6.331
10325TIP3    H130932   2.849   2.475   6.413
10325TIP3    H230933   2.914   2.444   6.280
10326TIP3   OH230934   5.983   6.589   0.621
10326TIP3    H130935   5.904   6.643   0.623
10326TIP3    H230936   6.032   6.621   0.546
10327TIP3   OH230937   2.980   2.315   6.169
10327TIP3    H130938   2.952   2.321   6.077
10327TIP3    H230939   3.075   2.315   6.165
10328TIP3   OH230940   6.498   6.991   0.755
10328TIP3    H130941   6.574   6.961   0.705
10328TIP3    H230942   6.490   6.929   0.827
10329TIP3   OH230943   3.796   2.642   5.836
10329TIP3    H130944   3.780   2.595   5.755
10329TIP3    H230945   3.764   2.731   5.820
10330TIP3   OH230946   6.106   6.378   0.741
10330TIP3    H130947   6.107   6.300   0.686
10330TIP3    H230948   6.064   6.445   0.688
10331TIP3   OH230949   6.104   6.166   0.554
10331TIP3    H130950   6.135   6.209   0.474
10331TIP3    H230951   6.013   6.144   0.536
10332TIP3   OH230952   6.129   6.701   0.428
10332TIP3    H130953   6.214   6.713   0.385
10332TIP3    H230954   6.071   6.762   0.383
10333TIP3   OH230955   6.713   6.665   0.802
10333TIP3    H130956   6.762   6.585   0.823
10333TIP3    H230957   6.779   6.725   0.769
10334TIP3   OH230958   6.755   6.922   0.540
10334TIP3    H130959   6.696   6.974   0.486
10334TIP3    H230960   6.842   6.941   0.505
10335TIP3   OH230961   5.954   6.503   0.944
10335TIP3    H130962   5.896   6.428   0.954
10335TIP3    H230963   6.006   6.483   0.866
10336TIP3   OH230964   6.233   5.927   0.621
10336TIP3    H130965   6.186   6.008   0.597
10336TIP3    H230966   6.168   5.858   0.608
10337TIP3   OH230967   6.366   6.430   0.828
10337TIP3    H130968   6.353   6.424   0.923
10337TIP3    H230969   6.281   6.406   0.791
10338TIP3   OH230970   6.601   6.376   0.690
10338TIP3    H130971   6.528   6.382   0.751
10338TIP3    H230972   6.676   6.350   0.745
10339TIP3   OH230973   6.834   6.321   0.832
10339TIP3    H130974   6.842   6.227   0.849
10339TIP3    H230975   6.828   6.360   0.919
10340TIP3   OH230976   5.809   6.273   0.996
10340TIP3    H130977   5.825   6.182   0.973
10340TIP3    H230978   5.854   6.286   1.079
10341TIP3   OH230979   6.336   5.938   0.872
10341TIP3    H130980   6.395   5.864   0.859
10341TIP3    H230981   6.287   5.944   0.791
10342TIP3   OH230982   6.409   6.158   1.024
10342TIP3    H130983   6.392   6.076   0.978
10342TIP3    H230984   6.324   6.203   1.024
10343TIP3   OH230985   2.790   3.378   6.078
10343TIP3    H130986   2.883   3.365   6.062
10343TIP3    H230987   2.758   3.426   6.002
10344TIP3   OH230988   2.267   2.756   6.291
10344TIP3    H130989   2.359   2.779   6.279
10344TIP3    H230990   2.258   2.669   6.252
10345TIP3   OH230991   2.182   3.366   6.712
10345TIP3    H130992   2.117   3.308   6.671
10345TIP3    H230993   2.227   3.310   6.775
10346TIP3   OH230994   2.317   3.215   6.900
10346TIP3    H130995   2.304   3.143   6.962
10346TIP3    H230996   2.368   3.279   6.948
10347TIP3   OH230997   4.046   3.620   6.697
10347TIP3    H130998   4.072   3.649   6.785
10347TIP3    H230999   4.111   3.659   6.639
10348TIP3   OH231000   6.907   7.643   0.040
10348TIP3    H131001   6.858   7.561   0.033
10348TIP3    H231002   6.981   7.622   0.096
10349TIP3   OH231003   6.952   7.324   0.612
10349TIP3    H131004   6.880   7.332   0.675
10349TIP3    H231005   6.995   7.410   0.614
10350TIP3   OH231006   3.937   2.828   6.171
10350TIP3    H131007   4.000   2.893   6.138
10350TIP3    H231008   3.980   2.791   6.248
10351TIP3   OH231009   4.064   2.696   6.377
10351TIP3    H131010   3.997   2.656   6.432
10351TIP3    H231011   4.127   2.732   6.438
10352TIP3   OH231012   4.122   3.091   6.804
10352TIP3    H131013   4.170   3.021   6.760
10352TIP3    H231014   4.115   3.161   6.740
10353TIP3   OH231015   6.778   7.397   0.059
10353TIP3    H131016   6.709   7.438   0.110
10353TIP3    H231017   6.732   7.351  -0.012
10354TIP3   OH231018   3.998   2.607   6.018
10354TIP3    H131019   3.930   2.604   5.951
10354TIP3    H231020   3.972   2.680   6.075
10355TIP3   OH231021   3.870   2.275   5.972
10355TIP3    H131022   3.827   2.314   5.895
10355TIP3    H231023   3.849   2.182   5.966
10356TIP3   OH231024   3.875   2.554   6.521
10356TIP3    H131025   3.882   2.460   6.509
10356TIP3    H231026   3.861   2.566   6.615
10357TIP3   OH231027   5.336   6.629   0.327
10357TIP3    H131028   5.330   6.598   0.236
10357TIP3    H231029   5.429   6.633   0.345
10358TIP3   OH231030   7.002   6.986   0.436
10358TIP3    H131031   7.070   6.920   0.426
10358TIP3    H231032   7.024   7.053   0.371
10359TIP3   OH231033   7.182   6.783   0.446
10359TIP3    H131034   7.107   6.738   0.486
10359TIP3    H231035   7.256   6.724   0.462
10360TIP3   OH231036   3.814   2.011   5.958
10360TIP3    H131037   3.884   1.977   6.015
10360TIP3    H231038   3.739   1.953   5.976
10361TIP3   OH231039   3.877   2.270   6.411
10361TIP3    H131040   3.914   2.183   6.427
10361TIP3    H231041   3.930   2.305   6.340
10362TIP3   OH231042   4.036   2.441   6.911
10362TIP3    H131043   4.117   2.463   6.866
10362TIP3    H231044   4.046   2.477   6.999
10363TIP3   OH231045   6.938   6.596   0.199
10363TIP3    H131046   6.862   6.627   0.248
10363TIP3    H231047   6.972   6.674   0.155
10364TIP3   OH231048   5.548   6.312   0.936
10364TIP3    H131049   5.643   6.318   0.929
10364TIP3    H231050   5.533   6.256   1.012
10365TIP3   OH231051   7.388   6.185   0.753
10365TIP3    H131052   7.449   6.122   0.713
10365TIP3    H231053   7.356   6.238   0.680
10366TIP3   OH231054   3.982   2.019   6.454
10366TIP3    H131055   4.029   2.005   6.535
10366TIP3    H231056   3.920   1.946   6.449
10367TIP3   OH231057   5.516   6.016   0.343
10367TIP3    H131058   5.572   5.938   0.345
10367TIP3    H231059   5.576   6.088   0.325
10368TIP3   OH231060   5.318   6.283   0.404
10368TIP3    H131061   5.366   6.279   0.320
10368TIP3    H231062   5.337   6.371   0.437
10369TIP3   OH231063   7.253   6.322   0.561
10369TIP3    H131064   7.174   6.370   0.584
10369TIP3    H231065   7.224   6.253   0.502
10370TIP3   OH231066   4.062   1.950   6.087
10370TIP3    H131067   4.098   1.882   6.031
10370TIP3    H231068   4.125   2.022   6.083
10371TIP3   OH231069   3.630   3.489   6.351
10371TIP3    H131070   3.676   3.476   6.268
10371TIP3    H231071   3.683   3.553   6.398
10372TIP3   OH231072   5.505   5.884   0.720
10372TIP3    H131073   5.416   5.876   0.753
10372TIP3    H231074   5.497   5.936   0.640
10373TIP3   OH231075   5.558   7.298   0.799
10373TIP3    H131076   5.467   7.277   0.779
10373TIP3    H231077   5.570   7.272   0.890
10374TIP3   OH231078   5.742   7.334   0.340
10374TIP3    H131079   5.690   7.406   0.306
10374TIP3    H231080   5.828   7.345   0.299
10375TIP3   OH231081   6.183   7.574   0.481
10375TIP3    H131082   6.221   7.572   0.569
10375TIP3    H231083   6.245   7.625   0.430
10376TIP3   OH231084   6.363   7.729   0.343
10376TIP3    H131085   6.429   7.676   0.300
10376TIP3    H231086   6.412   7.785   0.404
10377TIP3   OH231087   7.155   6.086   0.439
10377TIP3    H131088   7.068   6.084   0.400
10377TIP3    H231089   7.189   5.997   0.430
10378TIP3   OH231090   5.413   7.590   0.367
10378TIP3    H131091   5.326   7.621   0.344
10378TIP3    H231092   5.429   7.624   0.455
10379TIP3   OH231093   5.650   7.568   0.227
10379TIP3    H131094   5.566   7.577   0.271
10379TIP3    H231095   5.633   7.597   0.137
10380TIP3   OH231096   6.076   7.594   0.024
10380TIP3    H131097   6.007   7.609  -0.040
10380TIP3    H231098   6.088   7.679   0.067
10381TIP3   OH231099   6.345   7.533   0.077
10381TIP3    H131100   6.253   7.548   0.057
10381TIP3    H231101   6.391   7.604   0.032
10382TIP3   OH231102   3.721   3.717   6.927
10382TIP3    H131103   3.706   3.800   6.881
10382TIP3    H231104   3.747   3.656   6.858
10383TIP3   OH231105   5.330   7.378   0.114
10383TIP3    H131106   5.353   7.352   0.203
10383TIP3    H231107   5.397   7.337   0.059
10384TIP3   OH231108   2.691   3.245   6.912
10384TIP3    H131109   2.701   3.163   6.960
10384TIP3    H231110   2.779   3.281   6.907
10385TIP3   OH231111   2.959   3.336   6.918
10385TIP3    H131112   2.985   3.245   6.904
10385TIP3    H231113   3.003   3.362   6.999
10386TIP3   OH231114   6.368   6.003   0.070
10386TIP3    H131115   6.322   5.934   0.116
10386TIP3    H231116   6.434   5.957   0.018
10387TIP3   OH231117   4.050   1.877   6.905
10387TIP3    H131118   4.087   1.926   6.832
10387TIP3    H231119   3.955   1.894   6.899
10388TIP3   OH231120   4.148   1.973   6.668
10388TIP3    H131121   4.218   1.921   6.630
10388TIP3    H231122   4.176   2.064   6.656
10389TIP3   OH231123   5.624   5.705   0.114
10389TIP3    H131124   5.569   5.751   0.050
10389TIP3    H231125   5.666   5.635   0.064
10390TIP3   OH231126   2.563   1.583   6.654
10390TIP3    H131127   2.593   1.627   6.575
10390TIP3    H231128   2.571   1.649   6.723
10391TIP3   OH231129   3.237   1.728   6.900
10391TIP3    H131130   3.286   1.778   6.834
10391TIP3    H231131   3.242   1.781   6.980
10392TIP3   OH231132   3.768   1.882   6.878
10392TIP3    H131133   3.762   1.847   6.789
10392TIP3    H231134   3.755   1.806   6.935
10393TIP3   OH231135   3.796   1.808   6.445
10393TIP3    H131136   3.714   1.854   6.459
10393TIP3    H231137   3.783   1.722   6.486
10394TIP3   OH231138   2.279   3.150   6.440
10394TIP3    H131139   2.196   3.113   6.410
10394TIP3    H231140   2.273   3.243   6.418
10395TIP3   OH231141   2.679   1.729   6.425
10395TIP3    H131142   2.732   1.676   6.365
10395TIP3    H231143   2.743   1.785   6.470
10396TIP3   OH231144   3.197   1.911   6.527
10396TIP3    H131145   3.250   1.860   6.587
10396TIP3    H231146   3.219   2.002   6.548
10397TIP3   OH231147   3.056   3.328   6.023
10397TIP3    H131148   3.142   3.354   5.991
10397TIP3    H231149   3.029   3.256   5.966
10398TIP3   OH231150   3.773   3.451   6.118
10398TIP3    H131151   3.768   3.356   6.111
10398TIP3    H231152   3.728   3.483   6.040
10399TIP3   OH231153   5.861   6.011   0.933
10399TIP3    H131154   5.854   5.947   1.003
10399TIP3    H231155   5.955   6.017   0.915
10400TIP3   OH231156   2.359   3.168   6.080
10400TIP3    H131157   2.360   3.186   6.174
10400TIP3    H231158   2.443   3.125   6.063
10401TIP3   OH231159   6.897   6.053   0.855
10401TIP3    H131160   6.922   6.035   0.946
10401TIP3    H231161   6.981   6.057   0.809
10402TIP3   OH231162   6.828   7.603   0.364
10402TIP3    H131163   6.752   7.570   0.315
10402TIP3    H231164   6.811   7.697   0.373
10403TIP3   OH231165   5.264   2.973   6.068
10403TIP3    H131166   5.234   3.061   6.047
10403TIP3    H231167   5.193   2.916   6.038
10404TIP3   OH231168   5.264   2.970   6.458
10404TIP3    H131169   5.299   2.942   6.543
10404TIP3    H231170   5.226   2.891   6.420
10405TIP3   OH231171   4.563   2.862   6.821
10405TIP3    H131172   4.590   2.792   6.881
10405TIP3    H231173   4.643   2.912   6.805
10406TIP3   OH231174   5.510   3.274   6.137
10406TIP3    H131175   5.492   3.202   6.198
10406TIP3    H231176   5.541   3.346   6.193
10407TIP3   OH231177   4.538   3.273   6.541
10407TIP3    H131178   4.527   3.178   6.542
10407TIP3    H231179   4.633   3.285   6.533
10408TIP3   OH231180   4.238   2.473   6.323
10408TIP3    H131181   4.195   2.557   6.343
10408TIP3    H231182   4.171   2.421   6.280
10409TIP3   OH231183   4.302   2.762   6.505
10409TIP3    H131184   4.348   2.685   6.537
10409TIP3    H231185   4.357   2.796   6.435
10410TIP3   OH231186   5.163   3.732   6.155
10410TIP3    H131187   5.203   3.665   6.100
10410TIP3    H231188   5.151   3.690   6.240
10411TIP3   OH231189   5.066   3.195   6.502
10411TIP3    H131190   5.100   3.116   6.460
10411TIP3    H231191   5.144   3.245   6.527
10412TIP3   OH231192   6.084   2.514   6.500
10412TIP3    H131193   6.110   2.598   6.537
10412TIP3    H231194   6.095   2.525   6.405
10413TIP3   OH231195   5.476   2.693   6.531
10413TIP3    H131196   5.522   2.612   6.553
10413TIP3    H231197   5.443   2.678   6.442
10414TIP3   OH231198   4.811   2.355   6.497
10414TIP3    H131199   4.800   2.428   6.436
10414TIP3    H231200   4.767   2.281   6.455
10415TIP3   OH231201   5.497   2.447   6.112
10415TIP3    H131202   5.536   2.390   6.179
10415TIP3    H231203   5.572   2.480   6.063
10416TIP3   OH231204   4.449   2.553   6.604
10416TIP3    H131205   4.529   2.539   6.654
10416TIP3    H231206   4.461   2.502   6.525
10417TIP3   OH231207   4.887   2.751   6.405
10417TIP3    H131208   4.980   2.732   6.414
10417TIP3    H231209   4.849   2.671   6.370
10418TIP3   OH231210   6.154   2.729   6.669
10418TIP3    H131211   6.072   2.770   6.641
10418TIP3    H231212   6.158   2.745   6.764
10419TIP3   OH231213   4.807   2.341   6.934
10419TIP3    H131214   4.752   2.375   6.863
10419TIP3    H231215   4.757   2.358   7.014
10420TIP3   OH231216   5.151   3.191   5.938
10420TIP3    H131217   5.113   3.173   5.853
10420TIP3    H231218   5.108   3.271   5.968
10421TIP3   OH231219   4.918   3.117   6.723
10421TIP3    H131220   4.858   3.182   6.760
10421TIP3    H231221   4.960   3.161   6.650
10422TIP3   OH231222   5.736   2.475   6.267
10422TIP3    H131223   5.698   2.399   6.312
10422TIP3    H231224   5.767   2.531   6.338
10423TIP3   OH231225   4.684   2.455   6.716
10423TIP3    H131226   4.744   2.525   6.742
10423TIP3    H231227   4.727   2.413   6.641
10424TIP3   OH231228   4.744   3.313   6.826
10424TIP3    H131229   4.723   3.398   6.788
10424TIP3    H231230   4.668   3.291   6.880
10425TIP3   OH231231   4.135   3.001   6.059
10425TIP3    H131232   4.096   3.025   5.975
10425TIP3    H231233   4.168   3.084   6.095
10426TIP3   OH231234   5.576   3.519   6.302
10426TIP3    H131235   5.489   3.506   6.341
10426TIP3    H231236   5.569   3.602   6.255
10427TIP3   OH231237   5.867   2.418   6.665
10427TIP3    H131238   5.779   2.434   6.632
10427TIP3    H231239   5.925   2.446   6.595
10428TIP3   OH231240   5.162   2.049   6.652
10428TIP3    H131241   5.149   1.955   6.663
10428TIP3    H231242   5.087   2.089   6.696
10429TIP3   OH231243   5.279   3.560   5.969
10429TIP3    H131244   5.323   3.476   5.955
10429TIP3    H231245   5.339   3.625   5.933
10430TIP3   OH231246   5.421   3.344   5.887
10430TIP3    H131247   5.385   3.266   5.846
10430TIP3    H231248   5.460   3.313   5.969
10431TIP3   OH231249   5.803   3.425   6.643
10431TIP3    H131250   5.791   3.348   6.587
10431TIP3    H231251   5.786   3.500   6.585
10432TIP3   OH231252   5.096   2.824   5.901
10432TIP3    H131253   5.017   2.875   5.882
10432TIP3    H231254   5.142   2.818   5.818
10433TIP3   OH231255   5.056   2.607   5.616
10433TIP3    H131256   5.119   2.660   5.664
10433TIP3    H231257   5.109   2.544   5.568
10434TIP3   OH231258   5.998   3.071   6.491
10434TIP3    H131259   5.913   3.116   6.497
10434TIP3    H231260   6.029   3.090   6.403
10435TIP3   OH231261   5.446   2.904   5.875
10435TIP3    H131262   5.390   2.927   5.949
10435TIP3    H231263   5.529   2.877   5.915
10436TIP3   OH231264   5.675   2.943   6.788
10436TIP3    H131265   5.673   3.025   6.836
10436TIP3    H231266   5.591   2.940   6.742
10437TIP3   OH231267   4.676   2.898   6.292
10437TIP3    H131268   4.634   2.843   6.227
10437TIP3    H231269   4.751   2.846   6.323
10438TIP3   OH231270   4.806   3.312   6.438
10438TIP3    H131271   4.783   3.278   6.351
10438TIP3    H231272   4.893   3.276   6.456
10439TIP3   OH231273   4.809   2.873   6.646
10439TIP3    H131274   4.841   2.844   6.560
10439TIP3    H231275   4.853   2.956   6.662
10440TIP3   OH231276   5.337   3.510   6.424
10440TIP3    H131277   5.325   3.588   6.479
10440TIP3    H231278   5.321   3.437   6.484
10441TIP3   OH231279   7.781   7.436   0.031
10441TIP3    H131280   7.723   7.497   0.076
10441TIP3    H231281   7.723   7.381  -0.022
10442TIP3   OH231282   5.282   2.766   5.699
10442TIP3    H131283   5.340   2.822   5.750
10442TIP3    H231284   5.307   2.783   5.608
10443TIP3   OH231285   7.538   6.990   0.138
10443TIP3    H131286   7.545   7.078   0.176
10443TIP3    H231287   7.445   6.968   0.145
10444TIP3   OH231288   5.028   3.440   5.978
10444TIP3    H131289   5.110   3.489   5.985
10444TIP3    H231290   4.969   3.499   5.931
10445TIP3   OH231291   7.575   7.601   0.118
10445TIP3    H131292   7.543   7.604   0.027
10445TIP3    H231293   7.497   7.579   0.170
10446TIP3   OH231294   5.794   2.000   5.748
10446TIP3    H131295   5.715   2.020   5.799
10446TIP3    H231296   5.813   2.081   5.701
10447TIP3   OH231297   4.539   2.745   6.096
10447TIP3    H131298   4.473   2.788   6.042
10447TIP3    H231299   4.508   2.655   6.106
10448TIP3   OH231300   5.601   3.369   5.298
10448TIP3    H131301   5.607   3.463   5.283
10448TIP3    H231302   5.691   3.337   5.286
10449TIP3   OH231303   7.155   7.134   0.063
10449TIP3    H131304   7.089   7.115  -0.004
10449TIP3    H231305   7.193   7.048   0.084
10450TIP3   OH231306   4.178   3.322   6.634
10450TIP3    H131307   4.273   3.312   6.624
10450TIP3    H231308   4.168   3.398   6.691
10451TIP3   OH231309   6.036   3.773   6.694
10451TIP3    H131310   6.039   3.678   6.705
10451TIP3    H231311   5.956   3.800   6.739
10452TIP3   OH231312   5.144   3.557   6.830
10452TIP3    H131313   5.144   3.648   6.859
10452TIP3    H231314   5.075   3.515   6.880
10453TIP3   OH231315   4.910   3.685   5.778
10453TIP3    H131316   4.864   3.666   5.696
10453TIP3    H231317   4.876   3.770   5.805
10454TIP3   OH231318   4.347   3.532   6.167
10454TIP3    H131319   4.393   3.526   6.250
10454TIP3    H231320   4.297   3.451   6.161
10455TIP3   OH231321   5.111   3.587   5.418
10455TIP3    H131322   5.167   3.519   5.381
10455TIP3    H231323   5.143   3.598   5.507
10456TIP3   OH231324   5.161   3.636   5.688
10456TIP3    H131325   5.073   3.646   5.726
10456TIP3    H231326   5.212   3.595   5.758
10457TIP3   OH231327   0.260   6.906   0.026
10457TIP3    H131328   0.178   6.920  -0.022
10457TIP3    H231329   0.278   6.812   0.014
10458TIP3   OH231330   7.359   7.317   0.050
10458TIP3    H131331   7.409   7.301   0.130
10458TIP3    H231332   7.286   7.256   0.055
10459TIP3   OH231333   4.923   2.130   6.782
10459TIP3    H131334   4.839   2.100   6.749
10459TIP3    H231335   4.904   2.213   6.825
10460TIP3   OH231336   8.295   6.256   0.033
10460TIP3    H131337   8.363   6.226   0.094
10460TIP3    H231338   8.213   6.236   0.077
10461TIP3   OH231339   5.702   2.681   6.896
10461TIP3    H131340   5.647   2.676   6.974
10461TIP3    H231341   5.675   2.762   6.853
10462TIP3   OH231342   5.362   2.805   5.444
10462TIP3    H131343   5.323   2.782   5.360
10462TIP3    H231344   5.445   2.848   5.421
10463TIP3   OH231345   5.070   2.179   5.751
10463TIP3    H131346   5.041   2.179   5.842
10463TIP3    H231347   5.033   2.099   5.713
10464TIP3   OH231348   4.857   2.653   6.797
10464TIP3    H131349   4.808   2.671   6.877
10464TIP3    H231350   4.843   2.730   6.742
10465TIP3   OH231351   4.740   2.534   6.309
10465TIP3    H131352   4.650   2.510   6.330
10465TIP3    H231353   4.756   2.496   6.223
10466TIP3   OH231354   5.231   2.623   6.039
10466TIP3    H131355   5.182   2.691   5.993
10466TIP3    H231356   5.289   2.586   5.972
10467TIP3   OH231357   8.242   6.903   0.185
10467TIP3    H131358   8.217   6.831   0.244
10467TIP3    H231359   8.336   6.916   0.203
10468TIP3   OH231360   5.388   2.649   6.269
10468TIP3    H131361   5.323   2.675   6.204
10468TIP3    H231362   5.429   2.571   6.232
10469TIP3   OH231363   7.511   6.684   0.064
10469TIP3    H131364   7.540   6.748   0.129
10469TIP3    H231365   7.500   6.603   0.114
10470TIP3   OH231366   4.725   2.156   5.714
10470TIP3    H131367   4.719   2.154   5.810
10470TIP3    H231368   4.651   2.209   5.686
10471TIP3   OH231369   4.272   2.195   6.588
10471TIP3    H131370   4.345   2.230   6.639
10471TIP3    H231371   4.311   2.170   6.505
10472TIP3   OH231372   4.236   2.182   6.102
10472TIP3    H131373   4.283   2.213   6.025
10472TIP3    H231374   4.174   2.252   6.123
10473TIP3   OH231375   5.404   2.889   6.698
10473TIP3    H131376   5.435   2.823   6.636
10473TIP3    H231377   5.370   2.840   6.772
10474TIP3   OH231378   5.069   2.372   6.372
10474TIP3    H131379   4.996   2.361   6.434
10474TIP3    H231380   5.145   2.340   6.420
10475TIP3   OH231381   4.502   2.412   6.377
10475TIP3    H131382   4.411   2.420   6.348
10475TIP3    H231383   4.527   2.323   6.353
10476TIP3   OH231384   4.768   2.407   6.069
10476TIP3    H131385   4.861   2.423   6.052
10476TIP3    H231386   4.725   2.430   5.986
10477TIP3   OH231387   5.574   2.442   6.582
10477TIP3    H131388   5.515   2.438   6.657
10477TIP3    H231389   5.543   2.373   6.523
10478TIP3   OH231390   4.619   2.445   5.841
10478TIP3    H131391   4.549   2.399   5.795
10478TIP3    H231392   4.672   2.483   5.770
10479TIP3   OH231393   5.736   4.123   6.792
10479TIP3    H131394   5.732   4.145   6.699
10479TIP3    H231395   5.814   4.168   6.824
10480TIP3   OH231396   7.523   7.241   0.273
10480TIP3    H131397   7.603   7.269   0.318
10480TIP3    H231398   7.457   7.237   0.343
10481TIP3   OH231399   5.153   2.688   6.469
10481TIP3    H131400   5.219   2.647   6.412
10481TIP3    H231401   5.157   2.638   6.550
10482TIP3   OH231402   4.672   2.173   6.348
10482TIP3    H131403   4.637   2.097   6.396
10482TIP3    H231404   4.723   2.134   6.277
10483TIP3   OH231405   5.126   2.583   6.763
10483TIP3    H131406   5.038   2.620   6.771
10483TIP3    H231407   5.183   2.646   6.807
10484TIP3   OH231408   4.861   2.973   5.853
10484TIP3    H131409   4.793   2.907   5.839
10484TIP3    H231410   4.844   3.007   5.941
10485TIP3   OH231411   5.762   3.209   6.477
10485TIP3    H131412   5.786   3.260   6.399
10485TIP3    H231413   5.681   3.165   6.453
10486TIP3   OH231414   5.318   2.290   5.704
10486TIP3    H131415   5.227   2.267   5.723
10486TIP3    H231416   5.328   2.379   5.740
10487TIP3   OH231417   5.266   3.294   6.848
10487TIP3    H131418   5.292   3.272   6.938
10487TIP3    H231419   5.226   3.381   6.856
10488TIP3   OH231420   5.391   2.533   5.820
10488TIP3    H131421   5.484   2.536   5.842
10488TIP3    H231422   5.375   2.614   5.771
10489TIP3   OH231423   4.561   2.997   6.524
10489TIP3    H131424   4.595   2.970   6.439
10489TIP3    H231425   4.604   2.938   6.587
10490TIP3   OH231426   5.009   3.123   5.677
10490TIP3    H131427   4.963   3.207   5.678
10490TIP3    H231428   4.957   3.067   5.735
10491TIP3   OH231429   7.273   6.920   0.202
10491TIP3    H131430   7.290   6.908   0.295
10491TIP3    H231431   7.204   6.858   0.181
10492TIP3   OH231432   8.001   7.037   0.218
10492TIP3    H131433   7.937   6.981   0.174
10492TIP3    H231434   8.086   7.002   0.192
10493TIP3   OH231435   5.423   3.556   6.747
10493TIP3    H131436   5.328   3.549   6.758
10493TIP3    H231437   5.452   3.606   6.823
10494TIP3   OH231438   5.832   2.627   5.650
10494TIP3    H131439   5.772   2.580   5.591
10494TIP3    H231440   5.832   2.717   5.617
10495TIP3   OH231441   6.053   3.484   6.731
10495TIP3    H131442   5.958   3.478   6.727
10495TIP3    H231443   6.083   3.453   6.645
10496TIP3   OH231444   5.538   3.441   5.564
10496TIP3    H131445   5.508   3.374   5.625
10496TIP3    H231446   5.548   3.396   5.481
10497TIP3   OH231447   5.530   3.069   6.396
10497TIP3    H131448   5.438   3.048   6.411
10497TIP3    H231449   5.566   2.991   6.353
10498TIP3   OH231450   4.660   3.303   6.155
10498TIP3    H131451   4.658   3.381   6.099
10498TIP3    H231452   4.568   3.278   6.164
10499TIP3   OH231453   4.225   2.604   5.862
10499TIP3    H131454   4.270   2.686   5.880
10499TIP3    H231455   4.148   2.605   5.919
10500TIP3   OH231456   4.790   3.064   6.096
10500TIP3    H131457   4.759   3.153   6.115
10500TIP3    H231458   4.759   3.012   6.169
10501TIP3   OH231459   4.932   3.644   6.621
10501TIP3    H131460   4.972   3.715   6.570
10501TIP3    H231461   5.005   3.603   6.667
10502TIP3   OH231462   4.575   3.542   6.005
10502TIP3    H131463   4.492   3.548   6.051
10502TIP3    H231464   4.610   3.631   6.005
10503TIP3   OH231465   5.316   3.277   6.582
10503TIP3    H131466   5.304   3.276   6.677
10503TIP3    H231467   5.391   3.219   6.566
10504TIP3   OH231468   5.294   3.173   5.466
10504TIP3    H131469   5.347   3.149   5.542
10504TIP3    H231470   5.206   3.142   5.489
10505TIP3   OH231471   5.562   3.809   6.629
10505TIP3    H131472   5.485   3.753   6.627
10505TIP3    H231473   5.548   3.873   6.559
10506TIP3   OH231474   5.629   3.646   5.282
10506TIP3    H131475   5.667   3.716   5.228
10506TIP3    H231476   5.550   3.684   5.319
10507TIP3   OH231477   7.479   6.427   0.208
10507TIP3    H131478   7.384   6.431   0.218
10507TIP3    H231479   7.509   6.373   0.281
10508TIP3   OH231480   5.456   3.104   5.681
10508TIP3    H131481   5.441   3.039   5.750
10508TIP3    H231482   5.551   3.101   5.666
10509TIP3   OH231483   4.368   3.503   6.781
10509TIP3    H131484   4.421   3.429   6.811
10509TIP3    H231485   4.394   3.576   6.837
10510TIP3   OH231486   4.655   3.149   5.466
10510TIP3    H131487   4.668   3.059   5.436
10510TIP3    H231488   4.634   3.141   5.559
10511TIP3   OH231489   4.600   3.158   5.738
10511TIP3    H131490   4.676   3.127   5.789
10511TIP3    H231491   4.604   3.253   5.744
10512TIP3   OH231492   4.334   2.851   5.940
10512TIP3    H131493   4.268   2.892   5.997
10512TIP3    H231494   4.349   2.915   5.871
10513TIP3   OH231495   5.479   2.494   6.847
10513TIP3    H131496   5.569   2.521   6.865
10513TIP3    H231497   5.470   2.410   6.892
10514TIP3   OH231498   5.372   2.233   5.996
10514TIP3    H131499   5.361   2.260   5.905
10514TIP3    H231500   5.407   2.311   6.040
10515TIP3   OH231501   4.867   3.354   5.685
10515TIP3    H131502   4.782   3.376   5.722
10515TIP3    H231503   4.884   3.423   5.620
10516TIP3   OH231504   5.049   2.422   6.102
10516TIP3    H131505   5.113   2.491   6.083
10516TIP3    H231506   5.057   2.407   6.196
10517TIP3   OH231507   5.326   2.731   6.903
10517TIP3    H131508   5.354   2.778   6.982
10517TIP3    H231509   5.376   2.650   6.904
10518TIP3   OH231510   5.203   2.133   6.198
10518TIP3    H131511   5.218   2.193   6.272
10518TIP3    H231512   5.268   2.160   6.133
10519TIP3   OH231513   4.614   3.431   5.755
10519TIP3    H131514   4.584   3.497   5.692
10519TIP3    H231515   4.598   3.470   5.840
10520TIP3   OH231516   4.715   2.145   5.991
10520TIP3    H131517   4.708   2.233   6.028
10520TIP3    H231518   4.809   2.124   5.997
10521TIP3   OH231519   5.964   2.631   6.882
10521TIP3    H131520   5.870   2.636   6.898
10521TIP3    H231521   5.972   2.582   6.800
10522TIP3   OH231522   5.617   2.826   6.278
10522TIP3    H131523   5.541   2.769   6.284
10522TIP3    H231524   5.687   2.779   6.323
10523TIP3   OH231525   4.334   3.053   5.741
10523TIP3    H131526   4.402   3.120   5.753
10523TIP3    H231527   4.371   2.993   5.677
10524TIP3   OH231528   4.269   2.333   5.879
10524TIP3    H131529   4.274   2.428   5.879
10524TIP3    H231530   4.192   2.312   5.826
10525TIP3   OH231531   5.587   3.790   6.220
10525TIP3    H131532   5.541   3.835   6.149
10525TIP3    H231533   5.679   3.806   6.203
10526TIP3   OH231534   4.658   2.052   6.749
10526TIP3    H131535   4.631   2.022   6.663
10526TIP3    H231536   4.649   1.975   6.806
10527TIP3   OH231537   4.198   3.275   6.127
10527TIP3    H131538   4.132   3.301   6.193
10527TIP3    H231539   4.166   3.314   6.046
10528TIP3   OH231540   7.194   7.824   0.264
10528TIP3    H131541   7.279   7.826   0.308
10528TIP3    H231542   7.170   7.732   0.260
10529TIP3   OH231543   7.671   7.778   0.307
10529TIP3    H131544   7.765   7.763   0.313
10529TIP3    H231545   7.641   7.721   0.237
10530TIP3   OH231546   4.820   3.350   5.375
10530TIP3    H131547   4.764   3.281   5.412
10530TIP3    H231548   4.895   3.302   5.340
10531TIP3   OH231549   8.308   7.693   0.045
10531TIP3    H131550   8.301   7.624   0.111
10531TIP3    H231551   8.385   7.744   0.072
10532TIP3   OH231552   5.257   3.391   5.289
10532TIP3    H131553   5.293   3.326   5.348
10532TIP3    H231554   5.312   3.386   5.211
10533TIP3   OH231555   7.319   7.227   0.462
10533TIP3    H131556   7.337   7.134   0.471
10533TIP3    H231557   7.235   7.232   0.417
10534TIP3   OH231558   4.469   2.867   5.599
10534TIP3    H131559   4.522   2.837   5.673
10534TIP3    H231560   4.531   2.873   5.526
10535TIP3   OH231561   7.927   7.314   0.236
10535TIP3    H131562   7.886   7.335   0.152
10535TIP3    H231563   7.957   7.223   0.226
10536TIP3   OH231564   4.982   3.068   5.408
10536TIP3    H131565   4.983   3.082   5.503
10536TIP3    H231566   4.982   2.973   5.398
10537TIP3   OH231567   5.589   3.321   6.787
10537TIP3    H131568   5.664   3.360   6.743
10537TIP3    H231569   5.517   3.382   6.770
10538TIP3   OH231570   7.443   6.966   0.449
10538TIP3    H131571   7.517   6.913   0.419
10538TIP3    H231572   7.469   6.997   0.535
10539TIP3   OH231573   4.671   2.774   5.817
10539TIP3    H131574   4.645   2.734   5.900
10539TIP3    H231575   4.710   2.702   5.767
10540TIP3   OH231576   7.776   6.848   0.107
10540TIP3    H131577   7.698   6.904   0.109
10540TIP3    H231578   7.827   6.880   0.034
10541TIP3   OH231579   4.777   2.572   5.656
10541TIP3    H131580   4.750   2.579   5.564
10541TIP3    H231581   4.872   2.572   5.653
10542TIP3   OH231582   8.296   7.248   0.242
10542TIP3    H131583   8.368   7.216   0.188
10542TIP3    H231584   8.287   7.182   0.311
10543TIP3   OH231585   5.592   2.900   5.323
10543TIP3    H131586   5.575   2.852   5.242
10543TIP3    H231587   5.560   2.988   5.307
10544TIP3   OH231588   7.900   6.635   0.228
10544TIP3    H131589   7.900   6.557   0.172
10544TIP3    H231590   7.857   6.702   0.175
10545TIP3   OH231591   7.900   6.421   0.041
10545TIP3    H131592   7.932   6.464  -0.039
10545TIP3    H231593   7.809   6.400   0.023
10546TIP3   OH231594   5.092   2.952   6.856
10546TIP3    H131595   5.177   2.959   6.812
10546TIP3    H231596   5.036   3.014   6.809
10547TIP3   OH231597   0.010   6.922   0.292
10547TIP3    H131598   0.053   6.837   0.298
10547TIP3    H231599   0.076   6.980   0.253
10548TIP3   OH231600   0.051   7.181   0.031
10548TIP3    H131601  -0.009   7.232  -0.024
10548TIP3    H231602   0.138   7.198  -0.005
10549TIP3   OH231603   7.779   6.739   0.465
10549TIP3    H131604   7.710   6.675   0.482
10549TIP3    H231605   7.811   6.718   0.377
10550TIP3   OH231606   8.032   6.185   0.111
10550TIP3    H131607   7.985   6.265   0.087
10550TIP3    H231608   7.968   6.115   0.098
10551TIP3   OH231609   8.156   6.684   0.326
10551TIP3    H131610   8.142   6.671   0.420
10551TIP3    H231611   8.071   6.662   0.287
10552TIP3   OH231612   8.401   6.644   0.186
10552TIP3    H131613   8.325   6.641   0.244
10552TIP3    H231614   8.473   6.609   0.239
10553TIP3   OH231615   0.136   6.580   0.331
10553TIP3    H131616   0.144   6.486   0.345
10553TIP3    H231617   0.127   6.616   0.419
10554TIP3   OH231618   7.616   6.521   0.521
10554TIP3    H131619   7.621   6.432   0.485
10554TIP3    H231620   7.652   6.513   0.609
10555TIP3   OH231621   8.126   6.190   0.368
10555TIP3    H131622   8.192   6.121   0.363
10555TIP3    H231623   8.085   6.191   0.282
10556TIP3   OH231624   8.193   6.408   0.526
10556TIP3    H131625   8.174   6.338   0.464
10556TIP3    H231626   8.117   6.466   0.519
10557TIP3   OH231627   4.586   3.635   5.565
10557TIP3    H131628   4.679   3.622   5.549
10557TIP3    H231629   4.554   3.683   5.489
10558TIP3   OH231630   4.063   3.011   5.779
10558TIP3    H131631   4.155   3.034   5.765
10558TIP3    H231632   4.053   2.925   5.740
10559TIP3   OH231633   3.977   3.623   6.197
10559TIP3    H131634   3.912   3.565   6.157
10559TIP3    H231635   4.022   3.567   6.261
10560TIP3   OH231636   4.112   3.472   6.386
10560TIP3    H131637   4.098   3.399   6.447
10560TIP3    H231638   4.164   3.535   6.435
10561TIP3   OH231639   5.841   3.879   6.184
10561TIP3    H131640   5.867   3.907   6.271
10561TIP3    H231641   5.908   3.915   6.126
10562TIP3   OH231642   5.869   3.893   6.467
10562TIP3    H131643   5.821   3.810   6.460
10562TIP3    H231644   5.946   3.872   6.520
10563TIP3   OH231645   0.249   7.580   0.101
10563TIP3    H131646   0.177   7.588   0.163
10563TIP3    H231647   0.291   7.666   0.101
10564TIP3   OH231648   5.734   3.085   5.658
10564TIP3    H131649   5.798   3.149   5.626
10564TIP3    H231650   5.775   3.047   5.736
10565TIP3   OH231651   5.858   2.951   5.864
10565TIP3    H131652   5.792   2.909   5.919
10565TIP3    H231653   5.921   2.988   5.926
10566TIP3   OH231654   5.918   3.347   6.291
10566TIP3    H131655   5.967   3.278   6.247
10566TIP3    H231656   5.911   3.418   6.227
10567TIP3   OH231657   5.741   3.646   6.487
10567TIP3    H131658   5.671   3.687   6.537
10567TIP3    H231659   5.696   3.600   6.415
10568TIP3   OH231660   5.794   2.864   5.505
10568TIP3    H131661   5.726   2.861   5.438
10568TIP3    H231662   5.768   2.936   5.562
10569TIP3   OH231663   5.668   2.531   5.456
10569TIP3    H131664   5.621   2.568   5.381
10569TIP3    H231665   5.647   2.438   5.453
10570TIP3   OH231666   5.671   2.808   6.009
10570TIP3    H131667   5.678   2.713   5.998
10570TIP3    H231668   5.658   2.820   6.103
10571TIP3   OH231669   4.299   2.880   6.754
10571TIP3    H131670   4.293   2.848   6.664
10571TIP3    H231671   4.393   2.884   6.772
10572TIP3   OH231672   5.964   3.236   6.865
10572TIP3    H131673   6.032   3.169   6.854
10572TIP3    H231674   5.985   3.302   6.799
10573TIP3   OH231675   6.144   3.033   6.876
10573TIP3    H131676   6.067   2.988   6.913
10573TIP3    H231677   6.217   2.973   6.893
10574TIP3   OH231678   5.612   2.265   5.443
10574TIP3    H131679   5.681   2.235   5.501
10574TIP3    H231680   5.537   2.210   5.464
10575TIP3   OH231681   5.674   2.525   5.894
10575TIP3    H131682   5.709   2.438   5.915
10575TIP3    H231683   5.730   2.557   5.824
10576TIP3   OH231684   5.833   2.704   6.406
10576TIP3    H131685   5.914   2.723   6.359
10576TIP3    H231686   5.847   2.740   6.493
10577TIP3   OH231687   5.905   2.849   6.630
10577TIP3    H131688   5.825   2.877   6.675
10577TIP3    H231689   5.935   2.927   6.584
10578TIP3   OH231690   7.350   6.571   0.486
10578TIP3    H131691   7.446   6.571   0.490
10578TIP3    H231692   7.324   6.489   0.526
10579TIP3   OH231693   0.691   6.448   0.239
10579TIP3    H131694   0.748   6.382   0.200
10579TIP3    H231695   0.655   6.497   0.165
10580TIP3   OH231696   5.778   2.274   5.942
10580TIP3    H131697   5.820   2.265   6.028
10580TIP3    H231698   5.715   2.202   5.939
10581TIP3   OH231699   4.479   2.263   6.762
10581TIP3    H131700   4.537   2.187   6.767
10581TIP3    H231701   4.539   2.337   6.751
10582TIP3   OH231702   4.279   2.535   6.830
10582TIP3    H131703   4.327   2.528   6.747
10582TIP3    H231704   4.305   2.619   6.866
10583TIP3   OH231705   0.549   6.577   0.044
10583TIP3    H131706   0.468   6.624   0.064
10583TIP3    H231707   0.522   6.505  -0.012
10584TIP3   OH231708   5.858   2.208   5.573
10584TIP3    H131709   5.894   2.138   5.518
10584TIP3    H231710   5.923   2.278   5.569
10585TIP3   OH231711   4.263   2.039   6.332
10585TIP3    H131712   4.172   2.033   6.361
10585TIP3    H231713   4.260   2.096   6.256
10586TIP3   OH231714   5.425   3.746   5.837
10586TIP3    H131715   5.473   3.732   5.756
10586TIP3    H231716   5.478   3.809   5.886
10587TIP3   OH231717   7.314   6.121   0.205
10587TIP3    H131718   7.266   6.123   0.288
10587TIP3    H231719   7.254   6.162   0.142
10588TIP3   OH231720   7.355   7.557   0.283
10588TIP3    H131721   7.265   7.531   0.264
10588TIP3    H231722   7.367   7.533   0.375
10589TIP3   OH231723   4.705   3.586   6.769
10589TIP3    H131724   4.654   3.658   6.732
10589TIP3    H231725   4.791   3.594   6.728
10590TIP3   OH231726   5.146   3.825   6.910
10590TIP3    H131727   5.186   3.823   6.997
10590TIP3    H231728   5.208   3.875   6.856
10591TIP3   OH231729   5.325   3.978   6.771
10591TIP3    H131730   5.391   3.927   6.724
10591TIP3    H231731   5.376   4.034   6.830
10592TIP3   OH231732   6.118   2.333   6.867
10592TIP3    H131733   6.030   2.328   6.830
10592TIP3    H231734   6.153   2.244   6.859
10593TIP3   OH231735   4.375   3.839   6.795
10593TIP3    H131736   4.288   3.870   6.771
10593TIP3    H231737   4.391   3.877   6.882
10594TIP3   OH231738   4.613   3.818   6.654
10594TIP3    H131739   4.528   3.829   6.697
10594TIP3    H231740   4.597   3.846   6.564
10595TIP3   OH231741   5.038   3.843   6.452
10595TIP3    H131742   4.970   3.858   6.386
10595TIP3    H231743   5.051   3.929   6.493
10596TIP3   OH231744   5.308   3.783   6.505
10596TIP3    H131745   5.216   3.798   6.485
10596TIP3    H231746   5.355   3.853   6.459
10597TIP3   OH231747   5.515   3.973   6.414
10597TIP3    H131748   5.501   4.056   6.368
10597TIP3    H231749   5.542   3.912   6.345
10598TIP3   OH231750   4.292   3.627   6.541
10598TIP3    H131751   4.315   3.602   6.630
10598TIP3    H231752   4.360   3.587   6.487
10599TIP3   OH231753   4.486   3.501   6.400
10599TIP3    H131754   4.498   3.419   6.447
10599TIP3    H231755   4.575   3.537   6.394
10600TIP3   OH231756   4.755   3.592   6.404
10600TIP3    H131757   4.781   3.502   6.388
10600TIP3    H231758   4.799   3.617   6.485
10601TIP3   OH231759   5.287   2.245   6.470
10601TIP3    H131760   5.278   2.172   6.531
10601TIP3    H231761   5.374   2.234   6.431
10602TIP3   OH231762   5.843   2.130   6.388
10602TIP3    H131763   5.883   2.179   6.317
10602TIP3    H231764   5.749   2.150   6.382
10603TIP3   OH231765   5.948   2.232   6.157
10603TIP3    H131766   6.019   2.182   6.116
10603TIP3    H231767   5.973   2.324   6.144
10604TIP3   OH231768   4.572   1.958   6.502
10604TIP3    H131769   4.480   1.930   6.505
10604TIP3    H231770   4.621   1.876   6.497
10605TIP3   OH231771   4.366   1.833   6.153
10605TIP3    H131772   4.394   1.886   6.079
10605TIP3    H231773   4.337   1.896   6.219
10606TIP3   OH231774   5.021   1.992   6.386
10606TIP3    H131775   5.069   2.033   6.314
10606TIP3    H231776   5.057   2.032   6.465
10607TIP3   OH231777   5.591   2.066   5.934
10607TIP3    H131778   5.514   2.117   5.958
10607TIP3    H231779   5.580   1.983   5.980
10608TIP3   OH231780   4.075   3.407   5.926
10608TIP3    H131781   3.992   3.369   5.897
10608TIP3    H231782   4.069   3.500   5.902
10609TIP3   OH231783   4.483   1.986   5.915
10609TIP3    H131784   4.527   1.925   5.855
10609TIP3    H231785   4.553   2.041   5.949
10610TIP3   OH231786   4.993   2.171   6.017
10610TIP3    H131787   5.056   2.125   6.072
10610TIP3    H231788   5.007   2.263   6.036
10611TIP3   OH231789   4.852   3.586   5.509
10611TIP3    H131790   4.938   3.612   5.477
10611TIP3    H231791   4.826   3.513   5.453
10612TIP3   OH231792   5.570   3.708   5.605
10612TIP3    H131793   5.565   3.613   5.598
10612TIP3    H231794   5.524   3.740   5.527
10613TIP3   OH231795   7.616   6.245   0.454
10613TIP3    H131796   7.577   6.177   0.509
10613TIP3    H231797   7.708   6.247   0.480
10614TIP3   OH231798   7.866   6.242   0.572
10614TIP3    H131799   7.950   6.222   0.530
10614TIP3    H231800   7.855   6.173   0.637
10615TIP3   OH231801   4.156   3.426   5.567
10615TIP3    H131802   4.157   3.443   5.661
10615TIP3    H231803   4.240   3.382   5.550
10616TIP3   OH231804   0.193   6.307   0.360
10616TIP3    H131805   0.208   6.277   0.450
10616TIP3    H231806   0.279   6.302   0.319
10617TIP3   OH231807   5.789   3.853   6.793
10617TIP3    H131808   5.715   3.820   6.742
10617TIP3    H231809   5.773   3.947   6.800
10618TIP3   OH231810   7.060   3.228   5.554
10618TIP3    H131811   7.033   3.318   5.535
10618TIP3    H231812   6.988   3.173   5.524
10619TIP3   OH231813   7.068   3.223   5.939
10619TIP3    H131814   7.095   3.198   6.027
10619TIP3    H231815   7.020   3.146   5.906
10620TIP3   OH231816   6.360   3.121   6.306
10620TIP3    H131817   6.390   3.050   6.364
10620TIP3    H231818   6.436   3.178   6.297
10621TIP3   OH231819   7.308   3.531   5.624
10621TIP3    H131820   7.284   3.462   5.685
10621TIP3    H231821   7.334   3.604   5.679
10622TIP3   OH231822   6.326   3.528   6.024
10622TIP3    H131823   6.319   3.432   6.023
10622TIP3    H231824   6.417   3.545   6.046
10623TIP3   OH231825   6.037   2.734   5.809
10623TIP3    H131826   5.991   2.815   5.829
10623TIP3    H231827   5.971   2.676   5.771
10624TIP3   OH231828   6.097   3.019   5.992
10624TIP3    H131829   6.143   2.942   6.024
10624TIP3    H231830   6.152   3.053   5.922
10625TIP3   OH231831   6.959   3.992   5.640
10625TIP3    H131832   7.001   3.921   5.591
10625TIP3    H231833   6.941   3.955   5.727
10626TIP3   OH231834   6.860   3.452   5.982
10626TIP3    H131835   6.901   3.377   5.938
10626TIP3    H231836   6.934   3.504   6.014
10627TIP3   OH231837   7.875   2.771   5.983
10627TIP3    H131838   7.903   2.853   6.024
10627TIP3    H231839   7.900   2.780   5.891
10628TIP3   OH231840   7.273   2.948   6.017
10628TIP3    H131841   7.315   2.865   6.037
10628TIP3    H231842   7.239   2.937   5.929
10629TIP3   OH231843   6.613   2.611   5.980
10629TIP3    H131844   6.593   2.685   5.922
10629TIP3    H231845   6.567   2.537   5.941
10630TIP3   OH231846   7.309   2.705   5.605
10630TIP3    H131847   7.376   2.690   5.672
10630TIP3    H231848   7.358   2.739   5.530
10631TIP3   OH231849   6.245   2.811   6.091
10631TIP3    H131850   6.325   2.794   6.141
10631TIP3    H231851   6.254   2.757   6.013
10632TIP3   OH231852   6.683   3.008   5.887
10632TIP3    H131853   6.775   2.987   5.899
10632TIP3    H231854   6.644   2.927   5.854
10633TIP3   OH231855   7.947   2.981   6.158
10633TIP3    H131856   7.864   3.023   6.135
10633TIP3    H231857   7.968   3.015   6.245
10634TIP3   OH231858   6.604   2.598   6.422
10634TIP3    H131859   6.549   2.633   6.351
10634TIP3    H231860   6.553   2.613   6.501
10635TIP3   OH231861   6.953   3.449   5.422
10635TIP3    H131862   6.909   3.428   5.340
10635TIP3    H231863   6.909   3.529   5.453
10636TIP3   OH231864   6.712   3.374   6.217
10636TIP3    H131865   6.648   3.434   6.254
10636TIP3    H231866   6.762   3.427   6.154
10637TIP3   OH231867   7.512   2.709   5.783
10637TIP3    H131868   7.499   2.660   5.863
10637TIP3    H231869   7.563   2.786   5.809
10638TIP3   OH231870   6.483   2.710   6.201
10638TIP3    H131871   6.541   2.782   6.227
10638TIP3    H231872   6.528   2.669   6.126
10639TIP3   OH231873   6.517   3.553   6.292
10639TIP3    H131874   6.524   3.647   6.276
10639TIP3    H231875   6.448   3.545   6.359
10640TIP3   OH231876   5.933   3.258   5.546
10640TIP3    H131877   5.891   3.283   5.464
10640TIP3    H231878   5.965   3.340   5.583
10641TIP3   OH231879   7.374   3.776   5.788
10641TIP3    H131880   7.289   3.762   5.830
10641TIP3    H231881   7.365   3.859   5.743
10642TIP3   OH231882   7.667   2.672   6.152
10642TIP3    H131883   7.580   2.694   6.119
10642TIP3    H231884   7.727   2.703   6.084
10643TIP3   OH231885   6.959   2.310   6.139
10643TIP3    H131886   6.943   2.216   6.151
10643TIP3    H231887   6.884   2.352   6.182
10644TIP3   OH231888   7.079   3.817   5.460
10644TIP3    H131889   7.123   3.733   5.444
10644TIP3    H231890   7.137   3.882   5.421
10645TIP3   OH231891   7.220   3.600   5.372
10645TIP3    H131892   7.172   3.525   5.339
10645TIP3    H231893   7.259   3.569   5.454
10646TIP3   OH231894   7.600   3.680   6.131
10646TIP3    H131895   7.585   3.604   6.073
10646TIP3    H231896   7.579   3.756   6.076
10647TIP3   OH231897   6.892   3.078   5.390
10647TIP3    H131898   6.813   3.128   5.373
10647TIP3    H231899   6.936   3.073   5.306
10648TIP3   OH231900   6.852   2.863   5.103
10648TIP3    H131901   6.916   2.917   5.150
10648TIP3    H231902   6.905   2.800   5.055
10649TIP3   OH231903   7.793   3.326   5.979
10649TIP3    H131904   7.709   3.372   5.983
10649TIP3    H231905   7.826   3.345   5.891
10650TIP3   OH231906   7.242   3.162   5.361
10650TIP3    H131907   7.185   3.185   5.435
10650TIP3    H231908   7.325   3.137   5.401
10651TIP3   OH231909   7.470   3.201   6.274
10651TIP3    H131910   7.467   3.288   6.314
10651TIP3    H231911   7.386   3.191   6.230
10652TIP3   OH231912   6.472   3.154   5.777
10652TIP3    H131913   6.430   3.099   5.712
10652TIP3    H231914   6.547   3.103   5.808
10653TIP3   OH231915   6.609   3.579   5.920
10653TIP3    H131916   6.583   3.531   5.841
10653TIP3    H231917   6.692   3.539   5.945
10654TIP3   OH231918   6.610   3.130   6.133
10654TIP3    H131919   6.640   3.107   6.045
10654TIP3    H231920   6.650   3.215   6.150
10655TIP3   OH231921   7.136   3.766   5.911
10655TIP3    H131922   7.120   3.844   5.964
10655TIP3    H231923   7.114   3.692   5.968
10656TIP3   OH231924   7.080   3.020   5.186
10656TIP3    H131925   7.135   3.079   5.237
10656TIP3    H231926   7.104   3.038   5.095
10657TIP3   OH231927   6.500   3.233   6.569
10657TIP3    H131928   6.509   3.323   6.601
10657TIP3    H231929   6.406   3.215   6.575
10658TIP3   OH231930   6.827   3.693   5.460
10658TIP3    H131931   6.905   3.747   5.474
10658TIP3    H231932   6.763   3.753   5.421
10659TIP3   OH231933   6.521   3.885   6.548
10659TIP3    H131934   6.516   3.851   6.459
10659TIP3    H231935   6.450   3.841   6.595
10660TIP3   OH231936   7.594   2.258   5.238
10660TIP3    H131937   7.513   2.277   5.286
10660TIP3    H231938   7.611   2.337   5.187
10661TIP3   OH231939   6.337   3.000   5.580
10661TIP3    H131940   6.270   3.043   5.527
10661TIP3    H231941   6.302   2.912   5.595
10662TIP3   OH231942   7.397   3.625   4.783
10662TIP3    H131943   7.403   3.720   4.770
10662TIP3    H231944   7.487   3.594   4.772
10663TIP3   OH231945   6.118   3.383   6.490
10663TIP3    H131946   6.052   3.365   6.424
10663TIP3    H231947   6.156   3.297   6.510
10664TIP3   OH231948   5.976   3.579   6.121
10664TIP3    H131949   6.070   3.566   6.110
10664TIP3    H231950   5.968   3.654   6.180
10665TIP3   OH231951   7.834   4.030   6.182
10665TIP3    H131952   7.836   3.935   6.191
10665TIP3    H231953   7.753   4.057   6.226
10666TIP3   OH231954   6.708   3.945   5.262
10666TIP3    H131955   6.658   3.924   5.183
10666TIP3    H231956   6.671   4.028   5.292
10667TIP3   OH231957   6.144   3.788   5.654
10667TIP3    H131958   6.190   3.783   5.737
10667TIP3    H231959   6.093   3.708   5.649
10668TIP3   OH231960   6.908   3.845   4.904
10668TIP3    H131961   6.963   3.776   4.868
10668TIP3    H231962   6.938   3.855   4.994
10669TIP3   OH231963   6.957   3.892   5.175
10669TIP3    H131964   6.869   3.903   5.211
10669TIP3    H231965   7.006   3.849   5.245
10670TIP3   OH231966   7.709   3.159   6.452
10670TIP3    H131967   7.635   3.166   6.391
10670TIP3    H231968   7.735   3.067   6.448
10671TIP3   OH231969   6.320   3.569   6.481
10671TIP3    H131970   6.373   3.552   6.558
10671TIP3    H231971   6.248   3.506   6.485
10672TIP3   OH231972   6.721   2.391   6.265
10672TIP3    H131973   6.637   2.356   6.234
10672TIP3    H231974   6.697   2.470   6.314
10673TIP3   OH231975   7.256   2.505   6.460
10673TIP3    H131976   7.323   2.473   6.520
10673TIP3    H231977   7.173   2.485   6.504
10674TIP3   OH231978   7.497   2.937   6.380
10674TIP3    H131979   7.444   2.932   6.459
10674TIP3    H231980   7.469   3.018   6.338
10675TIP3   OH231981   7.159   3.063   4.932
10675TIP3    H131982   7.119   3.039   4.849
10675TIP3    H231983   7.241   3.106   4.908
10676TIP3   OH231984   6.866   2.434   5.237
10676TIP3    H131985   6.832   2.434   5.327
10676TIP3    H231986   6.828   2.356   5.196
10677TIP3   OH231987   6.656   2.909   6.282
10677TIP3    H131988   6.605   2.925   6.362
10677TIP3    H231989   6.642   2.987   6.229
10678TIP3   OH231990   6.536   2.790   5.794
10678TIP3    H131991   6.446   2.767   5.816
10678TIP3    H231992   6.550   2.752   5.708
10679TIP3   OH231993   7.030   2.879   5.525
10679TIP3    H131994   6.979   2.948   5.483
10679TIP3    H231995   7.084   2.843   5.454
10680TIP3   OH231996   7.210   3.152   6.610
10680TIP3    H131997   7.179   3.084   6.669
10680TIP3    H231998   7.303   3.159   6.628
10681TIP3   OH231999   7.184   2.903   5.759
10681TIP3    H132000   7.121   2.934   5.693
10681TIP3    H232001   7.223   2.824   5.719
10682TIP3   OH232002   6.477   2.934   6.489
10682TIP3    H132003   6.494   3.002   6.554
10682TIP3    H232004   6.462   2.855   6.541
10683TIP3   OH232005   6.523   2.415   5.202
10683TIP3    H132006   6.514   2.411   5.297
10683TIP3    H232007   6.447   2.465   5.172
10684TIP3   OH232008   6.069   2.455   6.069
10684TIP3    H132009   6.143   2.486   6.121
10684TIP3    H232010   6.108   2.421   5.989
10685TIP3   OH232011   6.034   2.439   5.589
10685TIP3    H132012   6.080   2.470   5.512
10685TIP3    H232013   5.971   2.508   5.610
10686TIP3   OH232014   7.208   3.146   6.187
10686TIP3    H132015   7.234   3.079   6.124
10686TIP3    H232016   7.167   3.097   6.258
10687TIP3   OH232017   6.871   2.611   5.858
10687TIP3    H132018   6.788   2.611   5.905
10687TIP3    H232019   6.937   2.609   5.927
10688TIP3   OH232020   6.299   2.670   5.862
10688TIP3    H132021   6.207   2.681   5.835
10688TIP3    H232022   6.319   2.579   5.842
10689TIP3   OH232023   6.566   2.665   5.553
10689TIP3    H132024   6.658   2.680   5.530
10689TIP3    H232025   6.518   2.686   5.473
10690TIP3   OH232026   7.356   2.687   6.064
10690TIP3    H132027   7.323   2.704   6.152
10690TIP3    H232028   7.292   2.628   6.025
10691TIP3   OH232029   6.416   2.700   5.329
10691TIP3    H132030   6.343   2.655   5.286
10691TIP3    H232031   6.467   2.737   5.257
10692TIP3   OH232032   7.534   4.377   6.279
10692TIP3    H132033   7.526   4.399   6.186
10692TIP3    H232034   7.612   4.425   6.309
10693TIP3   OH232035   6.483   3.485   6.700
10693TIP3    H132036   6.564   3.519   6.739
10693TIP3    H232037   6.419   3.486   6.771
10694TIP3   OH232038   6.948   2.942   5.956
10694TIP3    H132039   7.020   2.903   5.906
10694TIP3    H232040   6.951   2.898   6.041
10695TIP3   OH232041   6.471   2.426   5.838
10695TIP3    H132042   6.432   2.353   5.887
10695TIP3    H232043   6.509   2.385   5.760
10696TIP3   OH232044   6.924   2.842   6.244
10696TIP3    H132045   6.834   2.875   6.255
10696TIP3    H232046   6.978   2.905   6.291
10697TIP3   OH232047   6.660   3.227   5.341
10697TIP3    H132048   6.591   3.162   5.326
10697TIP3    H232049   6.642   3.262   5.428
10698TIP3   OH232050   7.558   3.465   5.964
10698TIP3    H132051   7.581   3.516   5.887
10698TIP3    H232052   7.476   3.421   5.941
10699TIP3   OH232053   7.118   2.537   5.210
10699TIP3    H132054   7.024   2.518   5.215
10699TIP3    H232055   7.124   2.631   5.230
10700TIP3   OH232056   7.188   2.792   5.308
10700TIP3    H132057   7.282   2.797   5.322
10700TIP3    H232058   7.167   2.870   5.257
10701TIP3   OH232059   6.355   3.252   6.011
10701TIP3    H132060   6.392   3.224   5.927
10701TIP3    H232061   6.397   3.194   6.076
10702TIP3   OH232062   6.805   3.380   5.164
10702TIP3    H132063   6.759   3.464   5.165
10702TIP3    H232064   6.753   3.324   5.222
10703TIP3   OH232065   6.235   3.167   6.629
10703TIP3    H132066   6.248   3.154   6.723
10703TIP3    H232067   6.164   3.107   6.606
10704TIP3   OH232068   6.963   3.282   6.654
10704TIP3    H132069   6.895   3.236   6.606
10704TIP3    H232070   7.045   3.250   6.617
10705TIP3   OH232071   7.228   3.807   6.236
10705TIP3    H132072   7.144   3.766   6.255
10705TIP3    H232073   7.244   3.864   6.311
10706TIP3   OH232074   7.626   2.883   5.137
10706TIP3    H132075   7.566   2.836   5.078
10706TIP3    H232076   7.627   2.973   5.103
10707TIP3   OH232077   7.849   3.743   6.215
10707TIP3    H132078   7.754   3.735   6.210
10707TIP3    H232079   7.881   3.711   6.131
10708TIP3   OH232080   7.337   3.698   5.052
10708TIP3    H132081   7.303   3.634   5.114
10708TIP3    H232082   7.343   3.650   4.969
10709TIP3   OH232083   7.330   3.324   5.884
10709TIP3    H132084   7.237   3.308   5.900
10709TIP3    H232085   7.360   3.246   5.838
10710TIP3   OH232086   6.454   3.556   5.632
10710TIP3    H132087   6.449   3.637   5.581
10710TIP3    H232088   6.363   3.537   5.656
10711TIP3   OH232089   6.021   2.861   5.349
10711TIP3    H132090   6.066   2.943   5.368
10711TIP3    H232091   5.944   2.861   5.406
10712TIP3   OH232092   6.589   3.320   5.583
10712TIP3    H132093   6.556   3.408   5.598
10712TIP3    H232094   6.556   3.268   5.656
10713TIP3   OH232095   6.727   3.892   6.111
10713TIP3    H132096   6.779   3.962   6.073
10713TIP3    H232097   6.788   3.843   6.165
10714TIP3   OH232098   6.370   3.799   5.490
10714TIP3    H132099   6.287   3.803   5.538
10714TIP3    H232100   6.404   3.889   5.492
10715TIP3   OH232101   7.105   3.537   6.069
10715TIP3    H132102   7.075   3.565   6.156
10715TIP3    H232103   7.182   3.482   6.087
10716TIP3   OH232104   7.089   3.431   4.952
10716TIP3    H132105   7.143   3.406   5.027
10716TIP3    H232106   7.001   3.399   4.974
10717TIP3   OH232107   7.359   4.063   6.117
10717TIP3    H132108   7.284   4.003   6.118
10717TIP3    H232109   7.341   4.124   6.046
10718TIP3   OH232110   7.425   3.904   4.768
10718TIP3    H132111   7.463   3.975   4.717
10718TIP3    H232112   7.346   3.940   4.806
10719TIP3   OH232113   6.439   2.677   6.635
10719TIP3    H132114   6.343   2.685   6.641
10719TIP3    H232115   6.462   2.614   6.703
10720TIP3   OH232116   7.252   3.358   5.164
10720TIP3    H132117   7.236   3.296   5.235
10720TIP3    H232118   7.347   3.357   5.152
10721TIP3   OH232119   6.167   3.761   6.267
10721TIP3    H132120   6.220   3.686   6.294
10721TIP3    H232121   6.198   3.833   6.322
10722TIP3   OH232122   6.452   3.405   4.952
10722TIP3    H132123   6.464   3.315   4.923
10722TIP3    H232124   6.432   3.398   5.046
10723TIP3   OH232125   6.397   3.415   5.223
10723TIP3    H132126   6.468   3.383   5.280
10723TIP3    H232127   6.400   3.510   5.230
10724TIP3   OH232128   6.130   3.107   5.428
10724TIP3    H132129   6.064   3.148   5.485
10724TIP3    H232130   6.144   3.172   5.358
10725TIP3   OH232131   7.285   2.744   6.325
10725TIP3    H132132   7.370   2.776   6.357
10725TIP3    H232133   7.270   2.663   6.374
10726TIP3   OH232134   7.166   2.490   5.487
10726TIP3    H132135   7.150   2.507   5.395
10726TIP3    H232136   7.203   2.572   5.521
10727TIP3   OH232137   6.663   3.611   5.170
10727TIP3    H132138   6.578   3.631   5.209
10727TIP3    H232139   6.679   3.683   5.108
10728TIP3   OH232140   6.853   2.675   5.588
10728TIP3    H132141   6.914   2.746   5.569
10728TIP3    H232142   6.856   2.665   5.683
10729TIP3   OH232143   7.121   2.988   6.390
10729TIP3    H132144   7.146   3.039   6.467
10729TIP3    H232145   7.173   2.908   6.397
10730TIP3   OH232146   6.994   2.398   5.687
10730TIP3    H132147   6.979   2.476   5.740
10730TIP3    H232148   7.055   2.427   5.619
10731TIP3   OH232149   6.411   3.688   5.242
10731TIP3    H132150   6.380   3.754   5.180
10731TIP3    H232151   6.394   3.726   5.328
10732TIP3   OH232152   6.510   2.402   5.478
10732TIP3    H132153   6.503   2.490   5.515
10732TIP3    H232154   6.603   2.381   5.483
10733TIP3   OH232155   7.763   2.892   6.378
10733TIP3    H132156   7.667   2.893   6.387
10733TIP3    H232157   7.778   2.849   6.294
10734TIP3   OH232158   7.413   3.081   5.761
10734TIP3    H132159   7.336   3.026   5.772
10734TIP3    H232160   7.482   3.036   5.808
10735TIP3   OH232161   6.130   3.309   5.228
10735TIP3    H132162   6.197   3.377   5.241
10735TIP3    H232163   6.168   3.250   5.163
10736TIP3   OH232164   6.067   2.591   5.365
10736TIP3    H132165   6.069   2.686   5.364
10736TIP3    H232166   5.987   2.567   5.318
10737TIP3   OH232167   7.384   4.048   5.707
10737TIP3    H132168   7.338   4.091   5.636
10737TIP3    H232169   7.477   4.062   5.689
10738TIP3   OH232170   6.459   2.307   6.234
10738TIP3    H132171   6.428   2.277   6.149
10738TIP3    H232172   6.448   2.232   6.292
10739TIP3   OH232173   5.992   3.531   5.613
10739TIP3    H132174   5.930   3.557   5.681
10739TIP3    H232175   5.960   3.571   5.533
10740TIP3   OH232176   6.157   4.073   6.691
10740TIP3    H132177   6.242   4.075   6.734
10740TIP3    H232178   6.135   3.980   6.686
10741TIP3   OH232179   6.637   4.031   6.741
10741TIP3    H132180   6.730   4.011   6.733
10741TIP3    H232181   6.596   3.983   6.669
10742TIP3   OH232182   6.616   3.605   4.861
10742TIP3    H132183   6.559   3.539   4.899
10742TIP3    H232184   6.691   3.556   4.829
10743TIP3   OH232185   7.275   3.947   6.470
10743TIP3    H132186   7.266   3.876   6.533
10743TIP3    H232187   7.350   3.998   6.501
10744TIP3   OH232188   7.054   3.648   4.777
10744TIP3    H132189   7.087   3.581   4.836
10744TIP3    H232190   7.110   3.641   4.700
10745TIP3   OH232191   6.282   3.475   6.891
10745TIP3    H132192   6.300   3.382   6.894
10745TIP3    H232193   6.198   3.482   6.845
10746TIP3   OH232194   6.266   3.125   5.085
10746TIP3    H132195   6.317   3.093   5.159
10746TIP3    H232196   6.329   3.131   5.013
10747TIP3   OH232197   6.888   3.568   6.641
10747TIP3    H132198   6.906   3.595   6.551
10747TIP3    H232199   6.914   3.476   6.644
10748TIP3   OH232200   6.780   3.326   4.895
10748TIP3    H132201   6.779   3.339   4.989
10748TIP3    H232202   6.780   3.231   4.884
10749TIP3   OH232203   7.385   3.577   6.278
10749TIP3    H132204   7.458   3.614   6.229
10749TIP3    H232205   7.314   3.641   6.267
10750TIP3   OH232206   6.402   3.217   6.879
10750TIP3    H132207   6.476   3.170   6.842
10750TIP3    H232208   6.432   3.247   6.964
10751TIP3   OH232209   6.468   3.031   5.305
10751TIP3    H132210   6.439   2.993   5.388
10751TIP3    H232211   6.506   2.958   5.256
10752TIP3   OH232212   6.742   3.099   6.538
10752TIP3    H132213   6.661   3.150   6.539
10752TIP3    H232214   6.790   3.130   6.462
10753TIP3   OH232215   6.572   2.828   5.143
10753TIP3    H132216   6.545   2.834   5.051
10753TIP3    H232217   6.668   2.828   5.139
10754TIP3   OH232218   7.285   3.497   6.687
10754TIP3    H132219   7.296   3.458   6.600
10754TIP3    H232220   7.252   3.425   6.741
10755TIP3   OH232221   7.389   3.157   4.809
10755TIP3    H132222   7.372   3.109   4.728
10755TIP3    H232223   7.357   3.245   4.792
10756TIP3   OH232224   6.867   2.886   6.652
10756TIP3    H132225   6.863   2.808   6.597
10756TIP3    H232226   6.823   2.953   6.601
10757TIP3   OH232227   6.864   2.672   6.467
10757TIP3    H132228   6.892   2.714   6.385
10757TIP3    H232229   6.772   2.649   6.451
10758TIP3   OH232230   6.888   3.209   6.342
10758TIP3    H132231   6.970   3.223   6.296
10758TIP3    H232232   6.827   3.272   6.304
10759TIP3   OH232233   7.483   3.166   6.717
10759TIP3    H132234   7.519   3.078   6.730
10759TIP3    H232235   7.540   3.206   6.651
10760TIP3   OH232236   7.514   3.436   6.466
10760TIP3    H132237   7.451   3.485   6.414
10760TIP3    H232238   7.598   3.452   6.423
10761TIP3   OH232239   6.744   2.985   6.890
10761TIP3    H132240   6.676   2.920   6.905
10761TIP3    H232241   6.769   2.974   6.798
10762TIP3   OH232242   6.994   2.434   6.538
10762TIP3    H132243   6.946   2.514   6.514
10762TIP3    H232244   6.930   2.364   6.526
10763TIP3   OH232245   7.118   2.935   6.751
10763TIP3    H132246   7.098   2.922   6.844
10763TIP3    H232247   7.036   2.914   6.706
10764TIP3   OH232248   7.362   2.895   6.610
10764TIP3    H132249   7.287   2.891   6.669
10764TIP3    H232250   7.435   2.862   6.663
10765TIP3   OH232251   7.592   2.836   6.753
10765TIP3    H132252   7.605   2.741   6.761
10765TIP3    H232253   7.594   2.867   6.844
10766TIP3   OH232254   0.912   6.775   0.000
10766TIP3    H132255   0.910   6.688  -0.039
10766TIP3    H232256   0.936   6.761   0.092
10767TIP3   OH232257   7.092   2.442   6.792
10767TIP3    H132258   7.154   2.369   6.788
10767TIP3    H232259   7.049   2.442   6.707
10768TIP3   OH232260   7.154   2.659   6.949
10768TIP3    H132261   7.139   2.587   6.888
10768TIP3    H232262   7.077   2.715   6.940
10769TIP3   OH232263   6.382   3.893   5.052
10769TIP3    H132264   6.475   3.879   5.034
10769TIP3    H232265   6.349   3.940   4.975
10770TIP3   OH232266   5.859   3.269   5.264
10770TIP3    H132267   5.951   3.291   5.252
10770TIP3    H232268   5.849   3.182   5.225
10771TIP3   OH232269   5.774   3.879   5.684
10771TIP3    H132270   5.709   3.822   5.644
10771TIP3    H232271   5.819   3.823   5.748
10772TIP3   OH232272   5.909   3.728   5.873
10772TIP3    H132273   5.895   3.656   5.935
10772TIP3    H232274   5.962   3.791   5.921
10773TIP3   OH232275   7.640   4.132   5.671
10773TIP3    H132276   7.662   4.160   5.759
10773TIP3    H232277   7.704   4.176   5.615
10774TIP3   OH232278   7.665   4.148   5.953
10774TIP3    H132279   7.616   4.066   5.947
10774TIP3    H232280   7.740   4.127   6.009
10775TIP3   OH232281   7.727   3.818   6.544
10775TIP3    H132282   7.647   3.831   6.596
10775TIP3    H232283   7.763   3.906   6.534
10776TIP3   OH232284   7.531   3.341   5.145
10776TIP3    H132285   7.595   3.405   5.114
10776TIP3    H232286   7.572   3.303   5.223
10777TIP3   OH232287   7.656   3.210   5.352
10777TIP3    H132288   7.589   3.167   5.405
10777TIP3    H232289   7.718   3.246   5.415
10778TIP3   OH232290   7.715   3.605   5.781
10778TIP3    H132291   7.763   3.535   5.736
10778TIP3    H232292   7.704   3.673   5.715
10779TIP3   OH232293   7.537   3.902   5.974
10779TIP3    H132294   7.467   3.944   6.025
10779TIP3    H232295   7.491   3.856   5.904
10780TIP3   OH232296   7.591   3.120   4.992
10780TIP3    H132297   7.523   3.117   4.924
10780TIP3    H232298   7.564   3.192   5.049
10781TIP3   OH232299   7.463   2.789   4.944
10781TIP3    H132300   7.417   2.824   4.867
10781TIP3    H232301   7.443   2.695   4.942
10782TIP3   OH232302   7.469   3.067   5.493
10782TIP3    H132303   7.474   2.972   5.482
10782TIP3    H232304   7.453   3.079   5.587
10783TIP3   OH232305   6.095   3.136   6.241
10783TIP3    H132306   6.089   3.105   6.151
10783TIP3    H232307   6.189   3.140   6.259
10784TIP3   OH232308   7.757   3.493   6.350
10784TIP3    H132309   7.824   3.425   6.339
10784TIP3    H232310   7.769   3.550   6.274
10785TIP3   OH232311   7.937   3.294   6.386
10785TIP3    H132312   7.862   3.242   6.416
10785TIP3    H232313   8.011   3.234   6.390
10786TIP3   OH232314   7.405   2.525   4.934
10786TIP3    H132315   7.475   2.489   4.989
10786TIP3    H232316   7.330   2.468   4.950
10787TIP3   OH232317   7.469   2.783   5.385
10787TIP3    H132318   7.504   2.696   5.402
10787TIP3    H232319   7.523   2.817   5.313
10788TIP3   OH232320   7.628   2.955   5.886
10788TIP3    H132321   7.709   2.977   5.840
10788TIP3    H232322   7.639   2.989   5.974
10789TIP3   OH232323   7.699   3.104   6.115
10789TIP3    H132324   7.619   3.135   6.158
10789TIP3    H232325   7.731   3.181   6.067
10790TIP3   OH232326   6.314   2.826   6.926
10790TIP3    H132327   6.410   2.820   6.919
10790TIP3    H232328   6.287   2.740   6.957
10791TIP3   OH232329   8.178   2.694   6.654
10791TIP3    H132330   8.195   2.611   6.610
10791TIP3    H232331   8.127   2.744   6.590
10792TIP3   OH232332   7.574   2.532   5.427
10792TIP3    H132333   7.621   2.518   5.508
10792TIP3    H232334   7.512   2.459   5.422
10793TIP3   OH232335   6.278   2.518   6.244
10793TIP3    H132336   6.336   2.442   6.252
10793TIP3    H232337   6.337   2.592   6.236
10794TIP3   OH232338   6.080   2.792   6.320
10794TIP3    H132339   6.124   2.783   6.235
10794TIP3    H232340   6.104   2.879   6.350
10795TIP3   OH232341   8.005   2.820   6.482
10795TIP3    H132342   7.924   2.870   6.480
10795TIP3    H232343   7.991   2.749   6.420
10796TIP3   OH232344   7.654   2.463   5.060
10796TIP3    H132345   7.689   2.395   5.003
10796TIP3    H232346   7.718   2.534   5.055
10797TIP3   OH232347   6.060   2.296   5.820
10797TIP3    H132348   5.970   2.287   5.852
10797TIP3    H232349   6.052   2.353   5.744
10798TIP3   OH232350   7.221   4.002   5.323
10798TIP3    H132351   7.271   3.990   5.243
10798TIP3    H232352   7.273   4.065   5.374
10799TIP3   OH232353   6.280   2.377   6.635
10799TIP3    H132354   6.229   2.369   6.716
10799TIP3    H232355   6.219   2.415   6.571
10800TIP3   OH232356   6.314   3.800   6.717
10800TIP3    H132357   6.224   3.775   6.694
10800TIP3    H232358   6.321   3.781   6.811
10801TIP3   OH232359   6.501   3.834   6.258
10801TIP3    H132360   6.454   3.911   6.225
10801TIP3    H232361   6.588   3.840   6.217
10802TIP3   OH232362   6.932   4.116   6.402
10802TIP3    H132363   6.974   4.074   6.477
10802TIP3    H232364   7.004   4.138   6.343
10803TIP3   OH232365   7.129   4.235   6.247
10803TIP3    H132366   7.197   4.178   6.213
10803TIP3    H232367   7.174   4.291   6.311
10804TIP3   OH232368   7.913   2.588   6.354
10804TIP3    H132369   7.826   2.579   6.317
10804TIP3    H232370   7.952   2.501   6.346
10805TIP3   OH232371   6.171   4.096   6.278
10805TIP3    H132372   6.083   4.128   6.258
10805TIP3    H232373   6.188   4.128   6.366
10806TIP3   OH232374   6.411   4.075   6.141
10806TIP3    H132375   6.326   4.084   6.185
10806TIP3    H232376   6.394   4.102   6.051
10807TIP3   OH232377   6.841   4.105   5.933
10807TIP3    H132378   6.765   4.116   5.876
10807TIP3    H232379   6.849   4.188   5.980
10808TIP3   OH232380   7.106   4.041   5.986
10808TIP3    H132381   7.012   4.053   5.970
10808TIP3    H232382   7.147   4.120   5.949
10809TIP3   OH232383   7.319   4.233   5.902
10809TIP3    H132384   7.301   4.314   5.854
10809TIP3    H232385   7.340   4.169   5.834
10810TIP3   OH232386   6.089   3.883   6.028
10810TIP3    H132387   6.111   3.859   6.118
10810TIP3    H232388   6.157   3.843   5.974
10811TIP3   OH232389   6.284   3.759   5.886
10811TIP3    H132390   6.294   3.675   5.931
10811TIP3    H232391   6.373   3.794   5.881
10812TIP3   OH232392   6.554   3.850   5.893
10812TIP3    H132393   6.577   3.757   5.882
10812TIP3    H232394   6.599   3.875   5.974
10813TIP3   OH232395   7.127   2.508   5.983
10813TIP3    H132396   7.080   2.439   6.029
10813TIP3    H232397   7.194   2.463   5.932
10814TIP3   OH232398   7.641   2.394   5.879
10814TIP3    H132399   7.678   2.441   5.805
10814TIP3    H232400   7.547   2.406   5.871
10815TIP3   OH232401   7.741   2.488   5.642
10815TIP3    H132402   7.811   2.435   5.605
10815TIP3    H232403   7.769   2.579   5.628
10816TIP3   OH232404   6.369   2.214   5.988
10816TIP3    H132405   6.277   2.187   5.992
10816TIP3    H232406   6.418   2.132   5.983
10817TIP3   OH232407   6.161   2.091   5.640
10817TIP3    H132408   6.187   2.145   5.566
10817TIP3    H232409   6.131   2.153   5.707
10818TIP3   OH232410   6.820   2.246   5.870
10818TIP3    H132411   6.873   2.294   5.807
10818TIP3    H232412   6.837   2.290   5.953
10819TIP3   OH232413   7.360   2.394   5.852
10819TIP3    H132414   7.357   2.357   5.764
10819TIP3    H232415   7.348   2.319   5.910
10820TIP3   OH232416   7.389   2.320   5.419
10820TIP3    H132417   7.305   2.365   5.431
10820TIP3    H232418   7.377   2.235   5.461
10821TIP3   OH232419   5.871   3.664   5.412
10821TIP3    H132420   5.788   3.626   5.382
10821TIP3    H232421   5.865   3.756   5.389
10822TIP3   OH232422   6.278   2.244   5.400
10822TIP3    H132423   6.322   2.181   5.342
10822TIP3    H232424   6.349   2.298   5.435
10823TIP3   OH232425   6.786   2.425   5.501
10823TIP3    H132426   6.842   2.373   5.558
10823TIP3    H232427   6.807   2.516   5.523
10824TIP3   OH232428   6.647   3.841   4.995
10824TIP3    H132429   6.734   3.866   4.963
10824TIP3    H232430   6.622   3.768   4.938
10825TIP3   OH232431   7.368   3.964   5.092
10825TIP3    H132432   7.363   3.869   5.086
10825TIP3    H232433   7.320   3.996   5.015
10826TIP3   OH232434   6.579   2.498   6.887
10826TIP3    H132435   6.540   2.427   6.938
10826TIP3    H232436   6.672   2.497   6.912
10827TIP3   OH232437   1.166   6.504   0.066
10827TIP3    H132438   1.244   6.474   0.019
10827TIP3    H232439   1.150   6.436   0.131
10828TIP3   OH232440   5.953   3.683   5.054
10828TIP3    H132441   5.950   3.700   5.148
10828TIP3    H232442   6.037   3.641   5.040
10829TIP3   OH232443   7.650   2.565   6.771
10829TIP3    H132444   7.658   2.533   6.860
10829TIP3    H232445   7.739   2.560   6.735
10830TIP3   OH232446   7.585   4.107   6.281
10830TIP3    H132447   7.511   4.074   6.230
10830TIP3    H232448   7.569   4.202   6.287
10831TIP3   OH232449   8.155   3.373   5.795
10831TIP3    H132450   8.177   3.304   5.856
10831TIP3    H232451   8.233   3.429   5.792
10832TIP3   OH232452   8.126   3.787   5.514
10832TIP3    H132453   8.116   3.692   5.515
10832TIP3    H232454   8.221   3.801   5.514
10833TIP3   OH232455   7.831   2.990   5.296
10833TIP3    H132456   7.784   3.070   5.316
10833TIP3    H232457   7.765   2.933   5.256
10834TIP3   OH232458   7.895   3.275   5.479
10834TIP3    H132459   7.940   3.197   5.512
10834TIP3    H232460   7.947   3.302   5.403
10835TIP3   OH232461   0.262   4.208   5.108
10835TIP3    H132462   0.355   4.186   5.109
10835TIP3    H232463   0.239   4.220   5.200
10836TIP3   OH232464   0.159   3.700   5.476
10836TIP3    H132465   0.169   3.666   5.387
10836TIP3    H232466   0.237   3.754   5.490
10837TIP3   OH232467   8.380   2.869   5.482
10837TIP3    H132468   8.396   2.935   5.415
10837TIP3    H232469   8.347   2.793   5.433
10838TIP3   OH232470   8.042   3.067   5.577
10838TIP3    H132471   8.120   3.050   5.630
10838TIP3    H232472   8.056   3.015   5.498
10839TIP3   OH232473   8.465   3.267   5.370
10839TIP3    H132474   8.556   3.239   5.384
10839TIP3    H232475   8.420   3.189   5.340
10840TIP3   OH232476   8.403   2.863   5.917
10840TIP3    H132477   8.349   2.891   5.843
10840TIP3    H232478   8.348   2.881   5.994
10841TIP3   OH232479   0.013   3.627   5.708
10841TIP3    H132480  -0.050   3.689   5.745
10841TIP3    H232481   0.055   3.676   5.637
10842TIP3   OH232482   8.269   2.970   5.701
10842TIP3    H132483   8.331   3.040   5.724
10842TIP3    H232484   8.308   2.928   5.625
10843TIP3   OH232485   8.336   3.824   5.798
10843TIP3    H132486   8.315   3.910   5.762
10843TIP3    H232487   8.261   3.801   5.852
10844TIP3   OH232488   7.730   3.515   5.033
10844TIP3    H132489   7.686   3.540   4.951
10844TIP3    H232490   7.761   3.597   5.070
10845TIP3   OH232491   8.260   3.414   5.261
10845TIP3    H132492   8.219   3.358   5.195
10845TIP3    H232493   8.333   3.363   5.294
10846TIP3   OH232494   8.394   3.831   5.408
10846TIP3    H132495   8.368   3.792   5.324
10846TIP3    H232496   8.476   3.786   5.431
10847TIP3   OH232497   8.403   3.387   5.617
10847TIP3    H132498   8.430   3.360   5.529
10847TIP3    H232499   8.445   3.472   5.630
10848TIP3   OH232500   8.537   3.937   5.951
10848TIP3    H132501   8.480   4.001   5.994
10848TIP3    H232502   8.477   3.884   5.898
10849TIP3   OH232503   8.294   3.507   6.045
10849TIP3    H132504   8.300   3.591   6.091
10849TIP3    H232505   8.205   3.477   6.060
10850TIP3   OH232506   0.141   3.997   4.968
10850TIP3    H132507   0.162   4.080   5.011
10850TIP3    H232508   0.068   4.018   4.910
10851TIP3   OH232509   8.333   4.106   6.030
10851TIP3    H132510   8.300   4.109   5.940
10851TIP3    H232511   8.256   4.085   6.084
10852TIP3   OH232512   8.133   3.256   5.065
10852TIP3    H132513   8.065   3.297   5.012
10852TIP3    H232514   8.099   3.169   5.086
10853TIP3   OH232515   7.914   3.642   5.976
10853TIP3    H132516   7.847   3.623   5.911
10853TIP3    H232517   7.951   3.556   5.999
10854TIP3   OH232518   7.770   3.837   5.605
10854TIP3    H132519   7.865   3.829   5.601
10854TIP3    H232520   7.755   3.912   5.663
10855TIP3   OH232521   0.222   4.057   5.789
10855TIP3    H132522   0.231   4.146   5.823
10855TIP3    H232523   0.157   4.016   5.846
10856TIP3   OH232524   8.506   4.202   4.749
10856TIP3    H132525   8.443   4.185   4.679
10856TIP3    H232526   8.477   4.286   4.787
10857TIP3   OH232527   7.940   4.044   5.139
10857TIP3    H132528   7.985   4.039   5.223
10857TIP3    H232529   7.888   3.964   5.135
10858TIP3   OH232530   0.256   4.140   4.651
10858TIP3    H132531   0.176   4.168   4.695
10858TIP3    H232532   0.285   4.063   4.700
10859TIP3   OH232533   8.121   3.822   5.963
10859TIP3    H132534   8.169   3.807   6.044
10859TIP3    H232535   8.047   3.761   5.968
10860TIP3   OH232536   8.502   2.631   5.778
10860TIP3    H132537   8.419   2.609   5.737
10860TIP3    H232538   8.492   2.722   5.805
10861TIP3   OH232539   8.442   3.170   5.771
10861TIP3    H132540   8.393   3.187   5.852
10861TIP3    H232541   8.427   3.247   5.717
10862TIP3   OH232542   8.333   3.048   5.276
10862TIP3    H132543   8.247   3.017   5.303
10862TIP3    H232544   8.348   3.007   5.191
10863TIP3   OH232545   8.261   3.190   5.983
10863TIP3    H132546   8.317   3.242   6.041
10863TIP3    H232547   8.249   3.107   6.028
10864TIP3   OH232548   8.304   2.626   4.674
10864TIP3    H132549   8.292   2.642   4.768
10864TIP3    H232550   8.249   2.693   4.632
10865TIP3   OH232551   7.864   2.710   5.558
10865TIP3    H132552   7.936   2.744   5.611
10865TIP3    H232553   7.905   2.678   5.478
10866TIP3   OH232554   7.830   2.696   5.076
10866TIP3    H132555   7.876   2.729   4.998
10866TIP3    H232556   7.767   2.765   5.097
10867TIP3   OH232557   8.095   2.929   5.346
10867TIP3    H132558   8.003   2.934   5.320
10867TIP3    H232559   8.118   2.837   5.332
10868TIP3   OH232560   8.373   2.928   5.028
10868TIP3    H132561   8.456   2.934   4.981
10868TIP3    H232562   8.306   2.943   4.962
10869TIP3   OH232563   8.211   2.954   4.817
10869TIP3    H132564   8.141   2.907   4.773
10869TIP3    H232565   8.266   2.988   4.746
10870TIP3   OH232566   8.283   3.750   6.190
10870TIP3    H132567   8.364   3.775   6.234
10870TIP3    H232568   8.218   3.745   6.260
10871TIP3   OH232569   8.257   2.682   5.320
10871TIP3    H132570   8.222   2.615   5.378
10871TIP3    H232571   8.303   2.634   5.251
10872TIP3   OH232572   0.212   3.095   5.786
10872TIP3    H132573   0.122   3.117   5.760
10872TIP3    H232574   0.260   3.177   5.776
10873TIP3   OH232575   8.421   3.515   4.826
10873TIP3    H132576   8.379   3.429   4.819
10873TIP3    H232577   8.431   3.529   4.920
10874TIP3   OH232578   0.319   3.775   5.854
10874TIP3    H132579   0.356   3.760   5.941
10874TIP3    H232580   0.299   3.869   5.852
10875TIP3   OH232581   8.157   3.516   5.500
10875TIP3    H132582   8.185   3.482   5.415
10875TIP3    H232583   8.188   3.451   5.563
10876TIP3   OH232584   0.066   3.638   4.628
10876TIP3    H132585   0.038   3.727   4.651
10876TIP3    H232586   0.034   3.584   4.701
10877TIP3   OH232587   8.032   3.432   6.120
10877TIP3    H132588   8.061   3.412   6.209
10877TIP3    H232589   7.969   3.363   6.099
10878TIP3   OH232590   0.265   3.546   6.133
10878TIP3    H132591   0.221   3.500   6.062
10878TIP3    H232592   0.354   3.511   6.132
10879TIP3   OH232593   8.250   3.814   5.124
10879TIP3    H132594   8.245   3.894   5.071
10879TIP3    H232595   8.159   3.791   5.141
10880TIP3   OH232596   7.816   3.117   4.836
10880TIP3    H132597   7.860   3.200   4.855
10880TIP3    H232598   7.739   3.117   4.892
10881TIP3   OH232599   8.402   3.582   5.091
10881TIP3    H132600   8.358   3.667   5.096
10881TIP3    H232601   8.353   3.526   5.151
10882TIP3   OH232602   0.022   4.153   5.596
10882TIP3    H132603   0.057   4.229   5.549
10882TIP3    H232604   0.095   4.120   5.646
10883TIP3   OH232605   8.168   4.055   4.979
10883TIP3    H132606   8.084   4.060   5.026
10883TIP3    H232607   8.202   4.145   4.981
10884TIP3   OH232608   8.231   2.938   6.121
10884TIP3    H132609   8.135   2.941   6.127
10884TIP3    H232610   8.258   2.876   6.189
10885TIP3   OH232611   7.962   4.016   5.753
10885TIP3    H132612   8.014   3.943   5.788
10885TIP3    H232613   7.983   4.090   5.810
10886TIP3   OH232614   8.240   3.669   4.440
10886TIP3    H132615   8.244   3.579   4.409
10886TIP3    H232616   8.226   3.661   4.534
10887TIP3   OH232617   8.199   3.667   4.708
10887TIP3    H132618   8.274   3.629   4.753
10887TIP3    H232619   8.203   3.761   4.728
10888TIP3   OH232620   7.925   3.364   4.914
10888TIP3    H132621   7.859   3.403   4.971
10888TIP3    H232622   7.940   3.429   4.845
10889TIP3   OH232623   8.458   3.888   4.665
10889TIP3    H132624   8.370   3.892   4.702
10889TIP3    H232625   8.471   3.972   4.621
10890TIP3   OH232626   8.202   3.944   4.730
10890TIP3    H132627   8.170   4.010   4.669
10890TIP3    H232628   8.185   3.982   4.817
10891TIP3   OH232629   8.313   2.665   4.955
10891TIP3    H132630   8.296   2.743   5.007
10891TIP3    H232631   8.396   2.684   4.910
10892TIP3   OH232632   7.929   3.564   4.715
10892TIP3    H132633   7.996   3.631   4.730
10892TIP3    H232634   7.967   3.507   4.648
10893TIP3   OH232635   7.865   2.847   4.852
10893TIP3    H132636   7.862   2.943   4.850
10893TIP3    H232637   7.788   2.820   4.802
10894TIP3   OH232638   8.236   2.567   5.723
10894TIP3    H132639   8.222   2.532   5.635
10894TIP3    H232640   8.235   2.490   5.780
10895TIP3   OH232641   7.789   3.788   5.100
10895TIP3    H132642   7.727   3.813   5.168
10895TIP3    H232643   7.755   3.827   5.020
10896TIP3   OH232644   7.953   4.331   6.180
10896TIP3    H132645   8.038   4.334   6.224
10896TIP3    H232646   7.931   4.238   6.175
10897TIP3   OH232647   8.426   4.289   6.218
10897TIP3    H132648   8.519   4.272   6.233
10897TIP3    H232649   8.402   4.228   6.148
10898TIP3   OH232650   8.434   3.840   4.347
10898TIP3    H132651   8.354   3.817   4.393
10898TIP3    H232652   8.484   3.758   4.343
10899TIP3   OH232653   8.080   3.730   6.375
10899TIP3    H132654   8.097   3.636   6.382
10899TIP3    H232655   7.997   3.735   6.328
10900TIP3   OH232656   8.069   3.381   4.569
10900TIP3    H132657   8.116   3.350   4.647
10900TIP3    H232658   8.137   3.386   4.501
10901TIP3   OH232659   0.202   3.822   6.147
10901TIP3    H132660   0.151   3.840   6.068
10901TIP3    H232661   0.217   3.727   6.145
10902TIP3   OH232662   0.047   3.587   4.369
10902TIP3    H132663   0.071   3.604   4.460
10902TIP3    H232664  -0.023   3.521   4.374
10903TIP3   OH232665   8.215   3.461   6.357
10903TIP3    H132666   8.296   3.415   6.332
10903TIP3    H232667   8.232   3.493   6.445
10904TIP3   OH232668   8.264   3.283   4.788
10904TIP3    H132669   8.234   3.246   4.871
10904TIP3    H232670   8.307   3.211   4.743
10905TIP3   OH232671   0.004   3.330   6.041
10905TIP3    H132672  -0.064   3.397   6.049
10905TIP3    H232673   0.065   3.366   5.977
10906TIP3   OH232674   8.373   3.077   4.628
10906TIP3    H132675   8.333   3.086   4.542
10906TIP3    H232676   8.464   3.054   4.610
10907TIP3   OH232677   0.163   3.136   6.158
10907TIP3    H132678   0.165   3.055   6.107
10907TIP3    H232679   0.105   3.194   6.108
10908TIP3   OH232680   0.165   2.917   5.984
10908TIP3    H132681   0.179   2.970   5.905
10908TIP3    H232682   0.080   2.875   5.969
10909TIP3   OH232683   0.161   3.460   5.869
10909TIP3    H132684   0.230   3.445   5.804
10909TIP3    H232685   0.102   3.523   5.826
10910TIP3   OH232686   8.432   3.285   6.325
10910TIP3    H132687   8.419   3.197   6.360
10910TIP3    H232688   8.503   3.275   6.261
10911TIP3   OH232689   8.370   3.034   6.424
10911TIP3    H132690   8.371   2.942   6.397
10911TIP3    H232691   8.413   3.034   6.509
10912TIP3   OH232692   8.173   4.147   4.538
10912TIP3    H132693   8.267   4.136   4.520
10912TIP3    H232694   8.140   4.197   4.464
10913TIP3   OH232695   7.655   3.527   4.749
10913TIP3    H132696   7.748   3.547   4.737
10913TIP3    H232697   7.645   3.439   4.712
10914TIP3   OH232698   7.571   4.136   5.171
10914TIP3    H132699   7.505   4.079   5.131
10914TIP3    H232700   7.615   4.080   5.235
10915TIP3   OH232701   7.706   3.985   5.359
10915TIP3    H132702   7.690   3.913   5.421
10915TIP3    H232703   7.756   4.049   5.409
10916TIP3   OH232704   7.891   3.393   5.728
10916TIP3    H132705   7.885   3.360   5.639
10916TIP3    H232706   7.985   3.395   5.746
10917TIP3   OH232707   8.101   3.075   6.401
10917TIP3    H132708   8.196   3.079   6.396
10917TIP3    H232709   8.083   2.994   6.448
10918TIP3   OH232710   8.065   2.780   5.738
10918TIP3    H132711   8.119   2.701   5.740
10918TIP3    H232712   8.128   2.852   5.731
10919TIP3   OH232713   7.871   3.050   5.803
10919TIP3    H132714   7.918   3.037   5.720
10919TIP3    H232715   7.904   3.133   5.837
10920TIP3   OH232716   7.855   2.552   5.305
10920TIP3    H132717   7.764   2.544   5.334
10920TIP3    H232718   7.851   2.610   5.228
10921TIP3   OH232719   8.073   2.642   6.125
10921TIP3    H132720   8.019   2.630   6.203
10921TIP3    H232721   8.012   2.674   6.059
10922TIP3   OH232722   8.114   4.064   6.195
10922TIP3    H132723   8.023   4.037   6.182
10922TIP3    H232724   8.131   4.045   6.287
10923TIP3   OH232725   8.296   4.095   5.741
10923TIP3    H132726   8.245   4.167   5.706
10923TIP3    H232727   8.382   4.104   5.700
10924TIP3   OH232728   0.226   4.321   5.886
10924TIP3    H132729   0.272   4.326   5.969
10924TIP3    H232730   0.273   4.382   5.829
10925TIP3   OH232731   0.365   4.492   5.706
10925TIP3    H132732   0.415   4.485   5.625
10925TIP3    H232733   0.412   4.557   5.759
10926TIP3   OH232734   7.968   4.353   5.770
10926TIP3    H132735   7.880   4.381   5.746
10926TIP3    H232736   7.984   4.394   5.854
10927TIP3   OH232737   8.202   4.326   5.626
10927TIP3    H132738   8.118   4.338   5.671
10927TIP3    H232739   8.186   4.358   5.537
10928TIP3   OH232740   0.102   4.365   5.428
10928TIP3    H132741   0.028   4.376   5.367
10928TIP3    H232742   0.116   4.452   5.464
10929TIP3   OH232743   0.353   4.263   5.403
10929TIP3    H132744   0.264   4.296   5.413
10929TIP3    H232745   0.409   4.335   5.434
10930TIP3   OH232746   7.886   4.142   5.514
10930TIP3    H132747   7.907   4.115   5.603
10930TIP3    H232748   7.953   4.100   5.460
10931TIP3   OH232749   8.079   4.015   5.372
10931TIP3    H132750   8.089   3.933   5.421
10931TIP3    H232751   8.167   4.051   5.368
10932TIP3   OH232752   8.346   4.106   5.378
10932TIP3    H132753   8.370   4.014   5.366
10932TIP3    H232754   8.391   4.133   5.458
10933TIP3   OH232755   8.164   2.472   5.469
10933TIP3    H132756   8.074   2.442   5.477
10933TIP3    H232757   8.216   2.391   5.464
10934TIP3   OH232758   7.960   2.347   5.117
10934TIP3    H132759   7.984   2.406   5.046
10934TIP3    H232760   7.931   2.406   5.187
10935TIP3   OH232761   7.669   3.919   4.897
10935TIP3    H132762   7.585   3.882   4.868
10935TIP3    H232763   7.661   4.013   4.878
10936TIP3   OH232764   8.070   2.503   4.891
10936TIP3    H132765   8.109   2.444   4.826
10936TIP3    H232766   8.143   2.556   4.923
10937TIP3   OH232767   8.439   4.097   4.482
10937TIP3    H132768   8.516   4.148   4.454
10937TIP3    H232769   8.436   4.023   4.423
10938TIP3   OH232770   8.380   2.764   6.371
10938TIP3    H132771   8.357   2.703   6.441
10938TIP3    H232772   8.469   2.739   6.346
10939TIP3   OH232773   7.747   3.941   4.542
10939TIP3    H132774   7.741   3.957   4.637
10939TIP3    H232775   7.833   3.900   4.531
10940TIP3   OH232776   1.310   4.273   6.731
10940TIP3    H132777   1.281   4.362   6.712
10940TIP3    H232778   1.237   4.218   6.702
10941TIP3   OH232779   6.974   0.263   0.183
10941TIP3    H132780   7.012   0.240   0.267
10941TIP3    H232781   6.935   0.182   0.151
10942TIP3   OH232782   6.303   0.141   0.501
10942TIP3    H132783   6.290   0.085   0.577
10942TIP3    H232784   6.364   0.209   0.530
10943TIP3   OH232785   1.554   4.576   6.802
10943TIP3    H132786   1.538   4.504   6.862
10943TIP3    H232787   1.586   4.647   6.857
10944TIP3   OH232788   6.255   0.549   0.203
10944TIP3    H132789   6.235   0.457   0.219
10944TIP3    H232790   6.343   0.562   0.239
10945TIP3   OH232791   6.024   0.051   0.182
10945TIP3    H132792   6.060   0.007   0.258
10945TIP3    H232793   6.082   0.126   0.168
10946TIP3   OH232794   1.208   5.033   6.821
10946TIP3    H132795   1.246   4.968   6.762
10946TIP3    H232796   1.204   4.988   6.906
10947TIP3   OH232797   6.779   0.489   0.224
10947TIP3    H132798   6.813   0.409   0.185
10947TIP3    H232799   6.857   0.538   0.250
10948TIP3   OH232800   4.956   7.826   0.221
10948TIP3    H132801   4.986   7.905   0.265
10948TIP3    H232802   4.979   7.839   0.129
10949TIP3   OH232803   4.354   8.003   0.252
10949TIP3    H132804   4.396   7.921   0.277
10949TIP3    H232805   4.321   7.986   0.163
10950TIP3   OH232806   3.695   7.663   0.218
10950TIP3    H132807   3.677   7.736   0.158
10950TIP3    H232808   3.650   7.588   0.178
10951TIP3   OH232809   1.558   3.749   6.780
10951TIP3    H132810   1.623   3.733   6.848
10951TIP3    H232811   1.609   3.783   6.706
10952TIP3   OH232812   3.331   7.865   0.330
10952TIP3    H132813   3.410   7.858   0.384
10952TIP3    H232814   3.354   7.822   0.248
10953TIP3   OH232815   6.604   0.046   0.111
10953TIP3    H132816   6.695   0.024   0.131
10953TIP3    H232817   6.564  -0.038   0.085
10954TIP3   OH232818   7.863   0.020   0.391
10954TIP3    H132819   7.778   0.061   0.370
10954TIP3    H232820   7.875   0.036   0.484
10955TIP3   OH232821   3.687   7.636   0.651
10955TIP3    H132822   3.633   7.683   0.587
10955TIP3    H232823   3.643   7.651   0.734
10956TIP3   OH232824   1.196   4.492   6.602
10956TIP3    H132825   1.157   4.473   6.517
10956TIP3    H232826   1.153   4.573   6.631
10957TIP3   OH232827   6.628   0.417   0.450
10957TIP3    H132828   6.570   0.481   0.491
10957TIP3    H232829   6.668   0.465   0.377
10958TIP3   OH232830   4.592   7.762   0.020
10958TIP3    H132831   4.578   7.714   0.102
10958TIP3    H232832   4.644   7.838   0.045
10959TIP3   OH232833   3.570   7.762   0.439
10959TIP3    H132834   3.625   7.836   0.465
10959TIP3    H232835   3.616   7.723   0.364
10960TIP3   OH232836   6.439   0.593   0.572
10960TIP3    H132837   6.384   0.647   0.515
10960TIP3    H232838   6.377   0.547   0.628
10961TIP3   OH232839   7.285   0.813   0.025
10961TIP3    H132840   7.199   0.800   0.064
10961TIP3    H232841   7.279   0.898  -0.020
10962TIP3   OH232842   4.749   7.726   0.387
10962TIP3    H132843   4.662   7.751   0.355
10962TIP3    H232844   4.809   7.755   0.319
10963TIP3   OH232845   4.039   7.358   0.367
10963TIP3    H132846   4.030   7.265   0.388
10963TIP3    H232847   3.967   7.400   0.414
10964TIP3   OH232848   1.322   4.863   6.633
10964TIP3    H132849   1.366   4.779   6.620
10964TIP3    H232850   1.382   4.928   6.594
10965TIP3   OH232851   1.465   4.646   6.551
10965TIP3    H132852   1.429   4.568   6.511
10965TIP3    H232853   1.504   4.616   6.633
10966TIP3   OH232854   7.514   0.720   0.366
10966TIP3    H132855   7.502   0.642   0.311
10966TIP3    H232856   7.498   0.794   0.307
10967TIP3   OH232857   1.140   4.123   6.566
10967TIP3    H132858   1.062   4.175   6.546
10967TIP3    H232859   1.187   4.117   6.483
10968TIP3   OH232860   1.101   3.909   6.279
10968TIP3    H132861   1.164   3.962   6.327
10968TIP3    H232862   1.154   3.845   6.232
10969TIP3   OH232863   7.708   0.364   0.214
10969TIP3    H132864   7.625   0.410   0.220
10969TIP3    H232865   7.740   0.383   0.126
10970TIP3   OH232866   1.490   4.206   6.538
10970TIP3    H132867   1.435   4.228   6.613
10970TIP3    H232868   1.574   4.180   6.577
10971TIP3   OH232869   7.387   0.238   0.513
10971TIP3    H132870   7.386   0.317   0.566
10971TIP3    H232871   7.302   0.238   0.468
10972TIP3   OH232872   6.392   0.188   0.012
10972TIP3    H132873   6.350   0.132  -0.053
10972TIP3    H232874   6.469   0.138   0.041
10973TIP3   OH232875   6.537   0.622   0.155
10973TIP3    H132876   6.502   0.573   0.080
10973TIP3    H232877   6.621   0.580   0.173
10974TIP3   OH232878   6.570   0.159   0.366
10974TIP3    H132879   6.578   0.145   0.271
10974TIP3    H232880   6.585   0.253   0.378
10975TIP3   OH232881   7.044   0.804   0.146
10975TIP3    H132882   7.039   0.882   0.202
10975TIP3    H232883   7.032   0.730   0.206
10976TIP3   OH232884   6.658   0.723   0.690
10976TIP3    H132885   6.604   0.782   0.743
10976TIP3    H232886   6.595   0.666   0.646
10977TIP3   OH232887   1.327   4.067   6.363
10977TIP3    H132888   1.384   4.123   6.414
10977TIP3    H232889   1.351   4.084   6.272
10978TIP3   OH232890   6.394   0.255   0.773
10978TIP3    H132891   6.412   0.334   0.824
10978TIP3    H232892   6.301   0.261   0.752
10979TIP3   OH232893   1.073   4.741   6.638
10979TIP3    H132894   1.155   4.789   6.648
10979TIP3    H232895   1.014   4.803   6.595
10980TIP3   OH232896   6.443   0.881   0.769
10980TIP3    H132897   6.420   0.892   0.677
10980TIP3    H232898   6.363   0.844   0.809
10981TIP3   OH232899   1.842   3.303   6.413
10981TIP3    H132900   1.763   3.322   6.463
10981TIP3    H232901   1.859   3.383   6.363
10982TIP3   OH232902   0.596   4.037   6.757
10982TIP3    H132903   0.532   4.076   6.697
10982TIP3    H232904   0.560   3.951   6.779
10983TIP3   OH232905   1.647   4.670   5.961
10983TIP3    H132906   1.654   4.764   5.946
10983TIP3    H232907   1.736   4.637   5.949
10984TIP3   OH232908   7.750   1.066   0.417
10984TIP3    H132909   7.753   0.971   0.430
10984TIP3    H232910   7.669   1.094   0.461
10985TIP3   OH232911   6.854   0.853   0.548
10985TIP3    H132912   6.854   0.943   0.579
10985TIP3    H232913   6.787   0.810   0.601
10986TIP3   OH232914   0.954   4.987   6.441
10986TIP3    H132915   0.907   4.971   6.359
10986TIP3    H232916   0.923   5.073   6.470
10987TIP3   OH232917   1.157   4.889   6.079
10987TIP3    H132918   1.213   4.820   6.044
10987TIP3    H232919   1.188   4.901   6.169
10988TIP3   OH232920   1.204   4.936   6.350
10988TIP3    H132921   1.117   4.947   6.389
10988TIP3    H232922   1.256   4.896   6.420
10989TIP3   OH232923   7.640   0.194   0.690
10989TIP3    H132924   7.558   0.204   0.641
10989TIP3    H232925   7.660   0.101   0.683
10990TIP3   OH232926   3.803   7.441   0.492
10990TIP3    H132927   3.718   7.407   0.464
10990TIP3    H232928   3.781   7.521   0.540
10991TIP3   OH232929   4.347   7.562   0.677
10991TIP3    H132930   4.416   7.527   0.733
10991TIP3    H232931   4.266   7.542   0.724
10992TIP3   OH232932   4.575   7.987   0.612
10992TIP3    H132933   4.530   7.981   0.696
10992TIP3    H232934   4.551   8.073   0.578
10993TIP3   OH232935   1.406   4.109   6.108
10993TIP3    H132936   1.368   4.084   6.024
10993TIP3    H232937   1.490   4.148   6.085
10994TIP3   OH232938   1.114   3.480   6.414
10994TIP3    H132939   1.082   3.479   6.504
10994TIP3    H232940   1.078   3.401   6.374
10995TIP3   OH232941   3.738   7.956   0.521
10995TIP3    H132942   3.689   7.978   0.600
10995TIP3    H232943   3.734   8.035   0.467
10996TIP3   OH232944   3.617   7.839   0.031
10996TIP3    H132945   3.525   7.820   0.048
10996TIP3    H232946   3.633   7.803  -0.056
10997TIP3   OH232947   1.278   3.922   6.700
10997TIP3    H132948   1.228   3.992   6.659
10997TIP3    H232949   1.333   3.887   6.630
10998TIP3   OH232950   7.132   0.203   0.842
10998TIP3    H132951   7.104   0.123   0.886
10998TIP3    H232952   7.226   0.209   0.861
10999TIP3   OH232953   1.433   3.946   6.934
10999TIP3    H132954   1.369   3.975   6.869
10999TIP3    H232955   1.472   3.867   6.895
11000TIP3   OH232956   3.565   7.984   0.736
11000TIP3    H132957   3.592   8.069   0.772
11000TIP3    H232958   3.494   7.955   0.793
11001TIP3   OH232959   0.771   3.456   6.376
11001TIP3    H132960   0.764   3.457   6.471
11001TIP3    H232961   0.693   3.502   6.345
11002TIP3   OH232962   3.167   7.544   0.301
11002TIP3    H132963   3.246   7.538   0.354
11002TIP3    H232964   3.174   7.472   0.239
11003TIP3   OH232965   0.309   3.535   6.798
11003TIP3    H132966   0.336   3.539   6.707
11003TIP3    H232967   0.302   3.626   6.826
11004TIP3   OH232968   7.113   0.186   0.418
11004TIP3    H132969   7.146   0.120   0.357
11004TIP3    H232970   7.082   0.136   0.494
11005TIP3   OH232971   3.952   7.669   0.095
11005TIP3    H132972   3.874   7.665   0.150
11005TIP3    H232973   4.025   7.655   0.155
11006TIP3   OH232974   3.379   7.707   0.099
11006TIP3    H132975   3.289   7.676   0.106
11006TIP3    H232976   3.431   7.627   0.084
11007TIP3   OH232977   0.813   3.710   6.729
11007TIP3    H132978   0.907   3.723   6.712
11007TIP3    H232979   0.770   3.732   6.647
11008TIP3   OH232980   4.438   7.743   0.298
11008TIP3    H132981   4.408   7.757   0.388
11008TIP3    H232982   4.375   7.681   0.262
11009TIP3   OH232983   0.662   3.749   6.501
11009TIP3    H132984   0.597   3.701   6.449
11009TIP3    H232985   0.719   3.790   6.436
11010TIP3   OH232986   7.448   1.417   0.516
11010TIP3    H132987   7.445   1.439   0.423
11010TIP3    H232988   7.526   1.462   0.549
11011TIP3   OH232989   6.398   0.490   0.910
11011TIP3    H132990   6.474   0.541   0.939
11011TIP3    H232991   6.323   0.537   0.945
11012TIP3   OH232992   4.030   7.996   0.192
11012TIP3    H132993   4.102   7.955   0.143
11012TIP3    H232994   4.032   7.953   0.277
11013TIP3   OH232995   3.546   7.482   0.074
11013TIP3    H132996   3.511   7.407   0.121
11013TIP3    H232997   3.596   7.444   0.002
11014TIP3   OH232998   4.007   7.898   0.473
11014TIP3    H132999   3.919   7.932   0.490
11014TIP3    H233000   4.065   7.955   0.523
11015TIP3   OH233001   0.906   4.274   6.514
11015TIP3    H133002   0.839   4.207   6.501
11015TIP3    H233003   0.891   4.307   6.603
11016TIP3   OH233004   7.474   0.505   0.200
11016TIP3    H133005   7.499   0.555   0.122
11016TIP3    H233006   7.393   0.461   0.175
11017TIP3   OH233007   1.366   3.584   6.382
11017TIP3    H133008   1.273   3.565   6.391
11017TIP3    H233009   1.373   3.677   6.407
11018TIP3   OH233010   6.976   0.588   0.572
11018TIP3    H133011   7.006   0.564   0.659
11018TIP3    H233012   6.939   0.676   0.583
11019TIP3   OH233013   1.437   3.836   6.484
11019TIP3    H133014   1.531   3.839   6.500
11019TIP3    H233015   1.419   3.915   6.433
11020TIP3   OH233016   6.276   0.282   0.254
11020TIP3    H133017   6.321   0.236   0.183
11020TIP3    H233018   6.281   0.222   0.328
11021TIP3   OH233019   1.052   4.425   6.338
11021TIP3    H133020   1.006   4.508   6.341
11021TIP3    H233021   1.002   4.368   6.397
11022TIP3   OH233022   6.883   0.325   0.865
11022TIP3    H133023   6.820   0.265   0.825
11022TIP3    H233024   6.968   0.290   0.841
11023TIP3   OH233025   7.132   0.851   0.465
11023TIP3    H133026   7.038   0.844   0.479
11023TIP3    H233027   7.165   0.901   0.540
11024TIP3   OH233028   1.873   3.929   6.316
11024TIP3    H133029   1.814   3.882   6.257
11024TIP3    H233030   1.876   4.018   6.280
11025TIP3   OH233031   7.763   0.779   0.453
11025TIP3    H133032   7.668   0.772   0.450
11025TIP3    H233033   7.793   0.748   0.368
11026TIP3   OH233034   1.579   4.743   6.227
11026TIP3    H133035   1.554   4.675   6.289
11026TIP3    H233036   1.593   4.697   6.144
11027TIP3   OH233037   7.241   0.365   0.117
11027TIP3    H133038   7.149   0.343   0.132
11027TIP3    H233039   7.277   0.287   0.075
11028TIP3   OH233040   0.708   4.602   6.813
11028TIP3    H133041   0.698   4.679   6.757
11028TIP3    H233042   0.624   4.594   6.858
11029TIP3   OH233043   0.274   3.912   6.532
11029TIP3    H133044   0.331   3.987   6.549
11029TIP3    H233045   0.185   3.946   6.545
11030TIP3   OH233046   0.837   4.363   6.757
11030TIP3    H133047   0.805   4.451   6.775
11030TIP3    H233048   0.806   4.310   6.831
11031TIP3   OH233049   6.651   0.941   0.345
11031TIP3    H133050   6.695   1.008   0.293
11031TIP3    H233051   6.723   0.897   0.392
11032TIP3   OH233052   0.618   4.848   6.672
11032TIP3    H133053   0.540   4.864   6.724
11032TIP3    H233054   0.662   4.933   6.667
11033TIP3   OH233055   7.027   0.571   0.306
11033TIP3    H133056   7.014   0.571   0.401
11033TIP3    H233057   7.104   0.515   0.292
11034TIP3   OH233058   1.338   4.476   6.131
11034TIP3    H133059   1.394   4.452   6.205
11034TIP3    H233060   1.251   4.442   6.155
11035TIP3   OH233061   7.274   1.102   0.353
11035TIP3    H133062   7.198   1.044   0.352
11035TIP3    H233063   7.257   1.165   0.283
11036TIP3   OH233064   1.675   4.949   5.946
11036TIP3    H133065   1.718   5.021   5.900
11036TIP3    H233066   1.594   4.986   5.980
11037TIP3   OH233067   1.501   4.405   6.344
11037TIP3    H133068   1.485   4.341   6.413
11037TIP3    H233069   1.596   4.402   6.329
11038TIP3   OH233070   0.699   4.448   6.125
11038TIP3    H133071   0.714   4.357   6.099
11038TIP3    H233072   0.680   4.443   6.219
11039TIP3   OH233073   0.652   4.460   6.400
11039TIP3    H133074   0.727   4.428   6.451
11039TIP3    H233075   0.657   4.555   6.407
11040TIP3   OH233076   0.397   4.144   6.605
11040TIP3    H133077   0.353   4.191   6.676
11040TIP3    H233078   0.412   4.211   6.538
11041TIP3   OH233079   4.366   7.803   0.557
11041TIP3    H133080   4.451   7.836   0.588
11041TIP3    H233081   4.356   7.719   0.603
11042TIP3   OH233082   1.415   3.536   6.664
11042TIP3    H133083   1.402   3.555   6.571
11042TIP3    H233084   1.453   3.616   6.700
11043TIP3   OH233085   0.911   4.657   6.346
11043TIP3    H133086   0.827   4.678   6.387
11043TIP3    H233087   0.929   4.731   6.289
11044TIP3   OH233088   1.096   3.722   6.766
11044TIP3    H133089   1.159   3.792   6.746
11044TIP3    H233090   1.103   3.709   6.860
11045TIP3   OH233091   7.038   0.023   0.621
11045TIP3    H133092   7.054   0.065   0.705
11045TIP3    H233093   7.088  -0.058   0.624
11046TIP3   OH233094   1.243   3.440   6.861
11046TIP3    H133095   1.244   3.510   6.925
11046TIP3    H233096   1.303   3.470   6.792
11047TIP3   OH233097   0.659   4.734   6.419
11047TIP3    H133098   0.630   4.799   6.355
11047TIP3    H233099   0.641   4.774   6.504
11048TIP3   OH233100   0.759   3.447   6.654
11048TIP3    H133101   0.754   3.535   6.691
11048TIP3    H233102   0.852   3.423   6.659
11049TIP3   OH233103   4.840   7.944   0.604
11049TIP3    H133104   4.745   7.946   0.616
11049TIP3    H233105   4.852   7.886   0.529
11050TIP3   OH233106   7.327   0.122  -0.001
11050TIP3    H133107   7.252   0.065   0.010
11050TIP3    H233108   7.398   0.078   0.045
11051TIP3   OH233109   0.389   4.365   6.445
11051TIP3    H133110   0.470   4.414   6.437
11051TIP3    H233111   0.384   4.312   6.366
11052TIP3   OH233112   0.296   3.634   6.546
11052TIP3    H133113   0.301   3.730   6.544
11052TIP3    H233114   0.274   3.609   6.456
11053TIP3   OH233115   1.631   5.092   6.883
11053TIP3    H133116   1.587   5.136   6.811
11053TIP3    H233117   1.724   5.107   6.866
11054TIP3   OH233118   3.540   7.356   0.470
11054TIP3    H133119   3.513   7.326   0.383
11054TIP3    H233120   3.530   7.278   0.526
11055TIP3   OH233121   6.524   1.085   0.943
11055TIP3    H133122   6.607   1.087   0.990
11055TIP3    H233123   6.530   1.009   0.886
11056TIP3   OH233124   0.863   4.649   6.037
11056TIP3    H133125   0.805   4.583   6.074
11056TIP3    H233126   0.941   4.600   6.010
11057TIP3   OH233127   7.192   0.984   0.697
11057TIP3    H133128   7.178   0.911   0.756
11057TIP3    H233129   7.267   1.031   0.733
11058TIP3   OH233130   1.302   4.691   5.954
11058TIP3    H133131   1.335   4.626   6.016
11058TIP3    H233132   1.361   4.685   5.879
11059TIP3   OH233133   0.512   4.173   6.268
11059TIP3    H133134   0.568   4.144   6.340
11059TIP3    H233135   0.570   4.177   6.193
11060TIP3   OH233136   6.816   0.598   0.888
11060TIP3    H133137   6.780   0.621   0.802
11060TIP3    H233138   6.845   0.508   0.878
11061TIP3   OH233139   1.024   4.371   6.070
11061TIP3    H133140   1.027   4.384   6.164
11061TIP3    H233141   1.026   4.276   6.059
11062TIP3   OH233142   7.298   0.616   0.507
11062TIP3    H133143   7.375   0.654   0.464
11062TIP3    H233144   7.228   0.679   0.490
11063TIP3   OH233145   0.716   4.076   6.481
11063TIP3    H133146   0.696   4.034   6.565
11063TIP3    H233147   0.755   4.006   6.428
11064TIP3   OH233148   6.656   0.138   0.770
11064TIP3    H133149   6.575   0.190   0.765
11064TIP3    H233150   6.706   0.167   0.694
11065TIP3   OH233151   0.823   3.875   6.321
11065TIP3    H133152   0.795   3.879   6.229
11065TIP3    H233153   0.918   3.874   6.317
11066TIP3   OH233154   7.176   0.529   0.905
11066TIP3    H133155   7.248   0.502   0.848
11066TIP3    H233156   7.169   0.459   0.970
11067TIP3   OH233157   1.634   4.202   5.986
11067TIP3    H133158   1.620   4.153   5.905
11067TIP3    H233159   1.602   4.290   5.968
11068TIP3   OH233160   3.933   7.928   0.895
11068TIP3    H133161   3.928   7.854   0.834
11068TIP3    H233162   3.881   7.997   0.853
11069TIP3   OH233163   3.937   7.734   0.696
11069TIP3    H133164   3.968   7.778   0.616
11069TIP3    H233165   3.847   7.708   0.675
11070TIP3   OH233166   6.805   0.247   0.577
11070TIP3    H133167   6.889   0.252   0.530
11070TIP3    H233168   6.748   0.306   0.529
11071TIP3   OH233169   7.398   0.199   0.951
11071TIP3    H133170   7.426   0.109   0.966
11071TIP3    H233171   7.475   0.242   0.914
11072TIP3   OH233172   7.428   0.467   0.690
11072TIP3    H133173   7.370   0.519   0.634
11072TIP3    H233174   7.516   0.484   0.656
11073TIP3   OH233175   4.081   7.496   0.724
11073TIP3    H133176   4.030   7.577   0.717
11073TIP3    H233177   4.016   7.426   0.726
11074TIP3   OH233178   4.189   7.987   0.941
11074TIP3    H133179   4.176   8.027   1.027
11074TIP3    H233180   4.103   7.954   0.917
11075TIP3   OH233181   4.455   7.943   0.848
11075TIP3    H133182   4.370   7.933   0.891
11075TIP3    H233183   4.518   7.910   0.913
11076TIP3   OH233184   4.666   7.900   1.033
11076TIP3    H133185   4.698   7.810   1.024
11076TIP3    H233186   4.657   7.913   1.127
11077TIP3   OH233187   4.072   7.344   0.960
11077TIP3    H133188   4.149   7.330   1.015
11077TIP3    H233189   4.094   7.419   0.905
11078TIP3   OH233190   0.633   4.933   6.226
11078TIP3    H133191   0.726   4.926   6.205
11078TIP3    H233192   0.596   4.987   6.156
11079TIP3   OH233193   1.885   5.182   6.847
11079TIP3    H133194   1.912   5.207   6.936
11079TIP3    H233195   1.954   5.217   6.791
11080TIP3   OH233196   7.580   1.186   0.190
11080TIP3    H133197   7.533   1.103   0.184
11080TIP3    H233198   7.656   1.167   0.246
11081TIP3   OH233199   7.624   0.868   0.764
11081TIP3    H133200   7.552   0.876   0.826
11081TIP3    H233201   7.667   0.954   0.767
11082TIP3   OH233202   1.778   4.387   6.322
11082TIP3    H133203   1.843   4.450   6.289
11082TIP3    H233204   1.819   4.349   6.400
11083TIP3   OH233205   1.903   4.255   6.527
11083TIP3    H133206   1.838   4.212   6.583
11083TIP3    H233207   1.968   4.289   6.588
11084TIP3   OH233208   1.961   4.648   6.953
11084TIP3    H133209   2.013   4.579   6.912
11084TIP3    H233210   1.955   4.717   6.887
11085TIP3   OH233211   7.453   0.941   0.208
11085TIP3    H133212   7.383   0.980   0.261
11085TIP3    H233213   7.406   0.894   0.138
11086TIP3   OH233214   1.838   4.165   6.169
11086TIP3    H133215   1.770   4.163   6.101
11086TIP3    H233216   1.813   4.237   6.226
11087TIP3   OH233217   1.708   3.835   6.123
11087TIP3    H133218   1.670   3.868   6.041
11087TIP3    H233219   1.689   3.741   6.121
11088TIP3   OH233220   1.716   4.112   6.671
11088TIP3    H133221   1.724   4.017   6.660
11088TIP3    H233222   1.701   4.124   6.764
11089TIP3   OH233223   7.676   0.530   0.588
11089TIP3    H133224   7.744   0.462   0.579
11089TIP3    H233225   7.700   0.596   0.522
11090TIP3   OH233226   7.858   0.328   0.598
11090TIP3    H133227   7.782   0.282   0.634
11090TIP3    H233228   7.931   0.269   0.614
11091TIP3   OH233229   1.654   3.570   6.111
11091TIP3    H133230   1.728   3.537   6.162
11091TIP3    H233231   1.583   3.509   6.129
11092TIP3   OH233232   1.717   3.826   6.560
11092TIP3    H133233   1.753   3.739   6.578
11092TIP3    H233234   1.772   3.861   6.490
11093TIP3   OH233235   7.542  -0.006   0.120
11093TIP3    H133236   7.624   0.015   0.075
11093TIP3    H233237   7.553   0.027   0.208
11094TIP3   OH233238   7.611   0.140   0.348
11094TIP3    H133239   7.536   0.170   0.398
11094TIP3    H233240   7.645   0.219   0.305
11095TIP3   OH233241   5.230   7.746   0.901
11095TIP3    H133242   5.294   7.687   0.861
11095TIP3    H233243   5.203   7.804   0.830
11096TIP3   OH233244   1.821   3.577   6.604
11096TIP3    H133245   1.870   3.563   6.684
11096TIP3    H233246   1.761   3.502   6.600
11097TIP3   OH233247   3.372   7.571   0.490
11097TIP3    H133248   3.429   7.494   0.491
11097TIP3    H233249   3.430   7.643   0.468
11098TIP3   OH233250   5.096   7.882   0.701
11098TIP3    H133251   5.015   7.924   0.730
11098TIP3    H233252   5.067   7.809   0.646
11099TIP3   OH233253   1.902   3.509   6.235
11099TIP3    H133254   1.939   3.439   6.182
11099TIP3    H233255   1.968   3.578   6.233
11100TIP3   OH233256   3.165   7.375   0.076
11100TIP3    H133257   3.074   7.346   0.086
11100TIP3    H233258   3.164   7.430  -0.003
11101TIP3   OH233259   1.467   5.048   6.499
11101TIP3    H133260   1.517   5.035   6.419
11101TIP3    H233261   1.521   5.107   6.552
11102TIP3   OH233262   6.414   0.912   0.487
11102TIP3    H133263   6.396   0.988   0.431
11102TIP3    H233264   6.503   0.886   0.464
11103TIP3   OH233265   6.856   1.118   0.627
11103TIP3    H133266   6.893   1.113   0.715
11103TIP3    H233267   6.919   1.169   0.576
11104TIP3   OH233268   7.039   1.274   0.493
11104TIP3    H133269   7.106   1.218   0.453
11104TIP3    H233270   7.086   1.329   0.554
11105TIP3   OH233271   5.000   7.639   0.580
11105TIP3    H133272   4.908   7.629   0.553
11105TIP3    H233273   5.036   7.551   0.574
11106TIP3   OH233274   6.326   1.139   0.349
11106TIP3    H133275   6.299   1.227   0.375
11106TIP3    H233276   6.272   1.119   0.272
11107TIP3   OH233277   6.753   1.138   0.178
11107TIP3    H133278   6.703   1.158   0.099
11107TIP3    H233279   6.768   1.223   0.220
11108TIP3   OH233280   7.022   1.076   0.227
11108TIP3    H133281   6.929   1.092   0.208
11108TIP3    H233282   7.068   1.149   0.185
11109TIP3   OH233283   7.224   1.266   0.137
11109TIP3    H133284   7.213   1.350   0.091
11109TIP3    H233285   7.252   1.205   0.069
11110TIP3   OH233286   6.202   0.799   0.113
11110TIP3    H133287   6.204   0.711   0.149
11110TIP3    H233288   6.294   0.827   0.113
11111TIP3   OH233289   6.481   0.893   0.129
11111TIP3    H133290   6.500   0.802   0.108
11111TIP3    H233291   6.530   0.911   0.209
11112TIP3   OH233292   4.196   7.553   0.202
11112TIP3    H133293   4.159   7.486   0.259
11112TIP3    H233294   4.275   7.514   0.166
11113TIP3   OH233295   4.722   7.441   0.111
11113TIP3    H133296   4.759   7.491   0.038
11113TIP3    H233297   4.629   7.460   0.108
11114TIP3   OH233298   1.988   3.535   6.816
11114TIP3    H133299   2.059   3.480   6.781
11114TIP3    H233300   2.019   3.624   6.804
11115TIP3   OH233301   3.449   7.267   0.226
11115TIP3    H133302   3.356   7.245   0.222
11115TIP3    H233303   3.494   7.183   0.221
11116TIP3   OH233304   0.435   3.125   6.822
11116TIP3    H133305   0.452   3.180   6.746
11116TIP3    H233306   0.380   3.179   6.879
11117TIP3   OH233307   3.898   7.303   0.111
11117TIP3    H133308   3.951   7.347   0.044
11117TIP3    H233309   3.934   7.334   0.194
11118TIP3   OH233310   4.437   7.446   0.091
11118TIP3    H133311   4.444   7.406   0.004
11118TIP3    H233312   4.426   7.371   0.150
11119TIP3   OH233313   1.637   3.364   6.595
11119TIP3    H133314   1.553   3.408   6.610
11119TIP3    H233315   1.627   3.279   6.638
11120TIP3   OH233316   0.528   3.285   6.588
11120TIP3    H133317   0.569   3.223   6.527
11120TIP3    H233318   0.601   3.338   6.620
11121TIP3   OH233319   1.035   3.470   6.679
11121TIP3    H133320   1.093   3.419   6.735
11121TIP3    H233321   1.055   3.561   6.701
11122TIP3   OH233322   0.899   4.885   6.172
11122TIP3    H133323   0.986   4.909   6.140
11122TIP3    H233324   0.873   4.812   6.117
11123TIP3   OH233325   1.613   5.009   6.268
11123TIP3    H133326   1.608   4.914   6.262
11123TIP3    H233327   1.569   5.040   6.189
11124TIP3   OH233328   4.791   7.652   1.029
11124TIP3    H133329   4.813   7.587   1.096
11124TIP3    H233330   4.856   7.638   0.960
11125TIP3   OH233331   7.502   1.148   0.515
11125TIP3    H133332   7.427   1.115   0.466
11125TIP3    H233333   7.486   1.242   0.524
11126TIP3   OH233334   3.105   4.530   6.219
11126TIP3    H133335   3.076   4.619   6.198
11126TIP3    H233336   3.035   4.473   6.186
11127TIP3   OH233337   3.108   4.527   6.609
11127TIP3    H133338   3.141   4.499   6.694
11127TIP3    H233339   3.067   4.449   6.572
11128TIP3   OH233340   8.070   0.411   0.031
11128TIP3    H133341   8.095   0.340   0.091
11128TIP3    H233342   8.148   0.465   0.023
11129TIP3   OH233343   3.353   4.830   6.287
11129TIP3    H133344   3.331   4.759   6.347
11129TIP3    H233345   3.379   4.902   6.344
11130TIP3   OH233346   2.378   4.830   6.690
11130TIP3    H133347   2.367   4.735   6.691
11130TIP3    H233348   2.472   4.843   6.686
11131TIP3   OH233349   2.081   4.034   6.473
11131TIP3    H133350   2.035   4.116   6.492
11131TIP3    H233351   2.014   3.978   6.433
11132TIP3   OH233352   2.142   4.319   6.654
11132TIP3    H133353   2.188   4.242   6.688
11132TIP3    H233354   2.199   4.352   6.585
11133TIP3   OH233355   3.004   5.291   6.305
11133TIP3    H133356   3.044   5.222   6.251
11133TIP3    H233357   2.990   5.249   6.390
11134TIP3   OH233358   2.906   4.754   6.651
11134TIP3    H133359   2.939   4.675   6.608
11134TIP3    H233360   2.984   4.803   6.676
11135TIP3   OH233361   3.921   4.074   6.649
11135TIP3    H133362   3.950   4.155   6.689
11135TIP3    H233363   3.943   4.084   6.556
11136TIP3   OH233364   3.318   4.252   6.679
11136TIP3    H133365   3.359   4.169   6.703
11136TIP3    H233366   3.284   4.237   6.591
11137TIP3   OH233367   2.656   3.913   6.644
11137TIP3    H133368   2.638   3.986   6.584
11137TIP3    H233369   2.611   3.838   6.605
11138TIP3   OH233370   3.354   4.007   6.268
11138TIP3    H133371   3.420   3.990   6.334
11138TIP3    H233372   3.403   4.040   6.193
11139TIP3   OH233373   2.291   4.112   6.754
11139TIP3    H133374   2.371   4.096   6.804
11139TIP3    H233375   2.301   4.059   6.675
11140TIP3   OH233376   2.728   4.310   6.553
11140TIP3    H133377   2.821   4.289   6.564
11140TIP3    H233378   2.689   4.229   6.519
11141TIP3   OH233379   3.993   4.285   6.818
11141TIP3    H133380   3.909   4.325   6.796
11141TIP3    H233381   4.002   4.300   6.912
11142TIP3   OH233382   5.483   7.905   0.143
11142TIP3    H133383   5.425   7.940   0.075
11142TIP3    H233384   5.434   7.917   0.224
11143TIP3   OH233385   2.992   4.748   6.090
11143TIP3    H133386   2.955   4.729   6.004
11143TIP3    H233387   2.948   4.829   6.118
11144TIP3   OH233388   2.759   4.675   6.873
11144TIP3    H133389   2.699   4.739   6.912
11144TIP3    H233390   2.799   4.721   6.800
11145TIP3   OH233391   3.557   4.011   6.446
11145TIP3    H133392   3.543   3.961   6.527
11145TIP3    H233393   3.608   4.087   6.473
11146TIP3   OH233394   2.526   4.012   6.864
11146TIP3    H133395   2.585   4.082   6.892
11146TIP3    H233396   2.572   3.970   6.791
11147TIP3   OH233397   8.251   0.864   0.035
11147TIP3    H133398   8.228   0.949  -0.001
11147TIP3    H233399   8.176   0.840   0.090
11148TIP3   OH233400   1.977   4.560   6.210
11148TIP3    H133401   1.938   4.585   6.126
11148TIP3    H233402   2.011   4.641   6.246
11149TIP3   OH233403   3.422   5.079   6.459
11149TIP3    H133404   3.335   5.065   6.495
11149TIP3    H233405   3.414   5.161   6.409
11150TIP3   OH233406   3.711   3.976   6.816
11150TIP3    H133407   3.624   3.997   6.782
11150TIP3    H233408   3.771   4.006   6.747
11151TIP3   OH233409   3.001   3.611   6.800
11151TIP3    H133410   2.989   3.517   6.817
11151TIP3    H233411   2.928   3.652   6.845
11152TIP3   OH233412   3.121   5.118   6.122
11152TIP3    H133413   3.164   5.034   6.106
11152TIP3    H233414   3.180   5.183   6.084
11153TIP3   OH233415   3.261   4.902   6.037
11153TIP3    H133416   3.230   4.824   5.992
11153TIP3    H233417   3.300   4.868   6.118
11154TIP3   OH233418   3.685   4.985   6.782
11154TIP3    H133419   3.655   4.904   6.742
11154TIP3    H233420   3.627   5.053   6.747
11155TIP3   OH233421   2.937   4.382   6.054
11155TIP3    H133422   2.858   4.432   6.034
11155TIP3    H233423   2.982   4.372   5.970
11156TIP3   OH233424   2.897   4.164   5.772
11156TIP3    H133425   2.963   4.219   5.814
11156TIP3    H233426   2.949   4.099   5.722
11157TIP3   OH233427   3.834   4.631   6.643
11157TIP3    H133428   3.749   4.675   6.643
11157TIP3    H233429   3.869   4.646   6.555
11158TIP3   OH233430   3.287   4.463   6.025
11158TIP3    H133431   3.231   4.486   6.099
11158TIP3    H233432   3.370   4.437   6.065
11159TIP3   OH233433   0.683   0.495  -0.001
11159TIP3    H133434   0.677   0.572   0.055
11159TIP3    H233435   0.598   0.492  -0.047
11160TIP3   OH233436   2.517   4.456   6.442
11160TIP3    H133437   2.475   4.401   6.377
11160TIP3    H233438   2.592   4.404   6.473
11161TIP3   OH233439   2.648   4.872   6.587
11161TIP3    H133440   2.625   4.836   6.502
11161TIP3    H233441   2.735   4.835   6.605
11162TIP3   OH233442   2.652   4.430   6.796
11162TIP3    H133443   2.683   4.403   6.710
11162TIP3    H233444   2.695   4.514   6.812
11163TIP3   OH233445   3.181   5.068   6.574
11163TIP3    H133446   3.166   5.146   6.627
11163TIP3    H233447   3.162   4.995   6.634
11164TIP3   OH233448   8.456   0.979   0.179
11164TIP3    H133449   8.399   1.040   0.226
11164TIP3    H233450   8.395   0.924   0.128
11165TIP3   OH233451   3.123   4.322   5.851
11165TIP3    H133452   3.180   4.380   5.902
11165TIP3    H233453   3.147   4.339   5.760
11166TIP3   OH233454   8.212   0.537   0.284
11166TIP3    H133455   8.218   0.623   0.326
11166TIP3    H233456   8.120   0.512   0.296
11167TIP3   OH233457   2.869   4.998   6.127
11167TIP3    H133458   2.951   5.047   6.135
11167TIP3    H233459   2.810   5.058   6.082
11168TIP3   OH233460   8.250   1.144   0.267
11168TIP3    H133461   8.216   1.147   0.178
11168TIP3    H233462   8.173   1.123   0.321
11169TIP3   OH233463   3.639   3.560   5.901
11169TIP3    H133464   3.558   3.578   5.949
11169TIP3    H233465   3.655   3.639   5.850
11170TIP3   OH233466   2.380   4.302   6.248
11170TIP3    H133467   2.314   4.343   6.193
11170TIP3    H233468   2.351   4.212   6.258
11171TIP3   OH233469   3.443   4.927   5.449
11171TIP3    H133470   3.449   5.021   5.433
11171TIP3    H233471   3.532   4.895   5.437
11172TIP3   OH233472   7.830   0.677   0.213
11172TIP3    H133473   7.764   0.656   0.147
11172TIP3    H233474   7.868   0.592   0.237
11173TIP3   OH233475   2.020   4.881   6.781
11173TIP3    H133476   2.115   4.867   6.773
11173TIP3    H233477   2.012   4.954   6.843
11174TIP3   OH233478   0.152   1.108   0.038
11174TIP3    H133479   0.152   1.199   0.068
11174TIP3    H233480   0.083   1.066   0.089
11175TIP3   OH233481   2.750   5.243   5.929
11175TIP3    H133482   2.705   5.224   5.846
11175TIP3    H233483   2.717   5.329   5.955
11176TIP3   OH233484   2.187   5.089   6.318
11176TIP3    H133485   2.235   5.084   6.401
11176TIP3    H233486   2.140   5.007   6.313
11177TIP3   OH233487   2.951   5.145   5.568
11177TIP3    H133488   3.007   5.077   5.530
11177TIP3    H233489   2.984   5.156   5.657
11178TIP3   OH233490   3.001   5.194   5.839
11178TIP3    H133491   2.914   5.203   5.877
11178TIP3    H233492   3.053   5.152   5.907
11179TIP3   OH233493   0.934   0.450   0.174
11179TIP3    H133494   0.849   0.457   0.130
11179TIP3    H233495   0.955   0.357   0.169
11180TIP3   OH233496   8.033   0.861   0.200
11180TIP3    H133497   8.084   0.846   0.280
11180TIP3    H233498   7.961   0.799   0.206
11181TIP3   OH233499   2.764   3.692   6.929
11181TIP3    H133500   2.680   3.659   6.897
11181TIP3    H233501   2.741   3.771   6.978
11182TIP3   OH233502   6.136   7.812   0.183
11182TIP3    H133503   6.204   7.784   0.244
11182TIP3    H233504   6.054   7.793   0.229
11183TIP3   OH233505   0.706   0.232   0.105
11183TIP3    H133506   0.656   0.225   0.185
11183TIP3    H233507   0.678   0.314   0.065
11184TIP3   OH233508   3.207   4.368   5.600
11184TIP3    H133509   3.164   4.343   5.519
11184TIP3    H233510   3.290   4.408   5.573
11185TIP3   OH233511   2.913   3.734   5.903
11185TIP3    H133512   2.878   3.732   5.992
11185TIP3    H233513   2.874   3.658   5.860
11186TIP3   OH233514   8.365   0.203   0.007
11186TIP3    H133515   8.316   0.219   0.088
11186TIP3    H233516   8.350   0.281  -0.046
11187TIP3   OH233517   2.581   4.093   6.457
11187TIP3    H133518   2.491   4.068   6.479
11187TIP3    H233519   2.596   4.054   6.371
11188TIP3   OH233520   3.074   4.180   6.188
11188TIP3    H133521   3.024   4.250   6.146
11188TIP3    H233522   3.129   4.144   6.118
11189TIP3   OH233523   0.416   0.446   0.334
11189TIP3    H133524   0.390   0.376   0.394
11189TIP3    H233525   0.508   0.462   0.355
11190TIP3   OH233526   3.230   4.204   6.420
11190TIP3    H133527   3.166   4.233   6.355
11190TIP3    H233528   3.269   4.125   6.382
11191TIP3   OH233529   8.185   0.226   0.215
11191TIP3    H133530   8.216   0.288   0.281
11191TIP3    H233531   8.173   0.144   0.263
11192TIP3   OH233532   2.568   3.716   5.864
11192TIP3    H133533   2.560   3.713   5.960
11192TIP3    H233534   2.491   3.766   5.835
11193TIP3   OH233535   2.113   3.757   6.734
11193TIP3    H133536   2.186   3.788   6.788
11193TIP3    H233537   2.154   3.724   6.654
11194TIP3   OH233538   2.077   3.739   6.253
11194TIP3    H133539   2.125   3.770   6.176
11194TIP3    H233540   2.015   3.809   6.273
11195TIP3   OH233541   3.246   4.448   6.848
11195TIP3    H133542   3.277   4.381   6.787
11195TIP3    H233543   3.213   4.398   6.923
11196TIP3   OH233544   2.916   3.917   6.522
11196TIP3    H133545   2.834   3.914   6.573
11196TIP3    H233546   2.985   3.906   6.587
11197TIP3   OH233547   2.344   3.971   6.526
11197TIP3    H133548   2.253   3.979   6.498
11197TIP3    H233549   2.368   3.880   6.505
11198TIP3   OH233550   2.610   3.968   6.217
11198TIP3    H133551   2.702   3.980   6.196
11198TIP3    H233552   2.564   3.988   6.135
11199TIP3   OH233553   3.401   3.991   6.725
11199TIP3    H133554   3.371   4.005   6.815
11199TIP3    H233555   3.337   3.930   6.688
11200TIP3   OH233556   2.459   4.004   5.992
11200TIP3    H133557   2.390   3.956   5.946
11200TIP3    H233558   2.512   4.041   5.921
11201TIP3   OH233559   3.576   5.681   6.942
11201TIP3    H133560   3.570   5.705   6.850
11201TIP3    H233561   3.653   5.727   6.975
11202TIP3   OH233562   8.198   0.786   0.424
11202TIP3    H133563   8.278   0.812   0.470
11202TIP3    H233564   8.132   0.780   0.494
11203TIP3   OH233565   2.993   4.246   6.621
11203TIP3    H133566   3.063   4.204   6.570
11203TIP3    H233567   2.994   4.201   6.706
11204TIP3   OH233568   2.512   3.728   6.501
11204TIP3    H133569   2.476   3.655   6.550
11204TIP3    H233570   2.559   3.687   6.428
11205TIP3   OH233571   2.969   4.148   6.902
11205TIP3    H133572   2.880   4.178   6.920
11205TIP3    H233573   3.024   4.205   6.954
11206TIP3   OH233574   2.701   4.531   6.003
11206TIP3    H133575   2.634   4.464   5.989
11206TIP3    H233576   2.685   4.564   6.091
11207TIP3   OH233577   3.601   4.775   6.635
11207TIP3    H133578   3.621   4.823   6.554
11207TIP3    H233579   3.520   4.727   6.614
11208TIP3   OH233580   3.163   3.840   5.873
11208TIP3    H133581   3.070   3.818   5.879
11208TIP3    H233582   3.168   3.933   5.894
11209TIP3   OH233583   0.287   0.851   0.059
11209TIP3    H133584   0.298   0.818   0.149
11209TIP3    H233585   0.235   0.931   0.069
11210TIP3   OH233586   3.232   4.094   5.973
11210TIP3    H133587   3.327   4.098   5.986
11210TIP3    H233588   3.212   4.171   5.920
11211TIP3   OH233589   2.402   4.556   6.675
11211TIP3    H133590   2.437   4.526   6.591
11211TIP3    H233591   2.441   4.497   6.740
11212TIP3   OH233592   2.851   4.681   5.829
11212TIP3    H133593   2.804   4.765   5.830
11212TIP3    H233594   2.799   4.625   5.886
11213TIP3   OH233595   7.948   0.466   0.353
11213TIP3    H133596   7.967   0.453   0.446
11213TIP3    H233597   7.881   0.400   0.334
11214TIP3   OH233598   0.176   0.583   0.366
11214TIP3    H133599   0.112   0.522   0.329
11214TIP3    H233600   0.261   0.546   0.342
11215TIP3   OH233601   3.267   5.117   6.894
11215TIP3    H133602   3.172   5.105   6.905
11215TIP3    H233603   3.295   5.163   6.972
11216TIP3   OH233604   3.671   4.185   5.801
11216TIP3    H133605   3.612   4.138   5.743
11216TIP3    H233606   3.672   4.275   5.767
11217TIP3   OH233607   3.378   4.999   5.714
11217TIP3    H133608   3.349   4.929   5.773
11217TIP3    H233609   3.390   4.955   5.630
11218TIP3   OH233610   3.374   4.627   6.549
11218TIP3    H133611   3.282   4.607   6.563
11218TIP3    H233612   3.409   4.551   6.504
11219TIP3   OH233613   2.501   4.861   6.304
11219TIP3    H133614   2.499   4.939   6.249
11219TIP3    H233615   2.409   4.836   6.315
11220TIP3   OH233616   2.065   4.162   6.011
11220TIP3    H133617   2.111   4.243   6.031
11220TIP3    H233618   1.989   4.162   6.069
11221TIP3   OH233619   2.632   4.622   6.246
11221TIP3    H133620   2.601   4.710   6.265
11221TIP3    H233621   2.599   4.569   6.319
11222TIP3   OH233622   2.773   5.201   6.771
11222TIP3    H133623   2.813   5.273   6.722
11222TIP3    H233624   2.845   5.161   6.819
11223TIP3   OH233625   2.415   5.101   6.154
11223TIP3    H133626   2.332   5.106   6.202
11223TIP3    H233627   2.450   5.190   6.156
11224TIP3   OH233628   3.156   4.834   6.732
11224TIP3    H133629   3.145   4.836   6.827
11224TIP3    H233630   3.228   4.772   6.717
11225TIP3   OH233631   3.135   4.732   5.617
11225TIP3    H133632   3.188   4.708   5.693
11225TIP3    H233633   3.048   4.698   5.638
11226TIP3   OH233634   3.407   5.363   6.774
11226TIP3    H133635   3.329   5.308   6.776
11226TIP3    H233636   3.389   5.428   6.707
11227TIP3   OH233637   3.470   5.204   5.432
11227TIP3    H133638   3.510   5.273   5.379
11227TIP3    H233639   3.391   5.243   5.468
11228TIP3   OH233640   5.322   7.985   0.357
11228TIP3    H133641   5.226   7.987   0.368
11228TIP3    H233642   5.353   7.931   0.429
11229TIP3   OH233643   3.297   4.665   5.833
11229TIP3    H133644   3.281   4.599   5.900
11229TIP3    H233645   3.391   4.660   5.816
11230TIP3   OH233646   7.875   1.054  -0.009
11230TIP3    H133647   7.927   0.980   0.023
11230TIP3    H233648   7.899   1.127   0.048
11231TIP3   OH233649   2.493   4.707   5.616
11231TIP3    H133650   2.510   4.618   5.586
11231TIP3    H233651   2.474   4.697   5.710
11232TIP3   OH233652   2.440   4.716   5.889
11232TIP3    H133653   2.516   4.684   5.938
11232TIP3    H233654   2.445   4.811   5.896
11233TIP3   OH233655   2.175   4.407   6.091
11233TIP3    H133656   2.109   4.449   6.147
11233TIP3    H233657   2.191   4.472   6.022
11234TIP3   OH233658   0.498   0.035   0.046
11234TIP3    H133659   0.578   0.071   0.084
11234TIP3    H233660   0.481  -0.045   0.096
11235TIP3   OH233661   3.210   3.792   6.151
11235TIP3    H133662   3.195   3.809   6.058
11235TIP3    H233663   3.248   3.873   6.185
11236TIP3   OH233664   2.707   4.911   5.835
11236TIP3    H133665   2.622   4.934   5.872
11236TIP3    H233666   2.725   4.980   5.771
11237TIP3   OH233667   2.896   3.977   6.252
11237TIP3    H133668   2.958   4.047   6.233
11237TIP3    H233669   2.900   3.966   6.347
11238TIP3   OH233670   0.336   0.284   0.114
11238TIP3    H133671   0.357   0.334   0.193
11238TIP3    H233672   0.384   0.202   0.124
11239TIP3   OH233673   3.039   3.698   6.349
11239TIP3    H133674   3.031   3.773   6.408
11239TIP3    H233675   3.100   3.727   6.281
11240TIP3   OH233676   2.454   4.989   5.904
11240TIP3    H133677   2.425   5.056   5.842
11240TIP3    H233678   2.439   5.028   5.990
11241TIP3   OH233679   2.554   3.703   6.141
11241TIP3    H133680   2.548   3.790   6.179
11241TIP3    H233681   2.647   3.680   6.146
11242TIP3   OH233682   0.971   0.184   0.092
11242TIP3    H133683   0.876   0.188   0.108
11242TIP3    H233684   0.980   0.129   0.014
11243TIP3   OH233685   3.457   4.385   6.427
11243TIP3    H133686   3.380   4.329   6.436
11243TIP3    H233687   3.527   4.339   6.473
11244TIP3   OH233688   2.175   4.612   5.890
11244TIP3    H133689   2.245   4.676   5.905
11244TIP3    H233690   2.212   4.550   5.827
11245TIP3   OH233691   2.111   3.892   6.031
11245TIP3    H133692   2.114   3.987   6.029
11245TIP3    H233693   2.037   3.868   5.976
11246TIP3   OH233694   3.429   5.348   6.371
11246TIP3    H133695   3.382   5.392   6.300
11246TIP3    H233696   3.522   5.362   6.350
11247TIP3   OH233697   2.501   3.609   6.899
11247TIP3    H133698   2.472   3.576   6.814
11247TIP3    H233699   2.492   3.535   6.958
11248TIP3   OH233700   2.040   4.833   6.278
11248TIP3    H133701   1.975   4.859   6.344
11248TIP3    H233702   2.008   4.872   6.197
11249TIP3   OH233703   7.869   1.369   0.414
11249TIP3    H133704   7.953   1.372   0.459
11249TIP3    H233705   7.848   1.275   0.410
11250TIP3   OH233706   8.344   1.326   0.455
11250TIP3    H133707   8.437   1.308   0.467
11250TIP3    H233708   8.317   1.266   0.385
11251TIP3   OH233709   2.661   4.905   5.525
11251TIP3    H133710   2.603   4.838   5.562
11251TIP3    H233711   2.738   4.857   5.495
11252TIP3   OH233712   0.489   1.233   0.191
11252TIP3    H133713   0.477   1.167   0.259
11252TIP3    H233714   0.562   1.287   0.222
11253TIP3   OH233715   3.097   4.949   5.439
11253TIP3    H133716   3.133   4.884   5.499
11253TIP3    H233717   3.153   4.944   5.362
11254TIP3   OH233718   7.994   0.771   0.612
11254TIP3    H133719   8.013   0.678   0.622
11254TIP3    H233720   7.909   0.774   0.567
11255TIP3   OH233721   2.309   4.424   5.750
11255TIP3    H133722   2.362   4.392   5.823
11255TIP3    H233723   2.370   4.430   5.677
11256TIP3   OH233724   0.103   0.858   0.387
11256TIP3    H133725   0.060   0.877   0.303
11256TIP3    H233726   0.132   0.767   0.379
11257TIP3   OH233727   2.821   4.630   5.560
11257TIP3    H133728   2.824   4.640   5.655
11257TIP3    H233729   2.823   4.535   5.546
11258TIP3   OH233730   3.431   4.876   6.934
11258TIP3    H133731   3.488   4.936   6.886
11258TIP3    H233732   3.345   4.919   6.933
11259TIP3   OH233733   8.119   0.512   0.597
11259TIP3    H133734   8.188   0.450   0.575
11259TIP3    H233735   8.142   0.542   0.685
11260TIP3   OH233736   2.511   4.332   5.967
11260TIP3    H133737   2.486   4.291   6.050
11260TIP3    H233738   2.551   4.261   5.916
11261TIP3   OH233739   8.449   0.392   0.256
11261TIP3    H133740   8.371   0.448   0.258
11261TIP3    H233741   8.501   0.425   0.183
11262TIP3   OH233742   2.618   4.131   5.807
11262TIP3    H133743   2.592   4.135   5.715
11262TIP3    H233744   2.713   4.129   5.805
11263TIP3   OH233745   0.470   0.791   0.391
11263TIP3    H133746   0.547   0.758   0.345
11263TIP3    H233747   0.457   0.731   0.464
11264TIP3   OH233748   3.434   4.459   5.473
11264TIP3    H133749   3.416   4.410   5.393
11264TIP3    H233750   3.402   4.547   5.457
11265TIP3   OH233751   0.075   0.180   0.378
11265TIP3    H133752   0.074   0.101   0.325
11265TIP3    H233753   0.029   0.245   0.325
11266TIP3   OH233754   5.742   7.982   0.189
11266TIP3    H133755   5.771   8.019   0.106
11266TIP3    H233756   5.651   7.957   0.174
11267TIP3   OH233757   0.099   0.502   0.064
11267TIP3    H133758   0.184   0.509   0.020
11267TIP3    H233759   0.043   0.564   0.018
11268TIP3   OH233760   0.682   0.464   0.442
11268TIP3    H133761   0.725   0.380   0.461
11268TIP3    H233762   0.753   0.520   0.410
11269TIP3   OH233763   0.725   0.723   0.182
11269TIP3    H133764   0.667   0.774   0.125
11269TIP3    H233765   0.813   0.741   0.149
11270TIP3   OH233766   8.451   0.285   0.612
11270TIP3    H133767   8.384   0.220   0.632
11270TIP3    H233768   8.485   0.258   0.526
11271TIP3   OH233769   5.872   7.741   0.258
11271TIP3    H133770   5.824   7.821   0.237
11271TIP3    H233771   5.807   7.671   0.249
11272TIP3   OH233772   0.330   0.230   0.476
11272TIP3    H133773   0.321   0.215   0.570
11272TIP3    H233774   0.244   0.208   0.440
11273TIP3   OH233775   0.572   0.181   0.333
11273TIP3    H133776   0.497   0.182   0.393
11273TIP3    H233777   0.645   0.150   0.386
11274TIP3   OH233778   0.806   0.123   0.478
11274TIP3    H133779   0.817   0.029   0.493
11274TIP3    H233780   0.799   0.161   0.566
11275TIP3   OH233781   8.293   0.065   0.670
11275TIP3    H133782   8.293  -0.025   0.638
11275TIP3    H233783   8.328   0.059   0.759
11276TIP3   OH233784   5.971   7.752   0.514
11276TIP3    H133785   6.035   7.680   0.512
11276TIP3    H233786   5.928   7.748   0.428
11277TIP3   OH233787   6.036   7.970   0.670
11277TIP3    H133788   6.016   7.898   0.610
11277TIP3    H233789   5.957   8.025   0.668
11278TIP3   OH233790   2.427   5.194   5.715
11278TIP3    H133791   2.520   5.179   5.699
11278TIP3    H233792   2.397   5.242   5.638
11279TIP3   OH233793   1.905   4.571   5.927
11279TIP3    H133794   1.997   4.592   5.914
11279TIP3    H233795   1.895   4.483   5.890
11280TIP3   OH233796   1.818   5.180   6.349
11280TIP3    H133797   1.753   5.121   6.309
11280TIP3    H233798   1.863   5.125   6.413
11281TIP3   OH233799   1.952   5.030   6.538
11281TIP3    H133800   1.941   4.957   6.599
11281TIP3    H233801   2.005   5.093   6.586
11282TIP3   OH233802   3.685   5.429   6.329
11282TIP3    H133803   3.703   5.468   6.415
11282TIP3    H233804   3.744   5.475   6.270
11283TIP3   OH233805   3.693   5.459   6.608
11283TIP3    H133806   3.652   5.373   6.607
11283TIP3    H233807   3.773   5.448   6.660
11284TIP3   OH233808   0.925   1.127   0.238
11284TIP3    H133809   0.853   1.130   0.301
11284TIP3    H233810   0.966   1.213   0.244
11285TIP3   OH233811   3.574   4.643   5.808
11285TIP3    H133812   3.638   4.707   5.775
11285TIP3    H233813   3.617   4.605   5.885
11286TIP3   OH233814   3.700   4.511   6.014
11286TIP3    H133815   3.634   4.468   6.068
11286TIP3    H233816   3.763   4.546   6.077
11287TIP3   OH233817   3.768   4.910   6.451
11287TIP3    H133818   3.812   4.837   6.407
11287TIP3    H233819   3.758   4.977   6.383
11288TIP3   OH233820   3.586   5.199   6.647
11288TIP3    H133821   3.518   5.247   6.693
11288TIP3    H233822   3.541   5.156   6.575
11289TIP3   OH233823   3.636   4.421   5.655
11289TIP3    H133824   3.568   4.419   5.587
11289TIP3    H233825   3.609   4.494   5.712
11290TIP3   OH233826   3.508   4.089   5.608
11290TIP3    H133827   3.461   4.127   5.534
11290TIP3    H233828   3.488   3.996   5.603
11291TIP3   OH233829   3.513   4.368   6.158
11291TIP3    H133830   3.519   4.273   6.146
11291TIP3    H233831   3.498   4.379   6.252
11292TIP3   OH233832   2.139   4.443   6.902
11292TIP3    H133833   2.134   4.408   6.813
11292TIP3    H233834   2.233   4.444   6.922
11293TIP3   OH233835   0.972   0.787   0.067
11293TIP3    H133836   1.041   0.721   0.070
11293TIP3    H233837   0.950   0.795  -0.025
11294TIP3   OH233838   1.151   0.585   0.086
11294TIP3    H133839   1.076   0.536   0.122
11294TIP3    H233840   1.226   0.527   0.101
11295TIP3   OH233841   3.452   3.823   5.591
11295TIP3    H133842   3.521   3.791   5.649
11295TIP3    H233843   3.376   3.769   5.612
11296TIP3   OH233844   3.515   4.084   6.048
11296TIP3    H133845   3.550   3.997   6.065
11296TIP3    H233846   3.569   4.118   5.976
11297TIP3   OH233847   3.672   4.257   6.547
11297TIP3    H133848   3.754   4.279   6.503
11297TIP3    H233849   3.683   4.290   6.636
11298TIP3   OH233850   3.742   4.404   6.775
11298TIP3    H133851   3.666   4.433   6.825
11298TIP3    H233852   3.775   4.483   6.732
11299TIP3   OH233853   8.029   0.121   0.642
11299TIP3    H133854   8.124   0.117   0.644
11299TIP3    H233855   8.000   0.036   0.675
11300TIP3   OH233856   7.027   8.003   0.389
11300TIP3    H133857   7.087   7.938   0.352
11300TIP3    H233858   6.996   8.054   0.314
11301TIP3   OH233859   3.618   3.833   6.090
11301TIP3    H133860   3.667   3.819   6.172
11301TIP3    H233861   3.557   3.760   6.086
11302TIP3   OH233862   2.320   3.820   6.909
11302TIP3    H133863   2.377   3.743   6.918
11302TIP3    H233864   2.381   3.894   6.900
11303TIP3   OH233865   7.785   0.087   0.037
11303TIP3    H133866   7.834   0.081  -0.045
11303TIP3    H233867   7.819   0.165   0.080
11304TIP3   OH233868   1.225   0.123   0.193
11304TIP3    H133869   1.143   0.167   0.216
11304TIP3    H233870   1.198   0.049   0.138
11305TIP3   OH233871   3.699   3.765   5.723
11305TIP3    H133872   3.734   3.695   5.668
11305TIP3    H233873   3.764   3.835   5.719
11306TIP3   OH233874   2.105   3.597   6.483
11306TIP3    H133875   2.014   3.590   6.511
11306TIP3    H233876   2.101   3.654   6.406
11307TIP3   OH233877   3.266   5.304   5.988
11307TIP3    H133878   3.312   5.289   5.906
11307TIP3    H233879   3.319   5.368   6.034
11308TIP3   OH233880   5.159   7.688   0.353
11308TIP3    H133881   5.111   7.677   0.435
11308TIP3    H233882   5.094   7.721   0.291
11309TIP3   OH233883   8.029   1.103   0.432
11309TIP3    H133884   7.939   1.074   0.416
11309TIP3    H233885   8.046   1.077   0.523
11310TIP3   OH233886   2.545   5.143   6.918
11310TIP3    H133887   2.495   5.216   6.882
11310TIP3    H233888   2.631   5.151   6.877
11311TIP3   OH233889   0.153   1.375   0.118
11311TIP3    H133890   0.191   1.371   0.206
11311TIP3    H233891   0.215   1.427   0.067
11312TIP3   OH233892   3.165   5.538   6.921
11312TIP3    H133893   3.232   5.485   6.877
11312TIP3    H233894   3.214   5.593   6.982
11313TIP3   OH233895   6.794   7.896   0.077
11313TIP3    H133896   6.704   7.887   0.044
11313TIP3    H233897   6.831   7.808   0.070
11314TIP3   OH233898   7.883   1.390   0.005
11314TIP3    H133899   7.795   1.420  -0.018
11314TIP3    H233900   7.900   1.430   0.090
11315TIP3   OH233901   2.454   5.376   6.804
11315TIP3    H133902   2.369   5.386   6.848
11315TIP3    H233903   2.438   5.405   6.715
11316TIP3   OH233904   2.880   5.401   6.602
11316TIP3    H133905   2.811   5.416   6.537
11316TIP3    H233906   2.892   5.486   6.644
11317TIP3   OH233907   3.149   5.341   6.654
11317TIP3    H133908   3.056   5.356   6.635
11317TIP3    H233909   3.195   5.413   6.610
11318TIP3   OH233910   3.355   5.531   6.564
11318TIP3    H133911   3.342   5.615   6.519
11318TIP3    H233912   3.382   5.471   6.495
11319TIP3   OH233913   2.133   5.185   6.691
11319TIP3    H133914   2.155   5.159   6.781
11319TIP3    H233915   2.201   5.144   6.637
11320TIP3   OH233916   2.328   5.059   6.550
11320TIP3    H133917   2.339   4.977   6.597
11320TIP3    H233918   2.416   5.095   6.544
11321TIP3   OH233919   2.596   5.150   6.555
11321TIP3    H133920   2.621   5.059   6.540
11321TIP3    H233921   2.640   5.175   6.636
11322TIP3   OH233922   3.166   3.807   6.639
11322TIP3    H133923   3.123   3.738   6.690
11322TIP3    H233924   3.238   3.763   6.595
11323TIP3   OH233925   3.685   3.695   6.542
11323TIP3    H133926   3.722   3.742   6.467
11323TIP3    H233927   3.591   3.708   6.534
11324TIP3   OH233928   3.785   3.790   6.305
11324TIP3    H133929   3.855   3.736   6.268
11324TIP3    H233930   3.815   3.880   6.292
11325TIP3   OH233931   2.413   3.514   6.651
11325TIP3    H133932   2.321   3.486   6.656
11325TIP3    H233933   2.463   3.432   6.648
11326TIP3   OH233934   2.201   3.391   6.302
11326TIP3    H133935   2.232   3.444   6.229
11326TIP3    H233936   2.177   3.455   6.370
11327TIP3   OH233937   2.861   3.551   6.535
11327TIP3    H133938   2.916   3.595   6.471
11327TIP3    H233939   2.888   3.588   6.619
11328TIP3   OH233940   3.403   3.696   6.516
11328TIP3    H133941   3.404   3.657   6.429
11328TIP3    H233942   3.392   3.621   6.575
11329TIP3   OH233943   3.433   3.621   6.082
11329TIP3    H133944   3.349   3.665   6.095
11329TIP3    H233945   3.423   3.536   6.125
11330TIP3   OH233946   1.916   4.964   6.077
11330TIP3    H133947   1.833   4.926   6.045
11330TIP3    H233948   1.909   5.057   6.058
11331TIP3   OH233949   2.323   3.546   6.063
11331TIP3    H133950   2.367   3.482   6.006
11331TIP3    H233951   2.394   3.599   6.098
11332TIP3   OH233952   2.830   3.726   6.166
11332TIP3    H133953   2.887   3.674   6.222
11332TIP3    H233954   2.851   3.817   6.188
11333TIP3   OH233955   2.692   5.143   5.659
11333TIP3    H133956   2.779   5.168   5.628
11333TIP3    H233957   2.667   5.069   5.603
11334TIP3   OH233958   3.409   5.265   5.755
11334TIP3    H133959   3.404   5.170   5.748
11334TIP3    H233960   3.364   5.297   5.677
11335TIP3   OH233961   5.457   7.806   0.607
11335TIP3    H133962   5.417   7.735   0.658
11335TIP3    H233963   5.549   7.806   0.634
11336TIP3   OH233964   5.707   7.799   0.727
11336TIP3    H133965   5.790   7.772   0.688
11336TIP3    H233966   5.690   7.735   0.796
11337TIP3   OH233967   1.998   4.984   5.718
11337TIP3    H133968   1.999   4.997   5.813
11337TIP3    H233969   2.081   4.941   5.698
11338TIP3   OH233970   6.534   7.866   0.510
11338TIP3    H133971   6.547   7.836   0.600
11338TIP3    H233972   6.621   7.860   0.470
11339TIP3   OH233973   3.637   5.414   6.935
11339TIP3    H133974   3.561   5.380   6.889
11339TIP3    H233975   3.617   5.507   6.949
11340TIP3   OH233976   4.900   4.785   5.705
11340TIP3    H133977   4.873   4.875   5.686
11340TIP3    H233978   4.829   4.730   5.673
11341TIP3   OH233979   4.901   4.783   6.095
11341TIP3    H133980   4.937   4.759   6.181
11341TIP3    H233981   4.862   4.703   6.062
11342TIP3   OH233982   4.200   4.677   6.462
11342TIP3    H133983   4.227   4.608   6.522
11342TIP3    H233984   4.282   4.720   6.436
11343TIP3   OH233985   5.148   5.087   5.775
11343TIP3    H133986   5.130   5.019   5.839
11343TIP3    H233987   5.178   5.162   5.828
11344TIP3   OH233988   4.177   5.087   6.184
11344TIP3    H133989   4.165   4.993   6.182
11344TIP3    H233990   4.271   5.100   6.169
11345TIP3   OH233991   3.877   4.290   5.960
11345TIP3    H133992   3.830   4.372   5.979
11345TIP3    H233993   3.811   4.234   5.919
11346TIP3   OH233994   3.939   4.576   6.143
11346TIP3    H133995   3.985   4.499   6.175
11346TIP3    H233996   3.992   4.608   6.070
11347TIP3   OH233997   4.799   5.545   5.791
11347TIP3    H133998   4.838   5.477   5.736
11347TIP3    H233999   4.792   5.506   5.878
11348TIP3   OH234000   4.702   5.009   6.140
11348TIP3    H134001   4.737   4.932   6.096
11348TIP3    H234002   4.779   5.059   6.166
11349TIP3   OH234003   5.716   4.331   6.136
11349TIP3    H134004   5.746   4.411   6.178
11349TIP3    H234005   5.737   4.343   6.043
11350TIP3   OH234006   5.113   4.507   6.167
11350TIP3    H134007   5.155   4.425   6.190
11350TIP3    H234008   5.080   4.492   6.078
11351TIP3   OH234009   4.452   4.169   6.131
11351TIP3    H134010   4.434   4.242   6.071
11351TIP3    H234011   4.407   4.094   6.092
11352TIP3   OH234012   5.150   4.263   5.755
11352TIP3    H134013   5.216   4.246   5.822
11352TIP3    H234014   5.199   4.296   5.680
11353TIP3   OH234015   4.087   4.368   6.241
11353TIP3    H134016   4.167   4.351   6.290
11353TIP3    H234017   4.096   4.316   6.162
11354TIP3   OH234018   4.523   4.566   6.044
11354TIP3    H134019   4.616   4.546   6.052
11354TIP3    H234020   4.484   4.486   6.008
11355TIP3   OH234021   5.788   4.540   6.306
11355TIP3    H134022   5.705   4.582   6.284
11355TIP3    H234023   5.804   4.565   6.397
11356TIP3   OH234024   4.446   4.155   6.570
11356TIP3    H134025   4.388   4.189   6.501
11356TIP3    H234026   4.396   4.168   6.651
11357TIP3   OH234027   4.787   5.005   5.576
11357TIP3    H134028   4.751   4.989   5.490
11357TIP3    H234029   4.745   5.085   5.606
11358TIP3   OH234030   4.553   4.931   6.361
11358TIP3    H134031   4.496   4.998   6.398
11358TIP3    H234032   4.597   4.975   6.288
11359TIP3   OH234033   5.353   4.268   5.933
11359TIP3    H134034   5.339   4.219   6.014
11359TIP3    H234035   5.403   4.344   5.960
11360TIP3   OH234036   4.323   4.268   6.351
11360TIP3    H134037   4.382   4.338   6.378
11360TIP3    H234038   4.367   4.226   6.277
11361TIP3   OH234039   4.382   5.129   6.464
11361TIP3    H134040   4.358   5.212   6.421
11361TIP3    H234041   4.306   5.109   6.519
11362TIP3   OH234042   3.773   4.816   5.696
11362TIP3    H134043   3.733   4.840   5.613
11362TIP3    H234044   3.805   4.898   5.732
11363TIP3   OH234045   5.212   5.332   5.937
11363TIP3    H134046   5.125   5.321   5.976
11363TIP3    H234047   5.206   5.417   5.892
11364TIP3   OH234048   5.508   4.230   6.302
11364TIP3    H134049   5.421   4.254   6.270
11364TIP3    H234050   5.568   4.261   6.234
11365TIP3   OH234051   4.797   3.867   6.286
11365TIP3    H134052   4.786   3.773   6.303
11365TIP3    H234053   4.724   3.909   6.331
11366TIP3   OH234054   4.916   5.373   5.607
11366TIP3    H134055   4.960   5.290   5.591
11366TIP3    H234056   4.975   5.439   5.570
11367TIP3   OH234057   5.058   5.157   5.524
11367TIP3    H134058   5.023   5.079   5.483
11367TIP3    H234059   5.096   5.126   5.606
11368TIP3   OH234060   5.439   5.239   6.281
11368TIP3    H134061   5.428   5.162   6.224
11368TIP3    H234062   5.422   5.314   6.224
11369TIP3   OH234063   4.733   4.637   5.540
11369TIP3    H134064   4.654   4.688   5.521
11369TIP3    H234065   4.778   4.631   5.456
11370TIP3   OH234066   4.693   4.422   5.253
11370TIP3    H134067   4.757   4.475   5.301
11370TIP3    H234068   4.747   4.358   5.206
11371TIP3   OH234069   5.635   4.884   6.128
11371TIP3    H134070   5.551   4.930   6.134
11371TIP3    H234071   5.667   4.904   6.040
11372TIP3   OH234072   5.082   4.719   5.512
11372TIP3    H134073   5.026   4.741   5.586
11372TIP3    H234074   5.166   4.694   5.552
11373TIP3   OH234075   5.312   4.757   6.427
11373TIP3    H134076   5.312   4.837   6.478
11373TIP3    H234077   5.229   4.758   6.381
11374TIP3   OH234078   4.313   4.713   5.930
11374TIP3    H134079   4.270   4.658   5.864
11374TIP3    H234080   4.387   4.661   5.961
11375TIP3   OH234081   4.440   5.122   6.077
11375TIP3    H134082   4.420   5.091   5.988
11375TIP3    H234083   4.527   5.088   6.096
11376TIP3   OH234084   4.441   4.689   6.285
11376TIP3    H134085   4.474   4.659   6.200
11376TIP3    H234086   4.488   4.770   6.301
11377TIP3   OH234087   4.973   5.324   6.060
11377TIP3    H134088   4.961   5.404   6.112
11377TIP3    H234089   4.957   5.253   6.122
11378TIP3   OH234090   4.588   5.243   6.606
11378TIP3    H134091   4.531   5.304   6.653
11378TIP3    H234092   4.528   5.189   6.555
11379TIP3   OH234093   4.920   4.579   5.336
11379TIP3    H134094   4.976   4.637   5.387
11379TIP3    H234095   4.944   4.596   5.245
11380TIP3   OH234096   4.343   4.800   6.710
11380TIP3    H134097   4.347   4.883   6.758
11380TIP3    H234098   4.252   4.772   6.720
11381TIP3   OH234099   4.665   5.255   5.615
11381TIP3    H134100   4.747   5.303   5.622
11381TIP3    H234101   4.606   5.315   5.569
11382TIP3   OH234102   4.379   5.404   6.690
11382TIP3    H134103   4.350   5.413   6.599
11382TIP3    H234104   4.305   5.363   6.735
11383TIP3   OH234105   5.435   3.816   5.388
11383TIP3    H134106   5.354   3.835   5.436
11383TIP3    H234107   5.452   3.896   5.337
11384TIP3   OH234108   4.176   4.559   5.735
11384TIP3    H134109   4.110   4.601   5.680
11384TIP3    H234110   4.146   4.469   5.744
11385TIP3   OH234111   5.238   5.183   4.934
11385TIP3    H134112   5.244   5.278   4.920
11385TIP3    H234113   5.328   5.152   4.923
11386TIP3   OH234114   3.952   4.945   6.656
11386TIP3    H134115   3.904   4.915   6.579
11386TIP3    H234116   3.997   4.867   6.687
11387TIP3   OH234117   3.815   5.135   6.277
11387TIP3    H134118   3.908   5.127   6.259
11387TIP3    H234119   3.806   5.219   6.323
11388TIP3   OH234120   5.678   5.587   6.334
11388TIP3    H134121   5.679   5.493   6.347
11388TIP3    H234122   5.597   5.616   6.376
11389TIP3   OH234123   4.783   5.374   6.465
11389TIP3    H134124   4.782   5.464   6.495
11389TIP3    H234125   4.716   5.330   6.517
11390TIP3   OH234126   4.547   5.499   5.416
11390TIP3    H134127   4.502   5.481   5.334
11390TIP3    H234128   4.514   5.585   5.443
11391TIP3   OH234129   3.983   5.346   5.805
11391TIP3    H134130   4.031   5.340   5.887
11391TIP3    H234131   3.934   5.265   5.799
11392TIP3   OH234132   4.748   5.401   5.055
11392TIP3    H134133   4.804   5.333   5.018
11392TIP3    H234134   4.780   5.413   5.144
11393TIP3   OH234135   4.797   5.450   5.325
11393TIP3    H134136   4.710   5.459   5.365
11393TIP3    H234137   4.851   5.413   5.395
11394TIP3   OH234138   5.566   4.714   6.604
11394TIP3    H134139   5.484   4.727   6.556
11394TIP3    H234140   5.585   4.621   6.596
11395TIP3   OH234141   4.166   5.123   6.633
11395TIP3    H134142   4.213   5.116   6.716
11395TIP3    H234143   4.110   5.046   6.632
11396TIP3   OH234144   4.560   3.948   6.415
11396TIP3    H134145   4.476   3.915   6.384
11396TIP3    H234146   4.538   4.027   6.464
11397TIP3   OH234147   5.099   4.062   6.611
11397TIP3    H134148   5.168   4.034   6.671
11397TIP3    H234149   5.017   4.042   6.656
11398TIP3   OH234150   5.334   4.493   6.528
11398TIP3    H134151   5.284   4.489   6.610
11398TIP3    H234152   5.312   4.578   6.491
11399TIP3   OH234153   4.999   4.620   5.082
11399TIP3    H134154   4.959   4.597   4.998
11399TIP3    H234155   5.082   4.663   5.058
11400TIP3   OH234156   4.706   3.993   5.387
11400TIP3    H134157   4.673   3.992   5.477
11400TIP3    H234158   4.670   3.914   5.347
11401TIP3   OH234159   4.495   4.467   6.434
11401TIP3    H134160   4.447   4.485   6.515
11401TIP3    H234161   4.480   4.545   6.380
11402TIP3   OH234162   4.377   4.349   5.945
11402TIP3    H134163   4.287   4.325   5.966
11402TIP3    H234164   4.392   4.311   5.858
11403TIP3   OH234165   4.870   4.436   5.674
11403TIP3    H134166   4.820   4.506   5.632
11403TIP3    H234167   4.925   4.400   5.604
11404TIP3   OH234168   5.046   4.709   6.761
11404TIP3    H134169   5.022   4.638   6.820
11404TIP3    H234170   5.139   4.726   6.780
11405TIP3   OH234171   5.024   4.459   5.908
11405TIP3    H134172   4.962   4.490   5.842
11405TIP3    H234173   5.064   4.381   5.869
11406TIP3   OH234174   4.313   4.491   6.643
11406TIP3    H134175   4.356   4.548   6.707
11406TIP3    H234176   4.301   4.408   6.689
11407TIP3   OH234177   4.364   3.973   5.351
11407TIP3    H134178   4.356   3.968   5.447
11407TIP3    H234179   4.288   4.023   5.323
11408TIP3   OH234180   3.909   4.013   6.223
11408TIP3    H134181   3.984   4.043   6.274
11408TIP3    H234182   3.946   3.981   6.141
11409TIP3   OH234183   3.874   3.996   5.740
11409TIP3    H134184   3.922   4.027   5.663
11409TIP3    H234185   3.812   4.066   5.760
11410TIP3   OH234186   5.036   4.704   6.333
11410TIP3    H134187   5.070   4.638   6.273
11410TIP3    H234188   5.006   4.654   6.409
11411TIP3   OH234189   4.712   4.173   6.009
11411TIP3    H134190   4.631   4.170   6.060
11411TIP3    H234191   4.782   4.164   6.073
11412TIP3   OH234192   4.140   4.227   6.013
11412TIP3    H134193   4.048   4.235   5.985
11412TIP3    H234194   4.164   4.137   5.992
11413TIP3   OH234195   4.406   4.224   5.704
11413TIP3    H134196   4.499   4.236   5.683
11413TIP3    H234197   4.360   4.244   5.622
11414TIP3   OH234198   5.197   4.247   6.213
11414TIP3    H134199   5.167   4.262   6.302
11414TIP3    H234200   5.133   4.187   6.175
11415TIP3   OH234201   4.255   4.260   5.478
11415TIP3    H134202   4.184   4.213   5.434
11415TIP3    H234203   4.308   4.296   5.407
11416TIP3   OH234204   5.374   5.938   6.428
11416TIP3    H134205   5.369   5.963   6.336
11416TIP3    H234206   5.449   5.987   6.462
11417TIP3   OH234207   4.320   5.038   6.861
11417TIP3    H134208   4.400   5.080   6.894
11417TIP3    H234209   4.287   4.988   6.935
11418TIP3   OH234210   4.789   4.501   6.106
11418TIP3    H134211   4.860   4.463   6.055
11418TIP3    H234212   4.794   4.457   6.190
11419TIP3   OH234213   4.309   3.985   5.987
11419TIP3    H134214   4.273   3.911   6.037
11419TIP3    H234215   4.354   3.944   5.913
11420TIP3   OH234216   4.766   4.401   6.393
11420TIP3    H134217   4.677   4.435   6.408
11420TIP3    H234218   4.822   4.460   6.442
11421TIP3   OH234219   4.499   4.787   5.490
11421TIP3    H134220   4.431   4.721   5.476
11421TIP3    H234221   4.482   4.821   5.578
11422TIP3   OH234222   5.400   5.023   6.113
11422TIP3    H134223   5.424   5.074   6.036
11422TIP3    H234224   5.318   4.980   6.089
11423TIP3   OH234225   4.959   4.096   5.359
11423TIP3    H134226   4.865   4.076   5.365
11423TIP3    H234227   4.965   4.189   5.381
11424TIP3   OH234228   4.897   5.104   6.488
11424TIP3    H134229   4.937   5.089   6.574
11424TIP3    H234230   4.865   5.194   6.493
11425TIP3   OH234231   5.029   4.350   5.458
11425TIP3    H134232   5.123   4.354   5.473
11425TIP3    H234233   5.009   4.428   5.407
11426TIP3   OH234234   4.198   4.813   6.161
11426TIP3    H134235   4.230   4.786   6.075
11426TIP3    H234236   4.242   4.754   6.223
11427TIP3   OH234237   4.646   4.938   5.313
11427TIP3    H134238   4.600   5.022   5.314
11427TIP3    H234239   4.595   4.882   5.372
11428TIP3   OH234240   4.074   4.740   6.785
11428TIP3    H134241   4.105   4.727   6.874
11428TIP3    H234242   4.018   4.664   6.767
11429TIP3   OH234243   4.806   4.844   6.795
11429TIP3    H134244   4.745   4.787   6.750
11429TIP3    H234245   4.892   4.811   6.771
11430TIP3   OH234246   5.059   5.363   6.387
11430TIP3    H134247   4.964   5.364   6.396
11430TIP3    H234248   5.090   5.415   6.461
11431TIP3   OH234249   5.467   4.442   5.288
11431TIP3    H134250   5.408   4.395   5.228
11431TIP3    H234251   5.468   4.532   5.254
11432TIP3   OH234252   5.689   5.296   6.369
11432TIP3    H134253   5.594   5.292   6.364
11432TIP3    H234254   5.718   5.267   6.282
11433TIP3   OH234255   5.174   5.255   5.200
11433TIP3    H134256   5.145   5.187   5.261
11433TIP3    H234257   5.185   5.210   5.117
11434TIP3   OH234258   5.166   4.885   6.032
11434TIP3    H134259   5.074   4.864   6.048
11434TIP3    H234260   5.201   4.807   5.989
11435TIP3   OH234261   4.297   5.119   5.794
11435TIP3    H134262   4.298   5.197   5.738
11435TIP3    H234263   4.205   5.093   5.798
11436TIP3   OH234264   3.859   4.419   5.495
11436TIP3    H134265   3.906   4.500   5.515
11436TIP3    H234266   3.784   4.419   5.554
11437TIP3   OH234267   4.427   4.879   5.733
11437TIP3    H134268   4.398   4.968   5.753
11437TIP3    H234269   4.395   4.826   5.806
11438TIP3   OH234270   4.568   5.457   6.259
11438TIP3    H134271   4.607   5.529   6.209
11438TIP3    H234272   4.642   5.418   6.306
11439TIP3   OH234273   4.213   5.356   5.643
11439TIP3    H134274   4.129   5.363   5.688
11439TIP3    H234275   4.249   5.445   5.644
11440TIP3   OH234276   4.951   5.090   6.221
11440TIP3    H134277   4.938   5.089   6.316
11440TIP3    H234278   5.030   5.039   6.206
11441TIP3   OH234279   4.930   4.987   5.105
11441TIP3    H134280   4.984   4.963   5.180
11441TIP3    H234281   4.842   4.957   5.128
11442TIP3   OH234282   5.199   5.623   6.264
11442TIP3    H134283   5.121   5.568   6.260
11442TIP3    H234284   5.187   5.688   6.195
11443TIP3   OH234285   5.267   5.461   4.920
11443TIP3    H134286   5.307   5.532   4.869
11443TIP3    H234287   5.186   5.499   4.955
11444TIP3   OH234288   4.283   4.236   6.783
11444TIP3    H134289   4.188   4.239   6.793
11444TIP3    H234290   4.313   4.179   6.854
11445TIP3   OH234291   5.094   4.918   5.318
11445TIP3    H134292   5.078   4.853   5.387
11445TIP3    H234293   5.188   4.915   5.303
11446TIP3   OH234294   4.004   5.323   6.422
11446TIP3    H134295   4.065   5.253   6.444
11446TIP3    H234296   4.045   5.402   6.456
11447TIP3   OH234297   4.292   4.963   5.102
11447TIP3    H134298   4.306   4.872   5.074
11447TIP3    H234299   4.271   4.955   5.196
11448TIP3   OH234300   4.237   4.972   5.375
11448TIP3    H134301   4.313   4.942   5.425
11448TIP3    H234302   4.240   5.067   5.380
11449TIP3   OH234303   3.971   4.664   5.577
11449TIP3    H134304   3.905   4.705   5.634
11449TIP3    H234305   3.986   4.729   5.508
11450TIP3   OH234306   5.126   4.300   6.473
11450TIP3    H134307   5.207   4.337   6.507
11450TIP3    H234308   5.113   4.220   6.524
11451TIP3   OH234309   5.006   4.049   5.638
11451TIP3    H134310   4.992   4.066   5.545
11451TIP3    H234311   5.045   4.130   5.672
11452TIP3   OH234312   4.503   5.168   5.321
11452TIP3    H134313   4.418   5.190   5.359
11452TIP3    H234314   4.522   5.240   5.261
11453TIP3   OH234315   4.692   4.234   5.739
11453TIP3    H134316   4.754   4.304   5.719
11453TIP3    H234317   4.696   4.224   5.834
11454TIP3   OH234318   4.964   4.546   6.542
11454TIP3    H134319   4.988   4.597   6.620
11454TIP3    H234320   5.015   4.466   6.549
11455TIP3   OH234321   4.835   3.955   5.836
11455TIP3    H134322   4.827   4.030   5.894
11455TIP3    H234323   4.896   3.984   5.768
11456TIP3   OH234324   4.250   5.245   5.392
11456TIP3    H134325   4.221   5.311   5.329
11456TIP3    H234326   4.235   5.285   5.477
11457TIP3   OH234327   4.351   3.960   5.628
11457TIP3    H134328   4.345   4.047   5.666
11457TIP3    H234329   4.444   3.937   5.633
11458TIP3   OH234330   5.600   4.448   6.523
11458TIP3    H134331   5.504   4.450   6.534
11458TIP3    H234332   5.613   4.400   6.441
11459TIP3   OH234333   5.253   4.641   5.913
11459TIP3    H134334   5.177   4.584   5.924
11459TIP3    H234335   5.324   4.596   5.959
11460TIP3   OH234336   3.971   4.868   5.378
11460TIP3    H134337   4.039   4.935   5.391
11460TIP3    H234338   4.009   4.808   5.314
11461TIP3   OH234339   3.907   4.149   5.517
11461TIP3    H134340   3.910   4.244   5.513
11461TIP3    H234341   3.831   4.124   5.465
11462TIP3   OH234342   5.224   5.603   5.856
11462TIP3    H134343   5.179   5.646   5.784
11462TIP3    H234344   5.317   5.618   5.839
11463TIP3   OH234345   4.297   3.866   6.386
11463TIP3    H134346   4.268   3.834   6.301
11463TIP3    H234347   4.288   3.791   6.445
11464TIP3   OH234348   3.834   5.089   5.765
11464TIP3    H134349   3.767   5.115   5.828
11464TIP3    H234350   3.805   5.128   5.682
11465TIP3   OH234351   4.002   5.638   6.845
11465TIP3    H134352   4.086   5.650   6.889
11465TIP3    H234353   3.955   5.576   6.902
11466TIP3   OH234354   4.467   5.590   6.885
11466TIP3    H134355   4.562   5.585   6.900
11466TIP3    H234356   4.450   5.529   6.813
11467TIP3   OH234357   4.456   5.164   5.011
11467TIP3    H134358   4.400   5.096   5.049
11467TIP3    H234359   4.532   5.117   4.978
11468TIP3   OH234360   5.114   5.499   6.621
11468TIP3    H134361   5.106   5.431   6.688
11468TIP3    H234362   5.190   5.550   6.648
11469TIP3   OH234363   4.893   5.205   4.925
11469TIP3    H134364   4.932   5.142   4.986
11469TIP3    H234365   4.949   5.202   4.848
11470TIP3   OH234366   4.106   4.681   5.236
11470TIP3    H134367   4.159   4.651   5.310
11470TIP3    H234368   4.168   4.687   5.163
11471TIP3   OH234369   4.729   5.119   6.815
11471TIP3    H134370   4.695   5.142   6.728
11471TIP3    H234371   4.763   5.030   6.805
11472TIP3   OH234372   4.618   4.883   5.045
11472TIP3    H134373   4.619   4.897   5.140
11472TIP3    H234374   4.619   4.788   5.034
11473TIP3   OH234375   5.223   5.136   6.421
11473TIP3    H134376   5.301   5.173   6.380
11473TIP3    H234377   5.155   5.202   6.406
11474TIP3   OH234378   1.427   0.757   0.070
11474TIP3    H134379   1.503   0.699   0.068
11474TIP3    H234380   1.429   0.796   0.157
11475TIP3   OH234381   4.308   4.588   5.454
11475TIP3    H134382   4.282   4.548   5.537
11475TIP3    H234383   4.347   4.517   5.403
11476TIP3   OH234384   4.576   4.652   6.681
11476TIP3    H134385   4.501   4.712   6.683
11476TIP3    H234386   4.630   4.684   6.609
11477TIP3   OH234387   4.414   4.387   5.293
11477TIP3    H134388   4.387   4.392   5.201
11477TIP3    H234389   4.509   4.386   5.290
11478TIP3   OH234390   5.097   5.054   6.818
11478TIP3    H134391   5.175   5.027   6.769
11478TIP3    H234392   5.090   4.992   6.890
11479TIP3   OH234393   5.229   4.714   4.960
11479TIP3    H134394   5.211   4.667   4.879
11479TIP3    H234395   5.197   4.803   4.944
11480TIP3   OH234396   4.702   4.444   6.807
11480TIP3    H134397   4.704   4.364   6.753
11480TIP3    H234398   4.659   4.509   6.752
11481TIP3   OH234399   4.705   4.231   6.618
11481TIP3    H134400   4.735   4.270   6.536
11481TIP3    H234401   4.614   4.207   6.601
11482TIP3   OH234402   4.728   4.764   6.491
11482TIP3    H134403   4.815   4.775   6.452
11482TIP3    H234404   4.674   4.828   6.446
11483TIP3   OH234405   5.313   4.729   6.869
11483TIP3    H134406   5.359   4.646   6.881
11483TIP3    H234407   5.379   4.789   6.835
11484TIP3   OH234408   5.354   4.987   6.604
11484TIP3    H134409   5.295   5.039   6.549
11484TIP3    H234410   5.441   5.005   6.569
11485TIP3   OH234411   1.745   0.542   0.100
11485TIP3    H134412   1.681   0.473   0.119
11485TIP3    H234413   1.781   0.519   0.015
11486TIP3   OH234414   4.835   3.991   6.687
11486TIP3    H134415   4.788   4.072   6.665
11486TIP3    H234416   4.770   3.922   6.676
11487TIP3   OH234417   4.961   4.492   6.904
11487TIP3    H134418   4.951   4.479   6.998
11487TIP3    H234419   4.875   4.470   6.867
11488TIP3   OH234420   5.202   4.445   6.759
11488TIP3    H134421   5.128   4.446   6.820
11488TIP3    H234422   5.277   4.416   6.812
11489TIP3   OH234423   2.598   0.379  -0.034
11489TIP3    H134424   2.612   0.286  -0.020
11489TIP3    H234425   2.595   0.416   0.055
11490TIP3   OH234426   1.589   0.321   0.158
11490TIP3    H134427   1.589   0.232   0.123
11490TIP3    H234428   1.625   0.312   0.246
11491TIP3   OH234429   4.931   3.999   6.944
11491TIP3    H134430   4.996   3.930   6.940
11491TIP3    H234431   4.890   3.998   6.857
11492TIP3   OH234432   2.163   0.209   0.162
11492TIP3    H134433   2.144   0.138   0.101
11492TIP3    H234434   2.087   0.266   0.157
11493TIP3   OH234435   4.223   5.447   5.201
11493TIP3    H134436   4.316   5.436   5.186
11493TIP3    H234437   4.191   5.497   5.126
11494TIP3   OH234438   3.701   4.827   5.417
11494TIP3    H134439   3.793   4.848   5.403
11494TIP3    H234440   3.690   4.740   5.378
11495TIP3   OH234441   3.613   5.437   5.834
11495TIP3    H134442   3.549   5.379   5.793
11495TIP3    H234443   3.659   5.381   5.897
11496TIP3   OH234444   3.749   5.287   6.021
11496TIP3    H134445   3.733   5.215   6.082
11496TIP3    H234446   3.802   5.349   6.070
11497TIP3   OH234447   5.480   5.687   5.821
11497TIP3    H134448   5.501   5.720   5.908
11497TIP3    H234449   5.540   5.734   5.762
11498TIP3   OH234450   5.503   5.706   6.103
11498TIP3    H134451   5.460   5.621   6.098
11498TIP3    H234452   5.580   5.691   6.158
11499TIP3   OH234453   5.552   5.388   6.677
11499TIP3    H134454   5.480   5.395   6.740
11499TIP3    H234455   5.594   5.473   6.678
11500TIP3   OH234456   5.371   4.899   5.295
11500TIP3    H134457   5.434   4.964   5.263
11500TIP3    H234458   5.413   4.862   5.372
11501TIP3   OH234459   5.497   4.766   5.501
11501TIP3    H134460   5.430   4.725   5.555
11501TIP3    H234461   5.559   4.804   5.563
11502TIP3   OH234462   5.554   5.162   5.929
11502TIP3    H134463   5.604   5.094   5.884
11502TIP3    H234464   5.550   5.234   5.866
11503TIP3   OH234465   5.378   5.459   6.124
11503TIP3    H134466   5.309   5.502   6.174
11503TIP3    H234467   5.331   5.414   6.053
11504TIP3   OH234468   5.432   4.678   5.142
11504TIP3    H134469   5.363   4.675   5.075
11504TIP3    H234470   5.406   4.750   5.199
11505TIP3   OH234471   5.304   4.346   5.094
11505TIP3    H134472   5.256   4.382   5.019
11505TIP3    H234473   5.284   4.253   5.092
11506TIP3   OH234474   5.309   4.625   5.644
11506TIP3    H134475   5.315   4.530   5.634
11506TIP3    H234476   5.294   4.637   5.738
11507TIP3   OH234477   3.936   4.698   6.392
11507TIP3    H134478   3.929   4.664   6.303
11507TIP3    H234479   4.030   4.699   6.410
11508TIP3   OH234480   5.601   5.050   6.501
11508TIP3    H134481   5.670   4.984   6.490
11508TIP3    H234482   5.624   5.118   6.438
11509TIP3   OH234483   5.783   4.847   6.510
11509TIP3    H134484   5.708   4.803   6.549
11509TIP3    H234485   5.856   4.788   6.526
11510TIP3   OH234486   5.247   4.081   5.083
11510TIP3    H134487   5.317   4.047   5.138
11510TIP3    H234488   5.173   4.024   5.100
11511TIP3   OH234489   5.310   4.340   5.535
11511TIP3    H134490   5.346   4.253   5.552
11511TIP3    H234491   5.364   4.375   5.464
11512TIP3   OH234492   5.468   4.513   6.035
11512TIP3    H134493   5.550   4.534   5.990
11512TIP3    H234494   5.479   4.548   6.123
11513TIP3   OH234495   5.538   4.660   6.263
11513TIP3    H134496   5.461   4.691   6.312
11513TIP3    H234497   5.571   4.739   6.219
11514TIP3   OH234498   1.324   0.377   0.132
11514TIP3    H134499   1.419   0.373   0.131
11514TIP3    H234500   1.295   0.292   0.164
11515TIP3   OH234501   5.989   4.251   6.817
11515TIP3    H134502   6.049   4.188   6.779
11515TIP3    H234503   5.958   4.303   6.742
11516TIP3   OH234504   5.414   4.090   5.577
11516TIP3    H134505   5.462   4.076   5.658
11516TIP3    H234506   5.353   4.016   5.572
11517TIP3   OH234507   4.117   4.077   6.398
11517TIP3    H134508   4.172   4.000   6.405
11517TIP3    H234509   4.178   4.150   6.387
11518TIP3   OH234510   3.916   4.352   6.464
11518TIP3    H134511   3.962   4.340   6.381
11518TIP3    H234512   3.952   4.432   6.501
11519TIP3   OH234513   5.854   4.386   6.621
11519TIP3    H134514   5.772   4.431   6.643
11519TIP3    H234515   5.827   4.313   6.566
11520TIP3   OH234516   5.495   4.022   5.210
11520TIP3    H134517   5.530   3.952   5.155
11520TIP3    H234518   5.560   4.092   5.205
11521TIP3   OH234519   3.900   3.858   5.972
11521TIP3    H134520   3.809   3.847   5.997
11521TIP3    H234521   3.897   3.913   5.894
11522TIP3   OH234522   5.060   5.559   5.474
11522TIP3    H134523   5.110   5.548   5.393
11522TIP3    H234524   5.110   5.623   5.525
11523TIP3   OH234525   4.120   3.936   6.785
11523TIP3    H134526   4.070   3.928   6.867
11523TIP3    H234527   4.057   3.971   6.722
11524TIP3   OH234528   4.151   5.327   6.875
11524TIP3    H134529   4.086   5.396   6.861
11524TIP3    H234530   4.176   5.335   6.967
11525TIP3   OH234531   4.339   5.402   6.404
11525TIP3    H134532   4.294   5.477   6.367
11525TIP3    H234533   4.426   5.405   6.365
11526TIP3   OH234534   4.782   5.640   6.545
11526TIP3    H134535   4.821   5.637   6.632
11526TIP3    H234536   4.844   5.690   6.493
11527TIP3   OH234537   4.963   5.793   6.408
11527TIP3    H134538   5.031   5.742   6.363
11527TIP3    H234539   5.011   5.849   6.468
11528TIP3   OH234540   5.756   4.146   6.504
11528TIP3    H134541   5.667   4.138   6.470
11528TIP3    H234542   5.793   4.058   6.497
11529TIP3   OH234543   4.011   5.649   6.440
11529TIP3    H134544   3.923   5.676   6.414
11529TIP3    H234545   4.034   5.707   6.513
11530TIP3   OH234546   4.247   5.630   6.290
11530TIP3    H134547   4.162   5.642   6.333
11530TIP3    H234548   4.234   5.661   6.201
11531TIP3   OH234549   4.674   5.657   6.091
11531TIP3    H134550   4.608   5.674   6.023
11531TIP3    H234551   4.689   5.742   6.132
11532TIP3   OH234552   4.945   5.595   6.141
11532TIP3    H134553   4.853   5.613   6.121
11532TIP3    H234554   4.993   5.666   6.098
11533TIP3   OH234555   5.147   5.784   6.050
11533TIP3    H134556   5.136   5.869   6.006
11533TIP3    H234557   5.177   5.725   5.981
11534TIP3   OH234558   3.928   5.442   6.176
11534TIP3    H134559   3.950   5.419   6.266
11534TIP3    H234560   3.997   5.401   6.124
11535TIP3   OH234561   4.124   5.315   6.039
11535TIP3    H134562   4.138   5.233   6.085
11535TIP3    H234563   4.211   5.353   6.030
11536TIP3   OH234564   4.390   5.407   6.043
11536TIP3    H134565   4.419   5.318   6.024
11536TIP3    H234566   4.437   5.432   6.122
11537TIP3   OH234567   4.962   4.063   6.126
11537TIP3    H134568   4.920   3.994   6.176
11537TIP3    H234569   5.035   4.020   6.081
11538TIP3   OH234570   5.481   3.950   6.028
11538TIP3    H134571   5.518   3.998   5.954
11538TIP3    H234572   5.387   3.965   6.022
11539TIP3   OH234573   5.581   4.046   5.791
11539TIP3    H134574   5.652   3.993   5.754
11539TIP3    H234575   5.611   4.137   5.779
11540TIP3   OH234576   4.209   3.771   6.139
11540TIP3    H134577   4.117   3.744   6.143
11540TIP3    H234578   4.258   3.689   6.135
11541TIP3   OH234579   4.001   3.648   5.791
11541TIP3    H134580   4.029   3.700   5.716
11541TIP3    H234581   3.974   3.712   5.856
11542TIP3   OH234582   4.658   3.807   6.022
11542TIP3    H134583   4.711   3.852   5.957
11542TIP3    H234584   4.685   3.845   6.106
11543TIP3   OH234585   5.198   3.952   6.003
11543TIP3    H134586   5.201   3.913   5.916
11543TIP3    H234587   5.187   3.877   6.062
11544TIP3   OH234588   5.230   3.878   5.569
11544TIP3    H134589   5.146   3.922   5.582
11544TIP3    H234590   5.219   3.793   5.612
11545TIP3   OH234591   3.711   5.222   5.564
11545TIP3    H134592   3.629   5.184   5.534
11545TIP3    H234593   3.706   5.315   5.540
11546TIP3   OH234594   4.119   3.802   5.550
11546TIP3    H134595   4.163   3.739   5.493
11546TIP3    H234596   4.191   3.855   5.585
11547TIP3   OH234597   4.627   3.984   5.652
11547TIP3    H134598   4.684   3.931   5.708
11547TIP3    H234599   4.648   4.074   5.674
11548TIP3   OH234600   4.489   5.399   5.147
11548TIP3    H134601   4.575   5.426   5.116
11548TIP3    H234602   4.463   5.327   5.090
11549TIP3   OH234603   5.205   5.522   5.242
11549TIP3    H134604   5.199   5.427   5.234
11549TIP3    H234605   5.160   5.555   5.164
11550TIP3   OH234606   1.586   0.049   0.094
11550TIP3    H134607   1.547  -0.021   0.146
11550TIP3    H234608   1.678   0.049   0.120
11551TIP3   OH234609   1.837   0.045   0.211
11551TIP3    H134610   1.919   0.021   0.169
11551TIP3    H234611   1.822  -0.023   0.276
11552TIP3   OH234612   3.793   5.238   5.203
11552TIP3    H134613   3.794   5.259   5.297
11552TIP3    H234614   3.877   5.196   5.187
11553TIP3   OH234615   2.664   0.109  -0.003
11553TIP3    H134616   2.679   0.079   0.087
11553TIP3    H234617   2.751   0.104  -0.044
11554TIP3   OH234618   5.429   5.668   6.427
11554TIP3    H134619   5.353   5.636   6.378
11554TIP3    H234620   5.414   5.763   6.435
11555TIP3   OH234621   6.703   5.054   5.178
11555TIP3    H134622   6.655   5.137   5.175
11555TIP3    H234623   6.636   4.988   5.159
11556TIP3   OH234624   6.702   5.032   5.579
11556TIP3    H134625   6.736   5.018   5.668
11556TIP3    H234626   6.656   4.951   5.559
11557TIP3   OH234627   5.998   4.931   5.942
11557TIP3    H134628   6.023   4.861   6.002
11557TIP3    H234629   6.073   4.991   5.942
11558TIP3   OH234630   6.956   5.311   5.267
11558TIP3    H134631   6.936   5.265   5.349
11558TIP3    H234632   6.988   5.397   5.296
11559TIP3   OH234633   5.971   5.344   5.663
11559TIP3    H134634   5.961   5.249   5.665
11559TIP3    H234635   6.066   5.357   5.662
11560TIP3   OH234636   5.674   4.548   5.446
11560TIP3    H134637   5.628   4.629   5.467
11560TIP3    H234638   5.608   4.492   5.406
11561TIP3   OH234639   5.734   4.833   5.629
11561TIP3    H134640   5.781   4.756   5.662
11561TIP3    H234641   5.789   4.865   5.557
11562TIP3   OH234642   6.592   5.807   5.273
11562TIP3    H134643   6.641   5.733   5.237
11562TIP3    H234644   6.568   5.778   5.361
11563TIP3   OH234645   6.500   5.265   5.623
11563TIP3    H134646   6.534   5.185   5.583
11563TIP3    H234647   6.578   5.314   5.651
11564TIP3   OH234648   7.513   4.588   5.622
11564TIP3    H134649   7.541   4.668   5.666
11564TIP3    H234650   7.535   4.602   5.530
11565TIP3   OH234651   6.914   4.766   5.651
11565TIP3    H134652   6.953   4.683   5.676
11565TIP3    H234653   6.877   4.750   5.564
11566TIP3   OH234654   6.250   4.426   5.616
11566TIP3    H134655   6.229   4.499   5.557
11566TIP3    H234656   6.204   4.351   5.579
11567TIP3   OH234657   6.947   4.519   5.240
11567TIP3    H134658   7.011   4.501   5.309
11567TIP3    H234659   6.999   4.553   5.167
11568TIP3   OH234660   5.883   4.625   5.727
11568TIP3    H134661   5.962   4.609   5.778
11568TIP3    H234662   5.893   4.572   5.649
11569TIP3   OH234663   6.322   4.823   5.522
11569TIP3    H134664   6.413   4.800   5.537
11569TIP3    H234665   6.281   4.742   5.492
11570TIP3   OH234666   7.584   4.797   5.792
11570TIP3    H134667   7.500   4.838   5.771
11570TIP3    H234668   7.598   4.819   5.884
11571TIP3   OH234669   6.241   4.411   6.057
11571TIP3    H134670   6.184   4.446   5.989
11571TIP3    H234671   6.192   4.424   6.139
11572TIP3   OH234672   6.605   5.288   5.043
11572TIP3    H134673   6.551   5.248   4.976
11572TIP3    H234674   6.553   5.362   5.075
11573TIP3   OH234675   6.350   5.189   5.847
11573TIP3    H134676   6.290   5.252   5.887
11573TIP3    H234677   6.390   5.237   5.775
11574TIP3   OH234678   7.148   4.524   5.420
11574TIP3    H134679   7.132   4.474   5.500
11574TIP3    H234680   7.199   4.600   5.449
11575TIP3   OH234681   6.119   4.525   5.838
11575TIP3    H134682   6.178   4.595   5.865
11575TIP3    H234683   6.164   4.483   5.764
11576TIP3   OH234684   6.177   5.383   5.949
11576TIP3    H134685   6.157   5.470   5.913
11576TIP3    H234686   6.101   5.361   6.003
11577TIP3   OH234687   5.570   5.072   5.183
11577TIP3    H134688   5.528   5.097   5.101
11577TIP3    H234689   5.601   5.154   5.221
11578TIP3   OH234690   7.003   5.582   5.406
11578TIP3    H134691   6.922   5.574   5.457
11578TIP3    H234692   7.002   5.672   5.374
11579TIP3   OH234693   7.303   4.490   5.788
11579TIP3    H134694   7.216   4.512   5.756
11579TIP3    H234695   7.362   4.519   5.719
11580TIP3   OH234696   6.593   4.124   5.775
11580TIP3    H134697   6.583   4.030   5.793
11580TIP3    H234698   6.519   4.165   5.819
11581TIP3   OH234699   6.724   5.632   5.102
11581TIP3    H134700   6.776   5.553   5.088
11581TIP3    H234701   6.776   5.703   5.063
11582TIP3   OH234702   6.869   5.325   5.004
11582TIP3    H134703   6.773   5.320   5.000
11582TIP3    H234704   6.886   5.382   5.080
11583TIP3   OH234705   7.236   5.497   5.767
11583TIP3    H134706   7.223   5.420   5.712
11583TIP3    H234707   7.218   5.571   5.709
11584TIP3   OH234708   6.531   4.894   5.025
11584TIP3    H134709   6.447   4.939   5.013
11584TIP3    H234710   6.567   4.885   4.937
11585TIP3   OH234711   6.491   4.677   4.742
11585TIP3    H134712   6.557   4.726   4.791
11585TIP3    H234713   6.541   4.614   4.691
11586TIP3   OH234714   7.430   5.138   5.612
11586TIP3    H134715   7.348   5.187   5.620
11586TIP3    H234716   7.463   5.160   5.525
11587TIP3   OH234717   6.912   5.022   5.014
11587TIP3    H134718   6.833   4.997   5.061
11587TIP3    H234719   6.976   4.954   5.036
11588TIP3   OH234720   7.108   5.015   5.913
11588TIP3    H134721   7.108   5.095   5.964
11588TIP3    H234722   7.023   5.014   5.870
11589TIP3   OH234723   6.112   4.970   5.412
11589TIP3    H134724   6.068   4.914   5.347
11589TIP3    H234725   6.184   4.917   5.444
11590TIP3   OH234726   6.243   5.383   5.561
11590TIP3    H134727   6.217   5.345   5.477
11590TIP3    H234728   6.330   5.346   5.578
11591TIP3   OH234729   6.250   4.941   5.770
11591TIP3    H134730   6.278   4.919   5.681
11591TIP3    H234731   6.288   5.027   5.786
11592TIP3   OH234732   6.776   5.578   5.548
11592TIP3    H134733   6.759   5.660   5.595
11592TIP3    H234734   6.755   5.510   5.611
11593TIP3   OH234735   6.381   5.498   6.094
11593TIP3    H134736   6.324   5.559   6.140
11593TIP3    H234737   6.321   5.445   6.042
11594TIP3   OH234738   6.732   4.844   4.823
11594TIP3    H134739   6.785   4.915   4.860
11594TIP3    H234740   6.746   4.851   4.728
11595TIP3   OH234741   6.136   5.055   6.198
11595TIP3    H134742   6.144   5.142   6.239
11595TIP3    H234743   6.045   5.031   6.211
11596TIP3   OH234744   6.464   5.509   5.097
11596TIP3    H134745   6.526   5.577   5.122
11596TIP3    H234746   6.391   5.557   5.057
11597TIP3   OH234747   6.176   5.664   6.182
11597TIP3    H134748   6.142   5.669   6.092
11597TIP3    H234749   6.099   5.641   6.235
11598TIP3   OH234750   7.231   4.072   4.874
11598TIP3    H134751   7.150   4.090   4.923
11598TIP3    H234752   7.247   4.153   4.825
11599TIP3   OH234753   5.974   4.815   5.216
11599TIP3    H134754   5.906   4.859   5.165
11599TIP3    H234755   5.940   4.727   5.233
11600TIP3   OH234756   7.035   5.441   4.427
11600TIP3    H134757   7.040   5.535   4.406
11600TIP3    H234758   7.123   5.408   4.411
11601TIP3   OH234759   5.756   5.197   6.127
11601TIP3    H134760   5.689   5.179   6.061
11601TIP3    H234761   5.793   5.111   6.148
11602TIP3   OH234762   5.611   5.393   5.761
11602TIP3    H134763   5.706   5.389   5.752
11602TIP3    H234764   5.595   5.471   5.813
11603TIP3   OH234765   7.474   5.846   5.819
11603TIP3    H134766   7.478   5.751   5.833
11603TIP3    H234767   7.393   5.873   5.862
11604TIP3   OH234768   6.578   5.627   5.954
11604TIP3    H134769   6.578   5.718   5.983
11604TIP3    H234770   6.508   5.586   6.004
11605TIP3   OH234771   6.347   5.760   4.900
11605TIP3    H134772   6.294   5.741   4.822
11605TIP3    H234773   6.310   5.841   4.935
11606TIP3   OH234774   5.782   5.602   5.288
11606TIP3    H134775   5.828   5.598   5.372
11606TIP3    H234776   5.723   5.526   5.290
11607TIP3   OH234777   6.545   5.661   4.541
11607TIP3    H134778   6.600   5.592   4.504
11607TIP3    H234779   6.576   5.671   4.630
11608TIP3   OH234780   6.594   5.707   4.812
11608TIP3    H134781   6.504   5.721   4.841
11608TIP3    H234782   6.639   5.672   4.889
11609TIP3   OH234783   7.361   4.970   6.091
11609TIP3    H134784   7.279   4.983   6.044
11609TIP3    H234785   7.381   4.877   6.082
11610TIP3   OH234786   5.960   5.378   6.112
11610TIP3    H134787   6.008   5.366   6.194
11610TIP3    H234788   5.886   5.318   6.118
11611TIP3   OH234789   6.356   4.206   5.901
11611TIP3    H134790   6.272   4.172   5.870
11611TIP3    H234791   6.333   4.284   5.953
11612TIP3   OH234792   6.895   4.319   6.099
11612TIP3    H134793   6.964   4.288   6.157
11612TIP3    H234794   6.814   4.297   6.145
11613TIP3   OH234795   7.133   4.752   6.018
11613TIP3    H134796   7.081   4.747   6.098
11613TIP3    H234797   7.107   4.835   5.978
11614TIP3   OH234798   6.797   4.884   4.568
11614TIP3    H134799   6.751   4.859   4.487
11614TIP3    H234800   6.882   4.916   4.538
11615TIP3   OH234801   6.505   4.249   4.875
11615TIP3    H134802   6.471   4.249   4.964
11615TIP3    H234803   6.466   4.171   4.834
11616TIP3   OH234804   6.293   4.722   5.922
11616TIP3    H134805   6.242   4.738   6.001
11616TIP3    H234806   6.279   4.800   5.868
11617TIP3   OH234807   6.172   4.606   5.431
11617TIP3    H134808   6.083   4.582   5.454
11617TIP3    H234809   6.187   4.567   5.345
11618TIP3   OH234810   6.670   4.698   5.163
11618TIP3    H134811   6.615   4.762   5.117
11618TIP3    H234812   6.721   4.656   5.093
11619TIP3   OH234813   6.841   4.965   6.248
11619TIP3    H134814   6.816   4.895   6.308
11619TIP3    H234815   6.934   4.981   6.268
11620TIP3   OH234816   6.824   4.716   5.393
11620TIP3    H134817   6.757   4.739   5.328
11620TIP3    H234818   6.866   4.638   5.357
11621TIP3   OH234819   6.112   4.747   6.129
11621TIP3    H134820   6.135   4.811   6.195
11621TIP3    H234821   6.100   4.665   6.177
11622TIP3   OH234822   6.163   4.231   4.838
11622TIP3    H134823   6.153   4.225   4.933
11622TIP3    H234824   6.086   4.279   4.808
11623TIP3   OH234825   5.704   4.269   5.709
11623TIP3    H134826   5.779   4.299   5.761
11623TIP3    H234827   5.743   4.237   5.628
11624TIP3   OH234828   5.671   4.253   5.226
11624TIP3    H134829   5.718   4.285   5.149
11624TIP3    H234830   5.609   4.323   5.247
11625TIP3   OH234831   6.836   4.962   5.818
11625TIP3    H134832   6.869   4.895   5.759
11625TIP3    H234833   6.804   4.914   5.894
11626TIP3   OH234834   6.507   4.433   5.496
11626TIP3    H134835   6.425   4.428   5.545
11626TIP3    H234836   6.575   4.418   5.562
11627TIP3   OH234837   5.936   4.484   5.499
11627TIP3    H134838   5.845   4.494   5.473
11627TIP3    H234839   5.958   4.393   5.479
11628TIP3   OH234840   6.202   4.481   5.192
11628TIP3    H134841   6.294   4.493   5.167
11628TIP3    H234842   6.154   4.500   5.111
11629TIP3   OH234843   6.991   4.504   5.698
11629TIP3    H134844   6.964   4.518   5.789
11629TIP3    H234845   6.927   4.442   5.663
11630TIP3   OH234846   6.052   4.517   4.968
11630TIP3    H134847   5.980   4.469   4.926
11630TIP3    H234848   6.103   4.551   4.894
11631TIP3   OH234849   7.169   6.190   5.915
11631TIP3    H134850   7.169   6.215   5.823
11631TIP3    H234851   7.245   6.236   5.952
11632TIP3   OH234852   6.124   5.304   6.338
11632TIP3    H134853   6.203   5.333   6.383
11632TIP3    H234854   6.057   5.300   6.406
11633TIP3   OH234855   6.586   4.761   5.597
11633TIP3    H134856   6.653   4.711   5.550
11633TIP3    H234857   6.582   4.720   5.683
11634TIP3   OH234858   6.106   4.240   5.475
11634TIP3    H134859   6.068   4.168   5.526
11634TIP3    H234860   6.151   4.197   5.402
11635TIP3   OH234861   6.562   4.665   5.869
11635TIP3    H134862   6.472   4.691   5.891
11635TIP3    H234863   6.616   4.719   5.925
11636TIP3   OH234864   6.299   5.041   4.981
11636TIP3    H134865   6.230   4.976   4.964
11636TIP3    H234866   6.278   5.076   5.067
11637TIP3   OH234867   7.196   5.282   5.599
11637TIP3    H134868   7.223   5.332   5.522
11637TIP3    H234869   7.114   5.240   5.574
11638TIP3   OH234870   6.754   4.354   4.843
11638TIP3    H134871   6.662   4.330   4.852
11638TIP3    H234872   6.757   4.447   4.869
11639TIP3   OH234873   6.701   5.368   5.972
11639TIP3    H134874   6.723   5.342   6.061
11639TIP3    H234875   6.658   5.453   5.982
11640TIP3   OH234876   6.824   4.607   4.947
11640TIP3    H134877   6.919   4.605   4.960
11640TIP3    H234878   6.809   4.684   4.892
11641TIP3   OH234879   5.997   5.069   5.649
11641TIP3    H134880   6.031   5.038   5.566
11641TIP3    H234881   6.031   5.007   5.714
11642TIP3   OH234882   6.447   5.197   4.811
11642TIP3    H134883   6.399   5.280   4.807
11642TIP3    H234884   6.390   5.140   4.863
11643TIP3   OH234885   5.875   4.982   6.265
11643TIP3    H134886   5.890   4.971   6.359
11643TIP3    H234887   5.804   4.921   6.245
11644TIP3   OH234888   6.599   5.102   6.282
11644TIP3    H134889   6.535   5.042   6.244
11644TIP3    H234890   6.684   5.066   6.255
11645TIP3   OH234891   6.856   5.626   5.870
11645TIP3    H134892   6.761   5.620   5.884
11645TIP3    H234893   6.887   5.675   5.946
11646TIP3   OH234894   7.260   4.699   4.777
11646TIP3    H134895   7.201   4.651   4.718
11646TIP3    H234896   7.264   4.787   4.740
11647TIP3   OH234897   7.485   5.553   5.855
11647TIP3    H134898   7.389   5.549   5.851
11647TIP3    H234899   7.513   5.524   5.768
11648TIP3   OH234900   6.970   5.514   4.688
11648TIP3    H134901   6.939   5.438   4.738
11648TIP3    H234902   6.987   5.480   4.600
11649TIP3   OH234903   6.957   5.145   5.500
11649TIP3    H134904   6.870   5.121   5.531
11649TIP3    H234905   6.997   5.062   5.474
11650TIP3   OH234906   6.091   5.372   5.269
11650TIP3    H134907   6.085   5.454   5.220
11650TIP3    H234908   6.001   5.353   5.295
11651TIP3   OH234909   5.656   4.676   4.983
11651TIP3    H134910   5.701   4.758   5.002
11651TIP3    H234911   5.581   4.675   5.041
11652TIP3   OH234912   6.231   5.138   5.223
11652TIP3    H134913   6.193   5.224   5.237
11652TIP3    H234914   6.195   5.084   5.292
11653TIP3   OH234915   6.366   5.715   5.745
11653TIP3    H134916   6.403   5.787   5.695
11653TIP3    H234917   6.439   5.678   5.793
11654TIP3   OH234918   6.014   5.611   5.131
11654TIP3    H134919   5.928   5.618   5.174
11654TIP3    H234920   6.049   5.700   5.135
11655TIP3   OH234921   6.749   5.343   5.708
11655TIP3    H134922   6.732   5.350   5.802
11655TIP3    H234923   6.831   5.295   5.701
11656TIP3   OH234924   6.715   5.238   4.586
11656TIP3    H134925   6.739   5.200   4.671
11656TIP3    H234926   6.622   5.217   4.576
11657TIP3   OH234927   6.996   5.877   5.750
11657TIP3    H134928   6.918   5.822   5.750
11657TIP3    H234929   6.980   5.942   5.682
11658TIP3   OH234930   7.061   5.717   4.406
11658TIP3    H134931   7.099   5.783   4.348
11658TIP3    H234932   6.983   5.758   4.442
11659TIP3   OH234933   6.080   4.491   6.271
11659TIP3    H134934   5.984   4.494   6.281
11659TIP3    H234935   6.110   4.435   6.343
11660TIP3   OH234936   5.802   5.574   5.904
11660TIP3    H134937   5.855   5.505   5.944
11660TIP3    H234938   5.821   5.653   5.955
11661TIP3   OH234939   6.098   5.215   4.588
11661TIP3    H134940   6.098   5.124   4.559
11661TIP3    H234941   6.072   5.211   4.680
11662TIP3   OH234942   6.036   5.230   4.857
11662TIP3    H134943   6.099   5.200   4.923
11662TIP3    H234944   6.036   5.326   4.865
11663TIP3   OH234945   5.767   4.923   5.065
11663TIP3    H134946   5.701   4.962   5.122
11663TIP3    H234947   5.779   4.987   4.994
11664TIP3   OH234948   6.925   4.553   5.959
11664TIP3    H134949   7.004   4.589   5.998
11664TIP3    H234950   6.907   4.474   6.009
11665TIP3   OH234951   6.803   4.305   5.124
11665TIP3    H134952   6.789   4.323   5.032
11665TIP3    H234953   6.842   4.385   5.159
11666TIP3   OH234954   6.304   5.428   4.808
11666TIP3    H134955   6.217   5.442   4.846
11666TIP3    H234956   6.316   5.501   4.746
11667TIP3   OH234957   6.491   4.491   5.227
11667TIP3    H134958   6.553   4.563   5.212
11667TIP3    H234959   6.492   4.478   5.321
11668TIP3   OH234960   6.763   4.806   6.027
11668TIP3    H134961   6.782   4.856   6.106
11668TIP3    H234962   6.810   4.723   6.038
11669TIP3   OH234963   6.631   4.212   5.323
11669TIP3    H134964   6.626   4.286   5.384
11669TIP3    H234965   6.692   4.241   5.255
11670TIP3   OH234966   6.051   5.501   4.879
11670TIP3    H134967   6.020   5.567   4.817
11670TIP3    H234968   6.033   5.540   4.965
11671TIP3   OH234969   6.147   4.215   5.113
11671TIP3    H134970   6.140   4.302   5.153
11671TIP3    H234971   6.240   4.194   5.119
11672TIP3   OH234972   7.396   4.704   6.009
11672TIP3    H134973   7.302   4.708   6.022
11672TIP3    H234974   7.408   4.652   5.930
11673TIP3   OH234975   7.050   4.900   5.400
11673TIP3    H134976   6.975   4.841   5.410
11673TIP3    H234977   7.122   4.855   5.445
11674TIP3   OH234978   5.766   5.124   4.866
11674TIP3    H134979   5.827   5.197   4.876
11674TIP3    H234980   5.807   5.067   4.802
11675TIP3   OH234981   5.705   4.406   5.003
11675TIP3    H134982   5.706   4.501   5.000
11675TIP3    H234983   5.628   4.380   4.952
11676TIP3   OH234984   7.021   5.856   5.343
11676TIP3    H134985   6.977   5.902   5.272
11676TIP3    H234986   7.114   5.874   5.329
11677TIP3   OH234987   6.094   4.122   5.873
11677TIP3    H134988   6.064   4.089   5.788
11677TIP3    H234989   6.085   4.047   5.932
11678TIP3   OH234990   5.627   5.337   5.250
11678TIP3    H134991   5.567   5.368   5.319
11678TIP3    H234992   5.596   5.381   5.171
11679TIP3   OH234993   5.793   5.887   6.329
11679TIP3    H134994   5.878   5.890   6.373
11679TIP3    H234995   5.772   5.793   6.325
11680TIP3   OH234996   6.273   5.843   6.371
11680TIP3    H134997   6.367   5.824   6.376
11680TIP3    H234998   6.241   5.786   6.301
11681TIP3   OH234999   6.253   5.419   4.496
11681TIP3    H135000   6.195   5.353   4.534
11681TIP3    H235001   6.328   5.370   4.463
11682TIP3   OH235002   6.915   5.753   6.106
11682TIP3    H135003   6.904   5.687   6.174
11682TIP3    H235004   6.990   5.805   6.134
11683TIP3   OH235005   6.689   5.465   4.410
11683TIP3    H135006   6.736   5.404   4.467
11683TIP3    H235007   6.738   5.463   4.328
11684TIP3   OH235008   5.920   5.291   6.525
11684TIP3    H135009   5.937   5.197   6.534
11684TIP3    H235010   5.835   5.296   6.481
11685TIP3   OH235011   5.906   4.944   4.723
11685TIP3    H135012   5.957   4.909   4.796
11685TIP3    H235013   5.968   4.947   4.650
11686TIP3   OH235014   6.529   5.379   6.299
11686TIP3    H135015   6.485   5.399   6.216
11686TIP3    H235016   6.556   5.288   6.290
11687TIP3   OH235017   6.433   5.144   4.536
11687TIP3    H135018   6.415   5.156   4.629
11687TIP3    H235019   6.427   5.049   4.522
11688TIP3   OH235020   7.020   5.388   5.905
11688TIP3    H135021   7.096   5.432   5.866
11688TIP3    H235022   6.949   5.452   5.896
11689TIP3   OH235023   6.043   5.029   6.513
11689TIP3    H135024   6.117   4.974   6.486
11689TIP3    H235025   6.069   5.062   6.599
11690TIP3   OH235026   6.111   4.845   4.945
11690TIP3    H135027   6.076   4.807   5.026
11690TIP3    H235028   6.143   4.770   4.895
11691TIP3   OH235029   6.377   4.915   6.173
11691TIP3    H135030   6.298   4.968   6.174
11691TIP3    H235031   6.427   4.946   6.098
11692TIP3   OH235032   6.209   4.643   4.779
11692TIP3    H135033   6.180   4.648   4.688
11692TIP3    H235034   6.304   4.642   4.774
11693TIP3   OH235035   6.896   5.313   6.306
11693TIP3    H135036   6.971   5.281   6.256
11693TIP3    H235037   6.884   5.248   6.375
11694TIP3   OH235038   7.029   4.970   4.450
11694TIP3    H135039   7.016   4.921   4.369
11694TIP3    H235040   6.996   5.058   4.431
11695TIP3   OH235041   6.500   4.701   6.292
11695TIP3    H135042   6.500   4.622   6.238
11695TIP3    H235043   6.455   4.767   6.240
11696TIP3   OH235044   6.500   4.491   6.102
11696TIP3    H135045   6.529   4.524   6.018
11696TIP3    H235046   6.409   4.465   6.088
11697TIP3   OH235047   6.525   5.022   5.977
11697TIP3    H135048   6.609   5.033   5.934
11697TIP3    H235049   6.467   5.084   5.933
11698TIP3   OH235050   7.112   4.984   6.358
11698TIP3    H135051   7.154   4.899   6.361
11698TIP3    H235052   7.178   5.043   6.321
11699TIP3   OH235053   7.151   5.243   6.092
11699TIP3    H135054   7.091   5.294   6.037
11699TIP3    H235055   7.238   5.262   6.056
11700TIP3   OH235056   6.378   4.804   6.529
11700TIP3    H135057   6.311   4.738   6.547
11700TIP3    H235058   6.411   4.782   6.442
11701TIP3   OH235059   6.632   4.248   6.170
11701TIP3    H135060   6.581   4.327   6.150
11701TIP3    H235061   6.568   4.177   6.163
11702TIP3   OH235062   6.755   4.749   6.390
11702TIP3    H135063   6.743   4.734   6.484
11702TIP3    H235064   6.671   4.727   6.351
11703TIP3   OH235065   6.999   4.704   6.248
11703TIP3    H135066   6.923   4.703   6.306
11703TIP3    H235067   7.071   4.670   6.301
11704TIP3   OH235068   7.234   4.645   6.395
11704TIP3    H135069   7.244   4.550   6.406
11704TIP3    H235070   7.227   4.679   6.485
11705TIP3   OH235071   6.218   4.585   6.585
11705TIP3    H135072   6.218   4.496   6.550
11705TIP3    H235073   6.255   4.576   6.673
11706TIP3   OH235074   6.710   4.266   6.434
11706TIP3    H135075   6.785   4.207   6.435
11706TIP3    H235076   6.674   4.258   6.346
11707TIP3   OH235077   6.795   4.476   6.587
11707TIP3    H135078   6.773   4.404   6.528
11707TIP3    H235079   6.718   4.533   6.584
11708TIP3   OH235080   6.018   5.701   4.687
11708TIP3    H135081   6.112   5.693   4.668
11708TIP3    H235082   5.983   5.753   4.615
11709TIP3   OH235083   5.496   5.083   4.904
11709TIP3    H135084   5.588   5.106   4.891
11709TIP3    H235085   5.486   4.997   4.863
11710TIP3   OH235086   5.411   5.691   5.322
11710TIP3    H135087   5.345   5.634   5.282
11710TIP3    H235088   5.456   5.635   5.384
11711TIP3   OH235089   5.549   5.539   5.507
11711TIP3    H135090   5.533   5.471   5.572
11711TIP3    H235091   5.599   5.606   5.553
11712TIP3   OH235092   7.275   5.945   5.309
11712TIP3    H135093   7.300   5.974   5.397
11712TIP3    H235094   7.338   5.987   5.251
11713TIP3   OH235095   7.302   5.961   5.589
11713TIP3    H135096   7.256   5.878   5.585
11713TIP3    H235097   7.377   5.945   5.647
11714TIP3   OH235098   7.349   5.647   6.165
11714TIP3    H135099   7.276   5.654   6.226
11714TIP3    H235100   7.392   5.732   6.168
11715TIP3   OH235101   7.344   5.415   5.407
11715TIP3    H135102   7.401   5.349   5.369
11715TIP3    H235103   7.349   5.489   5.347
11716TIP3   OH235104   7.172   5.715   5.608
11716TIP3    H135105   7.104   5.758   5.660
11716TIP3    H235106   7.124   5.672   5.537
11717TIP3   OH235107   7.234   4.939   4.632
11717TIP3    H135108   7.162   4.931   4.569
11717TIP3    H235109   7.224   5.026   4.669
11718TIP3   OH235110   7.096   4.605   4.582
11718TIP3    H135111   7.057   4.636   4.500
11718TIP3    H235112   7.078   4.511   4.582
11719TIP3   OH235113   7.095   4.869   5.130
11719TIP3    H135114   7.121   4.778   5.115
11719TIP3    H235115   7.097   4.879   5.225
11720TIP3   OH235116   5.733   4.951   5.878
11720TIP3    H135117   5.726   4.919   5.788
11720TIP3    H235118   5.827   4.953   5.896
11721TIP3   OH235119   7.397   5.307   5.987
11721TIP3    H135120   7.466   5.241   5.978
11721TIP3    H235121   7.422   5.375   5.924
11722TIP3   OH235122   7.578   5.104   5.999
11722TIP3    H135123   7.503   5.058   6.037
11722TIP3    H235124   7.652   5.045   6.014
11723TIP3   OH235125   7.043   4.340   4.571
11723TIP3    H135126   7.113   4.305   4.625
11723TIP3    H235127   6.969   4.282   4.587
11724TIP3   OH235128   7.108   4.595   5.017
11724TIP3    H135129   7.143   4.508   5.037
11724TIP3    H235130   7.163   4.627   4.945
11725TIP3   OH235131   7.264   4.772   5.520
11725TIP3    H135132   7.347   4.793   5.477
11725TIP3    H235133   7.274   4.804   5.610
11726TIP3   OH235134   7.333   4.916   5.749
11726TIP3    H135135   7.258   4.947   5.800
11726TIP3    H235136   7.367   4.995   5.706
11727TIP3   OH235137   5.953   4.638   6.555
11727TIP3    H135138   6.048   4.634   6.556
11727TIP3    H235139   5.925   4.554   6.591
11728TIP3   OH235140   7.785   4.510   6.304
11728TIP3    H135141   7.845   4.446   6.267
11728TIP3    H235142   7.754   4.560   6.229
11729TIP3   OH235143   7.209   4.346   5.064
11729TIP3    H135144   7.257   4.333   5.146
11729TIP3    H235145   7.148   4.273   5.060
11730TIP3   OH235146   5.913   4.333   5.882
11730TIP3    H135147   5.970   4.256   5.891
11730TIP3    H235148   5.974   4.406   5.874
11731TIP3   OH235149   5.712   4.606   5.953
11731TIP3    H135150   5.760   4.601   5.870
11731TIP3    H235151   5.738   4.690   5.991
11732TIP3   OH235152   7.649   4.641   6.107
11732TIP3    H135153   7.567   4.687   6.125
11732TIP3    H235154   7.624   4.567   6.052
11733TIP3   OH235155   7.291   4.279   4.696
11733TIP3    H135156   7.326   4.209   4.642
11733TIP3    H235157   7.357   4.348   4.693
11734TIP3   OH235158   5.697   4.113   5.457
11734TIP3    H135159   5.606   4.103   5.485
11734TIP3    H235160   5.692   4.169   5.379
11735TIP3   OH235161   6.870   5.807   4.965
11735TIP3    H135162   6.913   5.806   4.880
11735TIP3    H235163   6.907   5.882   5.010
11736TIP3   OH235164   5.916   4.194   6.272
11736TIP3    H135165   5.866   4.185   6.354
11736TIP3    H235166   5.852   4.227   6.209
11737TIP3   OH235167   5.957   5.616   6.347
11737TIP3    H135168   5.865   5.594   6.328
11737TIP3    H235169   5.966   5.600   6.441
11738TIP3   OH235170   6.139   5.655   5.892
11738TIP3    H135171   6.086   5.726   5.858
11738TIP3    H235172   6.224   5.665   5.849
11739TIP3   OH235173   6.581   5.894   6.031
11739TIP3    H135174   6.618   5.892   6.119
11739TIP3    H235175   6.643   5.946   5.980
11740TIP3   OH235176   6.761   6.050   5.895
11740TIP3    H135177   6.830   5.995   5.856
11740TIP3    H235178   6.808   6.108   5.955
11741TIP3   OH235179   7.553   4.402   5.990
11741TIP3    H135180   7.463   4.393   5.959
11741TIP3    H235181   7.590   4.314   5.984
11742TIP3   OH235182   5.809   5.906   5.926
11742TIP3    H135183   5.721   5.933   5.898
11742TIP3    H235184   5.827   5.959   6.003
11743TIP3   OH235185   6.047   5.887   5.780
11743TIP3    H135186   5.962   5.897   5.824
11743TIP3    H235187   6.032   5.920   5.691
11744TIP3   OH235188   6.476   5.915   5.572
11744TIP3    H135189   6.401   5.924   5.513
11744TIP3    H235190   6.484   6.001   5.613
11745TIP3   OH235191   6.742   5.851   5.622
11745TIP3    H135192   6.648   5.867   5.608
11745TIP3    H235193   6.785   5.928   5.585
11746TIP3   OH235194   6.952   6.046   5.537
11746TIP3    H135195   6.935   6.128   5.492
11746TIP3    H235196   6.976   5.985   5.468
11747TIP3   OH235197   5.724   5.697   5.662
11747TIP3    H135198   5.746   5.672   5.752
11747TIP3    H235199   5.793   5.658   5.608
11748TIP3   OH235200   5.919   5.572   5.522
11748TIP3    H135201   5.932   5.491   5.571
11748TIP3    H235202   6.007   5.610   5.516
11749TIP3   OH235203   6.184   5.657   5.528
11749TIP3    H135204   6.213   5.566   5.524
11749TIP3    H235205   6.226   5.691   5.607
11750TIP3   OH235206   6.756   4.318   5.611
11750TIP3    H135207   6.714   4.252   5.666
11750TIP3    H235208   6.830   4.273   5.570
11751TIP3   OH235209   7.279   4.205   5.512
11751TIP3    H135210   7.314   4.255   5.439
11751TIP3    H235211   7.185   4.219   5.508
11752TIP3   OH235212   7.378   4.305   5.276
11752TIP3    H135213   7.449   4.251   5.240
11752TIP3    H235214   7.408   4.395   5.264
11753TIP3   OH235215   6.005   4.027   5.625
11753TIP3    H135216   5.914   3.999   5.629
11753TIP3    H235217   6.055   3.945   5.621
11754TIP3   OH235218   5.797   3.905   5.278
11754TIP3    H135219   5.824   3.958   5.203
11754TIP3    H235220   5.769   3.968   5.344
11755TIP3   OH235221   6.454   4.064   5.508
11755TIP3    H135222   6.511   4.111   5.447
11755TIP3    H235223   6.478   4.099   5.594
11756TIP3   OH235224   6.998   4.209   5.489
11756TIP3    H135225   6.996   4.168   5.403
11756TIP3    H235226   6.986   4.136   5.550
11757TIP3   OH235227   7.026   4.134   5.056
11757TIP3    H135228   6.942   4.177   5.070
11757TIP3    H235229   7.016   4.048   5.099
11758TIP3   OH235230   5.510   5.478   5.051
11758TIP3    H135231   5.426   5.443   5.021
11758TIP3    H235232   5.505   5.571   5.031
11759TIP3   OH235233   5.915   4.059   5.036
11759TIP3    H135234   5.959   3.995   4.979
11759TIP3    H235235   5.986   4.112   5.072
11760TIP3   OH235236   6.424   4.241   5.138
11760TIP3    H135237   6.478   4.187   5.196
11760TIP3    H235238   6.446   4.331   5.162
11761TIP3   OH235239   6.285   5.655   4.633
11761TIP3    H135240   6.370   5.682   4.598
11761TIP3    H235241   6.258   5.583   4.575
11762TIP3   OH235242   7.003   5.782   4.727
11762TIP3    H135243   6.998   5.687   4.718
11762TIP3    H235244   6.957   5.816   4.650
11763TIP3   OH235245   6.216   4.314   6.522
11763TIP3    H135246   6.178   4.242   6.572
11763TIP3    H235247   6.309   4.313   6.546
11764TIP3   OH235248   6.468   4.309   6.636
11764TIP3    H135249   6.547   4.284   6.589
11764TIP3    H235250   6.455   4.239   6.701
11765TIP3   OH235251   5.587   5.498   4.691
11765TIP3    H135252   5.585   5.520   4.784
11765TIP3    H235253   5.673   5.456   4.679
11766TIP3   OH235254   7.294   4.374   6.424
11766TIP3    H135255   7.305   4.342   6.513
11766TIP3    H235256   7.380   4.366   6.384
11767TIP3   OH235257   7.227   5.924   5.910
11767TIP3    H135258   7.149   5.890   5.865
11767TIP3    H235259   7.208   6.017   5.924
11768TIP3   OH235260   8.491   5.302   4.677
11768TIP3    H135261   8.463   5.392   4.661
11768TIP3    H235262   8.415   5.249   4.655
11769TIP3   OH235263   8.488   5.294   5.068
11769TIP3    H135264   8.521   5.284   5.158
11769TIP3    H235265   8.450   5.208   5.048
11770TIP3   OH235266   7.791   5.187   5.431
11770TIP3    H135267   7.817   5.118   5.492
11770TIP3    H235268   7.868   5.243   5.424
11771TIP3   OH235269   0.236   5.596   4.749
11771TIP3    H135270   0.224   5.529   4.816
11771TIP3    H235271   0.271   5.672   4.797
11772TIP3   OH235272   7.767   5.600   5.150
11772TIP3    H135273   7.756   5.505   5.151
11772TIP3    H235274   7.862   5.613   5.147
11773TIP3   OH235275   7.474   4.804   4.938
11773TIP3    H135276   7.438   4.877   4.990
11773TIP3    H235277   7.397   4.762   4.900
11774TIP3   OH235278   7.535   5.088   5.113
11774TIP3    H135279   7.582   5.012   5.147
11774TIP3    H235280   7.593   5.123   5.045
11775TIP3   OH235281   8.390   6.057   4.762
11775TIP3    H135282   8.431   5.989   4.709
11775TIP3    H235283   8.386   6.020   4.850
11776TIP3   OH235284   8.296   5.521   5.111
11776TIP3    H135285   8.329   5.441   5.071
11776TIP3    H235286   8.374   5.569   5.138
11777TIP3   OH235287   0.196   5.040   5.140
11777TIP3    H135288   0.211   4.952   5.174
11777TIP3    H235289   0.152   5.026   5.056
11778TIP3   OH235290   8.040   4.682   5.107
11778TIP3    H135291   8.027   4.755   5.046
11778TIP3    H235292   7.995   4.608   5.067
11779TIP3   OH235293   0.230   4.772   4.742
11779TIP3    H135294   0.284   4.713   4.795
11779TIP3    H235295   0.293   4.827   4.695
11780TIP3   OH235296   7.680   4.880   5.214
11780TIP3    H135297   7.759   4.865   5.266
11780TIP3    H235298   7.692   4.827   5.136
11781TIP3   OH235299   8.119   5.079   5.012
11781TIP3    H135300   8.211   5.058   5.025
11781TIP3    H235301   8.080   4.997   4.980
11782TIP3   OH235302   8.037   4.667   5.544
11782TIP3    H135303   7.981   4.703   5.475
11782TIP3    H235304   7.989   4.682   5.625
11783TIP3   OH235305   8.392   5.529   4.538
11783TIP3    H135306   8.343   5.502   4.461
11783TIP3    H235307   8.342   5.603   4.574
11784TIP3   OH235308   8.148   5.445   5.333
11784TIP3    H135309   8.086   5.509   5.370
11784TIP3    H235310   8.188   5.490   5.259
11785TIP3   OH235311   7.914   4.782   5.327
11785TIP3    H135312   7.972   4.853   5.353
11785TIP3    H235313   7.958   4.740   5.253
11786TIP3   OH235314   7.973   5.640   5.434
11786TIP3    H135315   7.950   5.725   5.398
11786TIP3    H235316   7.898   5.616   5.490
11787TIP3   OH235317   7.376   5.327   4.667
11787TIP3    H135318   7.326   5.353   4.589
11787TIP3    H235319   7.400   5.409   4.708
11788TIP3   OH235320   0.298   5.847   4.908
11788TIP3    H135321   0.217   5.833   4.956
11788TIP3    H235322   0.288   5.933   4.867
11789TIP3   OH235323   8.379   4.375   5.262
11789TIP3    H135324   8.365   4.282   5.280
11789TIP3    H235325   8.306   4.419   5.305
11790TIP3   OH235326   0.013   5.883   4.582
11790TIP3    H135327   0.059   5.802   4.564
11790TIP3    H235328   0.070   5.952   4.546
11791TIP3   OH235329   0.145   5.648   4.493
11791TIP3    H135330   0.062   5.600   4.501
11791TIP3    H235331   0.191   5.630   4.575
11792TIP3   OH235332   0.523   5.753   5.270
11792TIP3    H135333   0.534   5.674   5.218
11792TIP3    H235334   0.539   5.825   5.209
11793TIP3   OH235335   8.321   5.148   4.512
11793TIP3    H135336   8.240   5.198   4.500
11793TIP3    H235337   8.362   5.147   4.426
11794TIP3   OH235338   8.284   4.932   4.227
11794TIP3    H135339   8.345   4.989   4.275
11794TIP3    H235340   8.341   4.872   4.179
11795TIP3   OH235341   0.166   5.227   4.486
11795TIP3    H135342   0.109   5.258   4.556
11795TIP3    H235343   0.240   5.187   4.532
11796TIP3   OH235344   0.387   5.249   5.389
11796TIP3    H135345   0.405   5.328   5.441
11796TIP3    H235346   0.299   5.264   5.354
11797TIP3   OH235347   7.908   5.225   4.901
11797TIP3    H135348   7.866   5.170   4.835
11797TIP3    H235349   7.981   5.173   4.933
11798TIP3   OH235350   8.038   5.640   5.048
11798TIP3    H135351   8.014   5.605   4.962
11798TIP3    H235352   8.125   5.603   5.065
11799TIP3   OH235353   8.040   5.201   5.255
11799TIP3    H135354   8.073   5.174   5.169
11799TIP3    H235355   8.083   5.284   5.273
11800TIP3   OH235356   0.066   5.837   5.052
11800TIP3    H135357   0.056   5.890   5.131
11800TIP3    H235358   0.051   5.747   5.081
11801TIP3   OH235359   8.175   5.761   5.570
11801TIP3    H135360   8.117   5.818   5.621
11801TIP3    H235361   8.116   5.705   5.519
11802TIP3   OH235362   0.016   5.081   4.308
11802TIP3    H135363   0.064   5.144   4.361
11802TIP3    H235364   0.042   5.100   4.218
11803TIP3   OH235365   7.933   5.314   5.683
11803TIP3    H135366   7.940   5.400   5.726
11803TIP3    H235367   7.842   5.289   5.696
11804TIP3   OH235368   8.259   5.765   4.587
11804TIP3    H135369   8.338   5.819   4.596
11804TIP3    H235370   8.196   5.822   4.543
11805TIP3   OH235371   7.970   5.920   5.667
11805TIP3    H135372   7.937   5.923   5.577
11805TIP3    H235373   7.894   5.891   5.719
11806TIP3   OH235374   7.772   5.071   4.703
11806TIP3    H135375   7.704   5.114   4.650
11806TIP3    H235376   7.738   4.983   4.719
11807TIP3   OH235377   0.347   5.704   3.898
11807TIP3    H135378   0.290   5.780   3.897
11807TIP3    H235379   0.428   5.733   3.855
11808TIP3   OH235380   7.551   5.453   5.614
11808TIP3    H135381   7.487   5.429   5.547
11808TIP3    H235382   7.590   5.370   5.640
11809TIP3   OH235383   7.407   5.647   5.247
11809TIP3    H135384   7.502   5.642   5.237
11809TIP3    H235385   7.393   5.725   5.301
11810TIP3   OH235386   8.365   5.906   5.443
11810TIP3    H135387   8.410   5.944   5.518
11810TIP3    H235388   8.294   5.854   5.480
11811TIP3   OH235389   8.140   6.012   4.391
11811TIP3    H135390   8.096   5.994   4.308
11811TIP3    H235391   8.107   6.098   4.417
11812TIP3   OH235392   7.575   5.860   4.778
11812TIP3    H135393   7.624   5.854   4.860
11812TIP3    H235394   7.522   5.780   4.776
11813TIP3   OH235395   8.340   5.915   4.029
11813TIP3    H135396   8.396   5.847   3.991
11813TIP3    H235397   8.374   5.928   4.118
11814TIP3   OH235398   8.389   5.963   4.300
11814TIP3    H135399   8.302   5.973   4.338
11814TIP3    H235400   8.442   5.926   4.370
11815TIP3   OH235401   7.755   5.635   5.598
11815TIP3    H135402   7.802   5.626   5.681
11815TIP3    H235403   7.682   5.574   5.605
11816TIP3   OH235404   8.151   4.462   5.391
11816TIP3    H135405   8.066   4.430   5.359
11816TIP3    H235406   8.130   4.542   5.438
11817TIP3   OH235407   0.155   4.594   5.567
11817TIP3    H135408   0.221   4.556   5.625
11817TIP3    H235409   0.072   4.575   5.610
11818TIP3   OH235410   0.463   5.005   5.511
11818TIP3    H135411   0.404   5.006   5.586
11818TIP3    H235412   0.442   5.084   5.462
11819TIP3   OH235413   0.097   5.138   4.056
11819TIP3    H135414   0.068   5.105   3.970
11819TIP3    H235415   0.123   5.228   4.039
11820TIP3   OH235416   8.312   4.502   4.364
11820TIP3    H135417   8.277   4.504   4.453
11820TIP3    H235418   8.266   4.430   4.322
11821TIP3   OH235419   8.086   4.980   5.407
11821TIP3    H135420   8.038   4.999   5.488
11821TIP3    H235421   8.072   5.058   5.353
11822TIP3   OH235422   7.969   4.862   4.918
11822TIP3    H135423   7.880   4.837   4.941
11822TIP3    H235424   7.984   4.822   4.833
11823TIP3   OH235425   8.462   4.953   4.646
11823TIP3    H135426   8.407   5.022   4.608
11823TIP3    H235427   8.515   4.922   4.573
11824TIP3   OH235428   0.129   5.224   5.725
11824TIP3    H135429   0.120   5.150   5.785
11824TIP3    H235430   0.223   5.243   5.725
11825TIP3   OH235431   0.102   4.977   4.884
11825TIP3    H135432   0.043   4.998   4.812
11825TIP3    H235433   0.139   4.892   4.862
11826TIP3   OH235434   7.905   5.004   5.617
11826TIP3    H135435   7.942   5.065   5.680
11826TIP3    H235436   7.895   4.922   5.665
11827TIP3   OH235437   7.960   4.487   4.326
11827TIP3    H135438   7.950   4.482   4.421
11827TIP3    H235439   7.883   4.535   4.296
11828TIP3   OH235440   7.501   4.528   5.193
11828TIP3    H135441   7.574   4.558   5.247
11828TIP3    H235442   7.542   4.493   5.114
11829TIP3   OH235443   7.466   4.509   4.713
11829TIP3    H135444   7.513   4.540   4.636
11829TIP3    H235445   7.406   4.580   4.736
11830TIP3   OH235446   0.106   5.228   5.311
11830TIP3    H135447   0.147   5.167   5.250
11830TIP3    H235448   0.085   5.176   5.388
11831TIP3   OH235449   8.292   4.706   4.980
11831TIP3    H135450   8.220   4.693   5.041
11831TIP3    H235451   8.367   4.664   5.021
11832TIP3   OH235452   7.734   4.739   4.986
11832TIP3    H135453   7.643   4.747   4.958
11832TIP3    H235454   7.758   4.649   4.966
11833TIP3   OH235455   7.997   4.734   4.679
11833TIP3    H135456   8.090   4.751   4.660
11833TIP3    H235457   7.952   4.757   4.597
11834TIP3   OH235458   0.214   4.774   5.176
11834TIP3    H135459   0.201   4.783   5.270
11834TIP3    H235460   0.295   4.724   5.167
11835TIP3   OH235461   7.848   4.772   4.453
11835TIP3    H135462   7.777   4.726   4.409
11835TIP3    H235463   7.900   4.809   4.381
11836TIP3   OH235464   7.923   5.562   5.825
11836TIP3    H135465   8.000   5.594   5.873
11836TIP3    H235466   7.854   5.557   5.892
11837TIP3   OH235467   8.383   5.016   5.085
11837TIP3    H135468   8.445   4.967   5.032
11837TIP3    H235469   8.382   4.970   5.169
11838TIP3   OH235470   7.899   4.497   4.961
11838TIP3    H135471   7.862   4.424   5.011
11838TIP3    H235472   7.949   4.456   4.891
11839TIP3   OH235473   8.357   4.915   5.368
11839TIP3    H135474   8.269   4.950   5.384
11839TIP3    H235475   8.415   4.973   5.417
11840TIP3   OH235476   8.093   5.298   4.466
11840TIP3    H135477   8.023   5.234   4.450
11840TIP3    H235478   8.073   5.333   4.553
11841TIP3   OH235479   0.486   5.555   5.081
11841TIP3    H135480   0.521   5.540   4.994
11841TIP3    H235481   0.404   5.505   5.083
11842TIP3   OH235482   0.058   4.608   4.314
11842TIP3    H135483  -0.033   4.584   4.332
11842TIP3    H235484   0.061   4.702   4.333
11843TIP3   OH235485   0.011   5.626   5.468
11843TIP3    H135486   0.057   5.582   5.539
11843TIP3    H235487  -0.050   5.684   5.511
11844TIP3   OH235488   0.154   4.867   4.405
11844TIP3    H135489   0.230   4.917   4.435
11844TIP3    H235490   0.097   4.932   4.363
11845TIP3   OH235491   7.791   5.325   5.136
11845TIP3    H135492   7.826   5.296   5.051
11845TIP3    H235493   7.831   5.267   5.200
11846TIP3   OH235494   8.240   5.450   4.292
11846TIP3    H135495   8.194   5.534   4.290
11846TIP3    H235496   8.185   5.395   4.348
11847TIP3   OH235497   7.669   5.243   5.752
11847TIP3    H135498   7.693   5.232   5.844
11847TIP3    H235499   7.602   5.177   5.736
11848TIP3   OH235500   8.391   5.346   5.764
11848TIP3    H135501   8.331   5.288   5.718
11848TIP3    H235502   8.478   5.319   5.735
11849TIP3   OH235503   0.143   5.911   5.359
11849TIP3    H135504   0.053   5.886   5.378
11849TIP3    H235505   0.183   5.922   5.445
11850TIP3   OH235506   0.250   5.775   4.167
11850TIP3    H135507   0.248   5.725   4.249
11850TIP3    H235508   0.286   5.713   4.103
11851TIP3   OH235509   0.252   5.402   5.004
11851TIP3    H135510   0.159   5.384   5.022
11851TIP3    H235511   0.288   5.317   4.978
11852TIP3   OH235512   7.890   5.630   4.762
11852TIP3    H135513   7.887   5.710   4.709
11852TIP3    H235514   7.798   5.608   4.778
11853TIP3   OH235515   7.456   4.931   4.470
11853TIP3    H135516   7.502   5.013   4.488
11853TIP3    H235517   7.381   4.931   4.529
11854TIP3   OH235518   8.022   5.393   4.707
11854TIP3    H135519   7.989   5.481   4.725
11854TIP3    H235520   7.988   5.339   4.779
11855TIP3   OH235521   8.161   5.971   5.233
11855TIP3    H135522   8.199   6.047   5.188
11855TIP3    H235523   8.233   5.937   5.286
11856TIP3   OH235524   7.806   5.868   4.616
11856TIP3    H135525   7.722   5.876   4.662
11856TIP3    H235526   7.842   5.957   4.616
11857TIP3   OH235527   0.045   5.599   5.194
11857TIP3    H135528   0.028   5.605   5.288
11857TIP3    H235529   0.134   5.565   5.188
11858TIP3   OH235530   0.021   5.482   4.068
11858TIP3    H135531   0.071   5.463   4.147
11858TIP3    H235532  -0.071   5.472   4.095
11859TIP3   OH235533   7.876   4.748   5.758
11859TIP3    H135534   7.781   4.751   5.768
11859TIP3    H235535   7.906   4.693   5.830
11860TIP3   OH235536   0.188   5.419   4.286
11860TIP3    H135537   0.172   5.351   4.351
11860TIP3    H235538   0.224   5.492   4.336
11861TIP3   OH235539   7.597   5.830   5.391
11861TIP3    H135540   7.652   5.760   5.428
11861TIP3    H235541   7.617   5.906   5.445
11862TIP3   OH235542   7.888   5.474   4.076
11862TIP3    H135543   7.898   5.384   4.048
11862TIP3    H235544   7.865   5.468   4.169
11863TIP3   OH235545   7.830   5.485   4.348
11863TIP3    H135546   7.903   5.458   4.404
11863TIP3    H235547   7.831   5.580   4.352
11864TIP3   OH235548   7.565   5.176   4.549
11864TIP3    H135549   7.501   5.218   4.606
11864TIP3    H235550   7.580   5.240   4.479
11865TIP3   OH235551   0.221   4.832   5.446
11865TIP3    H135552   0.303   4.858   5.487
11865TIP3    H235553   0.196   4.751   5.491
11866TIP3   OH235554   0.085   4.571   4.614
11866TIP3    H135555   0.077   4.593   4.521
11866TIP3    H235556   0.128   4.647   4.653
11867TIP3   OH235557   8.098   5.681   4.295
11867TIP3    H135558   8.012   5.702   4.332
11867TIP3    H235559   8.115   5.752   4.232
11868TIP3   OH235560   8.281   4.749   4.710
11868TIP3    H135561   8.345   4.819   4.696
11868TIP3    H235562   8.283   4.733   4.805
11869TIP3   OH235563   0.052   5.058   5.513
11869TIP3    H135564   0.074   5.109   5.591
11869TIP3    H235565   0.111   4.982   5.517
11870TIP3   OH235566   8.425   4.458   4.807
11870TIP3    H135567   8.454   4.501   4.888
11870TIP3    H235568   8.479   4.498   4.739
11871TIP3   OH235569   7.843   5.757   4.365
11871TIP3    H135570   7.814   5.823   4.302
11871TIP3    H235571   7.828   5.797   4.450
11872TIP3   OH235572   7.944   4.472   4.600
11872TIP3    H135573   7.936   4.559   4.640
11872TIP3    H235574   8.038   4.451   4.608
11873TIP3   OH235575   0.336   5.140   4.922
11873TIP3    H135576   0.253   5.103   4.894
11873TIP3    H235577   0.351   5.105   5.010
11874TIP3   OH235578   7.561   5.380   4.352
11874TIP3    H135579   7.625   5.450   4.365
11874TIP3    H235580   7.600   5.323   4.287
11875TIP3   OH235581   7.500   4.660   4.489
11875TIP3    H135582   7.503   4.756   4.486
11875TIP3    H235583   7.425   4.636   4.435
11876TIP3   OH235584   0.312   6.127   4.842
11876TIP3    H135585   0.272   6.174   4.769
11876TIP3    H235586   0.403   6.114   4.815
11877TIP3   OH235587   7.889   4.379   5.359
11877TIP3    H135588   7.860   4.346   5.274
11877TIP3    H235589   7.881   4.304   5.418
11878TIP3   OH235590   7.424   5.597   4.739
11878TIP3    H135591   7.360   5.630   4.803
11878TIP3    H235592   7.397   5.637   4.656
11879TIP3   OH235593   7.567   6.131   5.797
11879TIP3    H135594   7.648   6.136   5.849
11879TIP3    H235595   7.544   6.038   5.798
11880TIP3   OH235596   8.039   6.125   5.839
11880TIP3    H135597   8.111   6.171   5.797
11880TIP3    H235598   8.022   6.050   5.783
11881TIP3   OH235599   8.049   5.678   3.985
11881TIP3    H135600   7.995   5.608   4.021
11881TIP3    H235601   8.124   5.632   3.947
11882TIP3   OH235602  -0.017   5.718   3.901
11882TIP3    H135603   0.030   5.653   3.953
11882TIP3    H235604   0.026   5.717   3.816
11883TIP3   OH235605   7.717   5.541   6.007
11883TIP3    H135606   7.732   5.448   6.018
11883TIP3    H235607   7.631   5.547   5.965
11884TIP3   OH235608   7.698   5.195   4.209
11884TIP3    H135609   7.751   5.166   4.284
11884TIP3    H235610   7.760   5.201   4.137
11885TIP3   OH235611   8.308   5.604   5.772
11885TIP3    H135612   8.273   5.604   5.683
11885TIP3    H235613   8.355   5.521   5.780
11886TIP3   OH235614   8.214   5.397   4.021
11886TIP3    H135615   8.211   5.410   4.115
11886TIP3    H235616   8.213   5.302   4.010
11887TIP3   OH235617   0.292   5.629   5.340
11887TIP3    H135618   0.371   5.674   5.311
11887TIP3    H235619   0.235   5.699   5.373
11888TIP3   OH235620   7.839   5.277   5.988
11888TIP3    H135621   7.918   5.228   5.963
11888TIP3    H235622   7.856   5.304   6.078
11889TIP3   OH235623   7.902   5.102   4.429
11889TIP3    H135624   7.872   5.065   4.512
11889TIP3    H235625   7.938   5.028   4.380
11890TIP3   OH235626   8.168   5.166   5.654
11890TIP3    H135627   8.093   5.225   5.656
11890TIP3    H235628   8.222   5.198   5.581
11891TIP3   OH235629   8.005   4.898   4.266
11891TIP3    H135630   7.977   4.907   4.175
11891TIP3    H235631   8.100   4.900   4.262
11892TIP3   OH235632   0.147   5.540   5.706
11892TIP3    H135633   0.238   5.549   5.679
11892TIP3    H235634   0.150   5.486   5.784
11893TIP3   OH235635   8.288   4.955   5.783
11893TIP3    H135636   8.296   4.878   5.727
11893TIP3    H235637   8.249   5.022   5.727
11894TIP3   OH235638   8.296   4.743   5.589
11894TIP3    H135639   8.327   4.785   5.509
11894TIP3    H235640   8.205   4.722   5.572
11895TIP3   OH235641   8.321   5.276   5.464
11895TIP3    H135642   8.408   5.282   5.424
11895TIP3    H235643   8.268   5.338   5.415
11896TIP3   OH235644   0.405   5.257   5.761
11896TIP3    H135645   0.425   5.168   5.788
11896TIP3    H235646   0.451   5.312   5.824
11897TIP3   OH235647   0.390   5.509   5.559
11897TIP3    H135648   0.354   5.550   5.481
11897TIP3    H235649   0.483   5.497   5.540
11898TIP3   OH235650   8.171   5.064   6.014
11898TIP3    H135651   8.106   4.996   6.034
11898TIP3    H235652   8.207   5.039   5.930
11899TIP3   OH235653   8.415   4.503   5.662
11899TIP3    H135654   8.367   4.583   5.641
11899TIP3    H235655   8.351   4.433   5.652
11900TIP3   OH235656   0.056   5.001   5.865
11900TIP3    H135657   0.074   4.985   5.957
11900TIP3    H235658  -0.036   4.978   5.854
11901TIP3   OH235659   0.297   4.960   5.730
11901TIP3    H135660   0.217   4.963   5.783
11901TIP3    H235661   0.362   4.921   5.788
11902TIP3   OH235662   0.490   4.875   5.897
11902TIP3    H135663   0.556   4.818   5.936
11902TIP3    H235664   0.485   4.950   5.956
11903TIP3   OH235665   8.013   4.841   6.072
11903TIP3    H135666   8.017   4.753   6.036
11903TIP3    H235667   8.050   4.833   6.160
11904TIP3   OH235668   0.020   4.510   5.913
11904TIP3    H135669   0.078   4.433   5.914
11904TIP3    H235670  -0.019   4.509   5.826
11905TIP3   OH235671   0.077   4.719   6.082
11905TIP3    H135672   0.060   4.653   6.014
11905TIP3    H235673   0.006   4.782   6.072
11906TIP3   OH235674   7.814   5.957   4.175
11906TIP3    H135675   7.908   5.949   4.160
11906TIP3    H235676   7.782   6.008   4.100
11907TIP3   OH235677   7.290   5.338   4.388
11907TIP3    H135678   7.382   5.362   4.378
11907TIP3    H235679   7.283   5.251   4.349
11908TIP3   OH235680   7.208   5.950   4.809
11908TIP3    H135681   7.144   5.893   4.767
11908TIP3    H235682   7.252   5.894   4.873
11909TIP3   OH235683   7.343   5.797   4.997
11909TIP3    H135684   7.333   5.727   5.061
11909TIP3    H235685   7.395   5.864   5.042
11910TIP3   OH235686   0.496   5.960   5.081
11910TIP3    H135687   0.439   5.993   5.150
11910TIP3    H235688   0.438   5.912   5.022
11911TIP3   OH235689   0.381   5.104   4.613
11911TIP3    H135690   0.469   5.065   4.616
11911TIP3    H235691   0.373   5.150   4.697
11912TIP3   OH235692   7.528   5.213   5.362
11912TIP3    H135693   7.522   5.178   5.273
11912TIP3    H235694   7.621   5.213   5.381
11913TIP3   OH235695   7.748   4.895   6.043
11913TIP3    H135696   7.844   4.890   6.042
11913TIP3    H235697   7.721   4.810   6.078
11914TIP3   OH235698   7.709   4.589   5.368
11914TIP3    H135699   7.766   4.513   5.377
11914TIP3    H235700   7.769   4.663   5.360
11915TIP3   OH235701   7.508   4.863   5.439
11915TIP3    H135702   7.557   4.858   5.357
11915TIP3    H235703   7.539   4.943   5.481
11916TIP3   OH235704   7.493   4.367   4.943
11916TIP3    H135705   7.402   4.359   4.972
11916TIP3    H235706   7.488   4.424   4.867
11917TIP3   OH235707   0.157   6.070   4.453
11917TIP3    H135708   0.198   6.058   4.367
11917TIP3    H235709   0.206   6.140   4.495
11918TIP3   OH235710   7.712   4.448   5.757
11918TIP3    H135711   7.663   4.440   5.839
11918TIP3    H235712   7.648   4.484   5.695
11919TIP3   OH235713   7.755   5.861   5.829
11919TIP3    H135714   7.662   5.845   5.815
11919TIP3    H235715   7.763   5.871   5.924
11920TIP3   OH235716   7.934   5.913   5.380
11920TIP3    H135717   7.882   5.985   5.345
11920TIP3    H235718   8.019   5.921   5.336
11921TIP3   OH235719   7.605   6.165   5.409
11921TIP3    H135720   7.517   6.194   5.384
11921TIP3    H235721   7.625   6.214   5.488
11922TIP3   OH235722   7.844   6.144   5.265
11922TIP3    H135723   7.759   6.156   5.309
11922TIP3    H235724   7.829   6.177   5.176
11923TIP3   OH235725   8.259   6.181   5.082
11923TIP3    H135726   8.213   6.177   4.998
11923TIP3    H235727   8.240   6.268   5.116
11924TIP3   OH235728   0.162   6.289   5.051
11924TIP3    H135729   0.166   6.378   5.016
11924TIP3    H235730   0.190   6.234   4.978
11925TIP3   OH235731   7.521   5.954   5.150
11925TIP3    H135732   7.544   5.930   5.240
11925TIP3    H235733   7.590   5.914   5.096
11926TIP3   OH235734   7.716   5.828   5.010
11926TIP3    H135735   7.728   5.746   5.058
11926TIP3    H235736   7.804   5.865   5.004
11927TIP3   OH235737   7.983   5.919   5.015
11927TIP3    H135738   8.011   5.828   5.001
11927TIP3    H235739   8.027   5.946   5.096
11928TIP3   OH235740   0.005   4.544   5.054
11928TIP3    H135741  -0.011   4.496   5.135
11928TIP3    H235742   0.101   4.544   5.044
11929TIP3   OH235743   7.802   4.284   5.111
11929TIP3    H135744   7.710   4.256   5.117
11929TIP3    H235745   7.851   4.202   5.108
11930TIP3   OH235746   7.593   4.162   4.763
11930TIP3    H135747   7.620   4.216   4.690
11930TIP3    H235748   7.565   4.224   4.831
11931TIP3   OH235749   8.251   4.319   4.995
11931TIP3    H135750   8.301   4.369   4.930
11931TIP3    H235751   8.276   4.357   5.079
11932TIP3   OH235752   0.253   4.446   4.973
11932TIP3    H135753   0.287   4.424   4.886
11932TIP3    H235754   0.256   4.364   5.021
11933TIP3   OH235755   7.303   5.736   4.539
11933TIP3    H135756   7.220   5.700   4.508
11933TIP3    H235757   7.301   5.828   4.513
11934TIP3   OH235758   7.711   4.318   4.523
11934TIP3    H135759   7.755   4.253   4.467
11934TIP3    H235760   7.782   4.370   4.559
11935TIP3   OH235761   8.222   4.498   4.625
11935TIP3    H135762   8.278   4.451   4.686
11935TIP3    H235763   8.236   4.590   4.645
11936TIP3   OH235764   8.082   5.912   4.123
11936TIP3    H135765   8.167   5.940   4.090
11936TIP3    H235766   8.055   5.841   4.065
11937TIP3   OH235767   0.284   6.039   4.217
11937TIP3    H135768   0.282   5.944   4.205
11937TIP3    H235769   0.257   6.075   4.132
11938TIP3   OH235770   8.012   4.567   6.006
11938TIP3    H135771   7.973   4.498   6.060
11938TIP3    H235772   8.104   4.568   6.032
11939TIP3   OH235773   8.260   4.563   6.125
11939TIP3    H135774   8.347   4.545   6.087
11939TIP3    H235775   8.248   4.495   6.191
11940TIP3   OH235776   7.383   5.749   4.177
11940TIP3    H135777   7.388   5.777   4.269
11940TIP3    H235778   7.468   5.707   4.161
11941TIP3   OH235779   0.949   6.087   6.366
11941TIP3    H135780   0.918   6.175   6.388
11941TIP3    H235781   0.875   6.046   6.322
11942TIP3   OH235782   0.961   6.065   6.747
11942TIP3    H135783   0.994   6.052   6.835
11942TIP3    H235784   0.914   5.984   6.727
11943TIP3   OH235785   1.189   6.389   6.440
11943TIP3    H135786   1.183   6.322   6.507
11943TIP3    H235787   1.220   6.467   6.487
11944TIP3   OH235788   0.894   6.872   6.434
11944TIP3    H135789   0.944   6.791   6.421
11944TIP3    H235790   0.837   6.853   6.509
11945TIP3   OH235791   0.778   6.281   6.806
11945TIP3    H135792   0.814   6.204   6.762
11945TIP3    H235793   0.855   6.334   6.828
11946TIP3   OH235794   1.760   5.633   6.799
11946TIP3    H135795   1.790   5.712   6.844
11946TIP3    H235796   1.784   5.646   6.707
11947TIP3   OH235797   1.156   5.809   6.833
11947TIP3    H135798   1.200   5.727   6.857
11947TIP3    H235799   1.126   5.793   6.743
11948TIP3   OH235800   1.196   5.567   6.418
11948TIP3    H135801   1.259   5.550   6.488
11948TIP3    H235802   1.249   5.598   6.345
11949TIP3   OH235803   7.498   1.833   0.030
11949TIP3    H135804   7.415   1.876   0.011
11949TIP3    H235805   7.520   1.861   0.119
11950TIP3   OH235806   0.813   6.322   6.246
11950TIP3    H135807   0.816   6.269   6.167
11950TIP3    H235808   0.889   6.379   6.241
11951TIP3   OH235809   1.395   5.571   6.597
11951TIP3    H135810   1.386   5.519   6.678
11951TIP3    H235811   1.449   5.646   6.623
11952TIP3   OH235812   1.252   6.630   6.592
11952TIP3    H135813   1.166   6.620   6.634
11952TIP3    H235814   1.252   6.718   6.556
11953TIP3   OH235815   1.553   5.530   6.963
11953TIP3    H135816   1.467   5.558   6.932
11953TIP3    H235817   1.615   5.561   6.897
11954TIP3   OH235818   6.519   1.152  -0.003
11954TIP3    H135819   6.514   1.057   0.013
11954TIP3    H235820   6.477   1.190   0.074
11955TIP3   OH235821   0.955   6.651   6.247
11955TIP3    H135822   1.005   6.570   6.232
11955TIP3    H235823   1.015   6.721   6.220
11956TIP3   OH235824   1.082   6.419   6.188
11956TIP3    H135825   1.118   6.355   6.126
11956TIP3    H235826   1.132   6.404   6.269
11957TIP3   OH235827   1.483   6.540   6.946
11957TIP3    H135828   1.473   6.463   6.889
11957TIP3    H235829   1.468   6.615   6.888
11958TIP3   OH235830   0.772   5.957   6.207
11958TIP3    H135831   0.698   5.897   6.221
11958TIP3    H235832   0.806   5.933   6.120
11959TIP3   OH235833   0.749   5.670   5.927
11959TIP3    H135834   0.794   5.734   5.983
11959TIP3    H235835   0.816   5.641   5.865
11960TIP3   OH235836   1.678   6.181   6.789
11960TIP3    H135837   1.596   6.231   6.796
11960TIP3    H235838   1.712   6.204   6.703
11961TIP3   OH235839   1.125   6.010   6.172
11961TIP3    H135840   1.073   6.037   6.248
11961TIP3    H235841   1.210   5.987   6.208
11962TIP3   OH235842   7.026   2.050   0.152
11962TIP3    H135843   7.029   2.128   0.208
11962TIP3    H235844   6.943   2.059   0.104
11963TIP3   OH235845   1.014   6.623   6.713
11963TIP3    H135846   0.989   6.708   6.751
11963TIP3    H235847   1.000   6.560   6.783
11964TIP3   OH235848   0.948   5.880   5.999
11964TIP3    H135849   1.008   5.931   6.053
11964TIP3    H235850   0.979   5.895   5.909
11965TIP3   OH235851   1.479   5.118   6.049
11965TIP3    H135852   1.400   5.135   6.100
11965TIP3    H235853   1.494   5.199   6.001
11966TIP3   OH235854   1.287   6.486   5.602
11966TIP3    H135855   1.294   6.580   5.583
11966TIP3    H235856   1.376   6.452   5.588
11967TIP3   OH235857   7.394   2.877   0.057
11967TIP3    H135858   7.394   2.782   0.074
11967TIP3    H235859   7.315   2.909   0.099
11968TIP3   OH235860   0.836   6.725   5.711
11968TIP3    H135861   0.839   6.641   5.664
11968TIP3    H235862   0.790   6.704   5.792
11969TIP3   OH235863   0.832   6.756   5.996
11969TIP3    H135864   0.771   6.755   6.070
11969TIP3    H235865   0.916   6.730   6.034
11970TIP3   OH235866   7.279   2.007   0.330
11970TIP3    H135867   7.196   2.020   0.283
11970TIP3    H235868   7.297   1.914   0.320
11971TIP3   OH235869   6.820   1.356   0.331
11971TIP3    H135870   6.890   1.330   0.391
11971TIP3    H235871   6.739   1.338   0.380
11972TIP3   OH235872   7.041   1.785   0.248
11972TIP3    H135873   6.995   1.781   0.332
11972TIP3    H235874   7.024   1.874   0.216
11973TIP3   OH235875   1.035   5.925   5.744
11973TIP3    H135876   1.002   5.897   5.659
11973TIP3    H235877   1.121   5.962   5.726
11974TIP3   OH235878   0.922   5.746   6.337
11974TIP3    H135879   0.879   5.823   6.299
11974TIP3    H235880   0.975   5.711   6.265
11975TIP3   OH235881   6.781   1.992   0.470
11975TIP3    H135882   6.754   1.925   0.533
11975TIP3    H235883   6.873   2.008   0.491
11976TIP3   OH235884   1.069   5.759   6.574
11976TIP3    H135885   1.009   5.791   6.507
11976TIP3    H235886   1.110   5.681   6.535
11977TIP3   OH235887   6.741   1.998   0.057
11977TIP3    H135888   6.779   1.934  -0.003
11977TIP3    H235889   6.716   1.947   0.134
11978TIP3   OH235890   0.767   5.472   6.655
11978TIP3    H135891   0.677   5.488   6.685
11978TIP3    H235892   0.819   5.471   6.735
11979TIP3   OH235893   1.239   5.548   6.876
11979TIP3    H135894   1.211   5.563   6.967
11979TIP3    H235895   1.176   5.486   6.841
11980TIP3   OH235896   7.089   3.227   0.112
11980TIP3    H135897   7.076   3.245   0.018
11980TIP3    H235898   7.112   3.312   0.149
11981TIP3   OH235899   0.849   5.794   6.768
11981TIP3    H135900   0.919   5.757   6.714
11981TIP3    H235901   0.860   5.753   6.853
11982TIP3   OH235902   6.506   1.680   0.115
11982TIP3    H135903   6.441   1.750   0.107
11982TIP3    H235904   6.579   1.720   0.162
11983TIP3   OH235905   1.445   6.326   6.776
11983TIP3    H135906   1.472   6.377   6.700
11983TIP3    H235907   1.364   6.283   6.749
11984TIP3   OH235908   0.987   5.405   6.016
11984TIP3    H135909   0.908   5.394   6.069
11984TIP3    H235910   1.021   5.491   6.041
11985TIP3   OH235911   6.601   2.405   0.208
11985TIP3    H135912   6.641   2.399   0.294
11985TIP3    H235913   6.549   2.485   0.211
11986TIP3   OH235914   1.078   5.648   6.117
11986TIP3    H135915   1.171   5.647   6.140
11986TIP3    H235916   1.068   5.725   6.061
11987TIP3   OH235917   0.677   6.236   5.979
11987TIP3    H135918   0.626   6.316   5.984
11987TIP3    H235919   0.638   6.178   6.044
11988TIP3   OH235920   6.564   2.119   0.584
11988TIP3    H135921   6.512   2.050   0.542
11988TIP3    H235922   6.653   2.103   0.551
11989TIP3   OH235923   6.770   2.661   0.103
11989TIP3    H135924   6.675   2.657   0.116
11989TIP3    H235925   6.803   2.711   0.178
11990TIP3   OH235926   1.508   5.744   5.954
11990TIP3    H135927   1.448   5.697   5.895
11990TIP3    H235928   1.512   5.833   5.918
11991TIP3   OH235929   7.400   2.587   0.094
11991TIP3    H135930   7.304   2.585   0.089
11991TIP3    H235931   7.429   2.560   0.007
11992TIP3   OH235932   1.209   6.557   5.860
11992TIP3    H135933   1.198   6.482   5.918
11992TIP3    H235934   1.229   6.520   5.775
11993TIP3   OH235935   1.214   6.187   6.688
11993TIP3    H135936   1.123   6.164   6.706
11993TIP3    H235937   1.251   6.108   6.649
11994TIP3   OH235938   1.013   6.389   6.887
11994TIP3    H135939   0.995   6.398   6.980
11994TIP3    H235940   1.101   6.351   6.883
11995TIP3   OH235941   0.982   6.290   5.767
11995TIP3    H135942   1.027   6.267   5.848
11995TIP3    H235943   0.894   6.252   5.777
11996TIP3   OH235944   1.257   6.905   6.918
11996TIP3    H135945   1.177   6.853   6.922
11996TIP3    H235946   1.234   6.981   6.864
11997TIP3   OH235947   1.307   6.767   5.585
11997TIP3    H135948   1.355   6.830   5.531
11997TIP3    H235949   1.218   6.802   5.590
11998TIP3   OH235950   1.141   6.222   5.995
11998TIP3    H135951   1.128   6.148   6.054
11998TIP3    H235952   1.233   6.216   5.970
11999TIP3   OH235953   6.835   1.595   0.196
11999TIP3    H135954   6.916   1.635   0.226
11999TIP3    H235955   6.827   1.515   0.248
12000TIP3   OH235956   1.062   5.351   6.307
12000TIP3    H135957   1.051   5.375   6.215
12000TIP3    H235958   1.099   5.429   6.348
12001TIP3   OH235959   0.729   5.555   6.397
12001TIP3    H135960   0.805   5.614   6.390
12001TIP3    H235961   0.728   5.528   6.488
12002TIP3   OH235962   6.687   1.835   0.263
12002TIP3    H135963   6.712   1.891   0.337
12002TIP3    H235964   6.740   1.756   0.273
12003TIP3   OH235965   0.888   5.255   6.512
12003TIP3    H135966   0.869   5.335   6.560
12003TIP3    H235967   0.939   5.284   6.436
12004TIP3   OH235968   7.308   1.743   0.247
12004TIP3    H135969   7.213   1.742   0.255
12004TIP3    H235970   7.325   1.696   0.165
12005TIP3   OH235971   1.298   5.942   6.575
12005TIP3    H135972   1.223   5.885   6.591
12005TIP3    H235973   1.371   5.900   6.621
12006TIP3   OH235974   1.272   6.897   6.520
12006TIP3    H135975   1.228   6.941   6.448
12006TIP3    H235976   1.365   6.915   6.507
12007TIP3   OH235977   6.823   2.794   0.336
12007TIP3    H135978   6.812   2.732   0.408
12007TIP3    H235979   6.903   2.842   0.357
12008TIP3   OH235980   0.935   6.505   5.587
12008TIP3    H135981   0.981   6.446   5.646
12008TIP3    H235982   0.988   6.505   5.507
12009TIP3   OH235983   0.681   6.182   5.709
12009TIP3    H135984   0.674   6.199   5.803
12009TIP3    H235985   0.660   6.089   5.700
12010TIP3   OH235986   6.930   2.431   0.138
12010TIP3    H135987   7.010   2.467   0.100
12010TIP3    H235988   6.865   2.500   0.126
12011TIP3   OH235989   6.803   2.352   0.545
12011TIP3    H135990   6.883   2.331   0.496
12011TIP3    H235991   6.797   2.283   0.611
12012TIP3   OH235992   1.268   6.014   5.627
12012TIP3    H135993   1.256   5.967   5.544
12012TIP3    H235994   1.239   6.103   5.609
12013TIP3   OH235995   6.375   1.476   0.260
12013TIP3    H135996   6.430   1.535   0.208
12013TIP3    H235997   6.339   1.531   0.329
12014TIP3   OH235998   6.500   2.122   0.160
12014TIP3    H135999   6.590   2.098   0.138
12014TIP3    H236000   6.488   2.208   0.120
12015TIP3   OH236001   7.041   2.012   0.580
12015TIP3    H136002   7.089   1.935   0.610
12015TIP3    H236003   7.108   2.073   0.552
12016TIP3   OH236004   7.065   2.275   0.313
12016TIP3    H136005   7.006   2.331   0.262
12016TIP3    H236006   7.153   2.298   0.281
12017TIP3   OH236007   6.557   1.286   0.394
12017TIP3    H136008   6.498   1.356   0.366
12017TIP3    H236009   6.505   1.206   0.386
12018TIP3   OH236010   6.681   1.794   0.637
12018TIP3    H136011   6.721   1.791   0.724
12018TIP3    H236012   6.600   1.743   0.645
12019TIP3   OH236013   6.915   1.728   0.480
12019TIP3    H136014   6.845   1.731   0.545
12019TIP3    H236015   6.993   1.704   0.531
12020TIP3   OH236016   7.143   1.679   0.628
12020TIP3    H136017   7.155   1.585   0.644
12020TIP3    H236018   7.137   1.718   0.716
12021TIP3   OH236019   6.651   1.301   0.654
12021TIP3    H136020   6.712   1.227   0.660
12021TIP3    H236021   6.610   1.292   0.568
12022TIP3   OH236022   6.724   1.517   0.801
12022TIP3    H136023   6.709   1.437   0.750
12022TIP3    H236024   6.637   1.556   0.810
12023TIP3   OH236025   1.524   6.990   6.484
12023TIP3    H136026   1.543   7.017   6.574
12023TIP3    H236027   1.587   7.039   6.430
12024TIP3   OH236028   1.551   7.002   6.761
12024TIP3    H136029   1.513   6.914   6.762
12024TIP3    H236030   1.627   6.996   6.820
12025TIP3   OH236031   7.268   2.682   0.391
12025TIP3    H136032   7.193   2.699   0.446
12025TIP3    H236033   7.315   2.765   0.386
12026TIP3   OH236034   1.413   6.203   5.959
12026TIP3    H136035   1.477   6.266   5.924
12026TIP3    H236036   1.456   6.165   6.035
12027TIP3   OH236037   1.538   6.071   6.163
12027TIP3    H136038   1.476   6.029   6.222
12027TIP3    H236039   1.607   6.104   6.220
12028TIP3   OH236040   1.595   6.461   6.588
12028TIP3    H136041   1.649   6.395   6.545
12028TIP3    H236042   1.595   6.535   6.527
12029TIP3   OH236043   1.430   6.751   6.780
12029TIP3    H136044   1.366   6.801   6.831
12029TIP3    H236045   1.379   6.710   6.710
12030TIP3   OH236046   1.475   5.979   5.806
12030TIP3    H136047   1.406   5.978   5.740
12030TIP3    H236048   1.451   6.053   5.863
12031TIP3   OH236049   1.340   5.650   5.763
12031TIP3    H136050   1.310   5.683   5.678
12031TIP3    H236051   1.322   5.556   5.760
12032TIP3   OH236052   1.350   5.926   6.307
12032TIP3    H136053   1.364   5.832   6.299
12032TIP3    H236054   1.337   5.940   6.401
12033TIP3   OH236055   7.313   2.343   0.222
12033TIP3    H136056   7.382   2.278   0.213
12033TIP3    H236057   7.340   2.415   0.164
12034TIP3   OH236058   7.493   2.141   0.233
12034TIP3    H136059   7.419   2.096   0.274
12034TIP3    H236060   7.568   2.083   0.248
12035TIP3   OH236061   1.292   5.385   5.749
12035TIP3    H136062   1.371   5.356   5.794
12035TIP3    H236063   1.227   5.318   5.768
12036TIP3   OH236064   1.352   5.638   6.194
12036TIP3    H136065   1.388   5.552   6.213
12036TIP3    H236066   1.409   5.674   6.127
12037TIP3   OH236067   1.512   5.816   6.697
12037TIP3    H136068   1.595   5.837   6.653
12037TIP3    H236069   1.523   5.849   6.786
12038TIP3   OH236070   1.582   5.961   6.926
12038TIP3    H136071   1.507   5.992   6.977
12038TIP3    H236072   1.616   6.039   6.882
12039TIP3   OH236073   7.698   1.545   0.540
12039TIP3    H136074   7.760   1.482   0.503
12039TIP3    H236075   7.670   1.597   0.465
12040TIP3   OH236076   1.456   5.391   6.241
12040TIP3    H136077   1.507   5.378   6.321
12040TIP3    H236078   1.398   5.315   6.238
12041TIP3   OH236079   7.565   1.681   0.344
12041TIP3    H136080   7.484   1.725   0.370
12041TIP3    H236081   7.536   1.608   0.289
12042TIP3   OH236082   1.538   5.326   5.868
12042TIP3    H136083   1.578   5.253   5.821
12042TIP3    H236084   1.605   5.394   5.870
12043TIP3   OH236085   1.098   6.849   6.133
12043TIP3    H136086   1.157   6.852   6.058
12043TIP3    H236087   1.134   6.913   6.194
12044TIP3   OH236088   6.703   3.065   0.056
12044TIP3    H136089   6.767   3.013   0.104
12044TIP3    H236090   6.698   3.147   0.104
12045TIP3   OH236091   7.468   1.440   0.227
12045TIP3    H136092   7.378   1.431   0.195
12045TIP3    H236093   7.505   1.352   0.220
12046TIP3   OH236094   0.964   6.897   6.781
12046TIP3    H136095   0.904   6.925   6.850
12046TIP3    H236096   1.024   6.971   6.770
12047TIP3   OH236097   1.203   7.085   6.714
12047TIP3    H136098   1.181   7.165   6.666
12047TIP3    H236099   1.224   7.021   6.646
12048TIP3   OH236100   1.016   5.365   6.796
12048TIP3    H136101   0.968   5.291   6.831
12048TIP3    H236102   1.084   5.326   6.740
12049TIP3   OH236103   1.526   5.250   6.689
12049TIP3    H136104   1.563   5.299   6.616
12049TIP3    H236105   1.431   5.266   6.683
12050TIP3   OH236106   1.626   5.349   6.453
12050TIP3    H136107   1.696   5.294   6.418
12050TIP3    H236108   1.657   5.439   6.441
12051TIP3   OH236109   0.719   5.103   6.690
12051TIP3    H136110   0.762   5.151   6.619
12051TIP3    H236111   0.763   5.132   6.770
12052TIP3   OH236112   1.241   5.251   6.665
12052TIP3    H136113   1.246   5.209   6.580
12052TIP3    H236114   1.231   5.179   6.727
12053TIP3   OH236115   1.273   5.178   6.232
12053TIP3    H136116   1.191   5.222   6.254
12053TIP3    H236117   1.266   5.092   6.274
12054TIP3   OH236118   0.730   5.303   6.271
12054TIP3    H136119   0.716   5.235   6.337
12054TIP3    H236120   0.710   5.385   6.315
12055TIP3   OH236121   1.242   6.823   5.897
12055TIP3    H136122   1.236   6.728   5.901
12055TIP3    H236123   1.225   6.845   5.806
12056TIP3   OH236124   7.209   1.409   0.661
12056TIP3    H136125   7.224   1.380   0.751
12056TIP3    H236126   7.295   1.405   0.620
12057TIP3   OH236127   7.145   2.959   0.140
12057TIP3    H136128   7.070   2.922   0.093
12057TIP3    H236129   7.133   3.054   0.132
12058TIP3   OH236130   2.742   6.343   5.856
12058TIP3    H136131   2.713   6.432   5.837
12058TIP3    H236132   2.670   6.288   5.825
12059TIP3   OH236133   2.744   6.341   6.246
12059TIP3    H136134   2.778   6.316   6.331
12059TIP3    H236135   2.703   6.262   6.211
12060TIP3   OH236136   2.040   6.232   6.609
12060TIP3    H136137   2.067   6.162   6.669
12060TIP3    H236138   2.116   6.290   6.604
12061TIP3   OH236139   2.987   6.644   5.925
12061TIP3    H136140   2.972   6.574   5.988
12061TIP3    H236141   3.019   6.717   5.978
12062TIP3   OH236142   2.014   6.642   6.323
12062TIP3    H136143   2.004   6.547   6.327
12062TIP3    H236144   2.108   6.656   6.325
12063TIP3   OH236145   1.718   5.845   6.109
12063TIP3    H136146   1.677   5.929   6.129
12063TIP3    H236147   1.648   5.793   6.070
12064TIP3   OH236148   1.777   6.131   6.288
12064TIP3    H136149   1.824   6.055   6.323
12064TIP3    H236150   1.841   6.174   6.231
12065TIP3   OH236151   2.642   7.105   5.942
12065TIP3    H136152   2.682   7.037   5.889
12065TIP3    H236153   2.617   7.061   6.023
12066TIP3   OH236154   2.544   6.567   6.289
12066TIP3    H136155   2.579   6.489   6.246
12066TIP3    H236156   2.622   6.617   6.314
12067TIP3   OH236157   3.559   5.887   6.285
12067TIP3    H136158   3.587   5.968   6.327
12067TIP3    H236159   3.582   5.898   6.193
12068TIP3   OH236160   2.954   6.065   6.317
12068TIP3    H136161   2.996   5.983   6.341
12068TIP3    H236162   2.922   6.050   6.228
12069TIP3   OH236163   2.292   5.727   6.282
12069TIP3    H136164   2.276   5.800   6.222
12069TIP3    H236165   2.246   5.653   6.242
12070TIP3   OH236166   2.991   5.821   5.904
12070TIP3    H136167   3.057   5.805   5.971
12070TIP3    H236168   3.041   5.854   5.829
12071TIP3   OH236169   1.928   5.927   6.391
12071TIP3    H136170   2.008   5.913   6.442
12071TIP3    H236171   1.940   5.875   6.312
12072TIP3   OH236172   2.366   6.124   6.189
12072TIP3    H136173   2.459   6.103   6.201
12072TIP3    H236174   2.327   6.043   6.156
12073TIP3   OH236175   3.629   6.096   6.458
12073TIP3    H136176   3.547   6.139   6.436
12073TIP3    H236177   3.648   6.125   6.547
12074TIP3   OH236178   2.286   5.712   6.720
12074TIP3    H136179   2.229   5.747   6.652
12074TIP3    H236180   2.237   5.726   6.802
12075TIP3   OH236181   2.627   6.561   5.728
12075TIP3    H136182   2.592   6.546   5.640
12075TIP3    H236183   2.586   6.643   5.757
12076TIP3   OH236184   2.395   6.489   6.510
12076TIP3    H136185   2.336   6.554   6.549
12076TIP3    H236186   2.437   6.535   6.438
12077TIP3   OH236187   3.193   5.826   6.084
12077TIP3    H136188   3.181   5.777   6.166
12077TIP3    H236189   3.245   5.902   6.109
12078TIP3   OH236190   2.163   5.827   6.502
12078TIP3    H136191   2.221   5.898   6.529
12078TIP3    H236192   2.209   5.785   6.428
12079TIP3   OH236193   2.221   6.685   6.611
12079TIP3    H136194   2.201   6.772   6.576
12079TIP3    H236195   2.146   6.662   6.665
12080TIP3   OH236196   1.611   6.373   5.847
12080TIP3    H136197   1.577   6.400   5.762
12080TIP3    H236198   1.646   6.453   5.886
12081TIP3   OH236199   3.050   6.889   6.083
12081TIP3    H136200   2.965   6.879   6.128
12081TIP3    H236201   3.043   6.973   6.038
12082TIP3   OH236202   3.349   5.789   6.452
12082TIP3    H136203   3.262   5.812   6.420
12082TIP3    H236204   3.409   5.819   6.384
12083TIP3   OH236205   2.638   5.424   6.436
12083TIP3    H136206   2.626   5.331   6.454
12083TIP3    H236207   2.565   5.466   6.481
12084TIP3   OH236208   2.758   6.932   5.759
12084TIP3    H136209   2.802   6.848   5.742
12084TIP3    H236210   2.817   6.997   5.722
12085TIP3   OH236211   2.897   6.715   5.675
12085TIP3    H136212   2.869   6.637   5.629
12085TIP3    H236213   2.935   6.683   5.757
12086TIP3   OH236214   3.282   6.796   6.431
12086TIP3    H136215   3.269   6.720   6.376
12086TIP3    H236216   3.262   6.871   6.375
12087TIP3   OH236217   2.573   6.194   5.690
12087TIP3    H136218   2.496   6.246   5.671
12087TIP3    H236219   2.620   6.189   5.607
12088TIP3   OH236220   2.534   5.979   5.402
12088TIP3    H136221   2.597   6.033   5.451
12088TIP3    H236222   2.589   5.916   5.355
12089TIP3   OH236223   3.474   6.440   6.278
12089TIP3    H136224   3.391   6.488   6.282
12089TIP3    H236225   3.508   6.459   6.191
12090TIP3   OH236226   2.923   6.276   5.662
12090TIP3    H136227   2.868   6.299   5.737
12090TIP3    H236228   3.007   6.251   5.701
12091TIP3   OH236229   3.153   6.315   6.576
12091TIP3    H136230   3.152   6.393   6.631
12091TIP3    H236231   3.069   6.316   6.532
12092TIP3   OH236232   2.155   6.270   6.080
12092TIP3    H136233   2.114   6.215   6.013
12092TIP3    H236234   2.230   6.219   6.111
12093TIP3   OH236235   2.286   6.685   6.224
12093TIP3    H136236   2.264   6.649   6.138
12093TIP3    H236237   2.372   6.649   6.243
12094TIP3   OH236238   2.288   6.245   6.432
12094TIP3    H136239   2.321   6.218   6.346
12094TIP3    H236240   2.331   6.328   6.450
12095TIP3   OH236241   2.818   6.891   6.224
12095TIP3    H136242   2.807   6.957   6.292
12095TIP3    H236243   2.801   6.807   6.268
12096TIP3   OH236244   2.426   6.798   6.757
12096TIP3    H136245   2.370   6.860   6.804
12096TIP3    H236246   2.365   6.745   6.706
12097TIP3   OH236247   2.760   6.137   5.486
12097TIP3    H136248   2.817   6.194   5.537
12097TIP3    H236249   2.784   6.154   5.395
12098TIP3   OH236250   2.182   6.357   6.862
12098TIP3    H136251   2.190   6.443   6.902
12098TIP3    H236252   2.090   6.334   6.874
12099TIP3   OH236253   2.507   6.812   5.764
12099TIP3    H136254   2.589   6.861   5.771
12099TIP3    H236255   2.447   6.873   5.720
12100TIP3   OH236256   2.222   6.962   6.844
12100TIP3    H136257   2.186   6.972   6.756
12100TIP3    H236258   2.146   6.941   6.899
12101TIP3   OH236259   3.276   5.374   5.537
12101TIP3    H136260   3.197   5.394   5.586
12101TIP3    H236261   3.293   5.454   5.486
12102TIP3   OH236262   2.019   6.116   5.882
12102TIP3    H136263   1.952   6.157   5.828
12102TIP3    H236264   1.988   6.027   5.896
12103TIP3   OH236265   3.080   6.740   5.086
12103TIP3    H136266   3.086   6.834   5.070
12103TIP3    H236267   3.170   6.708   5.074
12104TIP3   OH236268   1.798   6.497   6.792
12104TIP3    H136269   1.735   6.475   6.724
12104TIP3    H236270   1.839   6.413   6.815
12105TIP3   OH236271   1.658   6.694   6.422
12105TIP3    H136272   1.753   6.687   6.415
12105TIP3    H236273   1.644   6.770   6.479
12106TIP3   OH236274   3.527   7.139   6.477
12106TIP3    H136275   3.527   7.044   6.486
12106TIP3    H236276   3.450   7.168   6.525
12107TIP3   OH236277   2.621   6.929   6.616
12107TIP3    H136278   2.620   7.020   6.645
12107TIP3    H236279   2.552   6.886   6.667
12108TIP3   OH236280   2.388   7.057   5.566
12108TIP3    H136281   2.343   7.040   5.483
12108TIP3    H236282   2.355   7.142   5.594
12109TIP3   OH236283   1.824   6.905   5.956
12109TIP3    H136284   1.875   6.901   6.037
12109TIP3    H236285   1.771   6.825   5.958
12110TIP3   OH236286   2.589   6.959   5.205
12110TIP3    H136287   2.644   6.891   5.168
12110TIP3    H236288   2.621   6.970   5.294
12111TIP3   OH236289   2.639   7.009   5.475
12111TIP3    H136290   2.551   7.018   5.514
12111TIP3    H236291   2.691   6.969   5.545
12112TIP3   OH236292   3.403   6.270   6.752
12112TIP3    H136293   3.319   6.281   6.706
12112TIP3    H236294   3.422   6.177   6.746
12113TIP3   OH236295   2.004   6.679   6.774
12113TIP3    H136296   2.052   6.672   6.856
12113TIP3    H236297   1.930   6.619   6.783
12114TIP3   OH236298   2.401   5.506   6.566
12114TIP3    H136299   2.317   5.473   6.535
12114TIP3    H236300   2.379   5.585   6.616
12115TIP3   OH236301   2.940   5.619   6.761
12115TIP3    H136302   3.008   5.592   6.822
12115TIP3    H236303   2.858   5.600   6.806
12116TIP3   OH236304   3.175   6.052   6.680
12116TIP3    H136305   3.125   6.047   6.761
12116TIP3    H236306   3.150   6.136   6.641
12117TIP3   OH236307   2.838   6.177   5.231
12117TIP3    H136308   2.801   6.154   5.146
12117TIP3    H236309   2.922   6.219   5.209
12118TIP3   OH236310   2.546   5.552   5.537
12118TIP3    H136311   2.515   5.551   5.628
12118TIP3    H236312   2.511   5.471   5.499
12119TIP3   OH236313   2.335   6.025   6.583
12119TIP3    H136314   2.286   6.042   6.664
12119TIP3    H236315   2.320   6.103   6.530
12120TIP3   OH236316   2.218   5.907   6.095
12120TIP3    H136317   2.129   5.882   6.117
12120TIP3    H236318   2.233   5.868   6.008
12121TIP3   OH236319   2.711   5.993   5.824
12121TIP3    H136320   2.661   6.063   5.782
12121TIP3    H236321   2.767   5.958   5.754
12122TIP3   OH236322   2.887   6.268   6.912
12122TIP3    H136323   2.861   6.197   6.971
12122TIP3    H236324   2.980   6.281   6.931
12123TIP3   OH236325   2.866   6.018   6.058
12123TIP3    H136326   2.803   6.048   5.992
12123TIP3    H236327   2.906   5.939   6.019
12124TIP3   OH236328   2.155   6.048   6.793
12124TIP3    H136329   2.185   6.112   6.857
12124TIP3    H236330   2.146   5.967   6.842
12125TIP3   OH236331   2.202   5.529   5.502
12125TIP3    H136332   2.197   5.525   5.597
12125TIP3    H236333   2.127   5.582   5.475
12126TIP3   OH236334   1.751   5.571   6.371
12126TIP3    H136335   1.822   5.604   6.426
12126TIP3    H236336   1.795   5.539   6.292
12127TIP3   OH236337   1.713   5.553   5.889
12127TIP3    H136338   1.763   5.583   5.813
12127TIP3    H236339   1.654   5.625   5.910
12128TIP3   OH236340   2.880   6.262   6.484
12128TIP3    H136341   2.912   6.195   6.423
12128TIP3    H236342   2.848   6.212   6.559
12129TIP3   OH236343   2.552   5.731   6.159
12129TIP3    H136344   2.472   5.728   6.211
12129TIP3    H236345   2.623   5.721   6.223
12130TIP3   OH236346   1.982   5.785   6.163
12130TIP3    H136347   1.891   5.792   6.135
12130TIP3    H236348   2.007   5.695   6.143
12131TIP3   OH236349   2.247   5.781   5.854
12131TIP3    H136350   2.340   5.794   5.835
12131TIP3    H236351   2.203   5.802   5.771
12132TIP3   OH236352   3.039   5.805   6.363
12132TIP3    H136353   3.008   5.820   6.452
12132TIP3    H236354   2.975   5.745   6.325
12133TIP3   OH236355   2.096   5.817   5.627
12133TIP3    H136356   2.026   5.771   5.580
12133TIP3    H236357   2.150   5.855   5.558
12134TIP3   OH236358   7.836   2.597   0.061
12134TIP3    H136359   7.915   2.627   0.105
12134TIP3    H236360   7.769   2.598   0.130
12135TIP3   OH236361   2.630   6.059   6.257
12135TIP3    H136362   2.702   6.020   6.207
12135TIP3    H236363   2.633   6.015   6.342
12136TIP3   OH236364   2.148   5.543   6.137
12136TIP3    H136365   2.113   5.469   6.187
12136TIP3    H236366   2.200   5.503   6.068
12137TIP3   OH236367   2.606   5.960   6.542
12137TIP3    H136368   2.517   5.993   6.557
12137TIP3    H236369   2.662   6.019   6.592
12138TIP3   OH236370   2.340   6.344   5.640
12138TIP3    H136371   2.270   6.280   5.626
12138TIP3    H236372   2.323   6.378   5.728
12139TIP3   OH236373   3.240   6.584   6.265
12139TIP3    H136374   3.266   6.631   6.186
12139TIP3    H236375   3.159   6.539   6.240
12140TIP3   OH236376   2.799   5.655   5.508
12140TIP3    H136377   2.706   5.636   5.515
12140TIP3    H236378   2.807   5.748   5.531
12141TIP3   OH236379   2.745   6.668   6.635
12141TIP3    H136380   2.765   6.642   6.725
12141TIP3    H236381   2.701   6.753   6.644
12142TIP3   OH236382   2.870   5.908   5.609
12142TIP3    H136383   2.965   5.911   5.623
12142TIP3    H236384   2.852   5.986   5.556
12143TIP3   OH236385   2.035   6.363   6.312
12143TIP3    H136386   2.073   6.338   6.228
12143TIP3    H236387   2.082   6.310   6.377
12144TIP3   OH236388   2.487   6.495   5.463
12144TIP3    H136389   2.441   6.579   5.464
12144TIP3    H236390   2.436   6.440   5.522
12145TIP3   OH236391   7.586   2.279  -0.010
12145TIP3    H136392   7.607   2.270   0.083
12145TIP3    H236393   7.518   2.214  -0.026
12146TIP3   OH236394   2.646   6.403   6.944
12146TIP3    H136395   2.581   6.343   6.905
12146TIP3    H236396   2.730   6.366   6.919
12147TIP3   OH236397   2.903   6.918   6.533
12147TIP3    H136398   2.809   6.914   6.545
12147TIP3    H236399   2.935   6.969   6.608
12148TIP3   OH236400   3.306   6.001   5.439
12148TIP3    H136401   3.247   5.953   5.381
12148TIP3    H236402   3.309   6.089   5.404
12149TIP3   OH236403   3.529   6.860   6.514
12149TIP3    H136404   3.434   6.852   6.504
12149TIP3    H236405   3.565   6.829   6.431
12150TIP3   OH236406   3.014   6.814   5.350
12150TIP3    H136407   2.987   6.744   5.410
12150TIP3    H236408   3.027   6.770   5.266
12151TIP3   OH236409   3.008   6.443   6.182
12151TIP3    H136410   2.916   6.421   6.198
12151TIP3    H236411   3.044   6.365   6.139
12152TIP3   OH236412   2.138   6.675   5.939
12152TIP3    H136413   2.137   6.754   5.885
12152TIP3    H236414   2.046   6.656   5.956
12153TIP3   OH236415   1.701   5.977   5.646
12153TIP3    H136416   1.748   6.058   5.665
12153TIP3    H236417   1.626   5.978   5.706
12154TIP3   OH236418   2.268   6.435   5.883
12154TIP3    H136419   2.238   6.524   5.900
12154TIP3    H236420   2.237   6.384   5.957
12155TIP3   OH236421   2.409   7.015   6.407
12155TIP3    H136422   2.448   7.088   6.359
12155TIP3    H236423   2.481   6.977   6.457
12156TIP3   OH236424   2.054   6.914   5.792
12156TIP3    H136425   1.971   6.921   5.838
12156TIP3    H236426   2.090   7.003   5.793
12157TIP3   OH236427   2.795   6.650   6.367
12157TIP3    H136428   2.781   6.652   6.462
12157TIP3    H236429   2.869   6.591   6.354
12158TIP3   OH236430   2.772   6.544   5.255
12158TIP3    H136431   2.826   6.521   5.331
12158TIP3    H236432   2.684   6.515   5.280
12159TIP3   OH236433   3.107   7.018   5.069
12159TIP3    H136434   3.147   7.087   5.016
12159TIP3    H236435   3.028   7.057   5.105
12160TIP3   OH236436   7.793   1.785  -0.005
12160TIP3    H136437   7.698   1.788   0.007
12160TIP3    H236438   7.824   1.730   0.067
12161TIP3   OH236439   2.934   6.478   5.471
12161TIP3    H136440   2.919   6.411   5.538
12161TIP3    H236441   3.028   6.474   5.454
12162TIP3   OH236442   1.845   6.876   6.568
12162TIP3    H136443   1.901   6.810   6.609
12162TIP3    H236444   1.862   6.956   6.617
12163TIP3   OH236445   2.133   6.521   5.253
12163TIP3    H136446   2.148   6.431   5.225
12163TIP3    H236447   2.112   6.514   5.346
12164TIP3   OH236448   2.078   6.530   5.526
12164TIP3    H136449   2.154   6.500   5.577
12164TIP3    H236450   2.080   6.625   5.532
12165TIP3   OH236451   1.810   6.221   5.728
12165TIP3    H136452   1.746   6.264   5.785
12165TIP3    H236453   1.828   6.286   5.659
12166TIP3   OH236454   2.968   5.856   6.622
12166TIP3    H136455   3.047   5.894   6.659
12166TIP3    H236456   2.953   5.777   6.674
12167TIP3   OH236457   2.846   5.608   5.788
12167TIP3    H136458   2.834   5.625   5.695
12167TIP3    H236459   2.886   5.688   5.823
12168TIP3   OH236460   2.344   6.725   5.471
12168TIP3    H136461   2.259   6.747   5.509
12168TIP3    H236462   2.363   6.798   5.411
12169TIP3   OH236463   2.531   5.792   5.889
12169TIP3    H136464   2.593   5.862   5.869
12169TIP3    H236465   2.537   5.781   5.984
12170TIP3   OH236466   2.806   6.105   6.692
12170TIP3    H136467   2.828   6.155   6.771
12170TIP3    H236468   2.856   6.023   6.702
12171TIP3   OH236469   2.676   5.512   5.985
12171TIP3    H136470   2.670   5.586   6.046
12171TIP3    H236471   2.737   5.542   5.918
12172TIP3   OH236472   2.090   6.802   5.542
12172TIP3    H136473   2.062   6.869   5.479
12172TIP3    H236474   2.076   6.842   5.627
12173TIP3   OH236475   2.192   5.518   5.777
12173TIP3    H136476   2.187   5.605   5.816
12173TIP3    H236477   2.285   5.494   5.783
12174TIP3   OH236478   3.440   6.006   6.675
12174TIP3    H136479   3.345   6.006   6.685
12174TIP3    H236480   3.455   5.962   6.592
12175TIP3   OH236481   3.094   6.199   6.064
12175TIP3    H136482   3.019   6.142   6.074
12175TIP3    H236483   3.165   6.154   6.110
12176TIP3   OH236484   1.811   6.426   5.529
12176TIP3    H136485   1.878   6.493   5.543
12176TIP3    H236486   1.850   6.367   5.464
12177TIP3   OH236487   1.748   5.707   5.669
12177TIP3    H136488   1.755   5.803   5.666
12177TIP3    H236489   1.673   5.686   5.613
12178TIP3   OH236490   3.061   7.178   6.027
12178TIP3    H136491   3.015   7.217   5.952
12178TIP3    H236492   3.154   7.187   6.006
12179TIP3   OH236493   2.137   5.424   6.537
12179TIP3    H136494   2.109   5.390   6.452
12179TIP3    H236495   2.129   5.349   6.596
12180TIP3   OH236496   1.672   6.636   5.914
12180TIP3    H136497   1.615   6.672   5.983
12180TIP3    H236498   1.645   6.682   5.834
12181TIP3   OH236499   7.506   3.163   0.048
12181TIP3    H136500   7.591   3.174   0.090
12181TIP3    H236501   7.490   3.069   0.049
12182TIP3   OH236502   7.984   3.131   0.105
12182TIP3    H136503   8.079   3.124   0.105
12182TIP3    H236504   7.956   3.080   0.028
12183TIP3   OH236505   2.297   6.722   5.161
12183TIP3    H136506   2.242   6.653   5.199
12183TIP3    H236507   2.373   6.675   5.127
12184TIP3   OH236508   2.972   7.054   6.759
12184TIP3    H136509   2.949   6.992   6.829
12184TIP3    H236510   3.039   7.110   6.799
12185TIP3   OH236511   2.734   6.763   5.076
12185TIP3    H136512   2.773   6.700   5.135
12185TIP3    H236513   2.788   6.759   4.997
12186TIP3   OH236514   7.631   2.586   0.250
12186TIP3    H136515   7.648   2.492   0.259
12186TIP3    H236516   7.546   2.591   0.206
12187TIP3   OH236517   1.946   6.238   5.388
12187TIP3    H136518   2.000   6.210   5.461
12187TIP3    H236519   2.007   6.246   5.314
12188TIP3   OH236520   2.574   6.679   6.963
12188TIP3    H136521   2.530   6.700   6.881
12188TIP3    H236522   2.600   6.588   6.953
12189TIP3   OH236523   2.457   6.439   5.195
12189TIP3    H136524   2.460   6.454   5.289
12189TIP3    H236525   2.458   6.344   5.185
12190TIP3   OH236526   3.068   6.691   6.575
12190TIP3    H136527   3.140   6.732   6.526
12190TIP3    H236528   2.994   6.750   6.562
12191TIP3   OH236529   7.754   2.320   0.235
12191TIP3    H136530   7.830   2.270   0.207
12191TIP3    H236531   7.779   2.355   0.320
12192TIP3   OH236532   2.147   6.147   5.603
12192TIP3    H136533   2.124   6.108   5.688
12192TIP3    H236534   2.187   6.075   5.554
12193TIP3   OH236535   2.420   6.213   6.833
12193TIP3    H136536   2.342   6.269   6.836
12193TIP3    H236537   2.471   6.246   6.760
12194TIP3   OH236538   2.255   5.944   5.444
12194TIP3    H136539   2.229   5.951   5.352
12194TIP3    H236540   2.351   5.944   5.441
12195TIP3   OH236541   0.120   2.607   0.026
12195TIP3    H136542   0.179   2.561  -0.033
12195TIP3    H236543   0.102   2.545   0.097
12196TIP3   OH236544   3.069   6.271   5.111
12196TIP3    H136545   3.054   6.224   5.029
12196TIP3    H236546   3.037   6.360   5.094
12197TIP3   OH236547   2.544   6.002   6.956
12197TIP3    H136548   2.545   5.923   6.902
12197TIP3    H236549   2.500   6.067   6.903
12198TIP3   OH236550   2.545   5.789   6.767
12198TIP3    H136551   2.575   5.828   6.685
12198TIP3    H236552   2.454   5.765   6.750
12199TIP3   OH236553   2.570   6.322   6.640
12199TIP3    H136554   2.655   6.333   6.598
12199TIP3    H236555   2.513   6.385   6.596
12200TIP3   OH236556   0.321   2.277   0.075
12200TIP3    H136557   0.364   2.196   0.103
12200TIP3    H236558   0.388   2.324   0.026
12201TIP3   OH236559   3.191   6.531   6.753
12201TIP3    H136560   3.136   6.590   6.701
12201TIP3    H236561   3.279   6.566   6.744
12202TIP3   OH236562   8.088   2.098   0.251
12202TIP3    H136563   8.021   2.032   0.268
12202TIP3    H236564   8.122   2.075   0.164
12203TIP3   OH236565   2.676   5.549   6.836
12203TIP3    H136566   2.628   5.629   6.815
12203TIP3    H236567   2.611   5.479   6.826
12204TIP3   OH236568   8.467   2.044   0.113
12204TIP3    H136569   8.458   2.030   0.207
12204TIP3    H236570   8.381   2.021   0.077
12205TIP3   OH236571   0.209   1.997  -0.030
12205TIP3    H136572   0.135   1.997   0.031
12205TIP3    H236573   0.283   1.966   0.022
12206TIP3   OH236574   0.442   1.936   0.114
12206TIP3    H136575   0.453   1.842   0.130
12206TIP3    H236576   0.437   1.975   0.202
12207TIP3   OH236577   7.928   1.879   0.308
12207TIP3    H136578   7.930   1.790   0.275
12207TIP3    H236579   7.965   1.873   0.396
12208TIP3   OH236580   8.439   1.551   0.153
12208TIP3    H136581   8.504   1.481   0.151
12208TIP3    H236582   8.398   1.548   0.066
12209TIP3   OH236583   8.505   1.769   0.310
12209TIP3    H136584   8.486   1.697   0.250
12209TIP3    H236585   8.428   1.825   0.306
12210TIP3   OH236586   2.062   7.003   5.350
12210TIP3    H136587   2.156   6.993   5.336
12210TIP3    H236588   2.032   7.055   5.276
12211TIP3   OH236589   1.542   6.384   5.566
12211TIP3    H136590   1.634   6.407   5.552
12211TIP3    H236591   1.533   6.297   5.527
12212TIP3   OH236592   1.454   6.992   5.987
12212TIP3    H136593   1.390   6.933   5.947
12212TIP3    H236594   1.500   6.937   6.051
12213TIP3   OH236595   1.593   6.840   6.173
12213TIP3    H136596   1.582   6.772   6.239
12213TIP3    H236597   1.643   6.908   6.217
12214TIP3   OH236598   3.318   7.250   5.973
12214TIP3    H136599   3.349   7.291   6.054
12214TIP3    H236600   3.380   7.279   5.907
12215TIP3   OH236601   3.339   7.266   6.262
12215TIP3    H136602   3.297   7.180   6.254
12215TIP3    H236603   3.425   7.248   6.298
12216TIP3   OH236604   3.406   6.936   6.854
12216TIP3    H136605   3.326   6.949   6.906
12216TIP3    H236606   3.443   7.024   6.844
12217TIP3   OH236607   3.211   6.458   5.445
12217TIP3    H136608   3.274   6.522   5.412
12217TIP3    H236609   3.254   6.420   5.522
12218TIP3   OH236610   3.337   6.325   5.650
12218TIP3    H136611   3.272   6.284   5.706
12218TIP3    H236612   3.403   6.359   5.711
12219TIP3   OH236613   3.393   6.719   6.076
12219TIP3    H136614   3.444   6.650   6.035
12219TIP3    H236615   3.393   6.790   6.013
12220TIP3   OH236616   3.204   7.014   6.274
12220TIP3    H136617   3.116   7.029   6.310
12220TIP3    H236618   3.188   6.967   6.192
12221TIP3   OH236619   3.272   6.235   5.293
12221TIP3    H136620   3.204   6.233   5.225
12221TIP3    H236621   3.246   6.309   5.349
12222TIP3   OH236622   3.142   5.905   5.247
12222TIP3    H136623   3.103   5.941   5.167
12222TIP3    H236624   3.121   5.812   5.244
12223TIP3   OH236625   3.149   6.183   5.795
12223TIP3    H136626   3.157   6.088   5.783
12223TIP3    H236627   3.135   6.194   5.889
12224TIP3   OH236628   1.777   6.256   6.539
12224TIP3    H136629   1.772   6.223   6.450
12224TIP3    H236630   1.871   6.257   6.559
12225TIP3   OH236631   3.468   6.642   6.701
12225TIP3    H136632   3.518   6.560   6.691
12225TIP3    H236633   3.459   6.676   6.612
12226TIP3   OH236634   3.617   6.413   6.680
12226TIP3    H136635   3.542   6.358   6.703
12226TIP3    H236636   3.693   6.355   6.687
12227TIP3   OH236637   3.088   5.641   5.234
12227TIP3    H136638   3.161   5.608   5.287
12227TIP3    H236639   3.017   5.579   5.252
12228TIP3   OH236640   3.150   5.898   5.684
12228TIP3    H136641   3.187   5.811   5.701
12228TIP3    H236642   3.205   5.934   5.614
12229TIP3   OH236643   3.310   6.071   6.185
12229TIP3    H136644   3.391   6.093   6.140
12229TIP3    H236645   3.321   6.105   6.274
12230TIP3   OH236646   3.380   6.218   6.414
12230TIP3    H136647   3.302   6.249   6.461
12230TIP3    H236648   3.413   6.295   6.368
12231TIP3   OH236649   7.663   1.931   0.274
12231TIP3    H136650   7.759   1.930   0.278
12231TIP3    H236651   7.636   1.848   0.312
12232TIP3   OH236652   3.824   5.811   6.962
12232TIP3    H136653   3.893   5.760   6.921
12232TIP3    H236654   3.791   5.868   6.893
12233TIP3   OH236655   3.255   5.648   5.728
12233TIP3    H136656   3.303   5.634   5.810
12233TIP3    H236657   3.194   5.574   5.724
12234TIP3   OH236658   1.956   5.635   6.546
12234TIP3    H136659   2.013   5.558   6.555
12234TIP3    H236660   2.017   5.708   6.537
12235TIP3   OH236661   1.755   5.908   6.614
12235TIP3    H136662   1.806   5.904   6.533
12235TIP3    H236663   1.786   5.987   6.658
12236TIP3   OH236664   3.692   5.947   6.769
12236TIP3    H136665   3.609   5.991   6.787
12236TIP3    H236666   3.668   5.871   6.715
12237TIP3   OH236667   3.335   5.580   5.359
12237TIP3    H136668   3.372   5.511   5.305
12237TIP3    H236669   3.400   5.650   5.357
12238TIP3   OH236670   1.742   5.410   6.118
12238TIP3    H136671   1.652   5.404   6.149
12238TIP3    H236672   1.737   5.467   6.042
12239TIP3   OH236673   2.904   7.117   5.626
12239TIP3    H136674   2.950   7.103   5.543
12239TIP3    H236675   2.956   7.182   5.673
12240TIP3   OH236676   7.627   1.487  -0.006
12240TIP3    H136677   7.579   1.479   0.076
12240TIP3    H236678   7.563   1.521  -0.069
12241TIP3   OH236679   7.671   2.902   0.066
12241TIP3    H136680   7.578   2.882   0.052
12241TIP3    H236681   7.680   2.905   0.162
12242TIP3   OH236682   2.181   6.954   6.552
12242TIP3    H136683   2.130   7.028   6.520
12242TIP3    H236684   2.267   6.965   6.511
12243TIP3   OH236685   2.640   7.206   6.685
12243TIP3    H136686   2.645   7.199   6.780
12243TIP3    H236687   2.731   7.210   6.656
12244TIP3   OH236688   3.593   5.711   6.653
12244TIP3    H136689   3.503   5.708   6.620
12244TIP3    H236690   3.625   5.621   6.643
12245TIP3   OH236691   1.856   7.210   6.588
12245TIP3    H136692   1.767   7.237   6.565
12245TIP3    H236693   1.881   7.268   6.660
12246TIP3   OH236694   2.089   7.187   6.440
12246TIP3    H136695   2.007   7.198   6.488
12246TIP3    H236696   2.072   7.221   6.353
12247TIP3   OH236697   2.518   7.216   6.236
12247TIP3    H136698   2.447   7.228   6.173
12247TIP3    H236699   2.526   7.300   6.280
12248TIP3   OH236700   2.784   7.188   6.312
12248TIP3    H136701   2.691   7.186   6.290
12248TIP3    H236702   2.828   7.206   6.229
12249TIP3   OH236703   2.990   7.369   6.215
12249TIP3    H136704   2.980   7.434   6.146
12249TIP3    H236705   3.022   7.290   6.170
12250TIP3   OH236706   1.770   6.999   6.324
12250TIP3    H136707   1.790   6.976   6.415
12250TIP3    H236708   1.840   6.958   6.273
12251TIP3   OH236709   1.966   6.873   6.185
12251TIP3    H136710   1.977   6.791   6.234
12251TIP3    H236711   2.054   6.910   6.182
12252TIP3   OH236712   2.232   6.963   6.192
12252TIP3    H136713   2.259   6.872   6.180
12252TIP3    H236714   2.273   6.991   6.273
12253TIP3   OH236715   2.801   5.621   6.274
12253TIP3    H136716   2.760   5.552   6.326
12253TIP3    H236717   2.876   5.578   6.232
12254TIP3   OH236718   3.323   5.509   6.180
12254TIP3    H136719   3.359   5.556   6.105
12254TIP3    H236720   3.228   5.523   6.173
12255TIP3   OH236721   3.422   5.603   5.943
12255TIP3    H136722   3.492   5.549   5.905
12255TIP3    H236723   3.452   5.693   5.930
12256TIP3   OH236724   2.050   5.328   6.289
12256TIP3    H136725   1.958   5.300   6.294
12256TIP3    H236726   2.100   5.246   6.285
12257TIP3   OH236727   1.832   5.207   5.938
12257TIP3    H136728   1.868   5.259   5.866
12257TIP3    H236729   1.812   5.270   6.007
12258TIP3   OH236730   2.497   5.367   6.173
12258TIP3    H136731   2.552   5.410   6.108
12258TIP3    H236732   2.527   5.402   6.257
12259TIP3   OH236733   3.039   5.510   6.154
12259TIP3    H136734   3.043   5.472   6.066
12259TIP3    H236735   3.028   5.434   6.212
12260TIP3   OH236736   3.070   5.436   5.719
12260TIP3    H136737   2.986   5.479   5.732
12260TIP3    H236738   3.060   5.351   5.762
12261TIP3   OH236739   1.551   6.782   5.718
12261TIP3    H136740   1.468   6.748   5.685
12261TIP3    H236741   1.551   6.874   5.694
12262TIP3   OH236742   1.961   5.362   5.699
12262TIP3    H136743   2.005   5.297   5.643
12262TIP3    H236744   2.032   5.415   5.734
12263TIP3   OH236745   2.468   5.541   5.802
12263TIP3    H136746   2.525   5.489   5.858
12263TIP3    H236747   2.489   5.632   5.825
12264TIP3   OH236748   2.330   6.957   5.298
12264TIP3    H136749   2.416   6.983   5.266
12264TIP3    H236750   2.304   6.884   5.241
12265TIP3   OH236751   3.046   7.080   5.392
12265TIP3    H136752   3.040   6.985   5.385
12265TIP3    H236753   3.001   7.113   5.314
12266TIP3   OH236754   7.927   1.605   0.243
12266TIP3    H136755   7.888   1.536   0.296
12266TIP3    H236756   8.020   1.606   0.269
12267TIP3   OH236757   8.177   1.601   0.361
12267TIP3    H136758   8.261   1.577   0.322
12267TIP3    H236759   8.162   1.535   0.428
12268TIP3   OH236760   1.632   6.793   5.355
12268TIP3    H136761   1.640   6.822   5.446
12268TIP3    H236762   1.716   6.751   5.335
12269TIP3   OH236763   0.505   1.665   0.149
12269TIP3    H136764   0.518   1.636   0.239
12269TIP3    H236765   0.591   1.660   0.109
12270TIP3   OH236766   3.294   7.221   6.583
12270TIP3    H136767   3.206   7.185   6.568
12270TIP3    H236768   3.285   7.315   6.564
12271TIP3   OH236769   4.538   6.599   5.342
12271TIP3    H136770   4.510   6.689   5.324
12271TIP3    H236771   4.466   6.545   5.310
12272TIP3   OH236772   4.537   6.598   5.733
12272TIP3    H136773   4.574   6.577   5.819
12272TIP3    H236774   4.499   6.515   5.702
12273TIP3   OH236775   3.836   6.492   6.100
12273TIP3    H136776   3.865   6.423   6.159
12273TIP3    H236777   3.916   6.540   6.078
12274TIP3   OH236778   4.785   6.901   5.413
12274TIP3    H136779   4.768   6.832   5.476
12274TIP3    H236780   4.814   6.976   5.465
12275TIP3   OH236781   3.809   6.899   5.814
12275TIP3    H136782   3.800   6.804   5.815
12275TIP3    H236783   3.903   6.915   5.812
12276TIP3   OH236784   3.513   6.102   5.597
12276TIP3    H136785   3.470   6.186   5.616
12276TIP3    H236786   3.446   6.049   5.554
12277TIP3   OH236787   3.574   6.390   5.779
12277TIP3    H136788   3.621   6.313   5.811
12277TIP3    H236789   3.633   6.429   5.714
12278TIP3   OH236790   4.436   7.361   5.428
12278TIP3    H136791   4.476   7.292   5.375
12278TIP3    H236792   4.426   7.322   5.515
12279TIP3   OH236793   4.340   6.824   5.776
12279TIP3    H136794   4.376   6.745   5.734
12279TIP3    H236795   4.417   6.874   5.802
12280TIP3   OH236796   5.354   6.145   5.774
12280TIP3    H136797   5.383   6.225   5.818
12280TIP3    H236798   5.377   6.158   5.682
12281TIP3   OH236799   4.747   6.322   5.804
12281TIP3    H136800   4.792   6.241   5.828
12281TIP3    H236801   4.717   6.306   5.714
12282TIP3   OH236802   4.088   5.983   5.769
12282TIP3    H136803   4.072   6.057   5.710
12282TIP3    H236804   4.043   5.909   5.728
12283TIP3   OH236805   4.788   6.077   5.392
12283TIP3    H136806   4.854   6.061   5.459
12283TIP3    H236807   4.838   6.111   5.318
12284TIP3   OH236808   3.723   6.182   5.878
12284TIP3    H136809   3.803   6.168   5.928
12284TIP3    H236810   3.735   6.131   5.799
12285TIP3   OH236811   4.161   6.380   5.679
12285TIP3    H136812   4.254   6.360   5.688
12285TIP3    H236813   4.122   6.300   5.644
12286TIP3   OH236814   5.425   6.355   5.946
12286TIP3    H136815   5.346   6.401   5.916
12286TIP3    H236816   5.427   6.369   6.041
12287TIP3   OH236817   4.081   5.969   6.207
12287TIP3    H136818   4.026   6.004   6.137
12287TIP3    H236819   4.032   5.986   6.288
12288TIP3   OH236820   4.424   6.818   5.213
12288TIP3    H136821   4.388   6.803   5.126
12288TIP3    H236822   4.383   6.899   5.243
12289TIP3   OH236823   4.191   6.745   5.998
12289TIP3    H136824   4.133   6.811   6.036
12289TIP3    H236825   4.235   6.790   5.926
12290TIP3   OH236826   4.989   6.081   5.572
12290TIP3    H136827   4.973   6.039   5.656
12290TIP3    H236828   5.041   6.159   5.595
12291TIP3   OH236829   3.959   6.083   5.989
12291TIP3    H136830   4.017   6.154   6.015
12291TIP3    H236831   4.004   6.041   5.915
12292TIP3   OH236832   4.016   6.942   6.097
12292TIP3    H136833   3.997   7.028   6.060
12292TIP3    H236834   3.942   6.922   6.153
12293TIP3   OH236835   3.409   6.630   5.334
12293TIP3    H136836   3.371   6.655   5.249
12293TIP3    H236837   3.443   6.712   5.370
12294TIP3   OH236838   4.848   7.146   5.573
12294TIP3    H136839   4.762   7.134   5.614
12294TIP3    H236840   4.842   7.231   5.529
12295TIP3   OH236841   5.146   6.040   5.937
12295TIP3    H136842   5.060   6.070   5.907
12295TIP3    H236843   5.207   6.073   5.871
12296TIP3   OH236844   4.434   5.683   5.922
12296TIP3    H136845   4.423   5.589   5.938
12296TIP3    H236846   4.361   5.724   5.968
12297TIP3   OH236847   4.553   7.188   5.243
12297TIP3    H136848   4.598   7.105   5.229
12297TIP3    H236849   4.613   7.254   5.208
12298TIP3   OH236850   4.695   6.972   5.162
12298TIP3    H136851   4.661   6.894   5.120
12298TIP3    H236852   4.734   6.941   5.244
12299TIP3   OH236853   5.077   7.054   5.918
12299TIP3    H136854   5.065   6.977   5.862
12299TIP3    H236855   5.061   7.129   5.860
12300TIP3   OH236856   4.370   6.451   5.177
12300TIP3    H136857   4.291   6.503   5.158
12300TIP3    H236858   4.416   6.445   5.094
12301TIP3   OH236859   4.331   6.235   4.891
12301TIP3    H136860   4.394   6.289   4.938
12301TIP3    H236861   4.385   6.173   4.843
12302TIP3   OH236862   5.262   6.691   5.751
12302TIP3    H136863   5.184   6.745   5.764
12302TIP3    H236864   5.298   6.720   5.667
12303TIP3   OH236865   4.719   6.533   5.149
12303TIP3    H136866   4.664   6.556   5.223
12303TIP3    H236867   4.803   6.508   5.189
12304TIP3   OH236868   4.950   6.570   6.063
12304TIP3    H136869   4.952   6.647   6.121
12304TIP3    H236870   4.867   6.577   6.018
12305TIP3   OH236871   3.951   6.527   5.567
12305TIP3    H136872   3.909   6.472   5.501
12305TIP3    H236873   4.025   6.476   5.598
12306TIP3   OH236874   4.080   6.940   5.712
12306TIP3    H136875   4.060   6.905   5.625
12306TIP3    H236876   4.167   6.906   5.732
12307TIP3   OH236877   4.079   6.504   5.920
12307TIP3    H136878   4.113   6.475   5.835
12307TIP3    H236879   4.125   6.585   5.938
12308TIP3   OH236880   4.611   7.138   5.699
12308TIP3    H136881   4.600   7.217   5.752
12308TIP3    H236882   4.595   7.066   5.760
12309TIP3   OH236883   4.228   7.055   6.241
12309TIP3    H136884   4.174   7.116   6.290
12309TIP3    H236885   4.165   7.001   6.193
12310TIP3   OH236886   4.557   6.394   4.974
12310TIP3    H136887   4.614   6.451   5.025
12310TIP3    H236888   4.581   6.410   4.883
12311TIP3   OH236889   3.980   6.614   6.356
12311TIP3    H136890   3.986   6.701   6.395
12311TIP3    H236891   3.887   6.593   6.357
12312TIP3   OH236892   4.303   7.068   5.251
12312TIP3    H136893   4.385   7.117   5.259
12312TIP3    H236894   4.243   7.129   5.207
12313TIP3   OH236895   4.012   7.196   6.316
12313TIP3    H136896   3.967   7.215   6.234
12313TIP3    H236897   3.943   7.197   6.382
12314TIP3   OH236898   5.072   5.630   5.024
12314TIP3    H136899   4.992   5.650   5.073
12314TIP3    H236900   5.090   5.710   4.974
12315TIP3   OH236901   3.813   6.373   5.371
12315TIP3    H136902   3.748   6.416   5.315
12315TIP3    H236903   3.782   6.283   5.380
12316TIP3   OH236904   4.876   6.998   4.572
12316TIP3    H136905   4.882   7.092   4.557
12316TIP3    H236906   4.965   6.965   4.560
12317TIP3   OH236907   3.594   6.755   6.278
12317TIP3    H136908   3.532   6.735   6.208
12317TIP3    H236909   3.632   6.670   6.301
12318TIP3   OH236910   3.455   6.949   5.914
12318TIP3    H136911   3.548   6.935   5.895
12318TIP3    H236912   3.453   7.028   5.967
12319TIP3   OH236913   5.295   7.407   5.949
12319TIP3    H136914   5.329   7.320   5.970
12319TIP3    H236915   5.224   7.421   6.010
12320TIP3   OH236916   4.418   7.188   6.100
12320TIP3    H136917   4.417   7.278   6.132
12320TIP3    H236918   4.352   7.143   6.153
12321TIP3   OH236919   4.183   7.313   5.053
12321TIP3    H136920   4.139   7.295   4.970
12321TIP3    H236921   4.151   7.399   5.079
12322TIP3   OH236922   3.620   7.161   5.442
12322TIP3    H136923   3.669   7.155   5.524
12322TIP3    H236924   3.572   7.078   5.437
12323TIP3   OH236925   4.385   7.216   4.692
12323TIP3    H136926   4.441   7.148   4.655
12323TIP3    H236927   4.417   7.227   4.781
12324TIP3   OH236928   4.434   7.264   4.963
12324TIP3    H136929   4.347   7.274   5.002
12324TIP3    H236930   4.487   7.226   5.033
12325TIP3   OH236931   5.203   6.534   6.262
12325TIP3    H136932   5.146   6.556   6.188
12325TIP3    H236933   5.230   6.444   6.245
12326TIP3   OH236934   3.799   6.936   6.262
12326TIP3    H136935   3.849   6.928   6.343
12326TIP3    H236936   3.728   6.873   6.271
12327TIP3   OH236937   4.197   5.761   6.054
12327TIP3    H136938   4.113   5.730   6.022
12327TIP3    H236939   4.177   5.842   6.100
12328TIP3   OH236940   4.738   5.875   6.247
12328TIP3    H136941   4.807   5.849   6.308
12328TIP3    H236942   4.657   5.857   6.295
12329TIP3   OH236943   4.969   6.304   6.161
12329TIP3    H136944   4.923   6.302   6.245
12329TIP3    H236945   4.956   6.393   6.128
12330TIP3   OH236946   4.637   6.434   4.720
12330TIP3    H136947   4.597   6.411   4.636
12330TIP3    H236948   4.719   6.477   4.696
12331TIP3   OH236949   4.343   5.807   5.025
12331TIP3    H136950   4.311   5.806   5.115
12331TIP3    H236951   4.306   5.728   4.986
12332TIP3   OH236952   4.130   6.281   6.069
12332TIP3    H136953   4.086   6.302   6.151
12332TIP3    H236954   4.116   6.359   6.014
12333TIP3   OH236955   4.015   6.162   5.582
12333TIP3    H136956   3.925   6.139   5.603
12333TIP3    H236957   4.030   6.125   5.496
12334TIP3   OH236958   4.507   6.249   5.310
12334TIP3    H136959   4.457   6.320   5.269
12334TIP3    H236960   4.562   6.215   5.240
12335TIP3   OH236961   4.686   6.522   6.394
12335TIP3    H136962   4.663   6.452   6.456
12335TIP3    H236963   4.777   6.543   6.415
12336TIP3   OH236964   4.661   6.273   5.545
12336TIP3    H136965   4.599   6.304   5.479
12336TIP3    H236966   4.701   6.196   5.506
12337TIP3   OH236967   3.949   6.307   6.280
12337TIP3    H136968   3.996   6.367   6.338
12337TIP3    H236969   3.942   6.226   6.331
12338TIP3   OH236970   4.000   5.786   4.988
12338TIP3    H136971   3.992   5.784   5.084
12338TIP3    H236972   3.926   5.838   4.959
12339TIP3   OH236973   3.546   5.825   5.862
12339TIP3    H136974   3.620   5.859   5.912
12339TIP3    H236975   3.584   5.798   5.778
12340TIP3   OH236976   3.510   5.810   5.377
12340TIP3    H136977   3.558   5.841   5.300
12340TIP3    H236978   3.449   5.881   5.398
12341TIP3   OH236979   4.667   6.518   5.970
12341TIP3    H136980   4.704   6.453   5.911
12341TIP3    H236981   4.641   6.468   6.047
12342TIP3   OH236982   4.348   5.985   5.645
12342TIP3    H136983   4.268   5.984   5.698
12342TIP3    H236984   4.419   5.979   5.708
12343TIP3   OH236985   3.776   6.041   5.651
12343TIP3    H136986   3.685   6.049   5.622
12343TIP3    H236987   3.802   5.952   5.628
12344TIP3   OH236988   4.043   6.037   5.341
12344TIP3    H136989   4.136   6.051   5.321
12344TIP3    H236990   3.998   6.059   5.259
12345TIP3   OH236991   4.833   6.062   5.847
12345TIP3    H136992   4.806   6.077   5.937
12345TIP3    H236993   4.768   6.002   5.811
12346TIP3   OH236994   3.893   6.074   5.115
12346TIP3    H136995   3.823   6.026   5.068
12346TIP3    H236996   3.946   6.112   5.045
12347TIP3   OH236997   3.958   6.860   6.497
12347TIP3    H136998   4.047   6.886   6.522
12347TIP3    H236999   3.905   6.877   6.575
12348TIP3   OH237000   4.427   6.314   5.740
12348TIP3    H137001   4.501   6.279   5.690
12348TIP3    H237002   4.435   6.271   5.826
12349TIP3   OH237003   3.946   5.800   5.623
12349TIP3    H137004   3.910   5.725   5.671
12349TIP3    H237005   3.992   5.762   5.549
12350TIP3   OH237006   4.403   6.214   6.035
12350TIP3    H137007   4.315   6.252   6.046
12350TIP3    H237008   4.461   6.274   6.081
12351TIP3   OH237009   4.136   6.601   5.127
12351TIP3    H137010   4.067   6.536   5.113
12351TIP3    H237011   4.119   6.635   5.215
12352TIP3   OH237012   5.033   6.842   5.751
12352TIP3    H137013   5.058   6.892   5.674
12352TIP3    H237014   4.953   6.796   5.726
12353TIP3   OH237015   4.596   5.910   4.996
12353TIP3    H137016   4.502   5.892   5.002
12353TIP3    H237017   4.603   6.004   5.017
12354TIP3   OH237018   4.539   6.922   6.126
12354TIP3    H137019   4.573   6.904   6.213
12354TIP3    H237020   4.497   7.008   6.134
12355TIP3   OH237021   4.666   6.164   5.095
12355TIP3    H137022   4.761   6.169   5.110
12355TIP3    H237023   4.647   6.242   5.043
12356TIP3   OH237024   3.832   6.622   5.799
12356TIP3    H137025   3.867   6.598   5.713
12356TIP3    H237026   3.882   6.568   5.861
12357TIP3   OH237027   4.284   6.752   4.951
12357TIP3    H137028   4.237   6.836   4.952
12357TIP3    H237029   4.232   6.696   5.009
12358TIP3   OH237030   3.710   6.547   6.422
12358TIP3    H137031   3.734   6.529   6.513
12358TIP3    H237032   3.648   6.477   6.400
12359TIP3   OH237033   4.445   6.649   6.432
12359TIP3    H137034   4.387   6.593   6.379
12359TIP3    H237035   4.533   6.619   6.409
12360TIP3   OH237036   4.695   7.188   6.014
12360TIP3    H137037   4.601   7.182   6.030
12360TIP3    H237038   4.730   7.231   6.093
12361TIP3   OH237039   5.103   6.257   4.926
12361TIP3    H137040   5.044   6.210   4.866
12361TIP3    H237041   5.104   6.346   4.892
12362TIP3   OH237042   5.331   7.111   6.004
12362TIP3    H137043   5.235   7.107   6.003
12362TIP3    H237044   5.358   7.072   5.921
12363TIP3   OH237045   4.811   7.070   4.838
12363TIP3    H137046   4.782   7.001   4.898
12363TIP3    H237047   4.823   7.025   4.754
12364TIP3   OH237048   4.803   6.700   5.667
12364TIP3    H137049   4.711   6.679   5.682
12364TIP3    H237050   4.839   6.621   5.625
12365TIP3   OH237051   3.934   6.931   5.427
12365TIP3    H137052   3.934   7.010   5.372
12365TIP3    H237053   3.842   6.909   5.438
12366TIP3   OH237054   3.499   6.233   5.135
12366TIP3    H137055   3.545   6.315   5.153
12366TIP3    H237056   3.423   6.234   5.193
12367TIP3   OH237057   4.064   6.692   5.370
12367TIP3    H137058   4.034   6.781   5.388
12367TIP3    H237059   4.033   6.640   5.444
12368TIP3   OH237060   4.206   7.271   5.895
12368TIP3    H137061   4.248   7.343   5.847
12368TIP3    H237062   4.277   7.233   5.947
12369TIP3   OH237063   3.849   7.172   5.279
12369TIP3    H137064   3.766   7.178   5.326
12369TIP3    H237065   3.884   7.261   5.281
12370TIP3   OH237066   4.589   6.905   5.859
12370TIP3    H137067   4.575   6.906   5.953
12370TIP3    H237068   4.668   6.853   5.846
12371TIP3   OH237069   4.568   6.802   4.741
12371TIP3    H137070   4.622   6.777   4.817
12371TIP3    H237071   4.480   6.772   4.764
12372TIP3   OH237072   4.834   7.443   5.909
12372TIP3    H137073   4.761   7.381   5.908
12372TIP3    H237074   4.818   7.501   5.835
12373TIP3   OH237075   4.903   7.275   4.556
12373TIP3    H137076   4.943   7.344   4.503
12373TIP3    H237077   4.824   7.314   4.592
12374TIP3   OH237078   3.921   6.050   6.422
12374TIP3    H137079   3.826   6.052   6.431
12374TIP3    H237080   3.951   5.996   6.495
12375TIP3   OH237081   4.730   6.732   4.955
12375TIP3    H137082   4.715   6.667   5.024
12375TIP3    H237083   4.825   6.730   4.940
12376TIP3   OH237084   3.639   7.134   6.059
12376TIP3    H137085   3.694   7.061   6.087
12376TIP3    H237086   3.674   7.210   6.105
12377TIP3   OH237087   3.928   6.778   4.740
12377TIP3    H137088   3.943   6.689   4.710
12377TIP3    H237089   3.908   6.769   4.834
12378TIP3   OH237090   3.874   6.787   5.013
12378TIP3    H137091   3.950   6.756   5.063
12378TIP3    H237092   3.877   6.882   5.019
12379TIP3   OH237093   3.608   6.479   5.215
12379TIP3    H137094   3.542   6.520   5.271
12379TIP3    H237095   3.624   6.543   5.145
12380TIP3   OH237096   4.764   6.112   6.106
12380TIP3    H137097   4.842   6.156   6.140
12380TIP3    H237098   4.754   6.035   6.161
12381TIP3   OH237099   4.644   5.863   5.275
12381TIP3    H137100   4.630   5.881   5.182
12381TIP3    H237101   4.682   5.944   5.310
12382TIP3   OH237102   4.140   6.982   4.958
12382TIP3    H137103   4.055   7.005   4.996
12382TIP3    H237104   4.159   7.053   4.896
12383TIP3   OH237105   4.327   6.048   5.375
12383TIP3    H137106   4.390   6.118   5.356
12383TIP3    H237107   4.334   6.037   5.470
12384TIP3   OH237108   4.602   6.361   6.180
12384TIP3    H137109   4.626   6.414   6.256
12384TIP3    H237110   4.654   6.281   6.189
12385TIP3   OH237111   4.473   5.767   5.472
12385TIP3    H137112   4.466   5.841   5.532
12385TIP3    H237113   4.533   5.798   5.404
12386TIP3   OH237114   3.887   7.060   5.028
12386TIP3    H137115   3.859   7.127   4.966
12386TIP3    H237116   3.872   7.099   5.114
12387TIP3   OH237117   3.988   5.774   5.265
12387TIP3    H137118   3.982   5.862   5.302
12387TIP3    H237119   4.080   5.751   5.270
12388TIP3   OH237120   5.239   6.271   6.158
12388TIP3    H137121   5.145   6.270   6.174
12388TIP3    H237122   5.250   6.225   6.075
12389TIP3   OH237123   4.890   6.456   5.550
12389TIP3    H137124   4.814   6.399   5.562
12389TIP3    H237125   4.961   6.412   5.596
12390TIP3   OH237126   3.608   6.682   5.015
12390TIP3    H137127   3.677   6.748   5.028
12390TIP3    H237128   3.645   6.622   4.951
12391TIP3   OH237129   3.543   5.963   5.155
12391TIP3    H137130   3.549   6.058   5.153
12391TIP3    H237131   3.470   5.941   5.098
12392TIP3   OH237132   4.861   7.419   5.495
12392TIP3    H137133   4.816   7.463   5.423
12392TIP3    H237134   4.954   7.433   5.477
12393TIP3   OH237135   3.933   5.681   6.022
12393TIP3    H137136   3.905   5.650   5.936
12393TIP3    H237137   3.924   5.604   6.079
12394TIP3   OH237138   3.471   6.903   5.401
12394TIP3    H137139   3.406   6.930   5.465
12394TIP3    H237140   3.442   6.942   5.319
12395TIP3   OH237141   3.642   7.442   6.480
12395TIP3    H137142   3.728   7.448   6.522
12395TIP3    H237143   3.626   7.348   6.471
12396TIP3   OH237144   4.094   6.978   4.649
12396TIP3    H137145   4.039   6.910   4.686
12396TIP3    H237146   4.170   6.932   4.614
12397TIP3   OH237147   4.767   7.305   6.249
12397TIP3    H137148   4.743   7.245   6.320
12397TIP3    H237149   4.833   7.362   6.288
12398TIP3   OH237150   4.530   7.020   4.563
12398TIP3    H137151   4.568   6.956   4.622
12398TIP3    H237152   4.585   7.016   4.485
12399TIP3   OH237153   3.722   6.818   6.706
12399TIP3    H137154   3.776   6.743   6.680
12399TIP3    H237155   3.672   6.840   6.628
12400TIP3   OH237156   3.743   6.495   4.874
12400TIP3    H137157   3.797   6.465   4.947
12400TIP3    H237158   3.804   6.502   4.800
12401TIP3   OH237159   4.358   6.917   6.453
12401TIP3    H137160   4.334   6.953   6.368
12401TIP3    H237161   4.393   6.830   6.434
12402TIP3   OH237162   4.254   6.697   4.683
12402TIP3    H137163   4.257   6.710   4.777
12402TIP3    H237164   4.256   6.602   4.672
12403TIP3   OH237165   4.863   6.949   6.058
12403TIP3    H137166   4.938   6.990   6.015
12403TIP3    H237167   4.791   7.010   6.044
12404TIP3   OH237168   3.883   6.587   6.665
12404TIP3    H137169   3.963   6.548   6.628
12404TIP3    H237170   3.910   6.617   6.752
12405TIP3   OH237171   3.944   6.403   5.090
12405TIP3    H137172   3.920   6.363   5.174
12405TIP3    H237173   3.984   6.332   5.040
12406TIP3   OH237174   4.209   6.461   6.313
12406TIP3    H137175   4.138   6.526   6.322
12406TIP3    H237176   4.265   6.496   6.244
12407TIP3   OH237177   4.051   6.201   4.931
12407TIP3    H137178   4.024   6.207   4.839
12407TIP3    H237179   4.147   6.201   4.927
12408TIP3   OH237180   4.734   6.873   6.452
12408TIP3    H137181   4.816   6.847   6.409
12408TIP3    H237182   4.725   6.812   6.525
12409TIP3   OH237183   4.867   6.528   4.597
12409TIP3    H137184   4.849   6.481   4.516
12409TIP3    H237185   4.835   6.617   4.581
12410TIP3   OH237186   4.336   6.257   6.445
12410TIP3    H137187   4.342   6.179   6.390
12410TIP3    H237188   4.294   6.323   6.390
12411TIP3   OH237189   4.341   6.044   6.255
12411TIP3    H137190   4.373   6.086   6.175
12411TIP3    H237191   4.250   6.022   6.236
12412TIP3   OH237192   4.365   6.577   6.130
12412TIP3    H137193   4.452   6.589   6.091
12412TIP3    H237194   4.310   6.641   6.084
12413TIP3   OH237195   4.954   6.544   6.504
12413TIP3    H137196   5.000   6.461   6.518
12413TIP3    H237197   5.018   6.601   6.462
12414TIP3   OH237198   5.001   6.799   6.238
12414TIP3    H137199   4.946   6.853   6.182
12414TIP3    H237200   5.090   6.810   6.203
12415TIP3   OH237201   4.212   6.364   6.677
12415TIP3    H137202   4.149   6.294   6.694
12415TIP3    H237203   4.250   6.342   6.593
12416TIP3   OH237204   4.472   5.806   6.325
12416TIP3    H137205   4.426   5.886   6.301
12416TIP3    H237206   4.407   5.737   6.312
12417TIP3   OH237207   4.600   6.306   6.540
12417TIP3    H137208   4.595   6.296   6.635
12417TIP3    H237209   4.512   6.284   6.509
12418TIP3   OH237210   4.838   6.257   6.393
12418TIP3    H137211   4.765   6.261   6.455
12418TIP3    H237212   4.913   6.230   6.446
12419TIP3   OH237213   5.063   6.198   6.544
12419TIP3    H137214   5.078   6.105   6.560
12419TIP3    H237215   5.061   6.237   6.632
12420TIP3   OH237216   4.055   6.142   6.736
12420TIP3    H137217   4.063   6.055   6.699
12420TIP3    H237218   4.094   6.135   6.824
12421TIP3   OH237219   4.564   5.811   6.583
12421TIP3    H137220   4.632   5.745   6.579
12421TIP3    H237221   4.525   5.811   6.495
12422TIP3   OH237222   4.632   6.030   6.740
12422TIP3    H137223   4.612   5.960   6.678
12422TIP3    H237224   4.556   6.088   6.734
12423TIP3   OH237225   3.860   7.263   4.839
12423TIP3    H137226   3.953   7.250   4.824
12423TIP3    H237227   3.829   7.312   4.763
12424TIP3   OH237228   3.338   6.641   5.054
12424TIP3    H137229   3.430   6.663   5.040
12424TIP3    H237230   3.328   6.554   5.015
12425TIP3   OH237231   3.251   7.251   5.471
12425TIP3    H137232   3.186   7.193   5.431
12425TIP3    H237233   3.296   7.196   5.535
12426TIP3   OH237234   3.386   7.101   5.660
12426TIP3    H137235   3.374   7.028   5.721
12426TIP3    H237236   3.441   7.163   5.707
12427TIP3   OH237237   5.117   7.502   5.461
12427TIP3    H137238   5.141   7.532   5.548
12427TIP3    H237239   5.177   7.548   5.401
12428TIP3   OH237240   5.144   7.516   5.745
12428TIP3    H137241   5.095   7.434   5.734
12428TIP3    H237242   5.217   7.492   5.802
12429TIP3   OH237243   5.188   7.205   6.312
12429TIP3    H137244   5.118   7.212   6.376
12429TIP3    H237245   5.233   7.289   6.316
12430TIP3   OH237246   5.008   6.713   4.932
12430TIP3    H137247   5.071   6.778   4.899
12430TIP3    H237248   5.050   6.677   5.010
12431TIP3   OH237249   5.134   6.584   5.140
12431TIP3    H137250   5.067   6.541   5.193
12431TIP3    H237251   5.196   6.619   5.203
12432TIP3   OH237252   5.196   6.980   5.569
12432TIP3    H137253   5.246   6.911   5.526
12432TIP3    H237254   5.188   7.049   5.503
12433TIP3   OH237255   5.012   7.274   5.759
12433TIP3    H137256   4.941   7.312   5.810
12433TIP3    H237257   4.968   7.227   5.687
12434TIP3   OH237258   5.068   6.492   4.780
12434TIP3    H137259   5.000   6.489   4.712
12434TIP3    H237260   5.043   6.565   4.836
12435TIP3   OH237261   4.941   6.160   4.731
12435TIP3    H137262   4.896   6.198   4.655
12435TIP3    H237263   4.920   6.067   4.727
12436TIP3   OH237264   4.946   6.440   5.281
12436TIP3    H137265   4.954   6.345   5.271
12436TIP3    H237266   4.931   6.452   5.375
12437TIP3   OH237267   3.573   6.511   6.028
12437TIP3    H137268   3.568   6.478   5.939
12437TIP3    H237269   3.667   6.515   6.047
12438TIP3   OH237270   5.272   6.842   6.137
12438TIP3    H137271   5.346   6.785   6.118
12438TIP3    H237272   5.280   6.914   6.075
12439TIP3   OH237273   4.885   5.896   4.718
12439TIP3    H137274   4.957   5.864   4.772
12439TIP3    H237275   4.812   5.838   4.738
12440TIP3   OH237276   4.946   6.155   5.171
12440TIP3    H137277   4.982   6.068   5.188
12440TIP3    H237278   5.001   6.190   5.101
12441TIP3   OH237279   5.105   6.328   5.672
12441TIP3    H137280   5.186   6.348   5.626
12441TIP3    H237281   5.116   6.365   5.759
12442TIP3   OH237282   5.176   6.477   5.900
12442TIP3    H137283   5.098   6.508   5.946
12442TIP3    H237284   5.209   6.554   5.853
12443TIP3   OH237285   3.790   6.199   6.704
12443TIP3    H137286   3.886   6.196   6.704
12443TIP3    H237287   3.763   6.115   6.741
12444TIP3   OH237288   5.632   6.067   6.457
12444TIP3    H137289   5.690   6.002   6.416
12444TIP3    H237290   5.595   6.116   6.384
12445TIP3   OH237291   5.051   5.905   5.215
12445TIP3    H137292   5.101   5.891   5.295
12445TIP3    H237293   4.991   5.831   5.211
12446TIP3   OH237294   3.753   5.892   6.037
12446TIP3    H137295   3.811   5.815   6.042
12446TIP3    H237296   3.813   5.966   6.025
12447TIP3   OH237297   3.553   6.165   6.103
12447TIP3    H137298   3.600   6.156   6.020
12447TIP3    H237299   3.585   6.247   6.140
12448TIP3   OH237300   5.491   6.190   6.265
12448TIP3    H137301   5.422   6.253   6.283
12448TIP3    H237302   5.452   6.126   6.205
12449TIP3   OH237303   5.130   5.837   4.846
12449TIP3    H137304   5.169   5.768   4.793
12449TIP3    H237305   5.195   5.907   4.847
12450TIP3   OH237306   3.538   5.670   5.607
12450TIP3    H137307   3.447   5.661   5.634
12450TIP3    H237308   3.534   5.726   5.530
12451TIP3   OH237309   4.698   7.374   5.111
12451TIP3    H137310   4.747   7.362   5.030
12451TIP3    H237311   4.750   7.438   5.160
12452TIP3   OH237312   3.756   5.745   6.420
12452TIP3    H137313   3.706   5.743   6.502
12452TIP3    H237314   3.696   5.784   6.356
12453TIP3   OH237315   3.799   7.175   6.495
12453TIP3    H137316   3.706   7.151   6.489
12453TIP3    H237317   3.817   7.176   6.589
12454TIP3   OH237318   3.970   7.209   6.028
12454TIP3    H137319   3.928   7.288   5.996
12454TIP3    H237320   4.061   7.216   5.998
12455TIP3   OH237321   4.418   7.452   6.184
12455TIP3    H137322   4.455   7.445   6.272
12455TIP3    H237323   4.481   7.504   6.135
12456TIP3   OH237324   4.595   7.609   6.044
12456TIP3    H137325   4.661   7.556   6.000
12456TIP3    H237326   4.645   7.666   6.102
12457TIP3   OH237327   5.389   5.961   6.136
12457TIP3    H137328   5.300   5.955   6.101
12457TIP3    H237329   5.424   5.872   6.129
12458TIP3   OH237330   3.650   7.465   6.072
12458TIP3    H137331   3.561   7.492   6.051
12458TIP3    H237332   3.673   7.517   6.149
12459TIP3   OH237333   3.886   7.447   5.927
12459TIP3    H137334   3.801   7.457   5.971
12459TIP3    H237335   3.871   7.477   5.838
12460TIP3   OH237336   4.313   7.473   5.726
12460TIP3    H137337   4.244   7.489   5.661
12460TIP3    H237338   4.326   7.557   5.769
12461TIP3   OH237339   4.583   7.412   5.776
12461TIP3    H137340   4.490   7.427   5.757
12461TIP3    H237341   4.628   7.484   5.732
12462TIP3   OH237342   4.789   7.602   5.689
12462TIP3    H137343   4.777   7.685   5.644
12462TIP3    H237344   4.816   7.541   5.619
12463TIP3   OH237345   3.565   7.254   5.815
12463TIP3    H137346   3.588   7.233   5.905
12463TIP3    H237347   3.634   7.215   5.762
12464TIP3   OH237348   3.761   7.130   5.675
12464TIP3    H137349   3.774   7.047   5.722
12464TIP3    H237350   3.849   7.168   5.669
12465TIP3   OH237351   4.028   7.221   5.681
12465TIP3    H137352   4.055   7.130   5.666
12465TIP3    H237353   4.074   7.247   5.760
12466TIP3   OH237354   4.597   5.878   5.759
12466TIP3    H137355   4.557   5.808   5.811
12466TIP3    H237356   4.673   5.837   5.718
12467TIP3   OH237357   5.119   5.761   5.662
12467TIP3    H137358   5.157   5.811   5.590
12467TIP3    H237359   5.025   5.782   5.659
12468TIP3   OH237360   5.219   5.860   5.427
12468TIP3    H137361   5.289   5.806   5.390
12468TIP3    H237362   5.250   5.950   5.415
12469TIP3   OH237363   3.846   5.585   5.776
12469TIP3    H137364   3.754   5.558   5.779
12469TIP3    H237365   3.895   5.503   5.772
12470TIP3   OH237366   3.638   5.463   5.427
12470TIP3    H137367   3.667   5.515   5.353
12470TIP3    H237368   3.611   5.527   5.493
12471TIP3   OH237369   4.296   5.621   5.660
12471TIP3    H137370   4.348   5.666   5.593
12471TIP3    H237371   4.324   5.660   5.743
12472TIP3   OH237372   4.832   5.767   5.642
12472TIP3    H137373   4.839   5.730   5.554
12472TIP3    H237374   4.822   5.690   5.699
12473TIP3   OH237375   4.866   5.692   5.206
12473TIP3    H137376   4.783   5.737   5.219
12473TIP3    H237377   4.855   5.607   5.249
12474TIP3   OH237378   3.348   7.036   5.202
12474TIP3    H137379   3.265   6.999   5.171
12474TIP3    H237380   3.344   7.129   5.177
12475TIP3   OH237381   3.756   5.616   5.188
12475TIP3    H137382   3.800   5.553   5.130
12475TIP3    H237383   3.827   5.670   5.222
12476TIP3   OH237384   4.264   5.798   5.290
12476TIP3    H137385   4.323   5.747   5.345
12476TIP3    H237386   4.284   5.889   5.311
12477TIP3   OH237387   4.126   7.214   4.784
12477TIP3    H137388   4.212   7.240   4.753
12477TIP3    H237389   4.100   7.141   4.727
12478TIP3   OH237390   4.843   7.336   4.879
12478TIP3    H137391   4.838   7.241   4.872
12478TIP3    H237392   4.798   7.369   4.801
12479TIP3   OH237393   4.059   5.864   6.664
12479TIP3    H137394   4.021   5.795   6.718
12479TIP3    H237395   4.151   5.868   6.691
12480TIP3   OH237396   4.307   5.861   6.786
12480TIP3    H137397   4.392   5.851   6.741
12480TIP3    H237398   4.305   5.791   6.850
12481TIP3   OH237399   3.430   7.054   4.841
12481TIP3    H137400   3.432   7.072   4.935
12481TIP3    H237401   3.514   7.012   4.823
12482TIP3   OH237402   5.135   5.928   6.575
12482TIP3    H137403   5.150   5.899   6.665
12482TIP3    H237404   5.221   5.925   6.534
12483TIP3   OH237405   5.058   7.489   6.068
12483TIP3    H137406   4.981   7.448   6.027
12483TIP3    H237407   5.075   7.567   6.015
12484TIP3   OH237408   6.366   6.849   4.803
12484TIP3    H137409   6.337   6.939   4.793
12484TIP3    H237410   6.290   6.796   4.780
12485TIP3   OH237411   6.341   6.843   5.215
12485TIP3    H137412   6.373   6.829   5.304
12485TIP3    H237413   6.294   6.763   5.193
12486TIP3   OH237414   5.645   6.752   5.578
12486TIP3    H137415   5.664   6.698   5.655
12486TIP3    H237416   5.729   6.757   5.532
12487TIP3   OH237417   6.581   7.153   4.901
12487TIP3    H137418   6.558   7.094   4.974
12487TIP3    H237419   6.615   7.231   4.944
12488TIP3   OH237420   5.613   7.161   5.307
12488TIP3    H137421   5.600   7.066   5.306
12488TIP3    H237422   5.706   7.173   5.287
12489TIP3   OH237423   5.310   6.362   5.083
12489TIP3    H137424   5.263   6.444   5.103
12489TIP3    H237425   5.244   6.306   5.043
12490TIP3   OH237426   5.378   6.644   5.266
12490TIP3    H137427   5.423   6.567   5.300
12490TIP3    H237428   5.424   6.666   5.185
12491TIP3   OH237429   6.231   7.615   4.911
12491TIP3    H137430   6.275   7.545   4.863
12491TIP3    H237431   6.221   7.580   5.000
12492TIP3   OH237432   6.136   7.077   5.265
12492TIP3    H137433   6.169   7.000   5.218
12492TIP3    H237434   6.215   7.124   5.292
12493TIP3   OH237435   7.148   6.402   5.256
12493TIP3    H137436   7.179   6.481   5.300
12493TIP3    H237437   7.175   6.412   5.165
12494TIP3   OH237438   6.564   6.585   5.281
12494TIP3    H137439   6.595   6.499   5.309
12494TIP3    H237440   6.506   6.567   5.207
12495TIP3   OH237441   6.583   6.336   4.878
12495TIP3    H137442   6.646   6.314   4.946
12495TIP3    H237443   6.637   6.351   4.800
12496TIP3   OH237444   5.530   6.439   5.367
12496TIP3    H137445   5.613   6.421   5.411
12496TIP3    H237446   5.533   6.386   5.287
12497TIP3   OH237447   5.951   6.632   5.180
12497TIP3    H137448   6.041   6.602   5.190
12497TIP3    H237449   5.905   6.558   5.140
12498TIP3   OH237450   7.222   6.608   5.430
12498TIP3    H137451   7.140   6.651   5.407
12498TIP3    H237452   7.234   6.627   5.523
12499TIP3   OH237453   5.879   6.238   5.698
12499TIP3    H137454   5.824   6.253   5.621
12499TIP3    H237455   5.820   6.249   5.772
12500TIP3   OH237456   6.241   7.089   4.686
12500TIP3    H137457   6.187   7.058   4.614
12500TIP3    H237458   6.190   7.161   4.724
12501TIP3   OH237459   5.985   7.011   5.478
12501TIP3    H137460   5.906   7.064   5.479
12501TIP3    H237461   6.038   7.046   5.407
12502TIP3   OH237462   6.783   6.341   5.057
12502TIP3    H137463   6.761   6.290   5.134
12502TIP3    H237464   6.839   6.412   5.090
12503TIP3   OH237465   5.775   6.332   5.453
12503TIP3    H137466   5.837   6.398   5.487
12503TIP3    H237467   5.823   6.289   5.382
12504TIP3   OH237468   5.205   6.887   4.820
12504TIP3    H137469   5.165   6.912   4.737
12504TIP3    H237470   5.238   6.969   4.857
12505TIP3   OH237471   6.645   7.402   5.058
12505TIP3    H137472   6.559   7.392   5.099
12505TIP3    H237473   6.642   7.487   5.015
12506TIP3   OH237474   6.939   6.304   5.427
12506TIP3    H137475   6.852   6.324   5.393
12506TIP3    H237476   6.998   6.334   5.358
12507TIP3   OH237477   6.246   5.941   5.425
12507TIP3    H137478   6.218   5.850   5.419
12507TIP3    H237479   6.168   5.990   5.451
12508TIP3   OH237480   6.357   7.440   4.732
12508TIP3    H137481   6.407   7.360   4.714
12508TIP3    H237482   6.410   7.511   4.696
12509TIP3   OH237483   6.489   7.205   4.646
12509TIP3    H137484   6.403   7.165   4.652
12509TIP3    H237485   6.532   7.184   4.729
12510TIP3   OH237486   6.854   7.310   5.400
12510TIP3    H137487   6.847   7.237   5.339
12510TIP3    H237488   6.840   7.388   5.346
12511TIP3   OH237489   6.166   6.707   4.663
12511TIP3    H137490   6.084   6.757   4.656
12511TIP3    H237491   6.196   6.699   4.572
12512TIP3   OH237492   6.129   6.490   4.377
12512TIP3    H137493   6.193   6.543   4.424
12512TIP3    H237494   6.181   6.427   4.328
12513TIP3   OH237495   7.067   6.952   5.248
12513TIP3    H137496   6.986   7.002   5.256
12513TIP3    H237497   7.097   6.970   5.159
12514TIP3   OH237498   6.741   6.819   5.537
12514TIP3    H137499   6.745   6.896   5.593
12514TIP3    H237500   6.654   6.823   5.496
12515TIP3   OH237501   5.749   6.782   5.049
12515TIP3    H137502   5.705   6.729   4.983
12515TIP3    H237503   5.818   6.725   5.083
12516TIP3   OH237504   5.872   7.185   5.203
12516TIP3    H137505   5.850   7.160   5.113
12516TIP3    H237506   5.961   7.152   5.215
12517TIP3   OH237507   5.876   6.754   5.418
12517TIP3    H137508   5.900   6.720   5.332
12517TIP3    H237509   5.925   6.836   5.426
12518TIP3   OH237510   6.409   7.394   5.184
12518TIP3    H137511   6.394   7.476   5.231
12518TIP3    H237512   6.391   7.326   5.249
12519TIP3   OH237513   6.006   7.309   5.733
12519TIP3    H137514   5.951   7.358   5.795
12519TIP3    H237515   5.954   7.305   5.653
12520TIP3   OH237516   6.363   6.652   4.454
12520TIP3    H137517   6.389   6.739   4.484
12520TIP3    H237518   6.381   6.653   4.360
12521TIP3   OH237519   6.102   7.322   4.740
12521TIP3    H137520   6.179   7.378   4.749
12521TIP3    H237521   6.038   7.376   4.694
12522TIP3   OH237522   5.804   7.461   5.834
12522TIP3    H137523   5.769   7.489   5.750
12522TIP3    H237524   5.739   7.491   5.898
12523TIP3   OH237525   6.868   5.888   4.512
12523TIP3    H137526   6.787   5.908   4.559
12523TIP3    H237527   6.885   5.966   4.459
12524TIP3   OH237528   5.615   6.638   4.849
12524TIP3    H137529   5.538   6.666   4.800
12524TIP3    H237530   5.595   6.548   4.875
12525TIP3   OH237531   6.672   7.254   4.061
12525TIP3    H137532   6.677   7.348   4.044
12525TIP3    H237533   6.762   7.223   4.049
12526TIP3   OH237534   5.401   6.994   5.772
12526TIP3    H137535   5.337   6.994   5.700
12526TIP3    H237536   5.425   6.902   5.782
12527TIP3   OH237537   5.245   7.209   5.393
12527TIP3    H137538   5.340   7.205   5.385
12527TIP3    H237539   5.229   7.287   5.447
12528TIP3   OH237540   6.214   7.440   5.593
12528TIP3    H137541   6.220   7.533   5.618
12528TIP3    H237542   6.148   7.404   5.651
12529TIP3   OH237543   5.981   7.570   4.540
12529TIP3    H137544   5.936   7.552   4.458
12529TIP3    H237545   5.948   7.655   4.568
12530TIP3   OH237546   5.417   7.417   4.927
12530TIP3    H137547   5.463   7.411   5.011
12530TIP3    H237548   5.365   7.337   4.923
12531TIP3   OH237549   6.181   7.473   4.178
12531TIP3    H137550   6.237   7.405   4.140
12531TIP3    H237551   6.214   7.485   4.267
12532TIP3   OH237552   6.231   7.522   4.449
12532TIP3    H137553   6.143   7.532   4.486
12532TIP3    H237554   6.284   7.489   4.521
12533TIP3   OH237555   7.039   6.779   5.751
12533TIP3    H137556   6.957   6.819   5.720
12533TIP3    H237557   7.038   6.690   5.717
12534TIP3   OH237558   5.999   6.008   5.536
12534TIP3    H137559   5.909   5.980   5.520
12534TIP3    H237560   5.999   6.102   5.515
12535TIP3   OH237561   6.530   6.135   5.734
12535TIP3    H137562   6.596   6.105   5.796
12535TIP3    H237563   6.446   6.115   5.777
12536TIP3   OH237564   6.774   6.569   5.661
12536TIP3    H137565   6.715   6.565   5.736
12536TIP3    H237566   6.745   6.647   5.612
12537TIP3   OH237567   6.433   6.690   4.202
12537TIP3    H137568   6.393   6.668   4.118
12537TIP3    H237569   6.515   6.735   4.178
12538TIP3   OH237570   6.143   6.061   4.511
12538TIP3    H137571   6.110   6.061   4.601
12538TIP3    H237572   6.101   5.985   4.471
12539TIP3   OH237573   5.933   6.539   5.572
12539TIP3    H137574   5.878   6.553   5.649
12539TIP3    H237575   5.915   6.613   5.515
12540TIP3   OH237576   5.794   6.448   5.052
12540TIP3    H137577   5.733   6.397   5.106
12540TIP3    H237578   5.816   6.389   4.979
12541TIP3   OH237579   6.305   6.510   4.798
12541TIP3    H137580   6.252   6.578   4.756
12541TIP3    H237581   6.355   6.471   4.726
12542TIP3   OH237582   6.481   6.799   5.925
12542TIP3    H137583   6.453   6.716   5.963
12542TIP3    H237584   6.576   6.793   5.921
12543TIP3   OH237585   6.461   6.535   5.024
12543TIP3    H137586   6.389   6.557   4.965
12543TIP3    H237587   6.494   6.451   4.992
12544TIP3   OH237588   5.750   6.579   5.789
12544TIP3    H137589   5.710   6.625   5.862
12544TIP3    H237590   5.743   6.486   5.812
12545TIP3   OH237591   5.800   6.045   4.472
12545TIP3    H137592   5.793   6.040   4.567
12545TIP3    H237593   5.723   6.095   4.445
12546TIP3   OH237594   5.347   6.081   5.348
12546TIP3    H137595   5.417   6.120   5.401
12546TIP3    H237596   5.390   6.058   5.265
12547TIP3   OH237597   5.305   6.065   4.862
12547TIP3    H137598   5.356   6.096   4.787
12547TIP3    H237599   5.245   6.137   4.882
12548TIP3   OH237600   6.474   6.775   5.453
12548TIP3    H137601   6.509   6.709   5.393
12548TIP3    H237602   6.444   6.726   5.529
12549TIP3   OH237603   5.578   6.292   5.145
12549TIP3    H137604   5.489   6.296   5.108
12549TIP3    H237605   5.612   6.208   5.115
12550TIP3   OH237606   5.843   6.293   4.827
12550TIP3    H137607   5.932   6.307   4.794
12550TIP3    H237608   5.787   6.308   4.750
12551TIP3   OH237609   6.624   6.318   5.334
12551TIP3    H137610   6.596   6.332   5.425
12551TIP3    H237611   6.559   6.258   5.298
12552TIP3   OH237612   5.687   6.334   4.606
12552TIP3    H137613   5.614   6.287   4.565
12552TIP3    H237614   5.738   6.368   4.532
12553TIP3   OH237615   6.226   6.568   5.245
12553TIP3    H137616   6.265   6.496   5.195
12553TIP3    H237617   6.212   6.530   5.332
12554TIP3   OH237618   5.711   6.060   5.083
12554TIP3    H137619   5.693   5.988   5.144
12554TIP3    H237620   5.803   6.082   5.100
12555TIP3   OH237621   6.200   6.485   5.512
12555TIP3    H137622   6.107   6.500   5.529
12555TIP3    H237623   6.245   6.547   5.570
12556TIP3   OH237624   5.935   6.855   4.620
12556TIP3    H137625   5.866   6.791   4.602
12556TIP3    H237626   5.914   6.891   4.706
12557TIP3   OH237627   6.833   7.092   5.232
12557TIP3    H137628   6.858   7.142   5.155
12557TIP3    H237629   6.748   7.053   5.210
12558TIP3   OH237630   6.391   6.166   4.487
12558TIP3    H137631   6.299   6.140   4.489
12558TIP3    H237632   6.390   6.260   4.502
12559TIP3   OH237633   6.332   7.179   5.611
12559TIP3    H137634   6.351   7.161   5.703
12559TIP3    H237635   6.297   7.268   5.610
12560TIP3   OH237636   6.463   6.425   4.583
12560TIP3    H137637   6.559   6.420   4.575
12560TIP3    H237638   6.439   6.499   4.528
12561TIP3   OH237639   5.637   6.890   5.279
12561TIP3    H137640   5.669   6.859   5.194
12561TIP3    H237641   5.659   6.819   5.340
12562TIP3   OH237642   6.081   7.008   4.444
12562TIP3    H137643   6.035   7.092   4.442
12562TIP3    H237644   6.026   6.953   4.500
12563TIP3   OH237645   6.227   6.914   5.916
12563TIP3    H137646   6.164   6.850   5.883
12563TIP3    H237647   6.312   6.879   5.890
12564TIP3   OH237648   6.486   7.426   5.497
12564TIP3    H137649   6.391   7.432   5.510
12564TIP3    H237650   6.522   7.472   5.573
12565TIP3   OH237651   6.894   6.521   4.415
12565TIP3    H137652   6.839   6.468   4.357
12565TIP3    H237653   6.899   6.606   4.372
12566TIP3   OH237654   7.105   7.322   5.493
12566TIP3    H137655   7.014   7.342   5.473
12566TIP3    H237656   7.144   7.299   5.408
12567TIP3   OH237657   6.611   7.328   4.325
12567TIP3    H137658   6.570   7.261   4.381
12567TIP3    H237659   6.620   7.286   4.240
12568TIP3   OH237660   6.594   6.957   5.156
12568TIP3    H137661   6.502   6.937   5.173
12568TIP3    H237662   6.629   6.876   5.119
12569TIP3   OH237663   5.731   7.189   4.918
12569TIP3    H137664   5.728   7.268   4.863
12569TIP3    H237665   5.639   7.163   4.927
12570TIP3   OH237666   5.293   6.489   4.622
12570TIP3    H137667   5.338   6.571   4.641
12570TIP3    H237668   5.217   6.489   4.680
12571TIP3   OH237669   5.865   6.952   4.860
12571TIP3    H137670   5.830   7.039   4.879
12571TIP3    H237671   5.829   6.896   4.929
12572TIP3   OH237672   6.003   7.526   5.380
12572TIP3    H137673   6.038   7.601   5.331
12572TIP3    H237674   6.078   7.493   5.429
12573TIP3   OH237675   5.648   7.425   4.768
12573TIP3    H137676   5.563   7.432   4.812
12573TIP3    H237677   5.682   7.515   4.768
12574TIP3   OH237678   6.383   7.156   5.345
12574TIP3    H137679   6.371   7.160   5.440
12574TIP3    H237680   6.467   7.112   5.333
12575TIP3   OH237681   6.360   7.056   4.224
12575TIP3    H137682   6.410   7.020   4.297
12575TIP3    H237683   6.270   7.032   4.242
12576TIP3   OH237684   6.617   7.700   5.392
12576TIP3    H137685   6.541   7.644   5.378
12576TIP3    H237686   6.614   7.764   5.321
12577TIP3   OH237687   6.699   7.530   4.043
12577TIP3    H137688   6.740   7.597   3.988
12577TIP3    H237689   6.620   7.572   4.078
12578TIP3   OH237690   5.713   6.308   5.908
12578TIP3    H137691   5.618   6.311   5.923
12578TIP3    H237692   5.747   6.255   5.980
12579TIP3   OH237693   6.524   6.961   4.438
12579TIP3    H137694   6.508   6.997   4.525
12579TIP3    H237695   6.618   6.971   4.424
12580TIP3   OH237696   5.429   7.398   5.532
12580TIP3    H137697   5.490   7.328   5.556
12580TIP3    H237698   5.446   7.468   5.595
12581TIP3   OH237699   5.729   7.032   4.226
12581TIP3    H137700   5.738   6.942   4.197
12581TIP3    H237701   5.706   7.026   4.319
12582TIP3   OH237702   5.671   7.044   4.497
12582TIP3    H137703   5.742   7.014   4.555
12582TIP3    H237704   5.673   7.139   4.502
12583TIP3   OH237705   5.400   6.735   4.699
12583TIP3    H137706   5.335   6.775   4.757
12583TIP3    H237707   5.415   6.800   4.630
12584TIP3   OH237708   6.562   6.372   5.599
12584TIP3    H137709   6.645   6.399   5.638
12584TIP3    H237710   6.540   6.291   5.644
12585TIP3   OH237711   6.445   6.115   4.760
12585TIP3    H137712   6.424   6.132   4.668
12585TIP3    H237713   6.475   6.199   4.794
12586TIP3   OH237714   5.939   7.239   4.446
12586TIP3    H137715   5.853   7.260   4.482
12586TIP3    H237716   5.957   7.310   4.383
12587TIP3   OH237717   6.137   6.301   4.869
12587TIP3    H137718   6.193   6.376   4.853
12587TIP3    H237719   6.103   6.315   4.958
12588TIP3   OH237720   6.405   6.623   5.667
12588TIP3    H137721   6.415   6.654   5.757
12588TIP3    H237722   6.445   6.536   5.667
12589TIP3   OH237723   6.276   6.026   4.967
12589TIP3    H137724   6.280   6.098   5.029
12589TIP3    H237725   6.328   6.056   4.892
12590TIP3   OH237726   5.686   7.315   4.516
12590TIP3    H137727   5.657   7.381   4.452
12590TIP3    H237728   5.669   7.355   4.601
12591TIP3   OH237729   5.784   6.025   4.743
12591TIP3    H137730   5.768   6.100   4.800
12591TIP3    H237731   5.877   6.004   4.757
12592TIP3   OH237732   7.036   6.522   5.648
12592TIP3    H137733   6.942   6.527   5.662
12592TIP3    H237734   7.046   6.468   5.569
12593TIP3   OH237735   6.694   6.682   5.006
12593TIP3    H137736   6.614   6.653   5.050
12593TIP3    H237737   6.764   6.663   5.068
12594TIP3   OH237738   5.404   6.939   4.502
12594TIP3    H137739   5.468   7.008   4.513
12594TIP3    H237740   5.442   6.880   4.437
12595TIP3   OH237741   5.343   6.220   4.637
12595TIP3    H137742   5.345   6.315   4.637
12595TIP3    H237743   5.260   6.197   4.595
12596TIP3   OH237744   6.659   7.670   4.979
12596TIP3    H137745   6.613   7.714   4.908
12596TIP3    H237746   6.752   7.687   4.961
12597TIP3   OH237747   5.729   5.939   5.515
12597TIP3    H137748   5.703   5.910   5.427
12597TIP3    H237749   5.719   5.862   5.570
12598TIP3   OH237750   5.267   7.158   4.888
12598TIP3    H137751   5.204   7.186   4.955
12598TIP3    H237752   5.235   7.199   4.808
12599TIP3   OH237753   5.436   7.683   5.945
12599TIP3    H137754   5.511   7.665   6.001
12599TIP3    H237755   5.388   7.600   5.941
12600TIP3   OH237756   5.940   7.693   5.956
12600TIP3    H137757   6.022   7.653   5.987
12600TIP3    H237758   5.881   7.619   5.944
12601TIP3   OH237759   5.890   7.236   4.135
12601TIP3    H137760   5.836   7.166   4.171
12601TIP3    H237761   5.965   7.190   4.097
12602TIP3   OH237762   6.544   7.538   5.735
12602TIP3    H137763   6.534   7.484   5.814
12602TIP3    H237764   6.610   7.603   5.759
12603TIP3   OH237765   6.325   7.278   4.048
12603TIP3    H137766   6.368   7.215   4.105
12603TIP3    H237767   6.377   7.276   3.967
12604TIP3   OH237768   5.563   7.106   6.153
12604TIP3    H137769   5.575   7.013   6.173
12604TIP3    H237770   5.473   7.113   6.122
12605TIP3   OH237771   5.539   6.754   4.358
12605TIP3    H137772   5.590   6.722   4.433
12605TIP3    H237773   5.602   6.759   4.287
12606TIP3   OH237774   6.176   7.189   5.924
12606TIP3    H137775   6.122   7.209   5.848
12606TIP3    H237776   6.195   7.095   5.916
12607TIP3   OH237777   6.058   6.955   4.172
12607TIP3    H137778   6.052   6.968   4.266
12607TIP3    H237779   6.056   6.860   4.160
12608TIP3   OH237780   6.647   7.207   5.544
12608TIP3    H137781   6.724   7.245   5.501
12608TIP3    H237782   6.577   7.271   5.529
12609TIP3   OH237783   5.745   6.660   4.580
12609TIP3    H137784   5.712   6.626   4.664
12609TIP3    H237785   5.778   6.583   4.534
12610TIP3   OH237786   6.043   6.730   5.821
12610TIP3    H137787   5.948   6.740   5.816
12610TIP3    H237788   6.074   6.760   5.735
12611TIP3   OH237789   5.846   6.456   4.416
12611TIP3    H137790   5.817   6.464   4.325
12611TIP3    H237791   5.941   6.457   4.411
12612TIP3   OH237792   6.534   7.122   5.954
12612TIP3    H137793   6.601   7.124   5.886
12612TIP3    H237794   6.528   7.030   5.980
12613TIP3   OH237795   6.666   6.783   4.086
12613TIP3    H137796   6.650   6.736   4.004
12613TIP3    H237797   6.635   6.872   4.069
12614TIP3   OH237798   6.147   6.503   5.925
12614TIP3    H137799   6.138   6.425   5.870
12614TIP3    H237800   6.104   6.573   5.876
12615TIP3   OH237801   6.140   6.299   5.733
12615TIP3    H137802   6.166   6.333   5.648
12615TIP3    H237803   6.048   6.275   5.723
12616TIP3   OH237804   6.163   6.839   5.605
12616TIP3    H137805   6.247   6.846   5.560
12616TIP3    H237806   6.111   6.910   5.569
12617TIP3   OH237807   6.744   6.801   6.007
12617TIP3    H137808   6.782   6.713   6.002
12617TIP3    H237809   6.809   6.857   5.965
12618TIP3   OH237810   6.776   7.036   5.703
12618TIP3    H137811   6.717   7.092   5.653
12618TIP3    H237812   6.864   7.060   5.673
12619TIP3   OH237813   6.035   6.626   6.159
12619TIP3    H137814   5.959   6.573   6.184
12619TIP3    H237815   6.058   6.594   6.072
12620TIP3   OH237816   6.268   6.062   5.809
12620TIP3    H137817   6.220   6.142   5.785
12620TIP3    H237818   6.203   5.992   5.799
12621TIP3   OH237819   6.388   6.568   6.029
12621TIP3    H137820   6.374   6.544   6.120
12621TIP3    H237821   6.307   6.541   5.985
12622TIP3   OH237822   6.630   6.533   5.888
12622TIP3    H137823   6.555   6.519   5.946
12622TIP3    H237824   6.705   6.497   5.937
12623TIP3   OH237825   6.847   6.460   6.034
12623TIP3    H137826   6.873   6.368   6.041
12623TIP3    H237827   6.869   6.497   6.119
12624TIP3   OH237828   5.875   6.406   6.218
12624TIP3    H137829   5.853   6.321   6.182
12624TIP3    H237830   5.888   6.390   6.312
12625TIP3   OH237831   6.368   6.073   6.065
12625TIP3    H137832   6.430   6.001   6.062
12625TIP3    H237833   6.323   6.070   5.980
12626TIP3   OH237834   6.435   6.290   6.222
12626TIP3    H137835   6.414   6.218   6.162
12626TIP3    H237836   6.357   6.346   6.221
12627TIP3   OH237837   5.655   7.516   4.325
12627TIP3    H137838   5.749   7.507   4.309
12627TIP3    H237839   5.623   7.567   4.251
12628TIP3   OH237840   5.133   6.897   4.540
12628TIP3    H137841   5.225   6.920   4.527
12628TIP3    H237842   5.124   6.810   4.501
12629TIP3   OH237843   5.048   7.507   4.959
12629TIP3    H137844   4.983   7.450   4.918
12629TIP3    H237845   5.093   7.451   5.022
12630TIP3   OH237846   5.183   7.356   5.145
12630TIP3    H137847   5.168   7.286   5.209
12630TIP3    H237848   5.234   7.421   5.193
12631TIP3   OH237849   6.915   7.752   4.941
12631TIP3    H137850   6.935   7.783   5.029
12631TIP3    H237851   6.964   7.809   4.883
12632TIP3   OH237852   6.948   7.766   5.221
12632TIP3    H137853   6.906   7.680   5.225
12632TIP3    H237854   6.958   7.792   5.312
12633TIP3   OH237855   6.814   6.977   4.434
12633TIP3    H137856   6.858   7.038   4.375
12633TIP3    H237857   6.866   6.981   4.514
12634TIP3   OH237858   6.976   7.226   5.038
12634TIP3    H137859   7.031   7.163   4.991
12634TIP3    H237860   6.980   7.306   4.986
12635TIP3   OH237861   6.805   7.536   5.253
12635TIP3    H137862   6.737   7.577   5.306
12635TIP3    H237863   6.759   7.495   5.180
12636TIP3   OH237864   6.864   6.752   4.271
12636TIP3    H137865   6.798   6.746   4.202
12636TIP3    H237866   6.836   6.827   4.324
12637TIP3   OH237867   6.734   6.419   4.225
12637TIP3    H137868   6.699   6.456   4.144
12637TIP3    H237869   6.713   6.326   4.220
12638TIP3   OH237870   5.375   6.774   5.511
12638TIP3    H137871   5.370   6.737   5.423
12638TIP3    H237872   5.468   6.777   5.531
12639TIP3   OH237873   7.026   7.104   5.629
12639TIP3    H137874   7.112   7.063   5.626
12639TIP3    H237875   7.037   7.185   5.579
12640TIP3   OH237876   7.241   6.932   5.645
12640TIP3    H137877   7.159   6.889   5.672
12640TIP3    H237878   7.307   6.863   5.650
12641TIP3   OH237879   6.678   6.156   4.213
12641TIP3    H137880   6.750   6.117   4.263
12641TIP3    H237881   6.605   6.096   4.224
12642TIP3   OH237882   6.756   6.437   4.663
12642TIP3    H137883   6.785   6.349   4.683
12642TIP3    H237884   6.802   6.461   4.583
12643TIP3   OH237885   6.902   6.593   5.156
12643TIP3    H137886   6.986   6.614   5.116
12643TIP3    H237887   6.910   6.622   5.247
12644TIP3   OH237888   6.974   6.733   5.392
12644TIP3    H137889   6.894   6.760   5.436
12644TIP3    H237890   7.003   6.810   5.344
12645TIP3   OH237891   7.423   6.318   5.939
12645TIP3    H137892   7.475   6.250   5.895
12645TIP3    H237893   7.390   6.372   5.867
12646TIP3   OH237894   6.833   6.176   4.708
12646TIP3    H137895   6.889   6.156   4.783
12646TIP3    H237896   6.779   6.098   4.698
12647TIP3   OH237897   5.555   6.153   5.521
12647TIP3    H137898   5.608   6.074   5.530
12647TIP3    H237899   5.618   6.221   5.497
12648TIP3   OH237900   5.348   6.418   5.588
12648TIP3    H137901   5.402   6.416   5.509
12648TIP3    H237902   5.371   6.500   5.632
12649TIP3   OH237903   7.281   6.443   5.738
12649TIP3    H137904   7.193   6.480   5.736
12649TIP3    H237905   7.274   6.362   5.688
12650TIP3   OH237906   6.929   6.091   4.336
12650TIP3    H137907   6.964   6.023   4.278
12650TIP3    H237908   6.992   6.163   4.330
12651TIP3   OH237909   5.331   5.918   5.088
12651TIP3    H137910   5.241   5.917   5.119
12651TIP3    H237911   5.331   5.979   5.014
12652TIP3   OH237912   6.495   7.627   4.598
12652TIP3    H137913   6.544   7.621   4.517
12652TIP3    H237914   6.539   7.696   4.648
12653TIP3   OH237915   5.552   5.998   5.904
12653TIP3    H137916   5.506   5.997   5.988
12653TIP3    H237917   5.490   6.039   5.843
12654TIP3   OH237918   5.782   7.472   5.542
12654TIP3    H137919   5.725   7.539   5.503
12654TIP3    H237920   5.863   7.479   5.492
12655TIP3   OH237921   6.223   7.707   5.667
12655TIP3    H137922   6.250   7.709   5.759
12655TIP3    H237923   6.289   7.760   5.622
12656TIP3   OH237924   6.418   7.858   5.540
12656TIP3    H137925   6.479   7.802   5.492
12656TIP3    H237926   6.457   7.945   5.536
12657TIP3   OH237927   7.191   6.212   5.623
12657TIP3    H137928   7.100   6.201   5.594
12657TIP3    H237929   7.229   6.124   5.618
12658TIP3   OH237930   5.447   7.723   5.561
12658TIP3    H137931   5.360   7.753   5.536
12658TIP3    H237932   5.463   7.763   5.646
12659TIP3   OH237933   5.681   7.696   5.414
12659TIP3    H137934   5.598   7.709   5.460
12659TIP3    H237935   5.665   7.729   5.326
12660TIP3   OH237936   6.109   7.728   5.211
12660TIP3    H137937   6.039   7.743   5.148
12660TIP3    H237938   6.121   7.813   5.254
12661TIP3   OH237939   6.376   7.663   5.260
12661TIP3    H137940   6.284   7.684   5.244
12661TIP3    H237941   6.425   7.733   5.218
12662TIP3   OH237942   6.576   7.852   5.170
12662TIP3    H137943   6.562   7.935   5.126
12662TIP3    H237944   6.608   7.793   5.101
12663TIP3   OH237945   5.360   7.516   5.295
12663TIP3    H137946   5.379   7.492   5.386
12663TIP3    H237947   5.429   7.475   5.244
12664TIP3   OH237948   5.556   7.386   5.161
12664TIP3    H137949   5.570   7.306   5.211
12664TIP3    H237950   5.643   7.425   5.155
12665TIP3   OH237951   5.822   7.480   5.164
12665TIP3    H137952   5.853   7.391   5.147
12665TIP3    H237953   5.865   7.504   5.246
12666TIP3   OH237954   6.420   6.143   5.252
12666TIP3    H137955   6.345   6.107   5.301
12666TIP3    H237956   6.466   6.066   5.220
12667TIP3   OH237957   6.923   6.017   5.148
12667TIP3    H137958   6.957   6.069   5.076
12667TIP3    H237959   6.828   6.029   5.144
12668TIP3   OH237960   7.013   6.118   4.910
12668TIP3    H137961   7.084   6.064   4.875
12668TIP3    H237962   7.044   6.208   4.900
12669TIP3   OH237963   5.644   5.844   5.269
12669TIP3    H137964   5.552   5.816   5.269
12669TIP3    H237965   5.694   5.763   5.259
12670TIP3   OH237966   5.432   5.719   4.913
12670TIP3    H137967   5.462   5.774   4.841
12670TIP3    H237968   5.405   5.780   4.981
12671TIP3   OH237969   6.093   5.877   5.152
12671TIP3    H137970   6.147   5.927   5.091
12671TIP3    H237971   6.059   5.943   5.213
12672TIP3   OH237972   6.653   6.016   5.117
12672TIP3    H137973   6.619   5.986   5.033
12672TIP3    H237974   6.633   5.945   5.178
12673TIP3   OH237975   6.663   5.950   4.693
12673TIP3    H137976   6.581   5.996   4.708
12673TIP3    H237977   6.650   5.864   4.733
12674TIP3   OH237978   5.145   7.293   4.688
12674TIP3    H137979   5.062   7.256   4.658
12674TIP3    H237980   5.140   7.386   4.664
12675TIP3   OH237981   5.551   5.875   4.673
12675TIP3    H137982   5.597   5.812   4.616
12675TIP3    H237983   5.621   5.929   4.710
12676TIP3   OH237984   6.066   6.053   4.775
12676TIP3    H137985   6.115   6.001   4.839
12676TIP3    H237986   6.083   6.144   4.801
12677TIP3   OH237987   5.922   7.470   4.272
12677TIP3    H137988   6.008   7.497   4.239
12677TIP3    H237989   5.896   7.398   4.214
12678TIP3   OH237990   6.638   7.596   4.366
12678TIP3    H137991   6.635   7.500   4.357
12678TIP3    H237992   6.594   7.629   4.288
12679TIP3   OH237993   5.851   6.124   6.153
12679TIP3    H137994   5.812   6.057   6.209
12679TIP3    H237995   5.943   6.129   6.182
12680TIP3   OH237996   6.102   6.123   6.277
12680TIP3    H137997   6.183   6.094   6.235
12680TIP3    H237998   6.083   6.056   6.343
12681TIP3   OH237999   5.226   7.310   4.327
12681TIP3    H138000   5.226   7.332   4.421
12681TIP3    H238001   5.310   7.267   4.313
12682TIP3   OH238002   6.931   6.192   6.059
12682TIP3    H138003   6.942   6.160   6.149
12682TIP3    H238004   7.018   6.187   6.020
12683TIP3   OH238005   8.118   7.102   4.328
12683TIP3    H138006   8.090   7.192   4.311
12683TIP3    H238007   8.053   7.048   4.285
12684TIP3   OH238008   8.090   7.114   4.714
12684TIP3    H138009   8.155   7.064   4.764
12684TIP3    H238010   8.070   7.059   4.639
12685TIP3   OH238011   7.425   6.971   5.043
12685TIP3    H138012   7.449   6.911   5.113
12685TIP3    H238013   7.484   7.045   5.054
12686TIP3   OH238014   7.405   7.412   4.788
12686TIP3    H138015   7.394   7.317   4.790
12686TIP3    H238016   7.499   7.425   4.777
12687TIP3   OH238017   7.108   6.605   4.578
12687TIP3    H138018   7.090   6.697   4.597
12687TIP3    H238019   7.032   6.576   4.528
12688TIP3   OH238020   7.168   6.895   4.737
12688TIP3    H138021   7.217   6.824   4.778
12688TIP3    H238022   7.233   6.946   4.690
12689TIP3   OH238023   7.914   7.321   4.731
12689TIP3    H138024   7.977   7.251   4.716
12689TIP3    H238025   7.964   7.391   4.773
12690TIP3   OH238026   8.352   6.821   4.755
12690TIP3    H138027   8.376   6.731   4.775
12690TIP3    H238028   8.308   6.817   4.671
12691TIP3   OH238029   7.683   6.496   4.742
12691TIP3    H138030   7.665   6.571   4.684
12691TIP3    H238031   7.636   6.423   4.702
12692TIP3   OH238032   8.380   6.592   4.371
12692TIP3    H138033   8.449   6.569   4.432
12692TIP3    H238034   8.426   6.627   4.295
12693TIP3   OH238035   7.314   6.694   4.852
12693TIP3    H138036   7.395   6.685   4.902
12693TIP3    H238037   7.329   6.642   4.773
12694TIP3   OH238038   7.756   6.892   4.641
12694TIP3    H138039   7.848   6.869   4.655
12694TIP3    H238040   7.716   6.810   4.610
12695TIP3   OH238041   7.673   6.481   5.181
12695TIP3    H138042   7.618   6.517   5.112
12695TIP3    H238043   7.625   6.499   5.262
12696TIP3   OH238044   7.978   7.304   4.199
12696TIP3    H138045   7.959   7.307   4.105
12696TIP3    H238046   7.970   7.394   4.228
12697TIP3   OH238047   7.777   7.245   4.953
12697TIP3    H138048   7.710   7.313   4.960
12697TIP3    H238049   7.831   7.272   4.879
12698TIP3   OH238050   0.086   6.568   4.551
12698TIP3    H138051   0.045   6.538   4.633
12698TIP3    H238052   0.135   6.646   4.576
12699TIP3   OH238053   7.551   6.595   4.962
12699TIP3    H138054   7.608   6.667   4.990
12699TIP3    H238055   7.598   6.555   4.888
12700TIP3   OH238056   6.995   7.143   4.306
12700TIP3    H138057   6.963   7.166   4.219
12700TIP3    H238058   7.028   7.226   4.342
12701TIP3   OH238059   8.029   6.190   4.900
12701TIP3    H138060   8.014   6.097   4.916
12701TIP3    H238061   7.958   6.234   4.946
12702TIP3   OH238062   8.224   7.456   4.166
12702TIP3    H138063   8.211   7.398   4.092
12702TIP3    H238064   8.319   7.455   4.181
12703TIP3   OH238065   7.960   6.962   4.151
12703TIP3    H138066   7.885   7.018   4.136
12703TIP3    H238067   8.004   6.958   4.066
12704TIP3   OH238068   7.925   6.743   3.864
12704TIP3    H138069   7.985   6.802   3.910
12704TIP3    H238070   7.982   6.682   3.817
12705TIP3   OH238071   8.301   7.026   4.136
12705TIP3    H138072   8.251   7.050   4.214
12705TIP3    H238073   8.388   7.006   4.170
12706TIP3   OH238074   7.540   7.038   4.544
12706TIP3    H138075   7.499   6.985   4.476
12706TIP3    H238076   7.618   6.989   4.569
12707TIP3   OH238077   7.672   7.446   4.686
12707TIP3    H138078   7.643   7.426   4.597
12707TIP3    H238079   7.755   7.399   4.695
12708TIP3   OH238080   7.682   6.998   4.884
12708TIP3    H138081   7.711   6.975   4.796
12708TIP3    H238082   7.722   7.083   4.902
12709TIP3   OH238083   8.145   6.901   3.945
12709TIP3    H138084   8.202   6.954   4.001
12709TIP3    H238085   8.174   6.920   3.856
12710TIP3   OH238086   7.515   7.134   5.254
12710TIP3    H138087   7.494   7.224   5.231
12710TIP3    H238088   7.444   7.106   5.311
12711TIP3   OH238089   7.892   7.588   4.228
12711TIP3    H138090   7.955   7.657   4.245
12711TIP3    H238091   7.827   7.629   4.171
12712TIP3   OH238092   0.158   6.144   3.996
12712TIP3    H138093   0.080   6.155   4.050
12712TIP3    H238094   0.183   6.233   3.971
12713TIP3   OH238095   7.404   6.885   4.346
12713TIP3    H138096   7.343   6.933   4.291
12713TIP3    H238097   7.373   6.794   4.344
12714TIP3   OH238098   7.162   7.250   5.243
12714TIP3    H138099   7.101   7.237   5.170
12714TIP3    H238100   7.205   7.165   5.253
12715TIP3   OH238101   7.043   7.459   4.894
12715TIP3    H138102   7.136   7.464   4.875
12715TIP3    H238103   7.020   7.546   4.928
12716TIP3   OH238104   7.735   7.842   4.038
12716TIP3    H138105   7.721   7.806   3.951
12716TIP3    H238106   7.811   7.901   4.028
12717TIP3   OH238107   7.209   7.676   4.412
12717TIP3    H138108   7.260   7.668   4.493
12717TIP3    H238109   7.149   7.601   4.415
12718TIP3   OH238110   7.403   7.378   5.207
12718TIP3    H138111   7.437   7.450   5.259
12718TIP3    H238112   7.317   7.359   5.245
12719TIP3   OH238113   7.792   6.276   5.027
12719TIP3    H138114   7.707   6.244   4.995
12719TIP3    H238115   7.770   6.356   5.075
12720TIP3   OH238116   8.230   6.950   3.695
12720TIP3    H138117   8.183   6.926   3.616
12720TIP3    H238118   8.301   7.006   3.664
12721TIP3   OH238119   7.934   6.319   3.998
12721TIP3    H138120   7.901   6.318   4.087
12721TIP3    H238121   7.897   6.241   3.958
12722TIP3   OH238122   7.727   6.788   5.044
12722TIP3    H138123   7.678   6.808   5.124
12722TIP3    H238124   7.710   6.863   4.987
12723TIP3   OH238125   7.608   6.674   4.554
12723TIP3    H138126   7.517   6.653   4.574
12723TIP3    H238127   7.623   6.637   4.467
12724TIP3   OH238128   8.096   6.760   4.278
12724TIP3    H138129   8.046   6.831   4.237
12724TIP3    H238130   8.153   6.728   4.208
12725TIP3   OH238131   8.235   6.785   4.511
12725TIP3    H138132   8.175   6.813   4.442
12725TIP3    H238133   8.284   6.713   4.472
12726TIP3   OH238134   7.544   6.810   5.249
12726TIP3    H138135   7.596   6.875   5.297
12726TIP3    H238136   7.538   6.735   5.308
12727TIP3   OH238137   7.592   6.298   3.963
12727TIP3    H138138   7.583   6.297   4.059
12727TIP3    H238139   7.519   6.351   3.932
12728TIP3   OH238140   7.137   6.341   4.835
12728TIP3    H138141   7.211   6.374   4.886
12728TIP3    H238142   7.176   6.313   4.752
12729TIP3   OH238143   7.101   6.325   4.353
12729TIP3    H138144   7.146   6.353   4.274
12729TIP3    H238145   7.042   6.397   4.375
12730TIP3   OH238146   7.939   6.491   4.618
12730TIP3    H138147   7.856   6.494   4.666
12730TIP3    H238148   8.006   6.500   4.685
12731TIP3   OH238149   7.370   6.551   4.627
12731TIP3    H138150   7.278   6.555   4.600
12731TIP3    H238151   7.399   6.463   4.603
12732TIP3   OH238152   7.636   6.551   4.312
12732TIP3    H138153   7.729   6.566   4.292
12732TIP3    H238154   7.590   6.572   4.231
12733TIP3   OH238155   8.395   6.558   4.819
12733TIP3    H138156   8.364   6.566   4.909
12733TIP3    H238157   8.334   6.497   4.778
12734TIP3   OH238158   7.486   6.585   4.088
12734TIP3    H138159   7.418   6.539   4.039
12734TIP3    H238160   7.540   6.626   4.020
12735TIP3   OH238161   8.012   6.810   4.706
12735TIP3    H138162   8.090   6.788   4.656
12735TIP3    H238163   8.029   6.773   4.793
12736TIP3   OH238164   7.537   6.314   4.597
12736TIP3    H138165   7.503   6.239   4.645
12736TIP3    H238166   7.580   6.277   4.520
12737TIP3   OH238167   7.993   6.722   5.006
12737TIP3    H138168   7.900   6.746   5.009
12737TIP3    H238169   8.033   6.776   5.074
12738TIP3   OH238170   7.730   7.113   4.100
12738TIP3    H138171   7.659   7.051   4.086
12738TIP3    H238172   7.714   7.149   4.187
12739TIP3   OH238173   8.189   6.419   3.976
12739TIP3    H138174   8.095   6.404   3.975
12739TIP3    H238175   8.199   6.514   3.988
12740TIP3   OH238176   8.257   6.676   4.068
12740TIP3    H138177   8.352   6.683   4.080
12740TIP3    H238178   8.235   6.750   4.012
12741TIP3   OH238179   7.425   7.134   4.775
12741TIP3    H138180   7.462   7.110   4.690
12741TIP3    H238181   7.465   7.072   4.837
12742TIP3   OH238182   7.876   7.264   3.923
12742TIP3    H138183   7.831   7.348   3.925
12742TIP3    H238184   7.827   7.209   3.984
12743TIP3   OH238185   7.287   7.037   5.394
12743TIP3    H138186   7.283   7.012   5.486
12743TIP3    H238187   7.216   6.987   5.352
12744TIP3   OH238188   7.529   7.447   4.410
12744TIP3    H138189   7.533   7.525   4.354
12744TIP3    H238190   7.437   7.423   4.411
12745TIP3   OH238191   7.093   6.747   4.109
12745TIP3    H138192   7.138   6.830   4.124
12745TIP3    H238193   7.015   6.751   4.164
12746TIP3   OH238194   7.650   7.204   4.341
12746TIP3    H138195   7.628   7.295   4.360
12746TIP3    H238196   7.620   7.155   4.418
12747TIP3   OH238197   7.446   7.677   4.255
12747TIP3    H138198   7.361   7.689   4.297
12747TIP3    H238199   7.485   7.765   4.254
12748TIP3   OH238200   8.090   7.303   3.707
12748TIP3    H138201   8.143   7.284   3.785
12748TIP3    H238202   8.002   7.274   3.730
12749TIP3   OH238203   7.514   6.559   5.398
12749TIP3    H138204   7.418   6.561   5.403
12749TIP3    H238205   7.541   6.498   5.467
12750TIP3   OH238206   8.321   7.218   3.941
12750TIP3    H138207   8.281   7.172   4.014
12750TIP3    H238208   8.406   7.176   3.930
12751TIP3   OH238209   7.247   7.649   5.025
12751TIP3    H138210   7.278   7.565   5.060
12751TIP3    H238211   7.249   7.708   5.100
12752TIP3   OH238212   7.520   7.291   3.714
12752TIP3    H138213   7.537   7.202   3.684
12752TIP3    H238214   7.498   7.281   3.807
12753TIP3   OH238215   7.468   7.298   3.988
12753TIP3    H138216   7.547   7.275   4.038
12753TIP3    H238217   7.465   7.393   3.990
12754TIP3   OH238218   7.200   6.994   4.189
12754TIP3    H138219   7.135   7.039   4.243
12754TIP3    H238220   7.218   7.055   4.117
12755TIP3   OH238221   8.328   6.613   5.081
12755TIP3    H138222   8.388   6.669   5.130
12755TIP3    H238223   8.249   6.609   5.135
12756TIP3   OH238224   8.236   6.376   4.249
12756TIP3    H138225   8.219   6.392   4.156
12756TIP3    H238226   8.273   6.458   4.282
12757TIP3   OH238227   7.733   7.493   3.942
12757TIP3    H138228   7.645   7.510   3.977
12757TIP3    H238229   7.747   7.563   3.879
12758TIP3   OH238230   7.921   6.559   4.348
12758TIP3    H138231   7.982   6.630   4.325
12758TIP3    H238232   7.926   6.552   4.443
12759TIP3   OH238233   8.064   6.282   4.447
12759TIP3    H138234   8.045   6.359   4.501
12759TIP3    H238235   8.125   6.314   4.381
12760TIP3   OH238236   7.476   7.569   4.002
12760TIP3    H138237   7.448   7.636   3.940
12760TIP3    H238238   7.466   7.611   4.088
12761TIP3   OH238239   7.579   6.287   4.241
12761TIP3    H138240   7.574   6.377   4.274
12761TIP3    H238241   7.672   6.265   4.244
12762TIP3   OH238242   8.509   6.926   4.519
12762TIP3    H138243   8.414   6.917   4.524
12762TIP3    H238244   8.534   6.959   4.605
12763TIP3   OH238245   7.199   7.194   3.990
12763TIP3    H138246   7.263   7.265   4.001
12763TIP3    H238247   7.238   7.137   3.924
12764TIP3   OH238248   7.131   6.475   4.130
12764TIP3    H138249   7.139   6.570   4.128
12764TIP3    H238250   7.069   6.454   4.060
12765TIP3   OH238251   7.527   6.194   4.996
12765TIP3    H138252   7.498   6.162   4.911
12765TIP3    H238253   7.518   6.119   5.055
12766TIP3   OH238254   7.057   7.402   4.374
12766TIP3    H138255   6.996   7.440   4.438
12766TIP3    H238256   7.036   7.447   4.292
12767TIP3   OH238257   7.685   7.491   3.623
12767TIP3    H138258   7.632   7.419   3.656
12767TIP3    H238259   7.756   7.448   3.574
12768TIP3   OH238260   7.335   7.008   3.848
12768TIP3    H138261   7.392   6.983   3.921
12768TIP3    H238262   7.394   7.015   3.773
12769TIP3   OH238263   7.823   7.197   3.661
12769TIP3    H138264   7.821   7.211   3.755
12769TIP3    H238265   7.836   7.103   3.650
12770TIP3   OH238266   7.537   6.916   4.063
12770TIP3    H138267   7.515   6.874   4.146
12770TIP3    H238268   7.577   6.846   4.011
12771TIP3   OH238269   7.789   6.977   5.293
12771TIP3    H138270   7.748   7.051   5.338
12771TIP3    H238271   7.828   7.016   5.214
12772TIP3   OH238272   7.645   6.713   3.905
12772TIP3    H138273   7.616   6.721   3.814
12772TIP3    H238274   7.740   6.713   3.900
12773TIP3   OH238275   7.890   6.761   5.447
12773TIP3    H138276   7.928   6.698   5.386
12773TIP3    H238277   7.865   6.835   5.393
12774TIP3   OH238278   7.938   6.541   5.219
12774TIP3    H138279   7.961   6.587   5.139
12774TIP3    H238280   7.844   6.525   5.212
12775TIP3   OH238281   8.073   6.316   5.306
12775TIP3    H138282   8.030   6.397   5.276
12775TIP3    H238283   8.008   6.248   5.290
12776TIP3   OH238284   7.635   6.657   5.707
12776TIP3    H138285   7.649   6.580   5.653
12776TIP3    H238286   7.694   6.645   5.782
12777TIP3   OH238287   8.161   6.320   5.568
12777TIP3    H138288   8.229   6.256   5.548
12777TIP3    H238289   8.119   6.337   5.484
12778TIP3   OH238290   7.444   7.775   3.821
12778TIP3    H138291   7.537   7.757   3.811
12778TIP3    H238292   7.418   7.818   3.740
12779TIP3   OH238293   6.931   7.150   4.032
12779TIP3    H138294   7.021   7.175   4.015
12779TIP3    H238295   6.921   7.064   3.990
12780TIP3   OH238296   6.845   7.765   4.444
12780TIP3    H138297   6.780   7.708   4.403
12780TIP3    H238298   6.890   7.708   4.506
12781TIP3   OH238299   6.982   7.611   4.627
12781TIP3    H138300   6.962   7.544   4.693
12781TIP3    H238301   7.032   7.678   4.675
12782TIP3   OH238302   8.506   6.685   3.722
12782TIP3    H138303   8.490   6.716   3.633
12782TIP3    H238304   8.491   6.590   3.717
12783TIP3   OH238305   0.038   6.943   4.247
12783TIP3    H138306   0.044   6.850   4.226
12783TIP3    H238307   0.040   6.947   4.343
12784TIP3   OH238308   7.161   7.016   4.995
12784TIP3    H138309   7.150   6.986   4.904
12784TIP3    H238310   7.256   7.012   5.009
12785TIP3   OH238311   8.466   6.413   3.716
12785TIP3    H138312   8.527   6.351   3.756
12785TIP3    H238313   8.388   6.362   3.697
12786TIP3   OH238314   0.036   6.668   4.152
12786TIP3    H138315   0.069   6.580   4.169
12786TIP3    H238316   0.081   6.695   4.072
12787TIP3   OH238317   7.367   6.701   5.704
12787TIP3    H138318   7.462   6.705   5.696
12787TIP3    H238319   7.349   6.608   5.723
12788TIP3   OH238320   0.125   6.416   4.202
12788TIP3    H138321   0.186   6.391   4.272
12788TIP3    H238322   0.067   6.341   4.193
12789TIP3   OH238323   7.346   6.405   5.011
12789TIP3    H138324   7.404   6.329   5.016
12789TIP3    H238325   7.405   6.479   4.998
12790TIP3   OH238326   7.146   6.681   5.074
12790TIP3    H138327   7.194   6.672   4.992
12790TIP3    H238328   7.180   6.760   5.114
12791TIP3   OH238329   7.130   6.182   4.581
12791TIP3    H138330   7.038   6.175   4.607
12791TIP3    H238331   7.129   6.239   4.504
12792TIP3   OH238332   7.349   6.262   5.392
12792TIP3    H138333   7.299   6.252   5.473
12792TIP3    H238334   7.286   6.298   5.330
12793TIP3   OH238335   7.158   7.765   4.785
12793TIP3    H138336   7.183   7.742   4.874
12793TIP3    H238337   7.225   7.725   4.730
12794TIP3   OH238338   7.343   7.634   4.643
12794TIP3    H138339   7.359   7.553   4.691
12794TIP3    H238340   7.430   7.672   4.631
12795TIP3   OH238341   7.598   7.713   4.646
12795TIP3    H138342   7.642   7.629   4.645
12795TIP3    H238343   7.647   7.765   4.710
12796TIP3   OH238344   8.191   6.382   4.741
12796TIP3    H138345   8.144   6.315   4.790
12796TIP3    H238346   8.255   6.334   4.688
12797TIP3   OH238347   0.218   6.278   4.639
12797TIP3    H138348   0.253   6.326   4.564
12797TIP3    H238349   0.123   6.292   4.635
12798TIP3   OH238350   0.324   6.366   4.395
12798TIP3    H138351   0.393   6.312   4.358
12798TIP3    H238352   0.357   6.455   4.388
12799TIP3   OH238353   7.439   6.099   4.749
12799TIP3    H138354   7.347   6.072   4.753
12799TIP3    H238355   7.488   6.017   4.745
12800TIP3   OH238356   7.234   5.975   4.401
12800TIP3    H138357   7.262   6.027   4.325
12800TIP3    H238358   7.205   6.039   4.465
12801TIP3   OH238359   7.888   6.132   4.632
12801TIP3    H138360   7.941   6.179   4.567
12801TIP3    H238361   7.906   6.176   4.715
12802TIP3   OH238362   8.436   6.277   4.612
12802TIP3    H138363   8.431   6.242   4.524
12802TIP3    H238364   8.420   6.202   4.669
12803TIP3   OH238365   8.454   6.202   4.179
12803TIP3    H138366   8.371   6.248   4.191
12803TIP3    H238367   8.441   6.117   4.221
12804TIP3   OH238368   6.940   7.551   4.180
12804TIP3    H138369   6.857   7.515   4.148
12804TIP3    H238370   6.939   7.643   4.153
12805TIP3   OH238371   7.349   6.127   4.164
12805TIP3    H138372   7.392   6.066   4.104
12805TIP3    H238373   7.419   6.182   4.198
12806TIP3   OH238374   7.856   6.310   4.263
12806TIP3    H138375   7.915   6.259   4.318
12806TIP3    H238376   7.875   6.401   4.284
12807TIP3   OH238377   7.711   7.718   3.779
12807TIP3    H138378   7.773   7.778   3.739
12807TIP3    H238379   7.698   7.649   3.714
12808TIP3   OH238380   7.641   6.369   5.634
12808TIP3    H138381   7.602   6.299   5.687
12808TIP3    H238382   7.732   6.373   5.663
12809TIP3   OH238383   7.890   6.356   5.738
12809TIP3    H138384   7.976   6.367   5.697
12809TIP3    H238385   7.903   6.286   5.802
12810TIP3   OH238386   7.019   7.560   3.816
12810TIP3    H138387   7.028   7.594   3.905
12810TIP3    H238388   7.104   7.519   3.797
12811TIP3   OH238389   1.387   7.427   6.413
12811TIP3    H138390   1.404   7.506   6.464
12811TIP3    H238391   1.428   7.443   6.328
12812TIP3   OH238392   0.838   7.323   6.042
12812TIP3    H138393   0.887   7.344   6.121
12812TIP3    H238394   0.865   7.389   5.978
12813TIP3   OH238395   1.432   7.631   6.591
12813TIP3    H138396   1.426   7.721   6.559
12813TIP3    H238397   1.449   7.640   6.685
12814TIP3   OH238398   1.020   7.396   6.235
12814TIP3    H138399   1.043   7.314   6.279
12814TIP3    H238400   1.090   7.457   6.260
12815TIP3   OH238401   1.187   7.337   6.583
12815TIP3    H138402   1.115   7.394   6.557
12815TIP3    H238403   1.257   7.357   6.521
12816TIP3   OH238404   1.085   6.941   5.662
12816TIP3    H138405   1.070   6.978   5.749
12816TIP3    H238406   1.131   7.010   5.614
12817TIP3   OH238407   1.146   7.554   5.585
12817TIP3    H138408   1.083   7.508   5.529
12817TIP3    H238409   1.148   7.643   5.552
12818TIP3   OH238410   1.254   7.530   6.816
12818TIP3    H138411   1.158   7.540   6.818
12818TIP3    H238412   1.272   7.493   6.730
12819TIP3   OH238413   0.921   7.737   6.218
12819TIP3    H138414   0.875   7.653   6.220
12819TIP3    H238415   1.007   7.717   6.257
12820TIP3   OH238416   0.925   7.824   5.253
12820TIP3    H138417   0.878   7.782   5.182
12820TIP3    H238418   0.916   7.918   5.236
12821TIP3   OH238419   1.057   8.002   5.592
12821TIP3    H138420   1.125   8.064   5.565
12821TIP3    H238421   1.091   7.964   5.673
12822TIP3   OH238422   1.180   7.878   5.798
12822TIP3    H138423   1.122   7.834   5.859
12822TIP3    H238424   1.250   7.914   5.852
12823TIP3   OH238425   1.113   7.785   5.442
12823TIP3    H138426   1.047   7.788   5.372
12823TIP3    H238427   1.091   7.857   5.500
12824TIP3   OH238428   0.969   7.448   5.398
12824TIP3    H138429   0.945   7.518   5.338
12824TIP3    H238430   0.952   7.367   5.350
12825TIP3   OH238431   1.015   7.733   5.956
12825TIP3    H138432   0.994   7.643   5.931
12825TIP3    H238433   0.980   7.742   6.044
12826TIP3   OH238434   0.933   7.164   5.392
12826TIP3    H138435   1.020   7.167   5.431
12826TIP3    H238436   0.873   7.182   5.464
12827TIP3   OH238437   0.997   7.460   5.853
12827TIP3    H138438   1.038   7.374   5.861
12827TIP3    H238439   1.033   7.497   5.772
12828TIP3   OH238440   1.152   7.643   6.337
12828TIP3    H138441   1.233   7.669   6.294
12828TIP3    H238442   1.168   7.663   6.430
12829TIP3   OH238443   7.396   3.374   0.169
12829TIP3    H138444   7.425   3.299   0.118
12829TIP3    H238445   7.350   3.429   0.105
12830TIP3   OH238446   1.106   7.193   5.868
12830TIP3    H138447   1.157   7.195   5.949
12830TIP3    H238448   1.030   7.139   5.889
12831TIP3   OH238449   1.616   7.445   6.861
12831TIP3    H138450   1.562   7.511   6.905
12831TIP3    H238451   1.553   7.380   6.830
12832TIP3   OH238452   1.181   7.142   5.510
12832TIP3    H138453   1.220   7.078   5.451
12832TIP3    H238454   1.244   7.214   5.512
12833TIP3   OH238455   1.436   7.252   6.774
12833TIP3    H138456   1.343   7.244   6.752
12833TIP3    H238457   1.469   7.163   6.772
12834TIP3   OH238458   1.182   7.045   6.316
12834TIP3    H138459   1.223   7.099   6.248
12834TIP3    H238460   1.091   7.074   6.319
12835TIP3   OH238461   1.263   7.165   6.087
12835TIP3    H138462   1.333   7.108   6.055
12835TIP3    H238463   1.297   7.254   6.076
12836TIP3   OH238464   0.923   7.105   6.296
12836TIP3    H138465   0.847   7.113   6.239
12836TIP3    H238466   0.907   7.025   6.347
12837TIP3   OH238467   0.889   6.983   5.850
12837TIP3    H138468   0.834   7.047   5.894
12837TIP3    H238469   0.887   6.906   5.907
12838TIP3   OH238470   5.222   0.116   5.498
12838TIP3    H138471   5.197   0.207   5.509
12838TIP3    H238472   5.143   0.073   5.466
12839TIP3   OH238473   5.230   0.131   5.882
12839TIP3    H138474   5.258   0.108   5.970
12839TIP3    H238475   5.178   0.055   5.853
12840TIP3   OH238476   4.529   0.041   6.241
12840TIP3    H138477   4.537  -0.024   6.310
12840TIP3    H238478   4.617   0.047   6.203
12841TIP3   OH238479   5.498   0.426   5.581
12841TIP3    H138480   5.444   0.357   5.619
12841TIP3    H238481   5.456   0.507   5.609
12842TIP3   OH238482   4.561   0.366   6.050
12842TIP3    H138483   4.520   0.288   6.014
12842TIP3    H238484   4.636   0.383   5.993
12843TIP3   OH238485   1.356   7.655   5.745
12843TIP3    H138486   1.323   7.741   5.770
12843TIP3    H238487   1.281   7.610   5.707
12844TIP3   OH238488   1.419   7.944   5.911
12844TIP3    H138489   1.462   7.872   5.957
12844TIP3    H238490   1.491   8.000   5.882
12845TIP3   OH238491   5.034   0.369   5.931
12845TIP3    H138492   5.066   0.291   5.885
12845TIP3    H238493   5.092   0.439   5.903
12846TIP3   OH238494   3.195   7.699   5.928
12846TIP3    H138495   3.221   7.781   5.970
12846TIP3    H238496   3.217   7.711   5.836
12847TIP3   OH238497   2.593   7.877   5.955
12847TIP3    H138498   2.635   7.794   5.975
12847TIP3    H238499   2.559   7.867   5.867
12848TIP3   OH238500   1.931   7.541   5.917
12848TIP3    H138501   1.912   7.616   5.860
12848TIP3    H238502   1.883   7.468   5.878
12849TIP3   OH238503   2.628   7.634   5.542
12849TIP3    H138504   2.695   7.618   5.609
12849TIP3    H238505   2.678   7.669   5.468
12850TIP3   OH238506   1.564   7.741   6.030
12850TIP3    H138507   1.642   7.724   6.082
12850TIP3    H238508   1.576   7.690   5.950
12851TIP3   OH238509   2.000   7.939   5.828
12851TIP3    H138510   2.093   7.918   5.839
12851TIP3    H238511   1.962   7.858   5.794
12852TIP3   OH238512   3.259   7.908   6.104
12852TIP3    H138513   3.179   7.957   6.085
12852TIP3    H238514   3.296   7.950   6.182
12853TIP3   OH238515   1.924   7.523   6.356
12853TIP3    H138516   1.865   7.560   6.290
12853TIP3    H238517   1.877   7.535   6.439
12854TIP3   OH238518   5.106   0.327   5.347
12854TIP3    H138519   5.046   0.333   5.272
12854TIP3    H238520   5.116   0.417   5.377
12855TIP3   OH238521   4.868   0.286   6.148
12855TIP3    H138522   4.832   0.358   6.201
12855TIP3    H238523   4.914   0.330   6.077
12856TIP3   OH238524   2.831   7.638   5.721
12856TIP3    H138525   2.811   7.594   5.804
12856TIP3    H238526   2.881   7.716   5.747
12857TIP3   OH238527   1.799   7.640   6.139
12857TIP3    H138528   1.856   7.712   6.168
12857TIP3    H238529   1.846   7.599   6.066
12858TIP3   OH238530   4.092   0.143   5.490
12858TIP3    H138531   4.053   0.142   5.402
12858TIP3    H238532   4.103   0.236   5.510
12859TIP3   OH238533   2.979   7.601   6.082
12859TIP3    H138534   2.895   7.629   6.049
12859TIP3    H238535   3.043   7.636   6.020
12860TIP3   OH238536   2.276   7.239   6.076
12860TIP3    H138537   2.261   7.146   6.091
12860TIP3    H238538   2.203   7.283   6.120
12861TIP3   OH238539   5.476   0.452   5.303
12861TIP3    H138540   5.434   0.378   5.258
12861TIP3    H238541   5.475   0.427   5.396
12862TIP3   OH238542   5.752   0.602   6.067
12862TIP3    H138543   5.738   0.522   6.016
12862TIP3    H238544   5.710   0.671   6.016
12863TIP3   OH238545   5.043  -0.016   5.331
12863TIP3    H138546   4.965   0.038   5.318
12863TIP3    H238547   5.088  -0.012   5.246
12864TIP3   OH238548   2.172   7.791   5.041
12864TIP3    H138549   2.233   7.845   5.092
12864TIP3    H238550   2.228   7.729   4.994
12865TIP3   OH238551   5.942   0.238   5.916
12865TIP3    H138552   5.863   0.292   5.924
12865TIP3    H238553   5.974   0.257   5.827
12866TIP3   OH238554   5.400   0.069   5.304
12866TIP3    H138555   5.338   0.087   5.375
12866TIP3    H238556   5.479   0.040   5.349
12867TIP3   OH238557   5.622   0.112   6.214
12867TIP3    H138558   5.627   0.188   6.272
12867TIP3    H238559   5.536   0.119   6.173
12868TIP3   OH238560   4.632   0.072   5.706
12868TIP3    H138561   4.589   0.014   5.643
12868TIP3    H238562   4.705   0.021   5.740
12869TIP3   OH238563   4.771   0.454   5.909
12869TIP3    H138564   4.737   0.451   5.819
12869TIP3    H238565   4.865   0.436   5.899
12870TIP3   OH238566   4.753   0.047   6.071
12870TIP3    H138567   4.788   0.020   5.986
12870TIP3    H238568   4.798   0.130   6.090
12871TIP3   OH238569   2.398   7.947   5.125
12871TIP3    H138570   2.454   8.007   5.174
12871TIP3    H238571   2.424   7.959   5.034
12872TIP3   OH238572   2.913   7.189   5.175
12872TIP3    H138573   2.833   7.208   5.223
12872TIP3    H238574   2.929   7.268   5.123
12873TIP3   OH238575   1.659   7.929   5.518
12873TIP3    H138576   1.595   7.973   5.462
12873TIP3    H238577   1.618   7.844   5.539
12874TIP3   OH238578   5.884   0.069   6.388
12874TIP3    H138579   5.794   0.088   6.362
12874TIP3    H238580   5.889  -0.026   6.390
12875TIP3   OH238581   2.039   7.320   6.204
12875TIP3    H138582   1.954   7.288   6.173
12875TIP3    H238583   2.018   7.400   6.252
12876TIP3   OH238584   2.566   7.438   6.419
12876TIP3    H138585   2.591   7.429   6.511
12876TIP3    H238586   2.472   7.419   6.418
12877TIP3   OH238587   2.806   7.868   6.318
12877TIP3    H138588   2.760   7.867   6.401
12877TIP3    H238589   2.787   7.955   6.281
12878TIP3   OH238590   2.477   7.975   4.869
12878TIP3    H138591   2.443   7.952   4.783
12878TIP3    H238592   2.528   8.054   4.854
12879TIP3   OH238593   2.184   7.365   5.175
12879TIP3    H138594   2.152   7.364   5.265
12879TIP3    H238595   2.147   7.286   5.136
12880TIP3   OH238596   1.972   7.840   6.220
12880TIP3    H138597   1.940   7.866   6.306
12880TIP3    H238598   1.958   7.917   6.165
12881TIP3   OH238599   1.855   7.722   5.731
12881TIP3    H138600   1.765   7.699   5.754
12881TIP3    H238601   1.869   7.682   5.645
12882TIP3   OH238602   2.350   7.802   5.462
12882TIP3    H138603   2.298   7.872   5.421
12882TIP3    H238604   2.405   7.769   5.391
12883TIP3   OH238605   5.354   0.060   6.533
12883TIP3    H138606   5.336   0.000   6.606
12883TIP3    H238607   5.434   0.105   6.559
12884TIP3   OH238608   2.504   7.833   5.698
12884TIP3    H138609   2.441   7.868   5.634
12884TIP3    H238610   2.539   7.754   5.656
12885TIP3   OH238611   1.793   7.861   6.440
12885TIP3    H138612   1.843   7.902   6.511
12885TIP3    H238613   1.772   7.774   6.474
12886TIP3   OH238614   1.840   7.343   5.139
12886TIP3    H138615   1.833   7.342   5.235
12886TIP3    H238616   1.767   7.397   5.110
12887TIP3   OH238617   1.393   7.380   6.010
12887TIP3    H138618   1.459   7.419   6.068
12887TIP3    H238619   1.439   7.366   5.927
12888TIP3   OH238620   1.349   7.368   5.526
12888TIP3    H138621   1.397   7.400   5.450
12888TIP3    H238622   1.290   7.440   5.549
12889TIP3   OH238623   5.352   0.062   6.123
12889TIP3    H138624   5.385  -0.005   6.063
12889TIP3    H238625   5.320   0.011   6.198
12890TIP3   OH238626   2.189   7.538   5.796
12890TIP3    H138627   2.107   7.541   5.845
12890TIP3    H238628   2.257   7.542   5.862
12891TIP3   OH238629   1.618   7.601   5.800
12891TIP3    H138630   1.527   7.611   5.772
12891TIP3    H238631   1.641   7.512   5.776
12892TIP3   OH238632   1.884   7.595   5.491
12892TIP3    H138633   1.977   7.610   5.471
12892TIP3    H238634   1.838   7.616   5.410
12893TIP3   OH238635   2.680   7.615   5.992
12893TIP3    H138636   2.655   7.630   6.083
12893TIP3    H238637   2.611   7.559   5.957
12894TIP3   OH238638   1.735   7.627   5.266
12894TIP3    H138639   1.663   7.584   5.219
12894TIP3    H238640   1.788   7.667   5.196
12895TIP3   OH238641   2.263   7.869   5.894
12895TIP3    H138642   2.340   7.837   5.847
12895TIP3    H238643   2.270   7.829   5.981
12896TIP3   OH238644   1.786   7.358   5.774
12896TIP3    H138645   1.751   7.283   5.823
12896TIP3    H238646   1.833   7.319   5.701
12897TIP3   OH238647   2.243   7.776   6.180
12897TIP3    H138648   2.154   7.809   6.195
12897TIP3    H238649   2.299   7.835   6.229
12898TIP3   OH238650   4.814   0.129   5.283
12898TIP3    H138651   4.740   0.070   5.267
12898TIP3    H238652   4.792   0.173   5.365
12899TIP3   OH238653   5.707   0.385   5.891
12899TIP3    H138654   5.675   0.435   5.816
12899TIP3    H238655   5.637   0.324   5.910
12900TIP3   OH238656   2.436   7.468   5.145
12900TIP3    H138657   2.343   7.449   5.152
12900TIP3    H238658   2.444   7.561   5.168
12901TIP3   OH238659   5.239   0.435   6.296
12901TIP3    H138660   5.293   0.417   6.372
12901TIP3    H238661   5.166   0.487   6.330
12902TIP3   OH238662   2.508   7.720   5.244
12902TIP3    H138663   2.602   7.727   5.258
12902TIP3    H238664   2.485   7.799   5.195
12903TIP3   OH238665   4.487   0.122   5.937
12903TIP3    H138666   4.538   0.108   5.857
12903TIP3    H238667   4.537   0.078   6.005
12904TIP3   OH238668   4.919   0.318   5.117
12904TIP3    H138669   4.881   0.389   5.169
12904TIP3    H238670   4.889   0.238   5.162
12905TIP3   OH238671   5.111   0.191   6.572
12905TIP3    H138672   5.094   0.172   6.479
12905TIP3    H238673   5.205   0.179   6.581
12906TIP3   OH238674   2.943   7.817   5.074
12906TIP3    H138675   2.886   7.765   5.018
12906TIP3    H238676   2.944   7.904   5.034
12907TIP3   OH238677   6.000   0.640   6.164
12907TIP3    H138678   5.905   0.646   6.149
12907TIP3    H238679   6.036   0.624   6.077
12908TIP3   OH238680   5.491   0.230   5.829
12908TIP3    H138681   5.395   0.230   5.831
12908TIP3    H238682   5.514   0.153   5.778
12909TIP3   OH238683   1.342   7.790   5.286
12909TIP3    H138684   1.386   7.873   5.302
12909TIP3    H238685   1.265   7.792   5.343
12910TIP3   OH238686   4.740   0.245   5.519
12910TIP3    H138687   4.715   0.331   5.552
12910TIP3    H238688   4.714   0.184   5.588
12911TIP3   OH238689   5.336   0.476   6.040
12911TIP3    H138690   5.285   0.451   6.117
12911TIP3    H238691   5.320   0.405   5.977
12912TIP3   OH238692   5.272   0.273   4.861
12912TIP3    H138693   5.304   0.267   4.951
12912TIP3    H238694   5.195   0.329   4.866
12913TIP3   OH238695   1.773   7.594   6.578
12913TIP3    H138696   1.681   7.593   6.604
12913TIP3    H238697   1.818   7.545   6.647
12914TIP3   OH238698   5.400   0.258   5.109
12914TIP3    H138699   5.390   0.188   5.173
12914TIP3    H238700   5.493   0.257   5.087
12915TIP3   OH238701   4.593   0.272   4.936
12915TIP3    H138702   4.629   0.186   4.912
12915TIP3    H238703   4.621   0.285   5.027
12916TIP3   OH238704   4.293   0.019   5.359
12916TIP3    H138705   4.228   0.052   5.422
12916TIP3    H238706   4.298   0.087   5.292
12917TIP3   OH238707   2.621   7.654   6.252
12917TIP3    H138708   2.669   7.720   6.303
12917TIP3    H238709   2.591   7.590   6.317
12918TIP3   OH238710   2.485   7.420   5.425
12918TIP3    H138711   2.470   7.439   5.332
12918TIP3    H238712   2.523   7.501   5.460
12919TIP3   OH238713   2.170   7.605   5.526
12919TIP3    H138714   2.232   7.675   5.507
12919TIP3    H238715   2.174   7.594   5.621
12920TIP3   OH238716   2.440   7.918   6.327
12920TIP3    H138717   2.455   7.980   6.398
12920TIP3    H238718   2.485   7.838   6.356
12921TIP3   OH238719   2.313   7.326   5.624
12921TIP3    H138720   2.300   7.402   5.681
12921TIP3    H238721   2.375   7.357   5.557
12922TIP3   OH238722   1.829   7.331   5.415
12922TIP3    H138723   1.822   7.420   5.452
12922TIP3    H238724   1.922   7.310   5.421
12923TIP3   OH238725   3.067   7.801   6.316
12923TIP3    H138726   2.973   7.818   6.312
12923TIP3    H238727   3.095   7.800   6.224
12924TIP3   OH238728   2.735   8.008   5.692
12924TIP3    H138729   2.654   7.960   5.710
12924TIP3    H238730   2.801   7.964   5.746
12925TIP3   OH238731   4.287   0.233   5.174
12925TIP3    H138732   4.307   0.326   5.161
12925TIP3    H238733   4.339   0.188   5.107
12926TIP3   OH238734   1.386   7.520   5.304
12926TIP3    H138735   1.394   7.615   5.306
12926TIP3    H238736   1.308   7.504   5.251
12927TIP3   OH238737   1.775   7.239   6.173
12927TIP3    H138738   1.746   7.206   6.088
12927TIP3    H238739   1.766   7.165   6.232
12928TIP3   OH238740   4.412   0.033   5.027
12928TIP3    H138741   4.458   0.001   5.105
12928TIP3    H238742   4.480   0.037   4.959
12929TIP3   OH238743   4.868   0.213   4.840
12929TIP3    H138744   4.895   0.231   4.930
12929TIP3    H238745   4.896   0.122   4.825
12930TIP3   OH238746   5.542   0.486   6.221
12930TIP3    H138747   5.592   0.557   6.180
12930TIP3    H238748   5.460   0.483   6.172
12931TIP3   OH238749   1.778   7.958   5.239
12931TIP3    H138750   1.752   7.919   5.322
12931TIP3    H238751   1.820   7.887   5.190
12932TIP3   OH238752   4.887  -0.001   6.460
12932TIP3    H138753   4.906   0.055   6.535
12932TIP3    H238754   4.943   0.033   6.389
12933TIP3   OH238755   1.893   7.756   5.083
12933TIP3    H138756   1.865   7.760   4.992
12933TIP3    H238757   1.988   7.759   5.079
12934TIP3   OH238758   5.405   0.383   6.550
12934TIP3    H138759   5.492   0.421   6.559
12934TIP3    H238760   5.378   0.363   6.639
12935TIP3   OH238761   5.549   0.079   4.741
12935TIP3    H138762   5.521   0.025   4.667
12935TIP3    H238763   5.526   0.169   4.716
12936TIP3   OH238764   2.202   7.810   6.583
12936TIP3    H138765   2.196   7.727   6.536
12936TIP3    H238766   2.141   7.868   6.537
12937TIP3   OH238767   2.183   7.598   6.398
12937TIP3    H138768   2.208   7.644   6.318
12937TIP3    H238769   2.090   7.577   6.385
12938TIP3   OH238770   5.046   0.125   6.283
12938TIP3    H138771   5.131   0.140   6.241
12938TIP3    H238772   4.987   0.186   6.238
12939TIP3   OH238773   5.648   0.081   6.630
12939TIP3    H138774   5.705   0.020   6.677
12939TIP3    H238775   5.701   0.160   6.618
12940TIP3   OH238776   5.678   0.325   6.383
12940TIP3    H138777   5.613   0.382   6.341
12940TIP3    H238778   5.761   0.354   6.346
12941TIP3   OH238779   1.999   7.926   6.762
12941TIP3    H138780   1.964   7.847   6.803
12941TIP3    H238781   2.090   7.903   6.740
12942TIP3   OH238782   2.311   7.360   6.451
12942TIP3    H138783   2.261   7.441   6.442
12942TIP3    H238784   2.244   7.292   6.456
12943TIP3   OH238785   2.450   7.858   6.691
12943TIP3    H138786   2.444   7.838   6.785
12943TIP3    H238787   2.362   7.843   6.658
12944TIP3   OH238788   2.672   7.788   6.541
12944TIP3    H138789   2.598   7.814   6.596
12944TIP3    H238790   2.740   7.764   6.604
12945TIP3   OH238791   2.909   7.695   6.708
12945TIP3    H138792   2.926   7.626   6.773
12945TIP3    H238793   2.901   7.775   6.759
12946TIP3   OH238794   1.898   7.698   6.881
12946TIP3    H138795   1.888   7.613   6.838
12946TIP3    H238796   1.948   7.679   6.960
12947TIP3   OH238797   2.384   7.334   6.720
12947TIP3    H138798   2.470   7.291   6.717
12947TIP3    H238799   2.360   7.343   6.628
12948TIP3   OH238800   4.027   0.131   5.218
12948TIP3    H138801   4.101   0.181   5.183
12948TIP3    H238802   4.012   0.062   5.153
12949TIP3   OH238803   5.676   0.249   5.091
12949TIP3    H138804   5.739   0.310   5.052
12949TIP3    H238805   5.714   0.227   5.176
12950TIP3   OH238806   5.784   0.183   5.347
12950TIP3    H138807   5.733   0.103   5.361
12950TIP3    H238808   5.875   0.155   5.353
12951TIP3   OH238809   5.740   0.037   4.931
12951TIP3    H138810   5.677   0.032   4.858
12951TIP3    H238811   5.709   0.111   4.983
12952TIP3   OH238812   2.784   7.718   4.883
12952TIP3    H138813   2.735   7.758   4.810
12952TIP3    H238814   2.762   7.625   4.878
12953TIP3   OH238815   2.797   7.989   5.429
12953TIP3    H138816   2.797   7.895   5.413
12953TIP3    H238817   2.777   7.998   5.522
12954TIP3   OH238818   4.249   0.028   6.180
12954TIP3    H138819   4.248   0.031   6.085
12954TIP3    H238820   4.338   0.055   6.204
12955TIP3   OH238821   5.919   0.407   6.291
12955TIP3    H138822   5.986   0.340   6.280
12955TIP3    H238823   5.943   0.475   6.228
12956TIP3   OH238824   6.098   0.203   6.294
12956TIP3    H138825   6.024   0.161   6.336
12956TIP3    H238826   6.172   0.146   6.312
12957TIP3   OH238827   2.725   7.455   4.871
12957TIP3    H138828   2.797   7.420   4.925
12957TIP3    H238829   2.652   7.395   4.888
12958TIP3   OH238830   2.790   7.715   5.322
12958TIP3    H138831   2.824   7.627   5.341
12958TIP3    H238832   2.843   7.745   5.248
12959TIP3   OH238833   2.947   7.884   5.824
12959TIP3    H138834   3.027   7.909   5.779
12959TIP3    H238835   2.955   7.921   5.912
12960TIP3   OH238836   5.846   0.016   6.054
12960TIP3    H138837   5.771   0.047   6.105
12960TIP3    H238838   5.879   0.094   6.010
12961TIP3   OH238839   3.488   7.633   6.607
12961TIP3    H138840   3.537   7.563   6.565
12961TIP3    H238841   3.437   7.673   6.537
12962TIP3   OH238842   2.891   7.464   5.366
12962TIP3    H138843   2.940   7.449   5.446
12962TIP3    H238844   2.831   7.390   5.361
12963TIP3   OH238845   1.592   7.449   6.189
12963TIP3    H138846   1.651   7.374   6.196
12963TIP3    H238847   1.650   7.525   6.178
12964TIP3   OH238848   1.391   7.745   6.255
12964TIP3    H138849   1.442   7.731   6.175
12964TIP3    H238850   1.398   7.839   6.272
12965TIP3   OH238851   3.331   7.755   6.416
12965TIP3    H138852   3.257   7.802   6.455
12965TIP3    H238853   3.292   7.682   6.370
12966TIP3   OH238854   2.973   7.394   4.997
12966TIP3    H138855   3.008   7.324   4.942
12966TIP3    H238856   3.038   7.463   4.993
12967TIP3   OH238857   1.377   7.216   5.748
12967TIP3    H138858   1.289   7.219   5.785
12967TIP3    H238859   1.376   7.279   5.676
12968TIP3   OH238860   1.598   7.296   6.549
12968TIP3    H138861   1.555   7.294   6.634
12968TIP3    H238862   1.533   7.336   6.490
12969TIP3   OH238863   3.224   7.519   6.293
12969TIP3    H138864   3.169   7.523   6.215
12969TIP3    H238865   3.268   7.434   6.287
12970TIP3   OH238866   2.445   7.438   5.917
12970TIP3    H138867   2.398   7.369   5.965
12970TIP3    H238868   2.515   7.392   5.870
12971TIP3   OH238869   2.960   7.323   5.818
12971TIP3    H138870   2.998   7.370   5.744
12971TIP3    H238871   2.866   7.337   5.809
12972TIP3   OH238872   3.059   7.418   5.580
12972TIP3    H138873   3.129   7.365   5.541
12972TIP3    H238874   3.089   7.509   5.567
12973TIP3   OH238875   1.687   7.143   5.925
12973TIP3    H138876   1.595   7.114   5.930
12973TIP3    H238877   1.737   7.061   5.922
12974TIP3   OH238878   1.478   7.019   5.579
12974TIP3    H138879   1.505   7.071   5.503
12974TIP3    H238880   1.452   7.085   5.644
12975TIP3   OH238881   2.136   7.178   5.810
12975TIP3    H138882   2.190   7.224   5.746
12975TIP3    H238883   2.159   7.219   5.894
12976TIP3   OH238884   2.678   7.324   5.789
12976TIP3    H138885   2.678   7.287   5.701
12976TIP3    H238886   2.667   7.248   5.847
12977TIP3   OH238887   2.707   7.251   5.356
12977TIP3    H138888   2.624   7.296   5.370
12977TIP3    H238889   2.696   7.166   5.398
12978TIP3   OH238890   1.597   7.172   5.340
12978TIP3    H138891   1.642   7.111   5.280
12978TIP3    H238892   1.667   7.228   5.374
12979TIP3   OH238893   2.106   7.355   5.439
12979TIP3    H138894   2.164   7.305   5.497
12979TIP3    H238895   2.124   7.446   5.461
12980TIP3   OH238896   1.912   7.428   6.785
12980TIP3    H138897   1.849   7.392   6.849
12980TIP3    H238898   1.997   7.417   6.827
12981TIP3   OH238899   2.158   7.417   6.924
12981TIP3    H138900   2.248   7.433   6.896
12981TIP3    H238901   2.164   7.339   6.979
12982TIP3   OH238902   7.009   0.383   4.988
12982TIP3    H138903   6.974   0.470   4.967
12982TIP3    H238904   6.942   0.322   4.956
12983TIP3   OH238905   7.011   0.396   5.368
12983TIP3    H138906   7.046   0.375   5.454
12983TIP3    H238907   6.971   0.315   5.338
12984TIP3   OH238908   6.291   0.294   5.739
12984TIP3    H138909   6.323   0.225   5.798
12984TIP3    H238910   6.368   0.350   5.725
12985TIP3   OH238911   7.228   0.700   5.057
12985TIP3    H138912   7.226   0.628   5.120
12985TIP3    H238913   7.284   0.766   5.098
12986TIP3   OH238914   6.341   0.633   5.537
12986TIP3    H138915   6.307   0.551   5.500
12986TIP3    H238916   6.419   0.653   5.485
12987TIP3   OH238917   3.146   7.914   5.237
12987TIP3    H138918   3.109   8.001   5.224
12987TIP3    H238919   3.083   7.855   5.197
12988TIP3   OH238920   6.046   0.191   5.408
12988TIP3    H138921   6.088   0.113   5.445
12988TIP3    H238922   6.119   0.243   5.375
12989TIP3   OH238923   6.828   0.614   5.408
12989TIP3    H138924   6.871   0.535   5.374
12989TIP3    H238925   6.900   0.671   5.436
12990TIP3   OH238926   4.989   7.959   5.409
12990TIP3    H138927   5.018   8.039   5.453
12990TIP3    H238928   5.012   7.972   5.317
12991TIP3   OH238929   7.220   0.122   5.441
12991TIP3    H138930   7.263   0.040   5.465
12991TIP3    H238931   7.188   0.107   5.352
12992TIP3   OH238932   3.724   7.799   5.406
12992TIP3    H138933   3.709   7.872   5.346
12992TIP3    H238934   3.680   7.724   5.366
12993TIP3   OH238935   4.425   7.891   5.028
12993TIP3    H138936   4.491   7.875   5.096
12993TIP3    H238937   4.475   7.925   4.954
12994TIP3   OH238938   3.359   8.001   5.513
12994TIP3    H138939   3.439   7.987   5.564
12994TIP3    H238940   3.371   7.947   5.435
12995TIP3   OH238941   6.630   0.182   5.315
12995TIP3    H138942   6.723   0.163   5.325
12995TIP3    H238943   6.592   0.101   5.281
12996TIP3   OH238944   7.897   0.154   5.582
12996TIP3    H138945   7.813   0.196   5.565
12996TIP3    H238946   7.926   0.190   5.666
12997TIP3   OH238947   3.719   7.783   5.843
12997TIP3    H138948   3.662   7.820   5.775
12997TIP3    H238949   3.670   7.797   5.924
12998TIP3   OH238950   6.886   0.587   4.852
12998TIP3    H138951   6.848   0.587   4.764
12998TIP3    H238952   6.922   0.675   4.862
12999TIP3   OH238953   6.659   0.549   5.635
12999TIP3    H138954   6.598   0.614   5.669
12999TIP3    H238955   6.695   0.589   5.556
13000TIP3   OH238956   4.626   7.897   5.208
13000TIP3    H138957   4.614   7.849   5.291
13000TIP3    H238958   4.679   7.973   5.232
13001TIP3   OH238959   3.594   7.900   5.625
13001TIP3    H138960   3.652   7.971   5.653
13001TIP3    H238961   3.640   7.858   5.552
13002TIP3   OH238962   6.488   0.763   5.738
13002TIP3    H138963   6.446   0.750   5.653
13002TIP3    H238964   6.415   0.758   5.801
13003TIP3   OH238965   5.877   0.401   4.978
13003TIP3    H138966   5.845   0.387   4.888
13003TIP3    H238967   5.895   0.494   4.983
13004TIP3   OH238968   4.779   7.857   5.574
13004TIP3    H138969   4.693   7.884   5.541
13004TIP3    H238970   4.841   7.890   5.509
13005TIP3   OH238971   4.070   7.496   5.559
13005TIP3    H138972   4.061   7.402   5.578
13005TIP3    H238973   3.997   7.537   5.605
13006TIP3   OH238974   7.261   0.712   4.774
13006TIP3    H138975   7.235   0.632   4.727
13006TIP3    H238976   7.271   0.683   4.865
13007TIP3   OH238977   7.541   0.853   5.557
13007TIP3    H138978   7.529   0.776   5.501
13007TIP3    H238979   7.570   0.922   5.498
13008TIP3   OH238980   6.842   0.244   4.819
13008TIP3    H138981   6.763   0.295   4.803
13008TIP3    H238982   6.887   0.242   4.734
13009TIP3   OH238983   6.802   0.035   4.528
13009TIP3    H138984   6.864   0.089   4.576
13009TIP3    H238985   6.856  -0.028   4.481
13010TIP3   OH238986   7.745   0.495   5.401
13010TIP3    H138987   7.663   0.543   5.409
13010TIP3    H238988   7.777   0.517   5.314
13011TIP3   OH238989   7.190   0.323   4.794
13011TIP3    H138990   7.135   0.344   4.869
13011TIP3    H238991   7.275   0.299   4.832
13012TIP3   OH238992   7.419   0.373   5.700
13012TIP3    H138993   7.420   0.454   5.750
13012TIP3    H238994   7.334   0.373   5.656
13013TIP3   OH238995   6.426   0.330   5.197
13013TIP3    H138996   6.383   0.272   5.133
13013TIP3    H238997   6.500   0.279   5.230
13014TIP3   OH238998   6.561   0.696   5.403
13014TIP3    H138999   6.529   0.694   5.312
13014TIP3    H239000   6.656   0.700   5.394
13015TIP3   OH239001   6.542   0.309   5.553
13015TIP3    H139002   6.581   0.279   5.471
13015TIP3    H239003   6.589   0.389   5.574
13016TIP3   OH239004   6.737   0.758   5.879
13016TIP3    H139005   6.705   0.845   5.904
13016TIP3    H239006   6.666   0.722   5.825
13017TIP3   OH239007   7.024   0.193   4.612
13017TIP3    H139008   7.082   0.249   4.662
13017TIP3    H239009   7.051   0.204   4.521
13018TIP3   OH239010   6.450   0.416   5.985
13018TIP3    H139011   6.458   0.503   6.026
13018TIP3    H239012   6.359   0.391   6.000
13019TIP3   OH239013   4.710   7.445   4.661
13019TIP3    H139014   4.630   7.464   4.710
13019TIP3    H239015   4.727   7.524   4.611
13020TIP3   OH239016   6.283   0.173   5.012
13020TIP3    H139017   6.221   0.214   4.951
13020TIP3    H239018   6.256   0.081   5.015
13021TIP3   OH239019   6.092   0.555   5.924
13021TIP3    H139020   6.045   0.529   5.844
13021TIP3    H239021   6.126   0.472   5.959
13022TIP3   OH239022   7.678   0.321   5.883
13022TIP3    H139023   7.596   0.348   5.842
13022TIP3    H239024   7.692   0.231   5.854
13023TIP3   OH239025   6.277   0.757   5.910
13023TIP3    H139026   6.327   0.729   5.986
13023TIP3    H239027   6.201   0.699   5.908
13024TIP3   OH239028   3.833   7.576   5.690
13024TIP3    H139029   3.749   7.545   5.658
13024TIP3    H239030   3.813   7.656   5.738
13025TIP3   OH239031   4.373   7.690   5.884
13025TIP3    H139032   4.441   7.662   5.945
13025TIP3    H239033   4.291   7.671   5.930
13026TIP3   OH239034   7.445   0.110   5.805
13026TIP3    H139035   7.394   0.104   5.885
13026TIP3    H239036   7.421   0.194   5.767
13027TIP3   OH239037   7.105   0.217   4.356
13027TIP3    H139038   7.071   0.196   4.269
13027TIP3    H239039   7.168   0.288   4.341
13028TIP3   OH239040   3.979   7.623   4.661
13028TIP3    H139041   3.948   7.622   4.751
13028TIP3    H239042   3.944   7.543   4.622
13029TIP3   OH239043   6.598   0.086   5.703
13029TIP3    H139044   6.556   0.105   5.787
13029TIP3    H239045   6.583   0.164   5.650
13030TIP3   OH239046   3.651   7.977   5.219
13030TIP3    H139047   3.561   7.953   5.240
13030TIP3    H239048   3.667   7.939   5.133
13031TIP3   OH239049   6.980   0.046   4.949
13031TIP3    H139050   6.928   0.115   4.906
13031TIP3    H239051   7.036   0.012   4.879
13032TIP3   OH239052   7.157   0.322   6.031
13032TIP3    H139053   7.131   0.253   6.092
13032TIP3    H239054   7.248   0.341   6.053
13033TIP3   OH239055   7.133   0.074   5.183
13033TIP3    H139056   7.070   0.105   5.117
13033TIP3    H239057   7.172  -0.004   5.144
13034TIP3   OH239058   6.418   0.106   5.916
13034TIP3    H139059   6.459   0.169   5.975
13034TIP3    H239060   6.412   0.025   5.966
13035TIP3   OH239061   3.636   7.600   4.625
13035TIP3    H139062   3.630   7.597   4.721
13035TIP3    H239063   3.561   7.652   4.598
13036TIP3   OH239064   3.183   7.642   5.497
13036TIP3    H139065   3.257   7.673   5.548
13036TIP3    H239066   3.222   7.608   5.416
13037TIP3   OH239067   3.148   7.625   5.015
13037TIP3    H139068   3.196   7.654   4.937
13037TIP3    H239069   3.085   7.695   5.033
13038TIP3   OH239070   7.143   0.319   5.607
13038TIP3    H139071   7.177   0.252   5.548
13038TIP3    H239072   7.113   0.270   5.684
13039TIP3   OH239073   3.985   7.802   5.283
13039TIP3    H139074   3.906   7.799   5.337
13039TIP3    H239075   4.057   7.792   5.345
13040TIP3   OH239076   3.413   7.855   5.288
13040TIP3    H139077   3.321   7.858   5.262
13040TIP3    H239078   3.441   7.766   5.268
13041TIP3   OH239079   3.680   7.853   4.979
13041TIP3    H139080   3.773   7.865   4.960
13041TIP3    H239081   3.636   7.873   4.896
13042TIP3   OH239082   4.472   7.877   5.486
13042TIP3    H139083   4.443   7.891   5.576
13042TIP3    H239084   4.408   7.816   5.449
13043TIP3   OH239085   3.528   7.889   4.753
13043TIP3    H139086   3.459   7.842   4.706
13043TIP3    H239087   3.583   7.926   4.683
13044TIP3   OH239088   6.436   0.664   6.126
13044TIP3    H139089   6.517   0.689   6.170
13044TIP3    H239090   6.371   0.659   6.196
13045TIP3   OH239091   6.895   0.116   5.380
13045TIP3    H139092   6.968   0.079   5.330
13045TIP3    H239093   6.900   0.073   5.465
13046TIP3   OH239094   3.581   7.615   5.261
13046TIP3    H139095   3.546   7.541   5.310
13046TIP3    H239096   3.631   7.576   5.190
13047TIP3   OH239097   6.872   0.017   5.667
13047TIP3    H139098   6.784   0.053   5.682
13047TIP3    H239099   6.930   0.075   5.716
13048TIP3   OH239100   6.609   0.385   4.770
13048TIP3    H139101   6.534   0.328   4.753
13048TIP3    H239102   6.588   0.429   4.852
13049TIP3   OH239103   7.510   0.633   5.391
13049TIP3    H139104   7.538   0.683   5.314
13049TIP3    H239105   7.427   0.593   5.364
13050TIP3   OH239106   4.233   7.725   4.633
13050TIP3    H139107   4.139   7.707   4.639
13050TIP3    H239108   4.241   7.818   4.655
13051TIP3   OH239109   7.020   0.743   5.763
13051TIP3    H139110   7.055   0.692   5.835
13051TIP3    H239111   6.938   0.780   5.797
13052TIP3   OH239112   4.304   7.978   4.733
13052TIP3    H139113   4.399   7.982   4.747
13052TIP3    H239114   4.285   8.056   4.681
13053TIP3   OH239115   6.279   0.372   5.425
13053TIP3    H139116   6.328   0.370   5.343
13053TIP3    H239117   6.342   0.341   5.490
13054TIP3   OH239118   6.718   0.576   4.609
13054TIP3    H139119   6.678   0.646   4.660
13054TIP3    H239120   6.687   0.495   4.651
13055TIP3   OH239121   6.190   0.338   6.059
13055TIP3    H139122   6.213   0.331   6.151
13055TIP3    H239123   6.120   0.273   6.046
13056TIP3   OH239124   6.918   0.447   6.074
13056TIP3    H139125   6.855   0.397   6.022
13056TIP3    H239126   7.003   0.415   6.045
13057TIP3   OH239127   7.572   0.058   4.563
13057TIP3    H139128   7.515   0.010   4.503
13057TIP3    H239129   7.574   0.147   4.527
13058TIP3   OH239130   7.797   0.890   5.649
13058TIP3    H139131   7.703   0.908   5.641
13058TIP3    H239132   7.827   0.878   5.559
13059TIP3   OH239133   7.273   0.504   5.295
13059TIP3    H139134   7.183   0.483   5.318
13059TIP3    H239135   7.309   0.423   5.259
13060TIP3   OH239136   5.970   0.032   4.772
13060TIP3    H139137   6.015   0.116   4.786
13060TIP3    H239138   5.892   0.037   4.827
13061TIP3   OH239139   6.536   0.501   5.006
13061TIP3    H139140   6.509   0.587   5.037
13061TIP3    H239141   6.511   0.441   5.077
13062TIP3   OH239142   7.065   0.704   5.492
13062TIP3    H139143   7.053   0.716   5.586
13062TIP3    H239144   7.150   0.661   5.485
13063TIP3   OH239145   7.069   0.533   4.348
13063TIP3    H139146   7.101   0.521   4.437
13063TIP3    H239147   6.992   0.589   4.357
13064TIP3   OH239148   3.561   7.860   6.060
13064TIP3    H139149   3.468   7.867   6.080
13064TIP3    H239150   3.599   7.813   6.134
13065TIP3   OH239151   7.196   0.508   4.595
13065TIP3    H139152   7.190   0.438   4.660
13065TIP3    H239153   7.289   0.512   4.572
13066TIP3   OH239154   6.381   0.524   4.427
13066TIP3    H139155   6.422   0.443   4.400
13066TIP3    H239156   6.425   0.548   4.508
13067TIP3   OH239157   6.086   0.277   4.848
13067TIP3    H139158   6.023   0.314   4.909
13067TIP3    H239159   6.093   0.342   4.778
13068TIP3   OH239160   4.402   7.927   5.746
13068TIP3    H139161   4.481   7.965   5.785
13068TIP3    H239162   4.387   7.847   5.797
13069TIP3   OH239163   4.280   7.678   4.912
13069TIP3    H139164   4.268   7.696   4.819
13069TIP3    H239165   4.320   7.758   4.947
13070TIP3   OH239166   3.963   7.863   5.014
13070TIP3    H139167   4.027   7.931   4.993
13070TIP3    H239168   3.970   7.851   5.108
13071TIP3   OH239169   7.071   0.161   5.817
13071TIP3    H139170   7.096   0.214   5.893
13071TIP3    H239171   7.123   0.081   5.826
13072TIP3   OH239172   4.110   7.582   5.109
13072TIP3    H139173   4.106   7.655   5.171
13072TIP3    H239174   4.170   7.612   5.041
13073TIP3   OH239175   3.625   7.588   4.902
13073TIP3    H139176   3.620   7.676   4.940
13073TIP3    H239177   3.718   7.566   4.907
13074TIP3   OH239178   7.711   0.060   5.800
13074TIP3    H139179   7.616   0.059   5.807
13074TIP3    H239180   7.729   0.017   5.716
13075TIP3   OH239181   7.361   0.258   5.190
13075TIP3    H139182   7.286   0.199   5.200
13075TIP3    H239183   7.432   0.213   5.235
13076TIP3   OH239184   6.083   0.490   4.660
13076TIP3    H139185   6.108   0.582   4.646
13076TIP3    H239186   6.137   0.442   4.597
13077TIP3   OH239187   3.179   7.776   4.792
13077TIP3    H139188   3.184   7.872   4.790
13077TIP3    H239189   3.105   7.754   4.736
13078TIP3   OH239190   3.568   7.495   5.661
13078TIP3    H139191   3.542   7.462   5.575
13078TIP3    H239192   3.561   7.419   5.719
13079TIP3   OH239193   6.233   0.635   6.312
13079TIP3    H139194   6.259   0.543   6.317
13079TIP3    H239195   6.150   0.635   6.265
13080TIP3   OH239196   6.208   0.288   4.516
13080TIP3    H139197   6.256   0.255   4.592
13080TIP3    H239198   6.275   0.296   4.447
13081TIP3   OH239199   6.855   0.709   6.120
13081TIP3    H139200   6.824   0.727   6.032
13081TIP3    H239201   6.891   0.620   6.115
13082TIP3   OH239202   6.651   0.466   4.333
13082TIP3    H139203   6.696   0.490   4.414
13082TIP3    H239204   6.685   0.378   4.312
13083TIP3   OH239205   7.329   0.739   5.694
13083TIP3    H139206   7.398   0.789   5.651
13083TIP3    H239207   7.252   0.796   5.690
13084TIP3   OH239208   6.359   0.383   6.294
13084TIP3    H139209   6.433   0.328   6.267
13084TIP3    H239210   6.385   0.416   6.381
13085TIP3   OH239211   6.407   0.200   4.725
13085TIP3    H139212   6.386   0.156   4.807
13085TIP3    H239213   6.450   0.132   4.672
13086TIP3   OH239214   6.680   0.263   5.949
13086TIP3    H139215   6.609   0.326   5.957
13086TIP3    H239216   6.736   0.299   5.880
13087TIP3   OH239217   6.523   0.001   4.570
13087TIP3    H139218   6.496   0.002   4.478
13087TIP3    H239219   6.619   0.002   4.566
13088TIP3   OH239220   7.211   0.657   6.091
13088TIP3    H139221   7.289   0.629   6.043
13088TIP3    H239222   7.205   0.597   6.165
13089TIP3   OH239223   7.337   0.337   4.230
13089TIP3    H139224   7.315   0.283   4.154
13089TIP3    H239225   7.318   0.427   4.202
13090TIP3   OH239226   6.809   0.058   6.081
13090TIP3    H139227   6.812  -0.020   6.027
13090TIP3    H239228   6.765   0.123   6.026
13091TIP3   OH239229   3.978   7.859   5.890
13091TIP3    H139230   4.009   7.899   5.809
13091TIP3    H239231   3.887   7.836   5.873
13092TIP3   OH239232   6.834   0.381   5.764
13092TIP3    H139233   6.919   0.390   5.722
13092TIP3    H239234   6.779   0.446   5.721
13093TIP3   OH239235   7.417   0.347   6.142
13093TIP3    H139236   7.462   0.266   6.167
13093TIP3    H239237   7.488   0.406   6.115
13094TIP3   OH239238   7.464   0.598   5.877
13094TIP3    H139239   7.404   0.649   5.823
13094TIP3    H239240   7.551   0.618   5.842
13095TIP3   OH239241   6.683   0.165   6.312
13095TIP3    H139242   6.618   0.098   6.333
13095TIP3    H239243   6.721   0.137   6.229
13096TIP3   OH239244   4.109   7.619   5.958
13096TIP3    H139245   4.062   7.700   5.938
13096TIP3    H239246   4.044   7.550   5.949
13097TIP3   OH239247   7.068   0.109   6.177
13097TIP3    H139248   7.064   0.092   6.271
13097TIP3    H239249   6.981   0.087   6.145
13098TIP3   OH239250   7.307   0.057   6.031
13098TIP3    H139251   7.234   0.060   6.093
13098TIP3    H239252   7.382   0.027   6.084
13099TIP3   OH239253   4.709   8.010   6.168
13099TIP3    H139254   4.724   7.918   6.191
13099TIP3    H239255   4.709   8.055   6.253
13100TIP3   OH239256   3.695   7.956   6.372
13100TIP3    H139257   3.701   7.866   6.341
13100TIP3    H239258   3.732   7.953   6.461
13101TIP3   OH239259   4.201   7.627   6.216
13101TIP3    H139260   4.265   7.557   6.220
13101TIP3    H239261   4.164   7.622   6.128
13102TIP3   OH239262   4.277   7.853   6.354
13102TIP3    H139263   4.254   7.778   6.300
13102TIP3    H239264   4.196   7.905   6.359
13103TIP3   OH239265   5.824   0.385   4.713
13103TIP3    H139266   5.894   0.436   4.674
13103TIP3    H239267   5.803   0.318   4.648
13104TIP3   OH239268   7.690   1.034   5.944
13104TIP3    H139269   7.610   1.004   5.987
13104TIP3    H239270   7.739   1.078   6.013
13105TIP3   OH239271   7.469   0.506   4.575
13105TIP3    H139272   7.535   0.565   4.538
13105TIP3    H239273   7.512   0.468   4.652
13106TIP3   OH239274   7.602   0.379   4.774
13106TIP3    H139275   7.540   0.338   4.835
13106TIP3    H239276   7.672   0.412   4.830
13107TIP3   OH239277   7.644   0.769   5.199
13107TIP3    H139278   7.706   0.712   5.154
13107TIP3    H239279   7.648   0.852   5.150
13108TIP3   OH239280   7.536   0.292   4.415
13108TIP3    H139281   7.469   0.294   4.346
13108TIP3    H239282   7.512   0.364   4.473
13109TIP3   OH239283   4.577   7.975   4.370
13109TIP3    H139284   4.532   8.014   4.296
13109TIP3    H239285   4.557   7.881   4.364
13110TIP3   OH239286   7.416   0.237   4.922
13110TIP3    H139287   7.426   0.143   4.910
13110TIP3    H239288   7.404   0.248   5.017
13111TIP3   OH239289   6.033   0.325   5.653
13111TIP3    H139290   6.049   0.283   5.569
13111TIP3    H239291   6.120   0.336   5.692
13112TIP3   OH239292   7.711   0.661   5.781
13112TIP3    H139293   7.782   0.598   5.770
13112TIP3    H239294   7.732   0.732   5.720
13113TIP3   OH239295   7.896   0.459   5.793
13113TIP3    H139296   7.819   0.415   5.831
13113TIP3    H239297   7.968   0.396   5.805
13114TIP3   OH239298   4.521   7.709   4.356
13114TIP3    H139299   4.594   7.678   4.410
13114TIP3    H239300   4.449   7.650   4.376
13115TIP3   OH239301   4.584   7.969   4.808
13115TIP3    H139302   4.621   7.882   4.825
13115TIP3    H239303   4.638   8.004   4.737
13116TIP3   OH239304   7.576   0.130   5.309
13116TIP3    H139305   7.658   0.151   5.265
13116TIP3    H239306   7.588   0.162   5.398
13117TIP3   OH239307   7.646   0.276   5.540
13117TIP3    H139308   7.569   0.307   5.587
13117TIP3    H239309   7.679   0.352   5.493
13118TIP3   OH239310   3.430   8.001   6.326
13118TIP3    H139311   3.525   8.005   6.338
13118TIP3    H239312   3.403   7.922   6.373
13119TIP3   OH239313   4.688   7.719   4.852
13119TIP3    H139314   4.738   7.705   4.932
13119TIP3    H239315   4.628   7.645   4.848
13120TIP3   OH239316   3.390   7.707   5.673
13120TIP3    H139317   3.447   7.630   5.680
13120TIP3    H239318   3.451   7.780   5.661
13121TIP3   OH239319   3.188   7.983   5.737
13121TIP3    H139320   3.237   7.975   5.655
13121TIP3    H239321   3.235   8.049   5.787
13122TIP3   OH239322   5.076   7.984   5.965
13122TIP3    H139323   5.009   8.029   5.914
13122TIP3    H239324   5.111   7.918   5.906
13123TIP3   OH239325   4.768   7.651   4.483
13123TIP3    H139326   4.806   7.582   4.429
13123TIP3    H239327   4.833   7.721   4.481
13124TIP3   OH239328   3.174   7.486   5.246
13124TIP3    H139329   3.083   7.475   5.271
13124TIP3    H239330   3.171   7.541   5.168
13125TIP3   OH239331   3.391   7.552   6.057
13125TIP3    H139332   3.356   7.574   6.144
13125TIP3    H239333   3.331   7.594   5.996
13126TIP3   OH239334   5.041   7.774   5.769
13126TIP3    H139335   4.947   7.766   5.751
13126TIP3    H239336   5.075   7.685   5.764
13127TIP3   OH239337   4.233   7.691   5.395
13127TIP3    H139338   4.193   7.622   5.449
13127TIP3    H239339   4.309   7.650   5.355
13128TIP3   OH239340   4.756   7.577   5.301
13128TIP3    H139341   4.793   7.626   5.228
13128TIP3    H239342   4.662   7.595   5.296
13129TIP3   OH239343   4.856   7.674   5.065
13129TIP3    H139344   4.926   7.620   5.029
13129TIP3    H239345   4.886   7.764   5.053
13130TIP3   OH239346   3.483   7.400   5.413
13130TIP3    H139347   3.392   7.371   5.417
13130TIP3    H239348   3.533   7.318   5.409
13131TIP3   OH239349   3.274   7.277   5.064
13131TIP3    H139350   3.304   7.329   4.990
13131TIP3    H239351   3.249   7.341   5.130
13132TIP3   OH239352   3.931   7.437   5.298
13132TIP3    H139353   3.984   7.481   5.232
13132TIP3    H239354   3.962   7.472   5.381
13133TIP3   OH239355   4.471   7.581   5.278
13133TIP3    H139356   4.476   7.543   5.191
13133TIP3    H239357   4.461   7.506   5.337
13134TIP3   OH239358   4.503   7.506   4.843
13134TIP3    H139359   4.419   7.550   4.856
13134TIP3    H239360   4.493   7.421   4.886
13135TIP3   OH239361   3.394   7.431   4.824
13135TIP3    H139362   3.438   7.368   4.767
13135TIP3    H239363   3.465   7.484   4.860
13136TIP3   OH239364   3.901   7.613   4.926
13136TIP3    H139365   3.959   7.561   4.982
13136TIP3    H239366   3.921   7.704   4.948
13137TIP3   OH239367   3.695   7.681   6.299
13137TIP3    H139368   3.653   7.619   6.359
13137TIP3    H239369   3.787   7.681   6.327
13138TIP3   OH239370   3.941   7.673   6.424
13138TIP3    H139371   4.027   7.658   6.384
13138TIP3    H239372   3.934   7.607   6.492
13139TIP3   OH239373   4.779   7.731   6.215
13139TIP3    H139374   4.769   7.722   6.310
13139TIP3    H239375   4.846   7.666   6.192
13140TIP3   OH239376   0.304   0.638   4.478
13140TIP3    H139377   0.274   0.724   4.450
13140TIP3    H239378   0.236   0.578   4.446
13141TIP3   OH239379   0.297   0.650   4.855
13141TIP3    H139380   0.329   0.619   4.940
13141TIP3    H239381   0.264   0.571   4.812
13142TIP3   OH239382   8.097   0.556   5.228
13142TIP3    H139383   8.131   0.479   5.273
13142TIP3    H239384   8.171   0.618   5.227
13143TIP3   OH239385   0.523   0.949   4.548
13143TIP3    H139386   0.518   0.876   4.609
13143TIP3    H239387   0.581   1.012   4.591
13144TIP3   OH239388   8.118   0.894   5.006
13144TIP3    H139389   8.075   0.809   5.003
13144TIP3    H239390   8.175   0.895   4.929
13145TIP3   OH239391   7.780   0.156   4.721
13145TIP3    H139392   7.742   0.241   4.741
13145TIP3    H239393   7.710   0.108   4.677
13146TIP3   OH239394   7.838   0.446   4.900
13146TIP3    H139395   7.885   0.369   4.932
13146TIP3    H239396   7.907   0.505   4.868
13147TIP3   OH239397   0.110   0.867   4.901
13147TIP3    H139398   0.154   0.789   4.866
13147TIP3    H239399   0.180   0.932   4.908
13148TIP3   OH239400   1.116   0.196   4.905
13148TIP3    H139401   1.130   0.280   4.951
13148TIP3    H239402   1.143   0.213   4.815
13149TIP3   OH239403   0.530   0.385   4.928
13149TIP3    H139404   0.578   0.305   4.947
13149TIP3    H239405   0.493   0.371   4.841
13150TIP3   OH239406   8.356   0.041   4.893
13150TIP3    H139407   8.338   0.114   4.834
13150TIP3    H239408   8.309  -0.033   4.854
13151TIP3   OH239409   0.556   0.131   4.516
13151TIP3    H139410   0.623   0.116   4.583
13151TIP3    H239411   0.605   0.166   4.442
13152TIP3   OH239412   7.988   0.240   5.003
13152TIP3    H139413   8.071   0.231   5.051
13152TIP3    H239414   8.001   0.187   4.925
13153TIP3   OH239415   8.434   0.438   4.767
13153TIP3    H139416   8.523   0.412   4.788
13153TIP3    H239417   8.390   0.357   4.740
13154TIP3   OH239418   8.347   0.021   5.330
13154TIP3    H139419   8.295   0.063   5.261
13154TIP3    H239420   8.297   0.036   5.410
13155TIP3   OH239421   0.191   0.840   4.333
13155TIP3    H139422   0.142   0.839   4.250
13155TIP3    H239423   0.213   0.932   4.346
13156TIP3   OH239424   8.409   0.789   5.080
13156TIP3    H139425   8.369   0.861   5.128
13156TIP3    H239426   8.468   0.830   5.017
13157TIP3   OH239427   0.757   0.138   4.698
13157TIP3    H139428   0.736   0.099   4.782
13157TIP3    H239429   0.807   0.216   4.719
13158TIP3   OH239430   8.230   0.149   5.113
13158TIP3    H139431   8.287   0.222   5.136
13158TIP3    H239432   8.275   0.105   5.040
13159TIP3   OH239433   8.273   1.022   5.222
13159TIP3    H139434   8.239   1.035   5.134
13159TIP3    H239435   8.195   1.008   5.276
13160TIP3   OH239436   7.675   0.651   4.465
13160TIP3    H139437   7.643   0.661   4.375
13160TIP3    H239438   7.694   0.741   4.493
13161TIP3   OH239439   0.893   0.085   5.053
13161TIP3    H139440   0.813   0.115   5.011
13161TIP3    H239441   0.964   0.123   5.000
13162TIP3   OH239442   5.869   7.754   5.049
13162TIP3    H139443   5.853   7.660   5.063
13162TIP3    H239444   5.796   7.797   5.093
13163TIP3   OH239445   0.553   0.968   4.261
13163TIP3    H139446   0.529   0.890   4.212
13163TIP3    H239447   0.566   0.937   4.351
13164TIP3   OH239448   0.139   0.500   4.305
13164TIP3    H139449   0.059   0.551   4.290
13164TIP3    H239450   0.184   0.499   4.221
13165TIP3   OH239451   0.098   0.291   4.015
13165TIP3    H139452   0.160   0.346   4.063
13165TIP3    H239453   0.153   0.229   3.968
13166TIP3   OH239454   0.486   0.580   4.281
13166TIP3    H139455   0.431   0.600   4.357
13166TIP3    H239456   0.570   0.556   4.319
13167TIP3   OH239457   8.220   0.592   4.663
13167TIP3    H139458   8.171   0.537   4.601
13167TIP3    H239459   8.293   0.537   4.692
13168TIP3   OH239460   8.403   1.010   4.763
13168TIP3    H139461   8.327   0.952   4.771
13168TIP3    H239462   8.469   0.970   4.821
13169TIP3   OH239463   8.313   0.544   4.999
13169TIP3    H139464   8.364   0.510   4.925
13169TIP3    H239465   8.360   0.623   5.026
13170TIP3   OH239466   8.365   1.050   5.499
13170TIP3    H139467   8.451   1.093   5.502
13170TIP3    H239468   8.356   1.021   5.408
13171TIP3   OH239469   0.322   0.448   4.099
13171TIP3    H139470   0.379   0.505   4.149
13171TIP3    H239471   0.349   0.460   4.008
13172TIP3   OH239472   8.239   0.653   5.468
13172TIP3    H139473   8.250   0.732   5.521
13172TIP3    H239474   8.146   0.632   5.475
13173TIP3   OH239475   6.506   7.702   4.148
13173TIP3    H139476   6.426   7.723   4.196
13173TIP3    H239477   6.524   7.781   4.097
13174TIP3   OH239478   8.079   0.423   4.483
13174TIP3    H139479   8.012   0.464   4.427
13174TIP3    H239480   8.043   0.338   4.506
13175TIP3   OH239481   7.877   0.811   5.402
13175TIP3    H139482   7.810   0.792   5.336
13175TIP3    H239483   7.911   0.725   5.427
13176TIP3   OH239484   8.066   1.006   5.407
13176TIP3    H139485   8.117   0.960   5.474
13176TIP3    H239486   7.989   0.949   5.394
13177TIP3   OH239487   5.632   7.832   5.178
13177TIP3    H139488   5.548   7.800   5.145
13177TIP3    H239489   5.610   7.911   5.227
13178TIP3   OH239490   6.164   7.945   5.375
13178TIP3    H139491   6.224   7.919   5.445
13178TIP3    H239492   6.077   7.930   5.410
13179TIP3   OH239493   0.403   0.473   3.843
13179TIP3    H139494   0.368   0.453   3.756
13179TIP3    H239495   0.462   0.547   3.828
13180TIP3   OH239496   5.776   7.878   4.148
13180TIP3    H139497   5.744   7.878   4.238
13180TIP3    H239498   5.739   7.799   4.109
13181TIP3   OH239499   8.413   0.320   5.252
13181TIP3    H139500   8.331   0.313   5.301
13181TIP3    H239501   8.455   0.398   5.288
13182TIP3   OH239502   8.280   0.217   4.703
13182TIP3    H139503   8.190   0.196   4.727
13182TIP3    H239504   8.293   0.176   4.618
13183TIP3   OH239505   0.276   0.302   4.435
13183TIP3    H139506   0.224   0.370   4.393
13183TIP3    H239507   0.331   0.268   4.364
13184TIP3   OH239508   0.435   0.332   4.670
13184TIP3    H139509   0.370   0.363   4.607
13184TIP3    H239510   0.472   0.254   4.629
13185TIP3   OH239511   8.200   0.355   5.414
13185TIP3    H139512   8.230   0.427   5.470
13185TIP3    H239513   8.191   0.281   5.474
13186TIP3   OH239514   5.433   7.857   4.113
13186TIP3    H139515   5.426   7.855   4.209
13186TIP3    H239516   5.359   7.910   4.084
13187TIP3   OH239517   4.980   7.896   4.986
13187TIP3    H139518   5.053   7.932   5.037
13187TIP3    H239519   5.020   7.871   4.903
13188TIP3   OH239520   4.943   7.881   4.500
13188TIP3    H139521   4.991   7.913   4.423
13188TIP3    H239522   4.883   7.952   4.522
13189TIP3   OH239523   0.411   0.567   5.094
13189TIP3    H139524   0.466   0.510   5.039
13189TIP3    H239525   0.387   0.511   5.168
13190TIP3   OH239526   0.115   0.043   4.770
13190TIP3    H139527   0.035   0.045   4.822
13190TIP3    H239528   0.185   0.034   4.835
13191TIP3   OH239529   8.042   0.098   4.775
13191TIP3    H139530   7.951   0.107   4.748
13191TIP3    H239531   8.065   0.008   4.753
13192TIP3   OH239532   8.310   0.093   4.464
13192TIP3    H139533   8.402   0.109   4.444
13192TIP3    H239534   8.264   0.115   4.383
13193TIP3   OH239535   0.602   0.118   4.965
13193TIP3    H139536   0.580   0.135   5.056
13193TIP3    H239537   0.533   0.061   4.933
13194TIP3   OH239538   8.159   0.128   4.239
13194TIP3    H139539   8.089   0.084   4.192
13194TIP3    H239540   8.213   0.167   4.170
13195TIP3   OH239541   8.213   0.874   5.618
13195TIP3    H139542   8.275   0.942   5.592
13195TIP3    H239543   8.175   0.906   5.700
13196TIP3   OH239544   0.205   0.363   4.882
13196TIP3    H139545   0.274   0.315   4.836
13196TIP3    H239546   0.204   0.326   4.970
13197TIP3   OH239547   5.380   7.870   4.748
13197TIP3    H139548   5.344   7.796   4.796
13197TIP3    H239549   5.423   7.831   4.672
13198TIP3   OH239550   0.170   0.262   5.148
13198TIP3    H139551   0.081   0.292   5.168
13198TIP3    H239552   0.227   0.316   5.203
13199TIP3   OH239553   8.408   0.643   4.257
13199TIP3    H139554   8.333   0.586   4.245
13199TIP3    H239555   8.388   0.692   4.337
13200TIP3   OH239556   6.030   7.981   4.120
13200TIP3    H139557   5.936   7.964   4.125
13200TIP3    H239558   6.038   8.074   4.141
13201TIP3   OH239559   0.434   0.220   4.218
13201TIP3    H139560   0.528   0.225   4.234
13201TIP3    H239561   0.414   0.299   4.168
13202TIP3   OH239562   8.071   0.627   4.905
13202TIP3    H139563   8.117   0.633   4.821
13202TIP3    H239564   8.135   0.589   4.965
13203TIP3   OH239565   8.514   0.831   4.093
13203TIP3    H139566   8.475   0.902   4.144
13203TIP3    H239567   8.482   0.751   4.136
13204TIP3   OH239568   7.980   0.591   5.544
13204TIP3    H139569   7.993   0.575   5.637
13204TIP3    H239570   7.912   0.530   5.518
13205TIP3   OH239571   0.867   0.315   4.049
13205TIP3    H139572   0.811   0.266   3.989
13205TIP3    H239573   0.866   0.404   4.015
13206TIP3   OH239574   0.536   0.767   4.773
13206TIP3    H139575   0.453   0.720   4.789
13206TIP3    H239576   0.599   0.697   4.754
13207TIP3   OH239577   7.765   0.288   4.259
13207TIP3    H139578   7.810   0.372   4.273
13207TIP3    H239579   7.689   0.292   4.316
13208TIP3   OH239580   8.342   0.776   4.488
13208TIP3    H139581   8.326   0.862   4.528
13208TIP3    H239582   8.312   0.713   4.553
13209TIP3   OH239583   0.384   0.946   4.976
13209TIP3    H139584   0.356   0.885   5.044
13209TIP3    H239585   0.438   0.894   4.918
13210TIP3   OH239586   0.365   0.789   3.835
13210TIP3    H139587   0.398   0.778   3.924
13210TIP3    H239588   0.288   0.845   3.844
13211TIP3   OH239589   8.185   0.103   5.546
13211TIP3    H139590   8.090   0.101   5.556
13211TIP3    H239591   8.218   0.051   5.620
13212TIP3   OH239592   0.492   0.764   4.081
13212TIP3    H139593   0.485   0.695   4.147
13212TIP3    H239594   0.585   0.767   4.059
13213TIP3   OH239595   8.182   0.784   3.911
13213TIP3    H139596   8.221   0.700   3.886
13213TIP3    H239597   8.215   0.800   4.000
13214TIP3   OH239598   7.879   0.532   4.330
13214TIP3    H139599   7.814   0.565   4.392
13214TIP3    H239600   7.886   0.602   4.265
13215TIP3   OH239601   0.541   0.165   5.227
13215TIP3    H139602   0.581   0.225   5.290
13215TIP3    H239603   0.517   0.088   5.280
13216TIP3   OH239604   6.079   7.932   4.398
13216TIP3    H139605   6.063   7.952   4.306
13216TIP3    H239606   6.117   8.013   4.433
13217TIP3   OH239607   0.095   0.105   4.500
13217TIP3    H139608   0.157   0.174   4.480
13217TIP3    H239609   0.100   0.095   4.595
13218TIP3   OH239610   0.339   0.408   5.310
13218TIP3    H139611   0.319   0.428   5.401
13218TIP3    H239612   0.428   0.372   5.312
13219TIP3   OH239613   5.907   7.839   4.596
13219TIP3    H139614   5.899   7.914   4.655
13219TIP3    H239615   5.967   7.869   4.528
13220TIP3   OH239616   5.421   7.845   4.389
13220TIP3    H139617   5.415   7.933   4.425
13220TIP3    H239618   5.515   7.823   4.395
13221TIP3   OH239619   0.658   0.514   4.674
13221TIP3    H139620   0.581   0.458   4.686
13221TIP3    H239621   0.727   0.471   4.723
13222TIP3   OH239622   7.877   0.746   4.147
13222TIP3    H139623   7.900   0.838   4.135
13222TIP3    H239624   7.931   0.699   4.083
13223TIP3   OH239625   7.811   0.019   4.277
13223TIP3    H139626   7.816   0.114   4.277
13223TIP3    H239627   7.732  -0.001   4.226
13224TIP3   OH239628   5.368   7.753   5.145
13224TIP3    H139629   5.338   7.721   5.060
13224TIP3    H239630   5.358   7.679   5.204
13225TIP3   OH239631   8.017   0.871   5.814
13225TIP3    H139632   8.054   0.786   5.789
13225TIP3    H239633   7.938   0.880   5.762
13226TIP3   OH239634   8.004   0.545   4.002
13226TIP3    H139635   8.051   0.513   4.079
13226TIP3    H239636   8.072   0.551   3.934
13227TIP3   OH239637   8.455   0.725   3.816
13227TIP3    H139638   8.489   0.745   3.903
13227TIP3    H239639   8.486   0.636   3.797
13228TIP3   OH239640   8.152   0.631   5.797
13228TIP3    H139641   8.226   0.581   5.763
13228TIP3    H239642   8.145   0.603   5.889
13229TIP3   OH239643   8.205   0.458   4.214
13229TIP3    H139644   8.177   0.418   4.297
13229TIP3    H239645   8.246   0.387   4.165
13230TIP3   OH239646   8.478   0.519   5.423
13230TIP3    H139647   8.404   0.578   5.434
13230TIP3    H239648   8.541   0.570   5.372
13231TIP3   OH239649   8.319   0.256   4.057
13231TIP3    H139650   8.291   0.259   3.965
13231TIP3    H239651   8.414   0.259   4.053
13232TIP3   OH239652   0.634   0.595   3.715
13232TIP3    H139653   0.613   0.541   3.640
13232TIP3    H239654   0.614   0.684   3.687
13233TIP3   OH239655   0.081   0.309   5.569
13233TIP3    H139656   0.096   0.234   5.512
13233TIP3    H239657   0.050   0.378   5.510
13234TIP3   OH239658   0.108   0.096   5.376
13234TIP3    H139659   0.139   0.137   5.295
13234TIP3    H239660   0.016   0.077   5.360
13235TIP3   OH239661   0.128   0.643   5.242
13235TIP3    H139662   0.208   0.623   5.192
13235TIP3    H239663   0.089   0.717   5.194
13236TIP3   OH239664   8.474   0.418   5.797
13236TIP3    H139665   8.402   0.357   5.816
13236TIP3    H239666   8.508   0.389   5.713
13237TIP3   OH239667   5.903   7.871   5.437
13237TIP3    H139668   5.856   7.952   5.419
13237TIP3    H239669   5.836   7.803   5.432
13238TIP3   OH239670   0.359   0.362   5.591
13238TIP3    H139671   0.399   0.386   5.674
13238TIP3    H239672   0.269   0.340   5.613
13239TIP3   OH239673   8.320   0.190   5.848
13239TIP3    H139674   8.325   0.099   5.817
13239TIP3    H239675   8.352   0.186   5.938
13240TIP3   OH239676   6.005   7.890   5.691
13240TIP3    H139677   6.062   7.813   5.699
13240TIP3    H239678   5.964   7.880   5.606
13241TIP3   OH239679   0.364   0.068   5.886
13241TIP3    H139680   0.358   0.001   5.817
13241TIP3    H239681   0.300   0.134   5.859
13242TIP3   OH239682   7.613   0.648   4.191
13242TIP3    H139683   7.690   0.694   4.157
13242TIP3    H239684   7.599   0.576   4.129
13243TIP3   OH239685   0.764   0.763   4.062
13243TIP3    H139686   0.829   0.824   4.027
13243TIP3    H239687   0.807   0.723   4.138
13244TIP3   OH239688   0.895   0.635   4.259
13244TIP3    H139689   0.835   0.595   4.322
13244TIP3    H239690   0.967   0.669   4.313
13245TIP3   OH239691   0.828   0.547   3.903
13245TIP3    H139692   0.761   0.552   3.834
13245TIP3    H239693   0.807   0.620   3.961
13246TIP3   OH239694   0.710   0.217   3.853
13246TIP3    H139695   0.659   0.258   3.783
13246TIP3    H239696   0.687   0.124   3.849
13247TIP3   OH239697   0.711   0.493   4.408
13247TIP3    H139698   0.721   0.399   4.398
13247TIP3    H239699   0.699   0.506   4.503
13248TIP3   OH239700   7.838   0.572   5.150
13248TIP3    H139701   7.833   0.537   5.061
13248TIP3    H239702   7.932   0.574   5.170
13249TIP3   OH239703   6.317   7.967   3.844
13249TIP3    H139704   6.390   7.935   3.897
13249TIP3    H239705   6.245   7.907   3.862
13250TIP3   OH239706   0.713   0.212   4.295
13250TIP3    H139707   0.750   0.125   4.312
13250TIP3    H239708   0.768   0.248   4.225
13251TIP3   OH239709   0.874   0.386   4.795
13251TIP3    H139710   0.954   0.411   4.748
13251TIP3    H239711   0.885   0.423   4.883
13252TIP3   OH239712   8.046   0.229   5.822
13252TIP3    H139713   8.140   0.247   5.827
13252TIP3    H239714   8.031   0.162   5.888
13253TIP3   OH239715   6.485   7.976   4.338
13253TIP3    H139716   6.534   7.963   4.419
13253TIP3    H239717   6.425   7.902   4.335
13254TIP3   OH239718   5.189   7.966   5.158
13254TIP3    H139719   5.248   7.890   5.164
13254TIP3    H239720   5.248   8.041   5.149
13255TIP3   OH239721   7.819   0.222   5.227
13255TIP3    H139722   7.868   0.215   5.145
13255TIP3    H239723   7.851   0.303   5.267
13256TIP3   OH239724   6.564   7.907   3.970
13256TIP3    H139725   6.602   7.838   3.916
13256TIP3    H239726   6.629   7.978   3.968
13257TIP3   OH239727   4.971   7.739   4.729
13257TIP3    H139728   4.880   7.732   4.758
13257TIP3    H239729   4.967   7.796   4.653
13258TIP3   OH239730   5.192   7.819   5.540
13258TIP3    H139731   5.145   7.814   5.623
13258TIP3    H239732   5.128   7.856   5.479
13259TIP3   OH239733   6.816   8.016   5.238
13259TIP3    H139734   6.721   8.008   5.236
13259TIP3    H239735   6.847   7.926   5.233
13260TIP3   OH239736   6.029   7.950   4.885
13260TIP3    H139737   5.989   7.880   4.937
13260TIP3    H239738   6.105   7.908   4.843
13261TIP3   OH239739   6.551   7.827   4.786
13261TIP3    H139740   6.591   7.879   4.716
13261TIP3    H239741   6.460   7.853   4.786
13262TIP3   OH239742   6.652   7.930   4.552
13262TIP3    H139743   6.723   7.878   4.514
13262TIP3    H239744   6.681   8.021   4.541
13263TIP3   OH239745   5.279   7.656   4.899
13263TIP3    H139746   5.187   7.629   4.903
13263TIP3    H239747   5.328   7.574   4.895
13264TIP3   OH239748   5.071   7.534   4.551
13264TIP3    H139749   5.100   7.587   4.477
13264TIP3    H239750   5.044   7.597   4.617
13265TIP3   OH239751   5.731   7.689   4.783
13265TIP3    H139752   5.782   7.737   4.718
13265TIP3    H239753   5.751   7.732   4.866
13266TIP3   OH239754   6.264   7.839   4.767
13266TIP3    H139755   6.268   7.807   4.678
13266TIP3    H239756   6.253   7.761   4.821
13267TIP3   OH239757   6.300   7.764   4.330
13267TIP3    H139758   6.217   7.810   4.343
13267TIP3    H239759   6.287   7.679   4.372
13268TIP3   OH239760   5.189   7.687   4.312
13268TIP3    H139761   5.234   7.625   4.254
13268TIP3    H239762   5.260   7.741   4.347
13269TIP3   OH239763   5.698   7.868   4.413
13269TIP3    H139764   5.756   7.819   4.470
13269TIP3    H239765   5.716   7.960   4.435
13270TIP3   OH239766   5.492   7.927   5.804
13270TIP3    H139767   5.452   7.854   5.851
13270TIP3    H239768   5.584   7.926   5.831
13271TIP3   OH239769   5.747   7.920   5.934
13271TIP3    H139770   5.829   7.933   5.886
13271TIP3    H239771   5.760   7.837   5.980
13272TIP3   OH239772   1.071   0.412   4.206
13272TIP3    H139773   1.034   0.498   4.230
13272TIP3    H239774   1.000   0.366   4.162
13273TIP3   OH239775   1.136   0.692   4.373
13273TIP3    H139776   1.183   0.629   4.427
13273TIP3    H239777   1.205   0.742   4.328
13274TIP3   OH239778   1.623   0.298   4.400
13274TIP3    H139779   1.623   0.371   4.338
13274TIP3    H239780   1.586   0.225   4.350
13275TIP3   OH239781   1.292   0.498   4.496
13275TIP3    H139782   1.386   0.508   4.515
13275TIP3    H239783   1.290   0.438   4.422
13276TIP3   OH239784   0.974   0.910   3.967
13276TIP3    H139785   0.952   0.933   3.877
13276TIP3    H239786   1.017   0.989   4.002
13277TIP3   OH239787   1.354   0.665   3.918
13277TIP3    H139788   1.361   0.753   3.955
13277TIP3    H239789   1.317   0.612   3.989
13278TIP3   OH239790   1.560   0.454   4.175
13278TIP3    H139791   1.477   0.427   4.216
13278TIP3    H239792   1.533   0.510   4.103
13279TIP3   OH239793   1.543   0.065   3.596
13279TIP3    H139794   1.540   0.067   3.692
13279TIP3    H239795   1.471   0.121   3.568
13280TIP3   OH239796   1.110   0.138   4.472
13280TIP3    H139797   1.183   0.174   4.523
13280TIP3    H239798   1.150   0.113   4.389
13281TIP3   OH239799   1.073   0.124   3.985
13281TIP3    H139800   1.122   0.154   3.908
13281TIP3    H239801   1.015   0.197   4.006
13282TIP3   OH239802   1.327   0.349   4.271
13282TIP3    H139803   1.237   0.358   4.240
13282TIP3    H239804   1.353   0.260   4.245
13283TIP3   OH239805   1.406   0.363   3.766
13283TIP3    H139806   1.340   0.323   3.710
13283TIP3    H239807   1.408   0.455   3.740
13284TIP3   OH239808   1.508   0.112   4.228
13284TIP3    H139809   1.471   0.040   4.280
13284TIP3    H239810   1.566   0.069   4.165
13285TIP3   OH239811   1.053   0.538   3.748
13285TIP3    H139812   1.094   0.623   3.764
13285TIP3    H239813   0.975   0.539   3.803
13286TIP3   OH239814   1.521   0.082   3.872
13286TIP3    H139815   1.502   0.174   3.893
13286TIP3    H239816   1.612   0.069   3.900
13287TIP3   OH239817   1.098   0.270   3.754
13287TIP3    H139818   1.100   0.365   3.761
13287TIP3    H239819   1.012   0.250   3.719
13288TIP3   OH239820   7.139   8.010   4.642
13288TIP3    H139821   7.137   7.978   4.552
13288TIP3    H239822   7.152   7.932   4.695
13289TIP3   OH239823   0.893   0.908   3.660
13289TIP3    H139824   0.966   0.958   3.624
13289TIP3    H239825   0.884   0.833   3.602
13290TIP3   OH239826   1.313   0.212   4.647
13290TIP3    H139827   1.364   0.131   4.648
13290TIP3    H239828   1.378   0.282   4.650
13291TIP3   OH239829   1.120   0.489   4.719
13291TIP3    H139830   1.169   0.464   4.641
13291TIP3    H239831   1.147   0.579   4.736
13292TIP3   OH239832   6.766   7.994   4.214
13292TIP3    H139833   6.675   7.990   4.244
13292TIP3    H239834   6.764   8.052   4.139
13293TIP3   OH239835   1.326   0.051   5.041
13293TIP3    H139836   1.267   0.054   5.116
13293TIP3    H239837   1.277   0.094   4.970
13294TIP3   OH239838   7.078   7.916   4.381
13294TIP3    H139839   6.987   7.889   4.388
13294TIP3    H239840   7.127   7.833   4.378
13295TIP3   OH239841   6.868   7.788   4.038
13295TIP3    H139842   6.896   7.840   3.963
13295TIP3    H239843   6.841   7.853   4.103
13296TIP3   OH239844   7.513   7.940   4.296
13296TIP3    H139845   7.583   7.988   4.252
13296TIP3    H239846   7.492   7.993   4.372
13297TIP3   OH239847   6.976   7.934   3.796
13297TIP3    H139848   7.022   7.874   3.737
13297TIP3    H239849   7.045   7.990   3.831
13298TIP3   OH239850   1.793   0.091   3.924
13298TIP3    H139851   1.825   0.014   3.878
13298TIP3    H239852   1.831   0.165   3.876
13299TIP3   OH239853   7.445   5.755   1.014
13299TIP3    H139854   7.454   5.847   0.989
13299TIP3    H239855   7.531   5.717   0.997
13300TIP3   OH239856   6.998   5.983   1.093
13300TIP3    H139857   7.044   5.901   1.073
13300TIP3    H239858   6.962   5.969   1.180
13301TIP3   OH239859   7.200   5.244   1.151
13301TIP3    H139860   7.161   5.209   1.071
13301TIP3    H239861   7.293   5.252   1.130
13302TIP3   OH239862   7.360   5.814   1.269
13302TIP3    H139863   7.354   5.724   1.301
13302TIP3    H239864   7.399   5.805   1.182
13303TIP3   OH239865   7.474   6.026   0.993
13303TIP3    H139866   7.519   6.091   0.939
13303TIP3    H239867   7.394   6.070   1.021
13304TIP3   OH239868   6.643   5.720   1.059
13304TIP3    H139869   6.655   5.639   1.109
13304TIP3    H239870   6.723   5.727   1.006
13305TIP3   OH239871   7.121   5.749   0.991
13305TIP3    H139872   7.204   5.755   1.038
13305TIP3    H239873   7.145   5.759   0.899
13306TIP3   OH239874   7.439   5.284   1.025
13306TIP3    H139875   7.423   5.224   0.952
13306TIP3    H239876   7.409   5.369   0.994
13307TIP3   OH239877   7.657   5.321   1.192
13307TIP3    H139878   7.577   5.296   1.146
13307TIP3    H239879   7.646   5.287   1.281
13308TIP3   OH239880   7.399   6.097   1.313
13308TIP3    H139881   7.399   6.002   1.303
13308TIP3    H239882   7.363   6.130   1.231
13309TIP3   OH239883   0.377   5.621   1.283
13309TIP3    H139884   0.358   5.709   1.251
13309TIP3    H239885   0.321   5.563   1.232
13310TIP3   OH239886   0.604   5.881   1.329
13310TIP3    H139887   0.533   5.847   1.382
13310TIP3    H239888   0.623   5.967   1.368
13311TIP3   OH239889   0.286   6.361   1.329
13311TIP3    H139890   0.344   6.291   1.299
13311TIP3    H239891   0.288   6.354   1.425
13312TIP3   OH239892   0.296   5.832   1.132
13312TIP3    H139893   0.254   5.811   1.049
13312TIP3    H239894   0.253   5.914   1.160
13313TIP3   OH239895   7.772   5.642   1.237
13313TIP3    H139896   7.724   5.637   1.154
13313TIP3    H239897   7.792   5.735   1.247
13314TIP3   OH239898   0.678   6.123   1.434
13314TIP3    H139899   0.604   6.134   1.493
13314TIP3    H239900   0.704   6.213   1.411
13315TIP3   OH239901   0.435   6.190   1.176
13315TIP3    H139902   0.479   6.109   1.148
13315TIP3    H239903   0.488   6.260   1.138
13316TIP3   OH239904   0.564   5.974   1.073
13316TIP3    H139905   0.517   5.909   1.021
13316TIP3    H239906   0.579   5.932   1.157
13317TIP3   OH239907   0.237   5.490   1.090
13317TIP3    H139908   0.152   5.531   1.074
13317TIP3    H239909   0.275   5.478   1.003
13318TIP3   OH239910   0.196   5.243   0.817
13318TIP3    H139911   0.262   5.297   0.860
13318TIP3    H239912   0.246   5.181   0.763
13319TIP3   OH239913   0.565   5.562   1.083
13319TIP3    H139914   0.501   5.599   1.143
13319TIP3    H239915   0.623   5.510   1.139
13320TIP3   OH239916   0.469   6.158   1.605
13320TIP3    H139917   0.532   6.216   1.648
13320TIP3    H239918   0.466   6.080   1.660
13321TIP3   OH239919   0.422   5.411   0.893
13321TIP3    H139920   0.476   5.472   0.942
13321TIP3    H239921   0.446   5.426   0.801
13322TIP3   OH239922   0.171   6.075   1.171
13322TIP3    H139923   0.244   6.130   1.198
13322TIP3    H239924   0.110   6.136   1.129
13323TIP3   OH239925   8.195   5.351   1.246
13323TIP3    H139926   8.119   5.401   1.214
13323TIP3    H239927   8.166   5.315   1.330
13324TIP3   OH239928   0.742   6.006   0.501
13324TIP3    H139929   0.747   6.100   0.484
13324TIP3    H239930   0.831   5.974   0.486
13325TIP3   OH239931   0.050   6.322   0.978
13325TIP3    H139932   0.004   6.306   0.895
13325TIP3    H239933   0.018   6.408   1.006
13326TIP3   OH239934   7.970   6.158   1.335
13326TIP3    H139935   7.979   6.107   1.415
13326TIP3    H239936   7.887   6.129   1.296
13327TIP3   OH239937   0.252   6.225   0.619
13327TIP3    H139938   0.308   6.157   0.581
13327TIP3    H239939   0.284   6.235   0.708
13328TIP3   OH239940   0.300   6.272   0.890
13328TIP3    H139941   0.212   6.284   0.925
13328TIP3    H239942   0.350   6.234   0.962
13329TIP3   OH239943   0.498   5.450   0.639
13329TIP3    H139944   0.460   5.417   0.558
13329TIP3    H239945   0.583   5.484   0.614
13330TIP3   OH239946   0.334   5.262   1.207
13330TIP3    H139947   0.298   5.344   1.174
13330TIP3    H239948   0.396   5.234   1.140
13331TIP3   OH239949   8.389   5.043   1.267
13331TIP3    H139950   8.478   5.036   1.232
13331TIP3    H239951   8.334   5.056   1.189
13332TIP3   OH239952   8.241   5.060   1.030
13332TIP3    H139953   8.176   5.041   0.963
13332TIP3    H239954   8.309   5.109   0.984
13333TIP3   OH239955   8.493   5.608   1.036
13333TIP3    H139956   8.427   5.541   1.019
13333TIP3    H239957   8.468   5.645   1.121
13334TIP3   OH239958   0.443   4.965   0.853
13334TIP3    H139959   0.382   4.910   0.901
13334TIP3    H239960   0.461   5.039   0.910
13335TIP3   OH239961   0.503   5.178   1.011
13335TIP3    H139962   0.595   5.184   1.039
13335TIP3    H239963   0.488   5.258   0.961
13336TIP3   OH239964   0.152   5.763   0.878
13336TIP3    H139965   0.107   5.847   0.877
13336TIP3    H239966   0.096   5.705   0.930
13337TIP3   OH239967   0.686   6.076   0.767
13337TIP3    H139968   0.641   6.011   0.822
13337TIP3    H239969   0.692   6.035   0.681
13338TIP3   OH239970   8.273   5.948   1.323
13338TIP3    H139971   8.329   6.019   1.293
13338TIP3    H239972   8.185   5.975   1.298
13339TIP3   OH239973   7.867   5.250   1.039
13339TIP3    H139974   7.929   5.318   1.063
13339TIP3    H239975   7.791   5.265   1.096
13340TIP3   OH239976   8.426   5.720   1.270
13340TIP3    H139977   8.380   5.800   1.295
13340TIP3    H239978   8.473   5.694   1.349
13341TIP3   OH239979   8.212   6.195   1.191
13341TIP3    H139980   8.126   6.200   1.231
13341TIP3    H239981   8.248   6.284   1.198
13342TIP3   OH239982   0.428   5.812   0.660
13342TIP3    H139983   0.479   5.788   0.737
13342TIP3    H239984   0.339   5.782   0.680
13343TIP3   OH239985   0.769   6.282   0.481
13343TIP3    H139986   0.801   6.349   0.421
13343TIP3    H239987   0.691   6.321   0.521
13344TIP3   OH239988   0.579   5.748   0.878
13344TIP3    H139989   0.568   5.685   0.949
13344TIP3    H239990   0.673   5.747   0.860
13345TIP3   OH239991   8.297   5.785   0.668
13345TIP3    H139992   8.309   5.695   0.639
13345TIP3    H239993   8.275   5.778   0.761
13346TIP3   OH239994   8.238   5.794   0.939
13346TIP3    H139995   8.309   5.762   0.995
13346TIP3    H239996   8.244   5.889   0.945
13347TIP3   OH239997   7.978   5.491   1.143
13347TIP3    H139998   7.903   5.524   1.193
13347TIP3    H239999   7.993   5.556   1.075
13348TIP3   OH240000   8.508   5.990   0.883
13348TIP3    H140001   8.422   6.011   0.921
13348TIP3    H240002   8.525   6.063   0.822
13349TIP3   OH240003   0.171   5.039   1.221
13349TIP3    H140004   0.221   5.119   1.206
13349TIP3    H240005   0.182   5.020   1.314
13350TIP3   OH240006   8.254   6.067   0.953
13350TIP3    H140007   8.226   6.132   0.888
13350TIP3    H240008   8.241   6.111   1.037
13351TIP3   OH240009   7.970   5.691   0.939
13351TIP3    H140010   8.038   5.757   0.953
13351TIP3    H240011   8.009   5.630   0.877
13352TIP3   OH240012   7.885   4.950   1.007
13352TIP3    H140013   7.893   5.043   1.030
13352TIP3    H240014   7.859   4.907   1.088
13353TIP3   OH240015   0.755   6.388   1.381
13353TIP3    H140016   0.689   6.437   1.332
13353TIP3    H240017   0.826   6.451   1.396
13354TIP3   OH240018   7.830   5.894   1.309
13354TIP3    H140019   7.803   5.937   1.389
13354TIP3    H240020   7.793   5.947   1.238
13355TIP3   OH240021   8.460   5.987   0.574
13355TIP3    H140022   8.405   5.919   0.612
13355TIP3    H240023   8.536   5.939   0.538
13356TIP3   OH240024   0.398   6.031   0.489
13356TIP3    H140025   0.432   5.962   0.546
13356TIP3    H240026   0.451   6.024   0.409
13357TIP3   OH240027   8.109   5.504   0.801
13357TIP3    H140028   8.162   5.473   0.874
13357TIP3    H240029   8.172   5.511   0.728
13358TIP3   OH240030   0.124   5.707   0.609
13358TIP3    H140031   0.122   5.720   0.704
13358TIP3    H240032   0.124   5.612   0.599
13359TIP3   OH240033   8.305   5.415   1.005
13359TIP3    H140034   8.277   5.389   1.093
13359TIP3    H240035   8.343   5.336   0.967
13360TIP3   OH240036   8.415   5.202   0.865
13360TIP3    H140037   8.386   5.209   0.774
13360TIP3    H240038   8.510   5.204   0.860
13361TIP3   OH240039   0.725   5.533   0.515
13361TIP3    H140040   0.707   5.487   0.433
13361TIP3    H240041   0.694   5.622   0.501
13362TIP3   OH240042   8.225   6.268   0.764
13362TIP3    H140043   8.319   6.258   0.747
13362TIP3    H240044   8.193   6.319   0.689
13363TIP3   OH240045   7.697   5.652   0.966
13363TIP3    H140046   7.790   5.675   0.958
13363TIP3    H240047   7.691   5.564   0.928
13364TIP3   OH240048   7.630   6.245   1.380
13364TIP3    H140049   7.550   6.210   1.341
13364TIP3    H240050   7.657   6.179   1.443
13365TIP3   OH240051   0.975   6.566   1.366
13365TIP3    H140052   0.983   6.626   1.440
13365TIP3    H240053   0.959   6.623   1.290
13366TIP3   OH240054   0.846   5.728   0.850
13366TIP3    H140055   0.903   5.795   0.812
13366TIP3    H240056   0.906   5.657   0.874
13367TIP3   OH240057   0.917   5.519   0.697
13367TIP3    H140058   0.861   5.484   0.628
13367TIP3    H240059   0.871   5.597   0.728
13368TIP3   OH240060   0.734   5.167   0.658
13368TIP3    H140061   0.777   5.233   0.604
13368TIP3    H240062   0.761   5.084   0.620
13369TIP3   OH240063   0.568   6.379   1.038
13369TIP3    H140064   0.618   6.372   0.957
13369TIP3    H240065   0.611   6.449   1.087
13370TIP3   OH240066   0.216   6.498   1.575
13370TIP3    H140067   0.128   6.487   1.538
13370TIP3    H240068   0.205   6.480   1.668
13371TIP3   OH240069   0.443   6.459   1.720
13371TIP3    H140070   0.393   6.477   1.641
13371TIP3    H240071   0.531   6.491   1.701
13372TIP3   OH240072   0.600   6.620   1.564
13372TIP3    H140073   0.615   6.715   1.558
13372TIP3    H240074   0.688   6.582   1.568
13373TIP3   OH240075   7.715   6.058   1.129
13373TIP3    H140076   7.636   6.018   1.095
13373TIP3    H240077   7.711   6.149   1.098
13374TIP3   OH240078  -0.008   6.222   0.710
13374TIP3    H140079   0.078   6.249   0.677
13374TIP3    H240080  -0.034   6.150   0.653
13375TIP3   OH240081   0.712   6.344   0.805
13375TIP3    H140082   0.707   6.249   0.799
13375TIP3    H240083   0.664   6.376   0.728
13376TIP3   OH240084   7.794   6.058   0.768
13376TIP3    H140085   7.800   6.089   0.858
13376TIP3    H240086   7.879   6.017   0.751
13377TIP3   OH240087   1.048   5.893   0.787
13377TIP3    H140088   1.045   5.898   0.692
13377TIP3    H240089   1.075   5.981   0.815
13378TIP3   OH240090   1.822   6.600   0.461
13378TIP3    H140091   1.792   6.554   0.382
13378TIP3    H240092   1.785   6.688   0.453
13379TIP3   OH240093   1.243   6.451   0.828
13379TIP3    H140094   1.312   6.396   0.864
13379TIP3    H240095   1.163   6.399   0.837
13380TIP3   OH240096   2.029   6.465   0.078
13380TIP3    H140097   2.059   6.382   0.042
13380TIP3    H240098   2.094   6.487   0.145
13381TIP3   OH240099   1.133   5.496   0.537
13381TIP3    H140100   1.170   5.584   0.543
13381TIP3    H240101   1.063   5.495   0.602
13382TIP3   OH240102   1.516   6.450   0.674
13382TIP3    H140103   1.467   6.398   0.737
13382TIP3    H240104   1.493   6.541   0.694
13383TIP3   OH240105   1.603   6.035   0.131
13383TIP3    H140106   1.605   5.943   0.103
13383TIP3    H240107   1.577   6.032   0.223
13384TIP3   OH240108   1.533   6.063   0.394
13384TIP3    H140109   1.552   6.026   0.480
13384TIP3    H240110   1.542   6.157   0.405
13385TIP3   OH240111   1.213   5.752   0.593
13385TIP3    H140112   1.219   5.780   0.685
13385TIP3    H240113   1.269   5.813   0.546
13386TIP3   OH240114   1.813   6.256   0.368
13386TIP3    H140115   1.729   6.283   0.407
13386TIP3    H240116   1.816   6.302   0.284
13387TIP3   OH240117   1.554   6.333   0.430
13387TIP3    H140118   1.516   6.399   0.372
13387TIP3    H240119   1.542   6.368   0.518
13388TIP3   OH240120   1.269   5.973   0.408
13388TIP3    H140121   1.339   6.038   0.415
13388TIP3    H240122   1.303   5.908   0.347
13389TIP3   OH240123   1.206   5.227   0.502
13389TIP3    H140124   1.185   5.315   0.532
13389TIP3    H240125   1.201   5.173   0.580
13390TIP3   OH240126   1.113   6.149   0.829
13390TIP3    H140127   1.033   6.200   0.840
13390TIP3    H240128   1.150   6.180   0.746
13391TIP3   OH240129   1.752   6.251   0.066
13391TIP3    H140130   1.697   6.177   0.092
13391TIP3    H240131   1.823   6.212   0.016
13392TIP3   OH240132   7.834   2.241   6.894
13392TIP3    H140133   7.914   2.236   6.947
13392TIP3    H240134   7.866   2.252   6.804
13393TIP3   OH240135   1.405   5.771   0.278
13393TIP3    H140136   1.446   5.733   0.356
13393TIP3    H240137   1.476   5.775   0.213
13394TIP3   OH240138   1.903   5.957   0.097
13394TIP3    H140139   1.882   5.981   0.188
13394TIP3    H240140   1.878   5.865   0.090
13395TIP3   OH240141   1.513   6.553   0.263
13395TIP3    H140142   1.605   6.533   0.244
13395TIP3    H240143   1.478   6.585   0.180
13396TIP3   OH240144   0.998   5.911   0.460
13396TIP3    H140145   1.090   5.934   0.450
13396TIP3    H240146   0.993   5.821   0.426
13397TIP3   OH240147   0.910   6.525   0.878
13397TIP3    H140148   0.846   6.465   0.838
13397TIP3    H240149   0.958   6.470   0.940
13398TIP3   OH240150   1.048   6.374   1.058
13398TIP3    H140151   1.039   6.301   1.119
13398TIP3    H240152   1.099   6.439   1.106
13399TIP3   OH240153   1.010   6.308   0.624
13399TIP3    H140154   0.931   6.266   0.592
13399TIP3    H240155   1.004   6.398   0.593
13400TIP3   OH240156   1.772   6.493   0.191
13400TIP3    H140157   1.860   6.514   0.159
13400TIP3    H240158   1.744   6.419   0.138
13401TIP3   OH240159   1.093   6.322   0.256
13401TIP3    H140160   1.086   6.333   0.351
13401TIP3    H240161   1.176   6.276   0.244
13402TIP3   OH240162   5.287   7.285   1.070
13402TIP3    H140163   5.269   7.375   1.099
13402TIP3    H240164   5.379   7.272   1.089
13403TIP3   OH240165   5.329   7.608   1.139
13403TIP3    H140166   5.365   7.687   1.100
13403TIP3    H240167   5.237   7.609   1.112
13404TIP3   OH240168   6.755   7.169   1.427
13404TIP3    H140169   6.727   7.259   1.412
13404TIP3    H240170   6.695   7.116   1.376
13405TIP3   OH240171   6.972   7.505   1.448
13405TIP3    H140172   6.973   7.417   1.484
13405TIP3    H240173   7.002   7.561   1.519
13406TIP3   OH240174   6.620   7.926   1.491
13406TIP3    H140175   6.668   7.864   1.436
13406TIP3    H240176   6.634   7.893   1.580
13407TIP3   OH240177   6.631   7.384   1.293
13407TIP3    H140178   6.599   7.365   1.205
13407TIP3    H240179   6.601   7.473   1.311
13408TIP3   OH240180   6.770   7.771   1.325
13408TIP3    H140181   6.805   7.684   1.309
13408TIP3    H240182   6.830   7.830   1.280
13409TIP3   OH240183   6.883   7.552   1.200
13409TIP3    H140184   6.858   7.467   1.165
13409TIP3    H240185   6.923   7.533   1.284
13410TIP3   OH240186   6.590   7.031   1.263
13410TIP3    H140187   6.506   7.073   1.244
13410TIP3    H240188   6.626   7.011   1.176
13411TIP3   OH240189   6.540   6.801   0.964
13411TIP3    H140190   6.603   6.857   1.010
13411TIP3    H240191   6.595   6.738   0.916
13412TIP3   OH240192   6.915   7.108   1.207
13412TIP3    H140193   6.868   7.114   1.290
13412TIP3    H240194   7.000   7.069   1.231
13413TIP3   OH240195   6.758   6.956   1.045
13413TIP3    H140196   6.812   7.016   1.097
13413TIP3    H240197   6.784   6.973   0.954
13414TIP3   OH240198   6.525   7.641   1.320
13414TIP3    H140199   6.591   7.710   1.313
13414TIP3    H240200   6.446   7.679   1.282
13415TIP3   OH240201   7.280   6.194   1.085
13415TIP3    H140202   7.194   6.207   1.124
13415TIP3    H240203   7.297   6.275   1.038
13416TIP3   OH240204   7.082   7.563   0.647
13416TIP3    H140205   7.088   7.658   0.634
13416TIP3    H240206   7.172   7.531   0.636
13417TIP3   OH240207   6.394   7.883   1.126
13417TIP3    H140208   6.343   7.861   1.049
13417TIP3    H240209   6.361   7.968   1.154
13418TIP3   OH240210   6.592   7.783   0.767
13418TIP3    H140211   6.648   7.714   0.731
13418TIP3    H240212   6.624   7.794   0.856
13419TIP3   OH240213   6.642   7.829   1.035
13419TIP3    H140214   6.556   7.842   1.074
13419TIP3    H240215   6.691   7.781   1.102
13420TIP3   OH240216   6.843   6.999   0.793
13420TIP3    H140217   6.806   6.976   0.708
13420TIP3    H240218   6.925   7.043   0.772
13421TIP3   OH240219   6.558   6.377   1.100
13421TIP3    H140220   6.505   6.399   1.177
13421TIP3    H240221   6.516   6.298   1.065
13422TIP3   OH240222   6.806   6.852   1.358
13422TIP3    H140223   6.716   6.884   1.347
13422TIP3    H240224   6.815   6.782   1.294
13423TIP3   OH240225   6.243   6.390   1.066
13423TIP3    H140226   6.219   6.330   1.137
13423TIP3    H240227   6.159   6.422   1.033
13424TIP3   OH240228   6.076   6.624   1.167
13424TIP3    H140229   6.022   6.623   1.088
13424TIP3    H240230   6.162   6.655   1.138
13425TIP3   OH240231   6.349   7.164   1.201
13425TIP3    H140232   6.281   7.111   1.159
13425TIP3    H240233   6.308   7.194   1.282
13426TIP3   OH240234   6.807   6.472   1.054
13426TIP3    H140235   6.714   6.456   1.070
13426TIP3    H240236   6.820   6.564   1.076
13427TIP3   OH240237   6.889   6.718   1.135
13427TIP3    H140238   6.982   6.722   1.157
13427TIP3    H240239   6.870   6.804   1.098
13428TIP3   OH240240   6.494   7.320   1.027
13428TIP3    H140241   6.448   7.404   1.027
13428TIP3    H240242   6.442   7.264   1.084
13429TIP3   OH240243   7.309   6.813   0.998
13429TIP3    H140244   7.249   6.776   0.933
13429TIP3    H240245   7.318   6.905   0.973
13430TIP3   OH240246   7.024   7.636   0.916
13430TIP3    H140247   6.985   7.575   0.977
13430TIP3    H240248   7.029   7.588   0.833
13431TIP3   OH240249   6.036   7.753   1.305
13431TIP3    H140250   5.991   7.744   1.389
13431TIP3    H240251   6.080   7.839   1.311
13432TIP3   OH240252   6.772   7.369   0.813
13432TIP3    H140253   6.828   7.347   0.888
13432TIP3    H240254   6.685   7.338   0.839
13433TIP3   OH240255   7.110   7.840   0.633
13433TIP3    H140256   7.148   7.910   0.579
13433TIP3    H240257   7.031   7.879   0.670
13434TIP3   OH240258   6.937   7.308   1.025
13434TIP3    H140259   6.919   7.240   1.090
13434TIP3    H240260   7.032   7.302   1.010
13435TIP3   OH240261   6.140   7.341   0.816
13435TIP3    H140262   6.151   7.251   0.787
13435TIP3    H240263   6.119   7.333   0.909
13436TIP3   OH240264   6.084   7.350   1.086
13436TIP3    H140265   6.130   7.332   1.168
13436TIP3    H240266   6.083   7.446   1.080
13437TIP3   OH240267   6.893   6.454   1.321
13437TIP3    H140268   6.863   6.457   1.230
13437TIP3    H240269   6.826   6.503   1.369
13438TIP3   OH240270   6.354   7.552   1.034
13438TIP3    H140271   6.264   7.563   1.065
13438TIP3    H240272   6.367   7.624   0.972
13439TIP3   OH240273   6.092   7.619   1.079
13439TIP3    H140274   6.065   7.686   1.016
13439TIP3    H240275   6.069   7.656   1.165
13440TIP3   OH240276   5.815   7.265   1.093
13440TIP3    H140277   5.889   7.325   1.103
13440TIP3    H240278   5.849   7.193   1.041
13441TIP3   OH240279   1.401   0.004   1.594
13441TIP3    H140280   1.364   0.044   1.516
13441TIP3    H240281   1.495  -0.003   1.575
13442TIP3   OH240282   6.300   7.543   0.724
13442TIP3    H140283   6.243   7.476   0.762
13442TIP3    H240284   6.377   7.495   0.693
13443TIP3   OH240285   6.738   7.586   0.640
13443TIP3    H140286   6.773   7.520   0.699
13443TIP3    H240287   6.795   7.581   0.563
13444TIP3   OH240288   5.953   7.068   0.948
13444TIP3    H140289   6.011   7.043   1.019
13444TIP3    H240290   6.011   7.077   0.872
13445TIP3   OH240291   6.465   7.264   0.758
13445TIP3    H140292   6.464   7.278   0.852
13445TIP3    H240293   6.462   7.169   0.748
13446TIP3   OH240294   6.160   6.987   1.108
13446TIP3    H140295   6.130   6.966   1.196
13446TIP3    H240296   6.196   6.904   1.075
13447TIP3   OH240297   6.266   6.747   1.003
13447TIP3    H140298   6.239   6.758   0.912
13447TIP3    H240299   6.362   6.751   1.001
13448TIP3   OH240300   7.073   7.094   0.674
13448TIP3    H140301   7.056   7.047   0.592
13448TIP3    H240302   7.042   7.183   0.658
13449TIP3   OH240303   6.067   7.833   0.909
13449TIP3    H140304   6.161   7.822   0.894
13449TIP3    H240305   6.037   7.884   0.834
13450TIP3   OH240306   5.548   7.213   1.110
13450TIP3    H140307   5.642   7.228   1.105
13450TIP3    H240308   5.538   7.121   1.087
13451TIP3   OH240309   1.674   0.053   1.552
13451TIP3    H140310   1.683   0.123   1.616
13451TIP3    H240311   1.719   0.086   1.474
13452TIP3   OH240312   7.214   7.284   1.003
13452TIP3    H140313   7.276   7.348   0.968
13452TIP3    H240314   7.258   7.247   1.079
13453TIP3   OH240315   7.349   7.158   1.200
13453TIP3    H140316   7.280   7.107   1.242
13453TIP3    H240317   7.407   7.183   1.271
13454TIP3   OH240318   7.419   7.563   1.645
13454TIP3    H140319   7.476   7.491   1.619
13454TIP3    H240320   7.395   7.605   1.562
13455TIP3   OH240321   7.276   7.058   0.855
13455TIP3    H140322   7.207   7.056   0.788
13455TIP3    H240323   7.251   7.131   0.913
13456TIP3   OH240324   7.147   6.726   0.801
13456TIP3    H140325   7.100   6.765   0.728
13456TIP3    H240326   7.126   6.633   0.797
13457TIP3   OH240327   7.147   6.987   1.285
13457TIP3    H140328   7.148   6.896   1.257
13457TIP3    H240329   7.162   6.985   1.379
13458TIP3   OH240330   7.092   6.460   0.789
13458TIP3    H140331   7.162   6.431   0.847
13458TIP3    H240332   7.017   6.405   0.811
13459TIP3   OH240333   7.160   6.720   1.214
13459TIP3    H140334   7.192   6.639   1.255
13459TIP3    H240335   7.225   6.740   1.147
13460TIP3   OH240336   7.261   6.454   1.277
13460TIP3    H140337   7.278   6.420   1.364
13460TIP3    H240338   7.187   6.401   1.245
13461TIP3   OH240339   7.337   6.405   0.919
13461TIP3    H140340   7.378   6.338   0.864
13461TIP3    H240341   7.400   6.477   0.920
13462TIP3   OH240342   6.915   7.944   1.183
13462TIP3    H140343   6.961   7.931   1.100
13462TIP3    H240344   6.964   8.013   1.227
13463TIP3   OH240345   7.061   6.254   1.239
13463TIP3    H140346   6.991   6.318   1.254
13463TIP3    H240347   7.027   6.172   1.274
13464TIP3   OH240348   5.596   7.633   1.262
13464TIP3    H140349   5.522   7.624   1.203
13464TIP3    H240350   5.570   7.703   1.323
13465TIP3   OH240351   6.333   7.780   0.859
13465TIP3    H140352   6.419   7.805   0.827
13465TIP3    H240353   6.307   7.707   0.803
13466TIP3   OH240354   7.055   7.903   0.952
13466TIP3    H140355   7.049   7.808   0.947
13466TIP3    H240356   7.006   7.934   0.876
13467TIP3   OH240357   5.639   7.621   0.925
13467TIP3    H140358   5.642   7.638   1.019
13467TIP3    H240359   5.722   7.579   0.905
13468TIP3   OH240360   0.042   7.423   0.905
13468TIP3    H140361   0.013   7.512   0.884
13468TIP3    H240362  -0.030   7.367   0.874
13469TIP3   OH240363   0.035   7.421   1.300
13469TIP3    H140364   0.075   7.397   1.383
13469TIP3    H240365  -0.002   7.339   1.267
13470TIP3   OH240366   7.868   7.366   1.645
13470TIP3    H140367   7.870   7.292   1.706
13470TIP3    H240368   7.945   7.353   1.589
13471TIP3   OH240369   0.288   7.723   0.976
13471TIP3    H140370   0.271   7.653   1.039
13471TIP3    H240371   0.319   7.796   1.029
13472TIP3   OH240372   7.820   7.715   1.379
13472TIP3    H140373   7.751   7.676   1.434
13472TIP3    H240374   7.854   7.641   1.328
13473TIP3   OH240375   7.533   6.948   1.144
13473TIP3    H140376   7.471   7.021   1.151
13473TIP3    H240377   7.482   6.872   1.172
13474TIP3   OH240378   7.582   7.211   1.339
13474TIP3    H140379   7.625   7.136   1.380
13474TIP3    H240380   7.629   7.222   1.256
13475TIP3   OH240381   2.771   0.166   0.992
13475TIP3    H140382   2.809   0.100   0.934
13475TIP3    H240383   2.772   0.126   1.079
13476TIP3   OH240384   8.348   7.645   1.342
13476TIP3    H140385   8.379   7.564   1.301
13476TIP3    H240386   8.427   7.693   1.364
13477TIP3   OH240387   0.851   6.991   1.321
13477TIP3    H140388   0.881   7.067   1.372
13477TIP3    H240389   0.851   7.022   1.230
13478TIP3   OH240390   0.256   7.144   1.366
13478TIP3    H140391   0.298   7.061   1.387
13478TIP3    H240392   0.222   7.132   1.277
13479TIP3   OH240393   8.097   6.797   1.333
13479TIP3    H140394   8.076   6.878   1.288
13479TIP3    H240395   8.048   6.730   1.285
13480TIP3   OH240396   0.293   6.897   0.956
13480TIP3    H140397   0.360   6.880   1.022
13480TIP3    H240398   0.342   6.933   0.881
13481TIP3   OH240399   7.732   7.014   1.439
13481TIP3    H140400   7.782   6.974   1.511
13481TIP3    H240401   7.748   6.956   1.364
13482TIP3   OH240402   8.159   7.208   1.246
13482TIP3    H140403   8.253   7.190   1.251
13482TIP3    H240404   8.121   7.125   1.218
13483TIP3   OH240405   0.913   7.185   1.506
13483TIP3    H140406   0.832   7.233   1.485
13483TIP3    H240407   0.897   7.150   1.593
13484TIP3   OH240408   8.426   7.642   0.778
13484TIP3    H140409   8.391   7.626   0.691
13484TIP3    H240410   8.383   7.722   0.807
13485TIP3   OH240411   8.206   7.583   1.569
13485TIP3    H140412   8.137   7.646   1.591
13485TIP3    H240413   8.252   7.623   1.495
13486TIP3   OH240414   0.495   6.901   1.138
13486TIP3    H140415   0.459   6.867   1.220
13486TIP3    H240416   0.542   6.980   1.163
13487TIP3   OH240417   7.950   6.894   1.560
13487TIP3    H140418   8.014   6.965   1.557
13487TIP3    H240419   7.976   6.835   1.490
13488TIP3   OH240420   7.989   7.754   1.643
13488TIP3    H140421   7.999   7.845   1.671
13488TIP3    H240422   7.944   7.712   1.716
13489TIP3   OH240423   7.413   7.454   0.894
13489TIP3    H140424   7.373   7.478   0.811
13489TIP3    H240425   7.445   7.536   0.931
13490TIP3   OH240426   0.351   7.969   1.139
13490TIP3    H140427   0.263   7.959   1.175
13490TIP3    H240428   0.348   8.053   1.092
13491TIP3   OH240429   0.651   6.896   1.502
13491TIP3    H140430   0.560   6.901   1.473
13491TIP3    H240431   0.701   6.924   1.426
13492TIP3   OH240432   8.446   6.501   1.465
13492TIP3    H140433   8.451   6.408   1.489
13492TIP3    H240434   8.421   6.545   1.547
13493TIP3   OH240435   0.054   8.010   0.805
13493TIP3    H140436   0.100   7.927   0.791
13493TIP3    H240437   0.114   8.076   0.770
13494TIP3   OH240438   0.198   7.794   0.726
13494TIP3    H140439   0.168   7.716   0.680
13494TIP3    H240440   0.235   7.761   0.808
13495TIP3   OH240441   0.571   7.876   1.479
13495TIP3    H140442   0.566   7.798   1.424
13495TIP3    H240443   0.559   7.949   1.419
13496TIP3   OH240444   8.374   7.274   0.741
13496TIP3    H140445   8.295   7.325   0.722
13496TIP3    H240446   8.419   7.267   0.657
13497TIP3   OH240447   8.334   7.058   0.454
13497TIP3    H140448   8.397   7.112   0.501
13497TIP3    H240449   8.388   6.995   0.405
13498TIP3   OH240450   0.778   7.523   1.325
13498TIP3    H140451   0.695   7.569   1.336
13498TIP3    H240452   0.805   7.544   1.236
13499TIP3   OH240453   0.223   7.356   0.712
13499TIP3    H140454   0.167   7.379   0.786
13499TIP3    H240455   0.306   7.331   0.752
13500TIP3   OH240456   0.452   7.386   1.628
13500TIP3    H140457   0.457   7.462   1.685
13500TIP3    H240458   0.366   7.393   1.586
13501TIP3   OH240459   7.959   7.347   1.118
13501TIP3    H140460   7.915   7.290   1.056
13501TIP3    H240461   8.029   7.294   1.154
13502TIP3   OH240462   8.099   7.763   1.312
13502TIP3    H140463   8.070   7.748   1.222
13502TIP3    H240464   8.186   7.723   1.316
13503TIP3   OH240465   8.087   7.346   1.483
13503TIP3    H140466   8.111   7.310   1.397
13503TIP3    H240467   8.140   7.425   1.491
13504TIP3   OH240468   0.109   7.964   1.260
13504TIP3    H140469   0.100   8.040   1.316
13504TIP3    H240470   0.099   7.889   1.318
13505TIP3   OH240471   8.202   7.928   1.762
13505TIP3    H140472   8.204   7.973   1.847
13505TIP3    H240473   8.189   7.836   1.784
13506TIP3   OH240474   0.061   7.215   0.536
13506TIP3    H140475   0.118   7.273   0.587
13506TIP3    H240476   0.085   7.232   0.445
13507TIP3   OH240477   8.303   7.895   0.821
13507TIP3    H140478   8.387   7.941   0.823
13507TIP3    H240479   8.246   7.951   0.767
13508TIP3   OH240480   0.576   6.452   0.589
13508TIP3    H140481   0.495   6.471   0.637
13508TIP3    H240482   0.594   6.532   0.540
13509TIP3   OH240483   7.818   7.195   0.932
13509TIP3    H140484   7.750   7.235   0.878
13509TIP3    H240485   7.784   7.108   0.952
13510TIP3   OH240486   0.379   7.820   0.137
13510TIP3    H140487   0.384   7.914   0.120
13510TIP3    H240488   0.468   7.788   0.125
13511TIP3   OH240489   7.448   7.790   1.451
13511TIP3    H140490   7.537   7.773   1.482
13511TIP3    H240491   7.414   7.857   1.511
13512TIP3   OH240492   3.656   0.211   1.536
13512TIP3    H140493   3.659   0.116   1.546
13512TIP3    H240494   3.571   0.236   1.571
13513TIP3   OH240495   2.769  -0.004   1.657
13513TIP3    H140496   2.773   0.086   1.691
13513TIP3    H240497   2.682  -0.036   1.682
13514TIP3   OH240498   2.522   0.121   0.617
13514TIP3    H140499   2.477   0.103   0.535
13514TIP3    H240500   2.489   0.207   0.644
13515TIP3   OH240501   7.621   7.984   0.997
13515TIP3    H140502   7.664   7.979   1.083
13515TIP3    H240503   7.572   7.903   0.990
13516TIP3   OH240504   2.722   0.024   0.255
13516TIP3    H140505   2.778  -0.044   0.218
13516TIP3    H240506   2.755   0.036   0.344
13517TIP3   OH240507   2.772   0.074   0.525
13517TIP3    H140508   2.685   0.083   0.564
13517TIP3    H240509   2.825   0.037   0.595
13518TIP3   OH240510   0.721   7.357   1.770
13518TIP3    H140511   0.627   7.375   1.759
13518TIP3    H240512   0.726   7.261   1.776
13519TIP3   OH240513   0.482   7.142   1.758
13519TIP3    H140514   0.443   7.160   1.843
13519TIP3    H240515   0.454   7.215   1.703
13520TIP3   OH240516   0.141   7.257   0.282
13520TIP3    H140517   0.100   7.234   0.199
13520TIP3    H240518   0.223   7.300   0.258
13521TIP3   OH240519   8.348   6.628   0.588
13521TIP3    H140520   8.314   6.628   0.678
13521TIP3    H240521   8.309   6.550   0.548
13522TIP3   OH240522   8.135   7.089   1.557
13522TIP3    H140523   8.167   7.080   1.647
13522TIP3    H240524   8.121   7.182   1.546
13523TIP3   OH240525   8.021   6.986   1.149
13523TIP3    H140526   7.932   6.960   1.173
13523TIP3    H240527   8.035   6.946   1.063
13524TIP3   OH240528   0.011   7.073   0.875
13524TIP3    H140529  -0.040   7.143   0.834
13524TIP3    H240530   0.065   7.038   0.804
13525TIP3   OH240531   0.172   7.099   1.106
13525TIP3    H140532   0.104   7.128   1.046
13525TIP3    H240533   0.207   7.019   1.066
13526TIP3   OH240534   8.005   6.609   0.552
13526TIP3    H140535   7.996   6.607   0.648
13526TIP3    H240536   7.930   6.661   0.523
13527TIP3   OH240537   7.512   6.703   1.302
13527TIP3    H140538   7.557   6.714   1.386
13527TIP3    H240539   7.553   6.625   1.263
13528TIP3   OH240540   7.517   6.634   0.940
13528TIP3    H140541   7.562   6.670   0.864
13528TIP3    H240542   7.458   6.704   0.968
13529TIP3   OH240543   0.177   7.344   1.530
13529TIP3    H140544   0.210   7.274   1.473
13529TIP3    H240545   0.156   7.300   1.612
13530TIP3   OH240546   8.351   6.807   1.205
13530TIP3    H140547   8.268   6.803   1.253
13530TIP3    H240548   8.418   6.806   1.274
13531TIP3   OH240549   7.785   6.867   1.213
13531TIP3    H140550   7.696   6.881   1.182
13531TIP3    H240551   7.803   6.775   1.194
13532TIP3   OH240552   8.047   6.860   0.905
13532TIP3    H140553   8.139   6.876   0.883
13532TIP3    H240554   7.999   6.881   0.825
13533TIP3   OH240555   0.345   6.882   1.394
13533TIP3    H140556   0.334   6.890   1.488
13533TIP3    H240557   0.276   6.822   1.366
13534TIP3   OH240558   7.897   6.896   0.679
13534TIP3    H140559   7.825   6.851   0.636
13534TIP3    H240560   7.949   6.933   0.608
13535TIP3   OH240561   3.357   0.554   1.614
13535TIP3    H140562   3.359   0.575   1.520
13535TIP3    H240563   3.388   0.634   1.657
13536TIP3   OH240564   8.427   7.154   1.291
13536TIP3    H140565   8.498   7.098   1.260
13536TIP3    H240566   8.422   7.135   1.385
13537TIP3   OH240567   7.953   6.627   1.176
13537TIP3    H140568   7.909   6.555   1.223
13537TIP3    H240569   7.997   6.584   1.102
13538TIP3   OH240570   8.423   7.080   1.552
13538TIP3    H140571   8.333   7.050   1.565
13538TIP3    H240572   8.475   7.027   1.612
13539TIP3   OH240573   8.140   7.425   0.692
13539TIP3    H140574   8.072   7.358   0.678
13539TIP3    H240575   8.121   7.460   0.779
13540TIP3   OH240576   0.541   7.659   1.314
13540TIP3    H140577   0.565   7.711   1.237
13540TIP3    H240578   0.459   7.616   1.289
13541TIP3   OH240579   0.099   6.732   0.560
13541TIP3    H140580   0.006   6.713   0.565
13541TIP3    H240581   0.105   6.826   0.581
13542TIP3   OH240582   0.033   7.740   1.675
13542TIP3    H140583   0.060   7.702   1.759
13542TIP3    H240584   0.009   7.830   1.697
13543TIP3   OH240585   0.169   6.987   0.658
13543TIP3    H140586   0.264   6.992   0.673
13543TIP3    H240587   0.148   7.065   0.607
13544TIP3   OH240588   7.845   7.460   1.337
13544TIP3    H140589   7.879   7.412   1.261
13544TIP3    H240590   7.849   7.396   1.409
13545TIP3   OH240591   8.287   7.575   0.516
13545TIP3    H140592   8.242   7.659   0.517
13545TIP3    H240593   8.235   7.519   0.574
13546TIP3   OH240594   3.035  -0.010   1.584
13546TIP3    H140595   2.940  -0.023   1.592
13546TIP3    H240596   3.055   0.057   1.649
13547TIP3   OH240597   0.612   7.078   0.487
13547TIP3    H140598   0.552   7.031   0.429
13547TIP3    H240599   0.612   7.168   0.454
13548TIP3   OH240600   0.818   7.944   1.564
13548TIP3    H140601   0.724   7.928   1.552
13548TIP3    H240602   0.859   7.909   1.486
13549TIP3   OH240603   0.316   7.893   0.401
13549TIP3    H140604   0.285   7.823   0.460
13549TIP3    H240605   0.327   7.850   0.317
13550TIP3   OH240606   0.305   7.522   1.232
13550TIP3    H140607   0.213   7.499   1.247
13550TIP3    H240608   0.342   7.445   1.190
13551TIP3   OH240609   7.935   7.763   1.013
13551TIP3    H140610   7.938   7.837   0.952
13551TIP3    H240611   7.850   7.722   0.998
13552TIP3   OH240612   7.502   7.055   0.700
13552TIP3    H140613   7.547   7.137   0.719
13552TIP3    H240614   7.426   7.055   0.758
13553TIP3   OH240615   8.066   7.522   0.933
13553TIP3    H140616   8.041   7.609   0.963
13553TIP3    H240617   8.036   7.463   1.002
13554TIP3   OH240618   2.555   0.085   1.445
13554TIP3    H140619   2.590   0.160   1.396
13554TIP3    H240620   2.631   0.049   1.491
13555TIP3   OH240621   2.191  -0.023   0.847
13555TIP3    H140622   2.104  -0.015   0.887
13555TIP3    H240623   2.224   0.067   0.845
13556TIP3   OH240624   0.096   7.730   1.414
13556TIP3    H140625   0.082   7.726   1.508
13556TIP3    H240626   0.169   7.670   1.398
13557TIP3   OH240627   0.071   7.624   0.305
13557TIP3    H140628   0.124   7.600   0.381
13557TIP3    H240629  -0.017   7.593   0.326
13558TIP3   OH240630   3.164   0.248   1.466
13558TIP3    H140631   3.086   0.195   1.446
13558TIP3    H240632   3.165   0.315   1.398
13559TIP3   OH240633   3.240   0.083   0.120
13559TIP3    H140634   3.279   0.151   0.065
13559TIP3    H240635   3.161   0.123   0.156
13560TIP3   OH240636   0.234   7.557   0.521
13560TIP3    H140637   0.219   7.491   0.588
13560TIP3    H240638   0.328   7.553   0.504
13561TIP3   OH240639   7.665   7.951   1.614
13561TIP3    H140640   7.658   7.870   1.665
13561TIP3    H240641   7.627   8.018   1.671
13562TIP3   OH240642   7.933   7.600   0.303
13562TIP3    H140643   7.946   7.510   0.273
13562TIP3    H240644   7.911   7.591   0.396
13563TIP3   OH240645   7.879   7.608   0.575
13563TIP3    H140646   7.955   7.578   0.624
13563TIP3    H240647   7.882   7.704   0.581
13564TIP3   OH240648   7.611   7.301   0.778
13564TIP3    H140649   7.546   7.342   0.834
13564TIP3    H240650   7.626   7.366   0.708
13565TIP3   OH240651   0.299   6.918   1.655
13565TIP3    H140652   0.355   6.960   1.721
13565TIP3    H240653   0.213   6.912   1.696
13566TIP3   OH240654   0.150   6.684   0.838
13566TIP3    H140655   0.132   6.703   0.746
13566TIP3    H240656   0.186   6.765   0.873
13567TIP3   OH240657   8.146   7.806   0.524
13567TIP3    H140658   8.061   7.828   0.560
13567TIP3    H240659   8.163   7.874   0.458
13568TIP3   OH240660   8.335   6.870   0.938
13568TIP3    H140661   8.396   6.941   0.920
13568TIP3    H240662   8.337   6.859   1.033
13569TIP3   OH240663   0.136   7.220   1.768
13569TIP3    H140664   0.149   7.269   1.849
13569TIP3    H240665   0.139   7.128   1.794
13570TIP3   OH240666   8.474   6.591   1.036
13570TIP3    H140667   8.463   6.667   1.094
13570TIP3    H240668   8.537   6.622   0.970
13571TIP3   OH240669   7.892   7.882   0.592
13571TIP3    H140670   7.863   7.948   0.529
13571TIP3    H240671   7.877   7.922   0.677
13572TIP3   OH240672   7.992   6.596   0.829
13572TIP3    H140673   7.983   6.684   0.866
13572TIP3    H240674   8.085   6.576   0.834
13573TIP3   OH240675   0.736   7.068   1.702
13573TIP3    H140676   0.647   7.090   1.729
13573TIP3    H240677   0.725   7.001   1.634
13574TIP3   OH240678   0.393   7.280   1.114
13574TIP3    H140679   0.317   7.223   1.121
13574TIP3    H240680   0.463   7.234   1.160
13575TIP3   OH240681   7.611   7.504   0.579
13575TIP3    H140682   7.678   7.571   0.590
13575TIP3    H240683   7.648   7.444   0.514
13576TIP3   OH240684   7.549   6.785   0.714
13576TIP3    H140685   7.553   6.880   0.715
13576TIP3    H240686   7.466   6.765   0.672
13577TIP3   OH240687   3.198   0.225   1.057
13577TIP3    H140688   3.153   0.269   0.986
13577TIP3    H240689   3.291   0.240   1.040
13578TIP3   OH240690   7.477   7.730   0.966
13578TIP3    H140691   7.412   7.752   1.032
13578TIP3    H240692   7.443   7.767   0.885
13579TIP3   OH240693   8.098   7.801   0.213
13579TIP3    H140694   8.042   7.732   0.249
13579TIP3    H240695   8.173   7.755   0.176
13580TIP3   OH240696   3.109   0.105   1.835
13580TIP3    H140697   3.155   0.021   1.826
13580TIP3    H240698   3.177   0.171   1.819
13581TIP3   OH240699   0.033   7.842   0.126
13581TIP3    H140700   0.074   7.779   0.185
13581TIP3    H240701   0.088   7.839   0.047
13582TIP3   OH240702   7.746   7.319   0.435
13582TIP3    H140703   7.798   7.288   0.510
13582TIP3    H240704   7.809   7.325   0.363
13583TIP3   OH240705   8.260   7.520   0.246
13583TIP3    H140706   8.260   7.533   0.341
13583TIP3    H240707   8.260   7.425   0.236
13584TIP3   OH240708   0.365   7.779   1.633
13584TIP3    H140709   0.444   7.805   1.586
13584TIP3    H240710   0.298   7.840   1.602
13585TIP3   OH240711   7.952   7.225   0.657
13585TIP3    H140712   7.921   7.186   0.739
13585TIP3    H240713   7.988   7.152   0.607
13586TIP3   OH240714   8.054   7.023   0.493
13586TIP3    H140715   8.027   7.030   0.401
13586TIP3    H240716   8.150   7.023   0.490
13587TIP3   OH240717   0.371   7.350   0.161
13587TIP3    H140718   0.354   7.303   0.079
13587TIP3    H240719   0.339   7.439   0.145
13588TIP3   OH240720   8.371   7.413   1.722
13588TIP3    H140721   8.449   7.375   1.682
13588TIP3    H240722   8.338   7.475   1.656
13589TIP3   OH240723   0.498   7.600   1.795
13589TIP3    H140724   0.438   7.661   1.752
13589TIP3    H240725   0.585   7.632   1.770
13590TIP3   OH240726   2.196   0.070   0.403
13590TIP3    H140727   2.290   0.059   0.386
13590TIP3    H240728   2.164   0.119   0.327
13591TIP3   OH240729   7.341   7.464   0.616
13591TIP3    H140730   7.433   7.485   0.602
13591TIP3    H240731   7.331   7.377   0.577
13592TIP3   OH240732   1.590   0.060   1.033
13592TIP3    H140733   1.525   0.003   0.992
13592TIP3    H240734   1.633   0.003   1.098
13593TIP3   OH240735   7.390   7.926   1.223
13593TIP3    H140736   7.381   7.852   1.284
13593TIP3    H240737   7.443   7.990   1.269
13594TIP3   OH240738   3.455   0.308   1.021
13594TIP3    H140739   3.473   0.343   1.108
13594TIP3    H240740   3.510   0.359   0.963
13595TIP3   OH240741   3.473   0.331   1.300
13595TIP3    H140742   3.437   0.242   1.298
13595TIP3    H240743   3.553   0.322   1.352
13596TIP3   OH240744   0.511   7.535   0.495
13596TIP3    H140745   0.573   7.601   0.462
13596TIP3    H240746   0.554   7.498   0.572
13597TIP3   OH240747   0.638   7.401   0.700
13597TIP3    H140748   0.570   7.361   0.755
13597TIP3    H240749   0.699   7.441   0.763
13598TIP3   OH240750   0.696   7.800   1.129
13598TIP3    H140751   0.744   7.732   1.082
13598TIP3    H240752   0.692   7.874   1.068
13599TIP3   OH240753   3.352   0.083   1.322
13599TIP3    H140754   3.281   0.123   1.373
13599TIP3    H240755   3.307   0.038   1.250
13600TIP3   OH240756   0.573   7.314   0.342
13600TIP3    H140757   0.505   7.311   0.274
13600TIP3    H240758   0.547   7.387   0.399
13601TIP3   OH240759   0.447   6.982   0.295
13601TIP3    H140760   0.402   7.022   0.221
13601TIP3    H240761   0.424   6.889   0.290
13602TIP3   OH240762   0.450   7.261   0.845
13602TIP3    H140763   0.454   7.166   0.834
13602TIP3    H240764   0.434   7.274   0.939
13603TIP3   OH240765   7.597   7.390   1.547
13603TIP3    H140766   7.583   7.326   1.478
13603TIP3    H240767   7.680   7.364   1.587
13604TIP3   OH240768   0.739   7.699   1.701
13604TIP3    H140769   0.807   7.632   1.693
13604TIP3    H240770   0.779   7.778   1.667
13605TIP3   OH240771   0.937   7.504   1.703
13605TIP3    H140772   0.864   7.445   1.719
13605TIP3    H240773   0.977   7.517   1.789
13606TIP3   OH240774   0.387   6.717   0.283
13606TIP3    H140775   0.454   6.682   0.343
13606TIP3    H240776   0.310   6.662   0.299
13607TIP3   OH240777   0.451   6.977   0.736
13607TIP3    H140778   0.487   6.890   0.753
13607TIP3    H240779   0.505   7.012   0.664
13608TIP3   OH240780   0.607   7.150   1.232
13608TIP3    H140781   0.689   7.173   1.189
13608TIP3    H240782   0.615   7.186   1.320
13609TIP3   OH240783   0.668   7.301   1.455
13609TIP3    H140784   0.597   7.329   1.513
13609TIP3    H240785   0.704   7.382   1.421
13610TIP3   OH240786   0.557   6.725   0.775
13610TIP3    H140787   0.602   6.713   0.859
13610TIP3    H240788   0.494   6.653   0.772
13611TIP3   OH240789   0.639   6.657   0.412
13611TIP3    H140790   0.670   6.588   0.354
13611TIP3    H240791   0.700   6.729   0.398
13612TIP3   OH240792   7.530   6.467   1.152
13612TIP3    H140793   7.438   6.471   1.179
13612TIP3    H240794   7.536   6.531   1.080
13613TIP3   OH240795   3.035   0.181   0.675
13613TIP3    H140796   3.085   0.170   0.594
13613TIP3    H240797   3.084   0.247   0.724
13614TIP3   OH240798   2.313  -0.008   1.527
13614TIP3    H140799   2.252   0.066   1.527
13614TIP3    H240800   2.400   0.032   1.524
13615TIP3   OH240801   2.785   0.253   1.750
13615TIP3    H140802   2.827   0.271   1.834
13615TIP3    H240803   2.833   0.306   1.687
13616TIP3   OH240804   2.952   0.411   1.608
13616TIP3    H140805   3.010   0.357   1.554
13616TIP3    H240806   3.007   0.485   1.635
13617TIP3   OH240807   1.987   0.285   1.629
13617TIP3    H140808   1.908   0.325   1.592
13617TIP3    H240809   1.977   0.295   1.724
13618TIP3   OH240810   2.226   0.252   1.492
13618TIP3    H140811   2.144   0.268   1.539
13618TIP3    H240812   2.210   0.286   1.404
13619TIP3   OH240813   2.652   0.285   1.286
13619TIP3    H140814   2.584   0.301   1.220
13619TIP3    H240815   2.664   0.370   1.329
13620TIP3   OH240816   2.918   0.221   1.344
13620TIP3    H140817   2.827   0.239   1.321
13620TIP3    H240818   2.969   0.286   1.296
13621TIP3   OH240819   3.118   0.405   1.250
13621TIP3    H140820   3.108   0.491   1.209
13621TIP3    H240821   3.150   0.348   1.180
13622TIP3   OH240822   1.906   0.069   1.375
13622TIP3    H140823   1.937   0.048   1.464
13622TIP3    H240824   1.969   0.027   1.317
13623TIP3   OH240825   7.761   7.953   1.231
13623TIP3    H140826   7.777   7.864   1.261
13623TIP3    H240827   7.848   7.992   1.225
13624TIP3   OH240828   2.361   0.032   1.240
13624TIP3    H140829   2.418  -0.031   1.196
13624TIP3    H240830   2.411   0.059   1.317
13625TIP3   OH240831   0.107   6.702   1.322
13625TIP3    H140832   0.062   6.630   1.366
13625TIP3    H240833   0.184   6.661   1.281
13626TIP3   OH240834   0.626   6.579   1.225
13626TIP3    H140835   0.656   6.635   1.154
13626TIP3    H240836   0.534   6.600   1.236
13627TIP3   OH240837   0.720   6.686   0.993
13627TIP3    H140838   0.790   6.634   0.952
13627TIP3    H240839   0.745   6.777   0.977
13628TIP3   OH240840   7.846   6.408   1.291
13628TIP3    H140841   7.757   6.388   1.319
13628TIP3    H240842   7.896   6.328   1.309
13629TIP3   OH240843   7.640   6.278   0.983
13629TIP3    H140844   7.670   6.336   0.913
13629TIP3    H240845   7.608   6.338   1.051
13630TIP3   OH240846   8.304   6.448   1.226
13630TIP3    H140847   8.351   6.494   1.156
13630TIP3    H240848   8.346   6.478   1.307
13631TIP3   OH240849   0.340   6.589   1.203
13631TIP3    H140850   0.340   6.554   1.113
13631TIP3    H240851   0.325   6.512   1.258
13632TIP3   OH240852   0.370   6.515   0.770
13632TIP3    H140853   0.287   6.561   0.784
13632TIP3    H240854   0.357   6.430   0.813
13633TIP3   OH240855   7.352   7.858   0.764
13633TIP3    H140856   7.270   7.820   0.734
13633TIP3    H240857   7.346   7.951   0.739
13634TIP3   OH240858   7.760   6.437   0.751
13634TIP3    H140859   7.805   6.377   0.692
13634TIP3    H240860   7.829   6.493   0.787
13635TIP3   OH240861   8.268   6.620   0.852
13635TIP3    H140862   8.327   6.570   0.909
13635TIP3    H240863   8.286   6.712   0.873
13636TIP3   OH240864   2.463   0.023   0.348
13636TIP3    H140865   2.550   0.048   0.315
13636TIP3    H240866   2.437  -0.050   0.291
13637TIP3   OH240867   3.180   0.145   0.443
13637TIP3    H140868   3.174   0.050   0.436
13637TIP3    H240869   3.135   0.178   0.365
13638TIP3   OH240870   7.434   7.877   0.404
13638TIP3    H140871   7.433   7.896   0.498
13638TIP3    H240872   7.518   7.834   0.389
13639TIP3   OH240873   3.402   0.282   1.617
13639TIP3    H140874   3.323   0.262   1.566
13639TIP3    H240875   3.396   0.376   1.634
13640TIP3   OH240876   1.829   7.672   0.397
13640TIP3    H140877   1.814   7.765   0.382
13640TIP3    H240878   1.757   7.628   0.353
13641TIP3   OH240879   1.815   7.656   0.790
13641TIP3    H140880   1.905   7.629   0.806
13641TIP3    H240881   1.797   7.624   0.701
13642TIP3   OH240882   1.138   7.574   1.133
13642TIP3    H140883   1.165   7.504   1.193
13642TIP3    H240884   1.211   7.635   1.132
13643TIP3   OH240885   2.080   7.979   0.454
13643TIP3    H140886   2.074   7.902   0.511
13643TIP3    H240887   2.114   8.048   0.511
13644TIP3   OH240888   1.113   7.980   0.864
13644TIP3    H140889   1.102   7.885   0.867
13644TIP3    H240890   1.208   7.993   0.858
13645TIP3   OH240891   0.817   7.192   0.648
13645TIP3    H140892   0.768   7.271   0.668
13645TIP3    H240893   0.752   7.132   0.609
13646TIP3   OH240894   0.874   7.476   0.827
13646TIP3    H140895   0.924   7.401   0.858
13646TIP3    H240896   0.929   7.515   0.759
13647TIP3   OH240897   4.573   0.434   0.477
13647TIP3    H140898   4.613   0.362   0.428
13647TIP3    H240899   4.561   0.400   0.565
13648TIP3   OH240900   1.638   7.903   0.823
13648TIP3    H140901   1.675   7.817   0.803
13648TIP3    H240902   1.714   7.960   0.837
13649TIP3   OH240903   1.365   7.027   0.770
13649TIP3    H140904   1.342   7.112   0.732
13649TIP3    H240905   1.286   7.000   0.818
13650TIP3   OH240906   2.052   7.188   0.424
13650TIP3    H140907   2.111   7.125   0.465
13650TIP3    H240908   2.104   7.226   0.353
13651TIP3   OH240909   1.025   7.269   0.924
13651TIP3    H140910   1.111   7.260   0.967
13651TIP3    H240911   1.024   7.199   0.859
13652TIP3   OH240912   1.464   7.454   0.721
13652TIP3    H140913   1.556   7.429   0.734
13652TIP3    H240914   1.422   7.373   0.693
13653TIP3   OH240915   1.346   7.035   1.252
13653TIP3    H140916   1.320   7.114   1.205
13653TIP3    H240917   1.404   7.066   1.322
13654TIP3   OH240918   1.736   7.902   0.253
13654TIP3    H140919   1.690   7.883   0.172
13654TIP3    H240920   1.689   7.978   0.290
13655TIP3   OH240921   1.474   7.832   1.035
13655TIP3    H140922   1.420   7.900   1.075
13655TIP3    H240923   1.526   7.878   0.969
13656TIP3   OH240924   1.275   7.177   1.017
13656TIP3    H140925   1.325   7.250   1.053
13656TIP3    H240926   1.341   7.121   0.976
13657TIP3   OH240927   4.149   0.013   1.154
13657TIP3    H140928   4.131   0.100   1.119
13657TIP3    H240929   4.072  -0.008   1.207
13658TIP3   OH240930   0.711   7.708   0.383
13658TIP3    H140931   0.671   7.731   0.299
13658TIP3    H240932   0.741   7.792   0.419
13659TIP3   OH240933   4.983   0.211   0.615
13659TIP3    H140934   4.901   0.191   0.660
13659TIP3    H240935   4.971   0.298   0.579
13660TIP3   OH240936   4.687   0.253   0.291
13660TIP3    H140937   4.735   0.172   0.280
13660TIP3    H240938   4.744   0.321   0.255
13661TIP3   OH240939   4.829   0.031   0.208
13661TIP3    H140940   4.759  -0.033   0.195
13661TIP3    H240941   4.870   0.006   0.290
13662TIP3   OH240942   1.664   7.538   0.219
13662TIP3    H140943   1.583   7.587   0.210
13662TIP3    H240944   1.701   7.536   0.131
13663TIP3   OH240945   7.299   3.292   6.888
13663TIP3    H140946   7.358   3.353   6.933
13663TIP3    H240947   7.358   3.237   6.835
13664TIP3   OH240948   2.016   7.611   0.206
13664TIP3    H140949   1.959   7.635   0.280
13664TIP3    H240950   2.100   7.592   0.247
13665TIP3   OH240951   1.250   7.604   0.617
13665TIP3    H140952   1.208   7.549   0.552
13665TIP3    H240953   1.326   7.555   0.646
13666TIP3   OH240954   1.380   8.018   0.762
13666TIP3    H140955   1.359   7.987   0.674
13666TIP3    H240956   1.468   7.983   0.779
13667TIP3   OH240957   1.389   7.580   0.966
13667TIP3    H140958   1.418   7.557   0.878
13667TIP3    H240959   1.418   7.671   0.978
13668TIP3   OH240960   4.746   0.211   0.736
13668TIP3    H140961   4.735   0.291   0.787
13668TIP3    H240962   4.729   0.140   0.798
13669TIP3   OH240963   4.355   0.134   1.295
13669TIP3    H140964   4.290   0.190   1.338
13669TIP3    H240965   4.303   0.072   1.244
13670TIP3   OH240966   1.863   7.471   0.023
13670TIP3    H140967   1.911   7.531   0.081
13670TIP3    H240968   1.884   7.501  -0.065
13671TIP3   OH240969   1.259   7.697   1.398
13671TIP3    H140970   1.261   7.784   1.438
13671TIP3    H240971   1.169   7.667   1.410
13672TIP3   OH240972   4.438   0.128   0.303
13672TIP3    H140973   4.516   0.182   0.312
13672TIP3    H240974   4.375   0.184   0.257
13673TIP3   OH240975   4.146   0.279   1.383
13673TIP3    H140976   4.109   0.297   1.297
13673TIP3    H240977   4.070   0.265   1.439
13674TIP3   OH240978   2.305   6.710   0.024
13674TIP3    H140979   2.249   6.729   0.099
13674TIP3    H240980   2.320   6.795  -0.017
13675TIP3   OH240981   1.113   7.440   0.420
13675TIP3    H140982   1.060   7.500   0.368
13675TIP3    H240983   1.058   7.362   0.429
13676TIP3   OH240984   7.842   4.067   6.560
13676TIP3    H140985   7.846   4.161   6.546
13676TIP3    H240986   7.933   4.037   6.549
13677TIP3   OH240987   0.895   7.833   1.329
13677TIP3    H140988   0.827   7.817   1.263
13677TIP3    H240989   0.929   7.746   1.349
13678TIP3   OH240990   3.585   0.016   0.963
13678TIP3    H140991   3.680   0.013   0.953
13678TIP3    H240992   3.569   0.096   1.013
13679TIP3   OH240993   4.534   0.268   1.147
13679TIP3    H140994   4.574   0.325   1.213
13679TIP3    H240995   4.468   0.218   1.195
13680TIP3   OH240996   4.320   0.381   0.099
13680TIP3    H140997   4.270   0.357   0.021
13680TIP3    H240998   4.280   0.463   0.129
13681TIP3   OH240999   3.754   0.227   0.491
13681TIP3    H141000   3.801   0.221   0.574
13681TIP3    H241001   3.700   0.148   0.488
13682TIP3   OH241002   7.354   4.292   6.682
13682TIP3    H141003   7.408   4.222   6.646
13682TIP3    H241004   7.383   4.300   6.773
13683TIP3   OH241005   4.569   0.329   0.014
13683TIP3    H141006   4.480   0.340   0.047
13683TIP3    H241007   4.617   0.289   0.086
13684TIP3   OH241008   1.095   8.015   1.316
13684TIP3    H141009   1.136   8.004   1.402
13684TIP3    H241010   1.021   7.955   1.317
13685TIP3   OH241011   0.654   6.215   1.425
13685TIP3    H141012   0.661   6.120   1.426
13685TIP3    H241013   0.668   6.240   1.517
13686TIP3   OH241014   7.625   3.513   6.699
13686TIP3    H141015   7.569   3.468   6.636
13686TIP3    H241016   7.595   3.604   6.699
13687TIP3   OH241017   1.644   6.880   0.078
13687TIP3    H141018   1.574   6.904   0.138
13687TIP3    H241019   1.613   6.801   0.034
13688TIP3   OH241020   1.434   7.363   1.127
13688TIP3    H141021   1.383   7.388   1.204
13688TIP3    H241022   1.433   7.441   1.071
13689TIP3   OH241023   1.302   7.248   0.615
13689TIP3    H141024   1.214   7.214   0.635
13689TIP3    H241025   1.297   7.274   0.523
13690TIP3   OH241026   1.786   7.334   0.353
13690TIP3    H141027   1.741   7.404   0.307
13690TIP3    H241028   1.850   7.301   0.290
13691TIP3   OH241029   1.930   7.378   0.592
13691TIP3    H141030   1.871   7.412   0.524
13691TIP3    H241031   1.972   7.302   0.552
13692TIP3   OH241032   1.238   7.398   1.320
13692TIP3    H141033   1.264   7.465   1.383
13692TIP3    H241034   1.191   7.333   1.372
13693TIP3   OH241035   1.304   6.877   0.042
13693TIP3    H141036   1.290   6.905   0.132
13693TIP3    H241037   1.231   6.915  -0.007
13694TIP3   OH241038   0.829   6.910   0.894
13694TIP3    H141039   0.908   6.941   0.938
13694TIP3    H241040   0.861   6.866   0.816
13695TIP3   OH241041   0.818   6.898   0.429
13695TIP3    H141042   0.855   6.931   0.347
13695TIP3    H241043   0.752   6.963   0.454
13696TIP3   OH241044   1.632   7.052   0.707
13696TIP3    H141045   1.547   7.036   0.747
13696TIP3    H241046   1.682   7.101   0.773
13697TIP3   OH241047   1.067   7.108   0.692
13697TIP3    H141048   0.985   7.149   0.668
13697TIP3    H241049   1.046   7.015   0.699
13698TIP3   OH241050   1.190   7.129   0.172
13698TIP3    H141051   1.120   7.098   0.115
13698TIP3    H241052   1.248   7.179   0.114
13699TIP3   OH241053   1.241   7.925   1.551
13699TIP3    H141054   1.302   7.992   1.582
13699TIP3    H241055   1.196   7.894   1.630
13700TIP3   OH241056   1.724   7.354   0.776
13700TIP3    H141057   1.799   7.363   0.717
13700TIP3    H241058   1.758   7.383   0.862
13701TIP3   OH241059   1.433   7.680   0.180
13701TIP3    H141060   1.365   7.615   0.165
13701TIP3    H241061   1.414   7.715   0.268
13702TIP3   OH241062   1.898   6.984   0.047
13702TIP3    H141063   1.804   6.963   0.052
13702TIP3    H241064   1.902   7.078   0.063
13703TIP3   OH241065   1.779   7.996   1.130
13703TIP3    H141066   1.795   7.951   1.213
13703TIP3    H241067   1.767   8.088   1.154
13704TIP3   OH241068   1.961   7.243   0.138
13704TIP3    H141069   2.056   7.254   0.145
13704TIP3    H241070   1.931   7.322   0.092
13705TIP3   OH241071   1.133   7.704   0.850
13705TIP3    H141072   1.170   7.676   0.766
13705TIP3    H241073   1.172   7.644   0.914
13706TIP3   OH241074   1.589   7.834   0.016
13706TIP3    H141075   1.543   7.918   0.011
13706TIP3    H241076   1.532   7.778   0.069
13707TIP3   OH241077   1.006   7.605   1.457
13707TIP3    H141078   0.997   7.580   1.549
13707TIP3    H241079   0.935   7.559   1.413
13708TIP3   OH241080   4.812   0.275   1.083
13708TIP3    H141081   4.720   0.273   1.059
13708TIP3    H241082   4.818   0.340   1.154
13709TIP3   OH241083   7.780   4.143   6.827
13709TIP3    H141084   7.750   4.078   6.891
13709TIP3    H241085   7.790   4.094   6.745
13710TIP3   OH241086   2.078   7.774   0.631
13710TIP3    H141087   2.016   7.794   0.701
13710TIP3    H241088   2.132   7.703   0.665
13711TIP3   OH241089   4.067  -0.004   0.475
13711TIP3    H141090   4.066   0.076   0.423
13711TIP3    H241091   3.975  -0.025   0.490
13712TIP3   OH241092   0.803   7.311   0.189
13712TIP3    H141093   0.844   7.396   0.205
13712TIP3    H241094   0.724   7.312   0.243
13713TIP3   OH241095   1.365   7.772   0.423
13713TIP3    H141096   1.334   7.862   0.437
13713TIP3    H241097   1.330   7.723   0.497
13714TIP3   OH241098   4.339   0.336   0.942
13714TIP3    H141099   4.377   0.403   0.887
13714TIP3    H241100   4.412   0.301   0.993
13715TIP3   OH241101   3.984   0.234   0.331
13715TIP3    H141102   3.900   0.240   0.375
13715TIP3    H241103   4.018   0.324   0.331
13716TIP3   OH241104   1.890   7.992   0.887
13716TIP3    H141105   1.853   7.994   0.975
13716TIP3    H241106   1.970   7.939   0.896
13717TIP3   OH241107   7.528   3.856   6.723
13717TIP3    H141108   7.571   3.840   6.807
13717TIP3    H241109   7.435   3.843   6.740
13718TIP3   OH241110   7.869   4.345   6.546
13718TIP3    H141111   7.908   4.413   6.492
13718TIP3    H241112   7.791   4.385   6.583
13719TIP3   OH241113   2.024   7.789  -0.008
13719TIP3    H141114   2.013   7.746   0.077
13719TIP3    H241115   2.118   7.801  -0.016
13720TIP3   OH241116   3.775   0.200   1.104
13720TIP3    H141117   3.829   0.133   1.145
13720TIP3    H241118   3.794   0.281   1.152
13721TIP3   OH241119   6.902   3.854   6.732
13721TIP3    H141120   6.896   3.772   6.685
13721TIP3    H241121   6.875   3.833   6.821
13722TIP3   OH241122   1.173   7.865   0.068
13722TIP3    H141123   1.248   7.841   0.122
13722TIP3    H241124   1.174   7.960   0.065
13723TIP3   OH241125   0.914   7.562   0.268
13723TIP3    H141126   0.846   7.601   0.323
13723TIP3    H241127   0.926   7.624   0.196
13724TIP3   OH241128   1.940   6.954   0.318
13724TIP3    H141129   1.929   6.954   0.223
13724TIP3    H241130   1.958   7.045   0.340
13725TIP3   OH241131   7.110   4.053   6.951
13725TIP3    H141132   7.025   4.077   6.987
13725TIP3    H241133   7.118   4.107   6.871
13726TIP3   OH241134   1.641   7.120   0.435
13726TIP3    H141135   1.687   7.197   0.401
13726TIP3    H241136   1.631   7.138   0.529
13727TIP3   OH241137   1.782   6.877   0.522
13727TIP3    H141138   1.738   6.958   0.548
13727TIP3    H241139   1.843   6.904   0.454
13728TIP3   OH241140   4.025   0.124   0.078
13728TIP3    H141141   3.992   0.189   0.015
13728TIP3    H241142   4.006   0.163   0.163
13729TIP3   OH241143   2.203   7.492   0.597
13729TIP3    H141144   2.113   7.471   0.621
13729TIP3    H241145   2.239   7.535   0.674
13730TIP3   OH241146   0.907   7.758   0.068
13730TIP3    H141147   0.971   7.828   0.078
13730TIP3    H241148   0.944   7.702  -0.001
13731TIP3   OH241149   0.842   7.039   0.199
13731TIP3    H141150   0.846   7.134   0.201
13731TIP3    H241151   0.765   7.019   0.145
13732TIP3   OH241152   4.981   0.482   0.549
13732TIP3    H141153   4.951   0.533   0.474
13732TIP3    H241154   5.076   0.477   0.538
13733TIP3   OH241155   1.426   6.662   0.981
13733TIP3    H141156   1.337   6.692   0.963
13733TIP3    H241157   1.420   6.620   1.067
13734TIP3   OH241158   0.769   7.977   0.451
13734TIP3    H141159   0.707   8.007   0.517
13734TIP3    H241160   0.739   8.019   0.370
13735TIP3   OH241161   3.762   0.493   1.501
13735TIP3    H141162   3.824   0.504   1.573
13735TIP3    H241163   3.728   0.404   1.511
13736TIP3   OH241164   7.070   4.050   6.644
13736TIP3    H141165   7.010   3.983   6.678
13736TIP3    H241166   7.137   4.001   6.597
13737TIP3   OH241167   7.501   4.095   6.555
13737TIP3    H141168   7.545   4.031   6.611
13737TIP3    H241169   7.550   4.092   6.472
13738TIP3   OH241170   6.708   3.571   6.854
13738TIP3    H141171   6.767   3.544   6.925
13738TIP3    H241172   6.765   3.576   6.777
13739TIP3   OH241173   7.241   3.778   6.677
13739TIP3    H141174   7.223   3.786   6.771
13739TIP3    H241175   7.230   3.685   6.659
13740TIP3   OH241176   1.251   7.479   0.147
13740TIP3    H141177   1.214   7.435   0.224
13740TIP3    H241178   1.284   7.407   0.093
13741TIP3   OH241179   1.497   7.566   1.380
13741TIP3    H141180   1.412   7.611   1.383
13741TIP3    H241181   1.541   7.601   1.303
13742TIP3   OH241182   7.014   3.266   6.929
13742TIP3    H141183   6.983   3.273   6.838
13742TIP3    H241184   7.109   3.267   6.922
13743TIP3   OH241185   7.878   3.603   6.562
13743TIP3    H141186   7.854   3.577   6.473
13743TIP3    H241187   7.845   3.693   6.571
13744TIP3   OH241188   1.633   7.654   1.165
13744TIP3    H141189   1.713   7.652   1.111
13744TIP3    H241190   1.575   7.715   1.120
13745TIP3   OH241191   6.827   4.337   6.832
13745TIP3    H141192   6.920   4.325   6.812
13745TIP3    H241193   6.791   4.382   6.755
13746TIP3   OH241194   0.636   7.718   0.105
13746TIP3    H141195   0.728   7.741   0.090
13746TIP3    H241196   0.627   7.632   0.064
13747TIP3   OH241197   3.386   0.316   0.521
13747TIP3    H141198   3.320   0.260   0.481
13747TIP3    H241199   3.430   0.260   0.585
13748TIP3   OH241200   3.522   0.164   0.708
13748TIP3    H141201   3.505   0.095   0.772
13748TIP3    H241202   3.572   0.230   0.756
13749TIP3   OH241203   7.965   3.785   6.916
13749TIP3    H141204   8.025   3.851   6.881
13749TIP3    H241205   8.016   3.739   6.982
13750TIP3   OH241206   2.432   7.661   0.188
13750TIP3    H141207   2.361   7.615   0.233
13750TIP3    H241208   2.450   7.737   0.243
13751TIP3   OH241209   5.240  -0.004   0.545
13751TIP3    H141210   5.329   0.010   0.577
13751TIP3    H241211   5.203   0.084   0.538
13752TIP3   OH241212   5.161   0.373   0.771
13752TIP3    H141213   5.126   0.378   0.860
13752TIP3    H241214   5.108   0.306   0.728
13753TIP3   OH241215   2.245   7.514   0.327
13753TIP3    H141216   2.244   7.420   0.310
13753TIP3    H241217   2.231   7.521   0.422
13754TIP3   OH241218   0.872   7.588   1.077
13754TIP3    H141219   0.864   7.558   0.986
13754TIP3    H241220   0.966   7.592   1.093
13755TIP3   OH241221   7.843   3.000   6.737
13755TIP3    H141222   7.924   2.958   6.767
13755TIP3    H241223   7.779   2.928   6.734
13756TIP3   OH241224   2.240   7.235   0.219
13756TIP3    H141225   2.250   7.141   0.234
13756TIP3    H241226   2.317   7.259   0.168
13757TIP3   OH241227   1.053   6.985   1.033
13757TIP3    H141228   1.093   6.906   1.067
13757TIP3    H241229   1.117   7.054   1.050
13758TIP3   OH241230   0.855   7.239   1.152
13758TIP3    H141231   0.904   7.242   1.069
13758TIP3    H241232   0.872   7.324   1.193
13759TIP3   OH241233   8.101   2.908   6.831
13759TIP3    H141234   8.144   2.850   6.769
13759TIP3    H241235   8.160   2.983   6.839
13760TIP3   OH241236   0.835   6.755   0.659
13760TIP3    H141237   0.744   6.739   0.682
13760TIP3    H241238   0.831   6.808   0.580
13761TIP3   OH241239   4.831   0.439   0.160
13761TIP3    H141240   4.882   0.428   0.080
13761TIP3    H241241   4.883   0.499   0.214
13762TIP3   OH241242   0.992   6.810   1.466
13762TIP3    H141243   0.971   6.830   1.557
13762TIP3    H241244   0.940   6.871   1.415
13763TIP3   OH241245   3.934   0.224   1.558
13763TIP3    H141246   3.847   0.212   1.522
13763TIP3    H241247   3.922   0.220   1.653
13764TIP3   OH241248   4.113   0.282   1.092
13764TIP3    H141249   4.061   0.354   1.058
13764TIP3    H241250   4.198   0.291   1.050
13765TIP3   OH241251   3.785   0.530   1.126
13765TIP3    H141252   3.695   0.554   1.102
13765TIP3    H241253   3.807   0.589   1.197
13766TIP3   OH241254   4.020   0.512   0.980
13766TIP3    H141255   3.936   0.522   1.025
13766TIP3    H241256   4.003   0.544   0.891
13767TIP3   OH241257   4.436   0.527   0.766
13767TIP3    H141258   4.366   0.551   0.705
13767TIP3    H241259   4.457   0.608   0.812
13768TIP3   OH241260   4.702   0.471   0.823
13768TIP3    H141261   4.611   0.491   0.801
13768TIP3    H241262   4.750   0.549   0.799
13769TIP3   OH241263   4.849   0.682   0.706
13769TIP3    H141264   4.929   0.725   0.736
13769TIP3    H241265   4.879   0.604   0.660
13770TIP3   OH241266   3.699   0.321   0.861
13770TIP3    H141267   3.719   0.298   0.952
13770TIP3    H241268   3.769   0.280   0.810
13771TIP3   OH241269   3.894   0.194   0.723
13771TIP3    H141270   3.907   0.113   0.772
13771TIP3    H241271   3.982   0.232   0.717
13772TIP3   OH241272   4.160   0.287   0.728
13772TIP3    H141273   4.189   0.197   0.715
13772TIP3    H241274   4.204   0.315   0.809
13773TIP3   OH241275   1.139   6.707   0.809
13773TIP3    H141276   1.046   6.689   0.821
13773TIP3    H241277   1.181   6.621   0.812
13774TIP3   OH241278   0.943   6.539   0.482
13774TIP3    H141279   0.957   6.589   0.401
13774TIP3    H241280   0.912   6.604   0.545
13775TIP3   OH241281   1.545   6.757   0.691
13775TIP3    H141282   1.638   6.776   0.686
13775TIP3    H241283   1.527   6.746   0.784
13776TIP3   OH241284   2.162   6.780   0.248
13776TIP3    H141285   2.088   6.827   0.285
13776TIP3    H241286   2.167   6.699   0.298
13777TIP3   OH241287   3.481   0.103   0.252
13777TIP3    H141288   3.399   0.065   0.221
13777TIP3    H241289   3.477   0.195   0.227
13778TIP3   OH241290   1.030   6.680   0.234
13778TIP3    H141291   1.081   6.622   0.177
13778TIP3    H241292   1.092   6.749   0.260
13779TIP3   OH241293   1.528   6.880   0.395
13779TIP3    H141294   1.600   6.828   0.358
13779TIP3    H241295   1.559   6.970   0.393
13780TIP3   OH241296   7.092   4.291   6.770
13780TIP3    H141297   7.179   4.315   6.739
13780TIP3    H241298   7.066   4.217   6.714
13781TIP3   OH241299   7.809   4.409   6.869
13781TIP3    H141300   7.805   4.314   6.862
13781TIP3    H241301   7.763   4.440   6.791
13782TIP3   OH241302   6.397   4.125   6.830
13782TIP3    H141303   6.399   4.146   6.924
13782TIP3    H241304   6.482   4.084   6.814
13783TIP3   OH241305   2.600   7.434   0.207
13783TIP3    H141306   2.560   7.520   0.199
13783TIP3    H241307   2.606   7.401   0.117
13784TIP3   OH241308   8.157   3.968   6.816
13784TIP3    H141309   8.123   3.995   6.731
13784TIP3    H241310   8.195   4.047   6.854
13785TIP3   OH241311   0.001   3.629   6.807
13785TIP3    H141312  -0.027   3.712   6.768
13785TIP3    H241313   0.076   3.653   6.862
13786TIP3   OH241314   5.360   0.289   0.464
13786TIP3    H141315   5.452   0.274   0.440
13786TIP3    H241316   5.355   0.268   0.557
13787TIP3   OH241317   0.419   4.626   6.532
13787TIP3    H141318   0.387   4.614   6.443
13787TIP3    H241319   0.371   4.702   6.565
13788TIP3   OH241320   5.548   0.489  -0.012
13788TIP3    H141321   5.597   0.467   0.067
13788TIP3    H241322   5.496   0.412  -0.031
13789TIP3   OH241323   0.195   3.190   6.479
13789TIP3    H141324   0.243   3.107   6.489
13789TIP3    H241325   0.172   3.193   6.386
13790TIP3   OH241326   8.268   3.129   6.852
13790TIP3    H141327   8.300   3.138   6.762
13790TIP3    H241328   8.263   3.219   6.884
13791TIP3   OH241329   0.101   3.446   6.567
13791TIP3    H141330   0.086   3.352   6.558
13791TIP3    H241331   0.185   3.462   6.524
13792TIP3   OH241332   0.352   3.953   6.603
13792TIP3    H141333   0.307   3.871   6.587
13792TIP3    H241334   0.350   3.964   6.698
13793TIP3   OH241335   0.500   4.076   6.397
13793TIP3    H141336   0.479   4.166   6.423
13793TIP3    H241337   0.478   4.023   6.473
13794TIP3   OH241338   0.191   4.260   6.853
13794TIP3    H141339   0.180   4.346   6.813
13794TIP3    H241340   0.135   4.262   6.931
13795TIP3   OH241341   8.249   3.566   6.607
13795TIP3    H141342   8.333   3.602   6.634
13795TIP3    H241343   8.185   3.633   6.630
13796TIP3   OH241344   0.315   4.023   6.885
13796TIP3    H141345   0.281   4.108   6.857
13796TIP3    H241346   0.258   3.997   6.958
13797TIP3   OH241347   0.115   4.513   6.756
13797TIP3    H141348   0.033   4.536   6.800
13797TIP3    H241349   0.182   4.565   6.801
13798TIP3   OH241350   0.187   4.106   6.218
13798TIP3    H141351   0.195   4.015   6.192
13798TIP3    H241352   0.171   4.103   6.312
13799TIP3   OH241353   0.141   4.115   6.486
13799TIP3    H141354   0.218   4.079   6.530
13799TIP3    H241355   0.145   4.209   6.505
13800TIP3   OH241356   8.349   3.828   6.673
13800TIP3    H141357   8.287   3.867   6.735
13800TIP3    H241358   8.364   3.896   6.608
13801TIP3   OH241359   0.403   4.325   6.451
13801TIP3    H141360   0.313   4.343   6.479
13801TIP3    H241361   0.429   4.403   6.402
13802TIP3   OH241362   0.142   4.390   6.507
13802TIP3    H141363   0.111   4.455   6.443
13802TIP3    H241364   0.129   4.433   6.592
13803TIP3   OH241365   8.371   4.026   6.478
13803TIP3    H141366   8.443   4.087   6.497
13803TIP3    H241367   8.409   3.964   6.416
13804TIP3   OH241368   8.296   3.286   6.633
13804TIP3    H141369   8.328   3.376   6.638
13804TIP3    H241370   8.259   3.278   6.545
13805TIP3   OH241371   8.234   4.232   6.880
13805TIP3    H141372   8.169   4.267   6.942
13805TIP3    H241373   8.208   4.270   6.796
13806TIP3   OH241374   0.353   4.302   6.129
13806TIP3    H141375   0.287   4.239   6.160
13806TIP3    H241376   0.437   4.261   6.150
13807TIP3   OH241377   0.008   3.827   6.346
13807TIP3    H141378   0.050   3.792   6.425
13807TIP3    H241379   0.078   3.833   6.281
13808TIP3   OH241380   0.494   4.005   6.142
13808TIP3    H141381   0.515   4.040   6.228
13808TIP3    H241382   0.421   3.945   6.158
13809TIP3   OH241383   0.199   3.719   6.568
13809TIP3    H141384   0.144   3.664   6.624
13809TIP3    H241385   0.251   3.657   6.516
13810TIP3   OH241386   0.323   3.524   6.415
13810TIP3    H141387   0.286   3.529   6.326
13810TIP3    H241388   0.416   3.509   6.401
13811TIP3   OH241389   0.107   4.589   6.318
13811TIP3    H141390   0.202   4.582   6.309
13811TIP3    H241391   0.079   4.638   6.241
13812TIP3   OH241392   8.103   3.971   6.531
13812TIP3    H141393   8.192   3.999   6.512
13812TIP3    H241394   8.096   3.884   6.492
13813TIP3   OH241395   5.174   0.576   0.010
13813TIP3    H141396   5.111   0.518  -0.033
13813TIP3    H241397   5.225   0.519   0.067
13814TIP3   OH241398   5.314   0.412   0.179
13814TIP3    H141399   5.290   0.343   0.241
13814TIP3    H241400   5.363   0.475   0.232
13815TIP3   OH241401   8.110   4.366   6.680
13815TIP3    H141402   8.027   4.328   6.652
13815TIP3    H241403   8.106   4.458   6.652
13816TIP3   OH241404  -0.005   2.984   6.661
13816TIP3    H141405   0.076   2.935   6.649
13816TIP3    H241406   0.011   3.039   6.737
13817TIP3   OH241407   0.373   4.543   6.264
13817TIP3    H141408   0.460   4.560   6.230
13817TIP3    H241409   0.341   4.469   6.213
13818TIP3   OH241410   8.191   4.380   6.319
13818TIP3    H141411   8.196   4.403   6.412
13818TIP3    H241412   8.275   4.340   6.300
13819TIP3   OH241413   7.541   1.068   1.344
13819TIP3    H141414   7.573   1.015   1.270
13819TIP3    H241415   7.616   1.123   1.368
13820TIP3   OH241416   7.237   0.344   1.127
13820TIP3    H141417   7.307   0.403   1.154
13820TIP3    H241418   7.280   0.277   1.074
13821TIP3   OH241419   7.449   0.500   1.186
13821TIP3    H141420   7.453   0.590   1.217
13821TIP3    H241421   7.473   0.505   1.093
13822TIP3   OH241422   7.759   1.109   0.798
13822TIP3    H141423   7.766   1.203   0.779
13822TIP3    H241424   7.848   1.075   0.786
13823TIP3   OH241425   7.062   1.422   1.265
13823TIP3    H141426   7.022   1.418   1.178
13823TIP3    H241427   7.037   1.508   1.299
13824TIP3   OH241428   7.272   1.327   0.918
13824TIP3    H141429   7.328   1.258   0.882
13824TIP3    H241430   7.303   1.339   1.007
13825TIP3   OH241431   7.325   1.382   1.189
13825TIP3    H141432   7.237   1.379   1.228
13825TIP3    H241433   7.382   1.351   1.259
13826TIP3   OH241434   7.516   0.553   0.936
13826TIP3    H141435   7.477   0.523   0.854
13826TIP3    H241436   7.602   0.586   0.911
13827TIP3   OH241437   7.181   0.863   1.126
13827TIP3    H141438   7.144   0.951   1.136
13827TIP3    H241439   7.174   0.824   1.213
13828TIP3   OH241440   7.995   0.363   1.127
13828TIP3    H141441   7.924   0.318   1.081
13828TIP3    H241442   7.995   0.452   1.091
13829TIP3   OH241443   7.698   1.178   1.058
13829TIP3    H141444   7.664   1.099   1.102
13829TIP3    H241445   7.713   1.150   0.968
13830TIP3   OH241446   7.441   0.912   0.968
13830TIP3    H141447   7.499   0.891   1.042
13830TIP3    H241448   7.354   0.887   0.999
13831TIP3   OH241449   7.785   1.386   0.783
13831TIP3    H141450   7.826   1.457   0.734
13831TIP3    H241451   7.704   1.424   0.818
13832TIP3   OH241452   7.618   0.863   1.177
13832TIP3    H141453   7.602   0.811   1.256
13832TIP3    H241454   7.712   0.853   1.160
13833TIP3   OH241455   6.810   0.887   0.968
13833TIP3    H141456   6.842   0.801   0.939
13833TIP3    H241457   6.770   0.871   1.053
13834TIP3   OH241458   7.062   1.104   1.172
13834TIP3    H141459   7.020   1.126   1.255
13834TIP3    H241460   7.046   1.180   1.116
13835TIP3   OH241461   6.623   1.208   1.219
13835TIP3    H141462   6.645   1.269   1.149
13835TIP3    H241463   6.698   1.211   1.279
13836TIP3   OH241464   6.972   1.087   0.868
13836TIP3    H141465   6.916   1.023   0.912
13836TIP3    H241466   7.048   1.037   0.838
13837TIP3   OH241467   7.415   1.130   0.789
13837TIP3    H141468   7.451   1.064   0.848
13837TIP3    H241469   7.469   1.124   0.711
13838TIP3   OH241470   6.590   0.644   1.036
13838TIP3    H141471   6.621   0.708   1.099
13838TIP3    H241472   6.667   0.620   0.985
13839TIP3   OH241473   7.115   0.794   0.873
13839TIP3    H141474   7.130   0.819   0.964
13839TIP3    H241475   7.126   0.699   0.872
13840TIP3   OH241476   6.872   0.362   1.138
13840TIP3    H141477   6.879   0.353   1.043
13840TIP3    H241478   6.963   0.366   1.168
13841TIP3   OH241479   7.749   0.639   0.824
13841TIP3    H141480   7.734   0.590   0.744
13841TIP3    H241481   7.716   0.727   0.805
13842TIP3   OH241482   6.744   1.379   1.044
13842TIP3    H141483   6.839   1.365   1.039
13842TIP3    H241484   6.726   1.443   0.976
13843TIP3   OH241485   7.886   0.848   1.150
13843TIP3    H141486   7.956   0.903   1.114
13843TIP3    H241487   7.908   0.838   1.243
13844TIP3   OH241488   8.017   0.654   1.320
13844TIP3    H141489   7.956   0.669   1.392
13844TIP3    H241490   7.970   0.593   1.262
13845TIP3   OH241491   7.945   0.613   1.014
13845TIP3    H141492   7.879   0.603   0.946
13845TIP3    H241493   7.923   0.696   1.057
13846TIP3   OH241494   7.806   0.273   0.951
13846TIP3    H141495   7.769   0.296   0.866
13846TIP3    H241496   7.794   0.178   0.957
13847TIP3   OH241497   4.928   8.020   0.945
13847TIP3    H141498   5.006   7.993   0.993
13847TIP3    H241499   4.857   7.967   0.982
13848TIP3   OH241500   5.176   7.977   1.059
13848TIP3    H141501   5.218   7.899   1.022
13848TIP3    H241502   5.248   8.037   1.076
13849TIP3   OH241503   7.607   1.428   1.352
13849TIP3    H141504   7.639   1.445   1.264
13849TIP3    H241505   7.628   1.506   1.402
13850TIP3   OH241506   7.010   1.327   0.995
13850TIP3    H141507   7.100   1.347   0.967
13850TIP3    H241508   6.984   1.253   0.940
13851TIP3   OH241509   7.727   1.448   1.102
13851TIP3    H141510   7.721   1.353   1.094
13851TIP3    H241511   7.680   1.482   1.025
13852TIP3   OH241512   0.720   0.966   1.052
13852TIP3    H141513   0.692   1.057   1.038
13852TIP3    H241514   0.642   0.914   1.032
13853TIP3   OH241515   0.696   0.969   1.427
13853TIP3    H141516   0.750   0.956   1.505
13853TIP3    H241517   0.657   0.883   1.410
13854TIP3   OH241518   0.962   1.270   1.125
13854TIP3    H141519   0.946   1.199   1.188
13854TIP3    H241520   0.995   1.342   1.179
13855TIP3   OH241521  -0.008   1.284   1.522
13855TIP3    H141522  -0.022   1.189   1.524
13855TIP3    H241523   0.087   1.294   1.522
13856TIP3   OH241524   8.237   0.500   1.276
13856TIP3    H141525   8.173   0.571   1.274
13856TIP3    H241526   8.190   0.427   1.316
13857TIP3   OH241527   8.361   0.763   1.471
13857TIP3    H141528   8.400   0.693   1.524
13857TIP3    H241529   8.346   0.722   1.385
13858TIP3   OH241530   0.614   1.727   1.141
13858TIP3    H141531   0.655   1.658   1.088
13858TIP3    H241532   0.602   1.688   1.227
13859TIP3   OH241533   0.520   1.193   1.465
13859TIP3    H141534   0.556   1.110   1.433
13859TIP3    H241535   0.594   1.236   1.508
13860TIP3   OH241536   1.533   0.524   1.468
13860TIP3    H141537   1.552   0.606   1.514
13860TIP3    H241538   1.553   0.543   1.376
13861TIP3   OH241539   0.922   0.672   1.519
13861TIP3    H141540   0.965   0.590   1.543
13861TIP3    H241541   0.894   0.659   1.428
13862TIP3   OH241542   0.314   0.343   1.439
13862TIP3    H141543   0.267   0.422   1.412
13862TIP3    H241544   0.253   0.271   1.422
13863TIP3   OH241545   0.966   0.441   1.104
13863TIP3    H141546   1.030   0.427   1.173
13863TIP3    H241547   1.016   0.477   1.031
13864TIP3   OH241548   0.340   0.752   1.388
13864TIP3    H141549   0.432   0.727   1.396
13864TIP3    H241550   0.297   0.675   1.350
13865TIP3   OH241551   1.596   0.722   1.658
13865TIP3    H141552   1.514   0.763   1.629
13865TIP3    H241553   1.591   0.721   1.753
13866TIP3   OH241554   0.613   1.193   0.920
13866TIP3    H141555   0.562   1.165   0.844
13866TIP3    H241556   0.567   1.270   0.953
13867TIP3   OH241557   1.167   0.449   1.284
13867TIP3    H141558   1.157   0.395   1.362
13867TIP3    H241559   1.217   0.525   1.313
13868TIP3   OH241560   8.087   1.002   1.044
13868TIP3    H141561   8.054   1.029   0.958
13868TIP3    H241562   8.123   1.082   1.082
13869TIP3   OH241563   1.030   1.513   1.284
13869TIP3    H141564   0.944   1.500   1.324
13869TIP3    H241565   1.024   1.598   1.241
13870TIP3   OH241566   1.304   0.446   1.630
13870TIP3    H141567   1.218   0.470   1.598
13870TIP3    H241568   1.365   0.482   1.565
13871TIP3   OH241569   0.733   1.554   0.958
13871TIP3    H141570   0.779   1.471   0.945
13871TIP3    H241571   0.791   1.620   0.920
13872TIP3   OH241572   0.876   1.336   0.873
13872TIP3    H141573   0.814   1.266   0.852
13872TIP3    H241574   0.917   1.308   0.955
13873TIP3   OH241575   1.256   1.421   1.629
13873TIP3    H141576   1.244   1.342   1.576
13873TIP3    H241577   1.236   1.493   1.570
13874TIP3   OH241578   0.545   0.815   0.890
13874TIP3    H141579   0.466   0.866   0.873
13874TIP3    H241580   0.591   0.813   0.806
13875TIP3   OH241581   0.507   0.604   0.601
13875TIP3    H141582   0.569   0.655   0.653
13875TIP3    H241583   0.561   0.540   0.555
13876TIP3   OH241584   1.447   1.058   1.476
13876TIP3    H141585   1.366   1.107   1.486
13876TIP3    H241586   1.481   1.084   1.390
13877TIP3   OH241587   0.899   0.899   0.861
13877TIP3    H141588   0.841   0.923   0.933
13877TIP3    H241589   0.982   0.876   0.902
13878TIP3   OH241590   1.123   0.969   1.742
13878TIP3    H141591   1.117   1.062   1.760
13878TIP3    H241592   1.042   0.948   1.695
13879TIP3   OH241593   0.133   0.901   1.270
13879TIP3    H141594   0.090   0.839   1.212
13879TIP3    H241595   0.202   0.851   1.313
13880TIP3   OH241596   0.264   1.313   1.423
13880TIP3    H141597   0.241   1.264   1.345
13880TIP3    H241598   0.348   1.275   1.451
13881TIP3   OH241599   0.267   0.870   1.626
13881TIP3    H141600   0.283   0.824   1.544
13881TIP3    H241601   0.354   0.902   1.653
13882TIP3   OH241602   0.791   1.500   1.405
13882TIP3    H141603   0.772   1.583   1.450
13882TIP3    H241604   0.767   1.432   1.468
13883TIP3   OH241605   0.736   0.759   0.688
13883TIP3    H141606   0.792   0.816   0.740
13883TIP3    H241607   0.761   0.777   0.597
13884TIP3   OH241608   0.482   1.433   0.960
13884TIP3    H141609   0.561   1.485   0.973
13884TIP3    H241610   0.419   1.496   0.924
13885TIP3   OH241611   1.250  -0.003   0.738
13885TIP3    H141612   1.169   0.015   0.787
13885TIP3    H241613   1.266   0.077   0.688
13886TIP3   OH241614   8.496   0.735   1.072
13886TIP3    H141615   8.421   0.770   1.024
13886TIP3    H241616   8.465   0.651   1.107
13887TIP3   OH241617   1.055   1.366   0.280
13887TIP3    H141618   1.058   1.461   0.274
13887TIP3    H241619   1.146   1.338   0.270
13888TIP3   OH241620   1.490   1.769   1.684
13888TIP3    H141621   1.495   1.674   1.694
13888TIP3    H241622   1.406   1.793   1.722
13889TIP3   OH241623   0.362   1.682   0.765
13889TIP3    H141624   0.314   1.664   0.684
13889TIP3    H241625   0.329   1.767   0.794
13890TIP3   OH241626   8.295   1.529   1.149
13890TIP3    H141627   8.350   1.524   1.227
13890TIP3    H241628   8.242   1.450   1.151
13891TIP3   OH241629   0.562   1.582   0.405
13891TIP3    H141630   0.619   1.514   0.370
13891TIP3    H241631   0.593   1.594   0.495
13892TIP3   OH241632   0.612   1.630   0.676
13892TIP3    H141633   0.525   1.640   0.714
13892TIP3    H241634   0.665   1.592   0.746
13893TIP3   OH241635   0.814   0.800   0.433
13893TIP3    H141636   0.776   0.776   0.349
13893TIP3    H241637   0.896   0.845   0.411
13894TIP3   OH241638   0.523   0.174   0.737
13894TIP3    H141639   0.490   0.174   0.827
13894TIP3    H241640   0.485   0.096   0.697
13895TIP3   OH241641   0.195   0.548   1.279
13895TIP3    H141642   0.113   0.512   1.313
13895TIP3    H241643   0.209   0.502   1.196
13896TIP3   OH241644   0.689   0.621   1.023
13896TIP3    H141645   0.637   0.691   0.983
13896TIP3    H241646   0.741   0.586   0.951
13897TIP3   OH241647   0.842   0.639   1.255
13897TIP3    H141648   0.779   0.672   1.191
13897TIP3    H241649   0.877   0.560   1.215
13898TIP3   OH241650   0.178   0.153   0.703
13898TIP3    H141651   0.172   0.149   0.798
13898TIP3    H241652   0.102   0.205   0.676
13899TIP3   OH241653   8.204   0.184   1.089
13899TIP3    H141654   8.250   0.220   1.013
13899TIP3    H241655   8.138   0.251   1.110
13900TIP3   OH241656   0.868   0.915   1.632
13900TIP3    H141657   0.885   0.825   1.606
13900TIP3    H241658   0.836   0.908   1.722
13901TIP3   OH241659   0.561   0.370   1.332
13901TIP3    H141660   0.471   0.365   1.363
13901TIP3    H241661   0.614   0.365   1.412
13902TIP3   OH241662   8.483   0.403   1.344
13902TIP3    H141663   8.395   0.430   1.319
13902TIP3    H241664   8.469   0.330   1.405
13903TIP3   OH241665   0.224   0.399   1.052
13903TIP3    H141666   0.315   0.418   1.029
13903TIP3    H241667   0.174   0.423   0.974
13904TIP3   OH241668   1.014   0.421   1.577
13904TIP3    H141669   0.994   0.424   1.670
13904TIP3    H241670   0.945   0.366   1.539
13905TIP3   OH241671   0.070   0.439   0.830
13905TIP3    H141672  -0.004   0.395   0.789
13905TIP3    H241673   0.121   0.474   0.757
13906TIP3   OH241674   1.211   2.109   1.760
13906TIP3    H141675   1.201   2.130   1.667
13906TIP3    H241676   1.234   2.192   1.801
13907TIP3   OH241677   0.610   0.688   1.440
13907TIP3    H141678   0.675   0.644   1.386
13907TIP3    H241679   0.626   0.656   1.529
13908TIP3   OH241680   0.159   0.137   1.337
13908TIP3    H141681   0.083   0.080   1.349
13908TIP3    H241682   0.170   0.142   1.242
13909TIP3   OH241683   0.315   0.966   0.839
13909TIP3    H141684   0.246   0.901   0.826
13909TIP3    H241685   0.298   1.002   0.926
13910TIP3   OH241686   1.218   1.204   1.463
13910TIP3    H141687   1.241   1.256   1.387
13910TIP3    H241688   1.134   1.165   1.440
13911TIP3   OH241689   0.772   0.280   0.703
13911TIP3    H141690   0.679   0.259   0.714
13911TIP3    H241691   0.779   0.371   0.731
13912TIP3   OH241692   0.844   0.529   0.807
13912TIP3    H141693   0.938   0.535   0.825
13912TIP3    H241694   0.824   0.609   0.758
13913TIP3   OH241695   0.025   1.019   1.501
13913TIP3    H141696   0.060   0.990   1.416
13913TIP3    H241697  -0.008   0.939   1.541
13914TIP3   OH241698   0.458   1.117   0.661
13914TIP3    H141699   0.413   1.201   0.664
13914TIP3    H241700   0.408   1.061   0.721
13915TIP3   OH241701   0.882   1.524   1.770
13915TIP3    H141702   0.803   1.567   1.738
13915TIP3    H241703   0.920   1.588   1.830
13916TIP3   OH241704   1.281   0.621   0.639
13916TIP3    H141705   1.222   0.575   0.580
13916TIP3    H241706   1.283   0.711   0.606
13917TIP3   OH241707   1.496   1.493   1.718
13917TIP3    H141708   1.403   1.477   1.705
13917TIP3    H241709   1.538   1.454   1.642
13918TIP3   OH241710   0.988   1.436   0.552
13918TIP3    H141711   0.958   1.376   0.620
13918TIP3    H241712   0.995   1.381   0.473
13919TIP3   OH241713   0.984   1.073   1.371
13919TIP3    H141714   0.895   1.048   1.397
13919TIP3    H241715   1.020   0.993   1.333
13920TIP3   OH241716   0.110   1.296   1.134
13920TIP3    H141717   0.104   1.377   1.083
13920TIP3    H241718   0.019   1.275   1.155
13921TIP3   OH241719   8.169   0.600   0.850
13921TIP3    H141720   8.220   0.679   0.869
13921TIP3    H241721   8.097   0.602   0.913
13922TIP3   OH241722   0.247   1.063   1.078
13922TIP3    H141723   0.213   1.149   1.100
13922TIP3    H241724   0.216   1.006   1.149
13923TIP3   OH241725   0.374   1.645   1.593
13923TIP3    H141726   0.428   1.713   1.553
13923TIP3    H241727   0.437   1.588   1.638
13924TIP3   OH241728   0.026   1.539   0.990
13924TIP3    H141729  -0.058   1.543   1.036
13924TIP3    H241730   0.059   1.628   0.993
13925TIP3   OH241731   0.773   1.272   1.573
13925TIP3    H141732   0.794   1.268   1.666
13925TIP3    H241733   0.847   1.230   1.530
13926TIP3   OH241734   0.749   1.165   0.447
13926TIP3    H141735   0.804   1.141   0.522
13926TIP3    H241736   0.661   1.138   0.471
13927TIP3   OH241737   1.008   1.800   1.611
13927TIP3    H141738   0.924   1.757   1.594
13927TIP3    H241739   1.010   1.872   1.548
13928TIP3   OH241740   1.084   1.646   0.266
13928TIP3    H141741   1.128   1.724   0.233
13928TIP3    H241742   1.001   1.679   0.301
13929TIP3   OH241743   0.910   1.091   0.658
13929TIP3    H141744   0.892   1.034   0.733
13929TIP3    H241745   1.005   1.093   0.652
13930TIP3   OH241746   0.106   1.143   0.453
13930TIP3    H141747   0.121   1.053   0.426
13930TIP3    H241748   0.088   1.137   0.547
13931TIP3   OH241749   0.051   1.153   0.724
13931TIP3    H141750   0.122   1.120   0.781
13931TIP3    H241751   0.056   1.248   0.733
13932TIP3   OH241752   8.281   0.843   0.928
13932TIP3    H141753   8.218   0.886   0.986
13932TIP3    H241754   8.300   0.909   0.861
13933TIP3   OH241755   0.827   0.228   0.985
13933TIP3    H141756   0.809   0.250   0.893
13933TIP3    H241757   0.862   0.309   1.022
13934TIP3   OH241758   0.318   1.349   0.669
13934TIP3    H141759   0.234   1.368   0.710
13934TIP3    H241760   0.336   1.426   0.614
13935TIP3   OH241761   0.511   0.419   1.070
13935TIP3    H141762   0.570   0.491   1.048
13935TIP3    H241763   0.521   0.407   1.164
13936TIP3   OH241764   0.654   0.146   1.183
13936TIP3    H141765   0.636   0.226   1.233
13936TIP3    H241766   0.717   0.173   1.116
13937TIP3   OH241767   0.066   1.426   0.742
13937TIP3    H141768   0.036   1.493   0.681
13937TIP3    H241769   0.050   1.464   0.829
13938TIP3   OH241770   0.166   0.139   0.979
13938TIP3    H141771   0.160   0.228   1.013
13938TIP3    H241772   0.259   0.117   0.985
13939TIP3   OH241773   1.068   0.821   1.264
13939TIP3    H141774   0.991   0.766   1.274
13939TIP3    H241775   1.137   0.776   1.312
13940TIP3   OH241776   8.286   1.050   0.728
13940TIP3    H141777   8.354   1.116   0.742
13940TIP3    H241778   8.325   0.989   0.665
13941TIP3   OH241779   8.229   0.331   0.857
13941TIP3    H141780   8.225   0.426   0.862
13941TIP3    H241781   8.142   0.305   0.827
13942TIP3   OH241782   1.039   1.784   1.207
13942TIP3    H141783   0.994   1.827   1.135
13942TIP3    H241784   1.132   1.800   1.191
13943TIP3   OH241785   8.146   1.265   1.115
13943TIP3    H141786   8.084   1.297   1.181
13943TIP3    H241787   8.117   1.306   1.033
13944TIP3   OH241788   0.270   1.344   0.360
13944TIP3    H141789   0.212   1.278   0.401
13944TIP3    H241790   0.347   1.294   0.334
13945TIP3   OH241791   0.710   1.386   0.276
13945TIP3    H141792   0.744   1.321   0.337
13945TIP3    H241793   0.768   1.382   0.200
13946TIP3   OH241794   8.422   0.863   0.588
13946TIP3    H141795   8.472   0.831   0.662
13946TIP3    H241796   8.485   0.869   0.516
13947TIP3   OH241797   0.435   1.065   0.394
13947TIP3    H141798   0.435   1.079   0.489
13947TIP3    H241799   0.434   0.970   0.384
13948TIP3   OH241800   1.029   1.288   1.733
13948TIP3    H141801   1.120   1.316   1.725
13948TIP3    H241802   0.981   1.368   1.752
13949TIP3   OH241803   0.120   0.772   0.806
13949TIP3    H141804   0.093   0.740   0.892
13949TIP3    H241805   0.157   0.695   0.762
13950TIP3   OH241806   0.227   0.566   0.643
13950TIP3    H141807   0.201   0.574   0.551
13950TIP3    H241808   0.323   0.568   0.641
13951TIP3   OH241809   1.046   0.899   0.309
13951TIP3    H141810   1.033   0.852   0.226
13951TIP3    H241811   1.012   0.986   0.293
13952TIP3   OH241812   0.037   1.630   0.552
13952TIP3    H141813   0.130   1.617   0.536
13952TIP3    H241814   0.007   1.679   0.475
13953TIP3   OH241815   8.015   1.008   0.764
13953TIP3    H141816   8.108   1.030   0.751
13953TIP3    H241817   8.007   0.920   0.727
13954TIP3   OH241818   7.932   1.620   1.177
13954TIP3    H141819   7.865   1.562   1.141
13954TIP3    H241820   7.976   1.568   1.244
13955TIP3   OH241821   8.064   1.476   1.367
13955TIP3    H141822   8.050   1.406   1.431
13955TIP3    H241823   8.114   1.542   1.414
13956TIP3   OH241824   1.293   1.871   1.170
13956TIP3    H141825   1.313   1.903   1.258
13956TIP3    H241826   1.355   1.917   1.114
13957TIP3   OH241827   1.314   1.887   1.451
13957TIP3    H141828   1.275   1.800   1.447
13957TIP3    H241829   1.394   1.875   1.502
13958TIP3   OH241830   1.189   1.081   0.645
13958TIP3    H141831   1.254   1.146   0.617
13958TIP3    H241832   1.227   1.042   0.724
13959TIP3   OH241833   1.311   0.947   0.850
13959TIP3    H141834   1.245   0.906   0.907
13959TIP3    H241835   1.376   0.983   0.910
13960TIP3   OH241836   1.370   1.344   1.278
13960TIP3    H141837   1.420   1.276   1.233
13960TIP3    H241838   1.365   1.416   1.214
13961TIP3   OH241839   1.193   1.640   1.471
13961TIP3    H141840   1.123   1.680   1.523
13961TIP3    H241841   1.147   1.594   1.400
13962TIP3   OH241842   1.249   0.858   0.494
13962TIP3    H141843   1.179   0.856   0.429
13962TIP3    H241844   1.224   0.929   0.553
13963TIP3   OH241845   1.119   0.527   0.444
13963TIP3    H141846   1.073   0.562   0.367
13963TIP3    H241847   1.100   0.433   0.443
13964TIP3   OH241848   1.124   0.806   0.996
13964TIP3    H141849   1.130   0.711   0.985
13964TIP3    H241850   1.109   0.819   1.089
13965TIP3   OH241851   1.384   1.221   1.834
13965TIP3    H141852   1.467   1.173   1.836
13965TIP3    H241853   1.408   1.309   1.805
13966TIP3   OH241854   1.581   1.034   1.856
13966TIP3    H141855   1.517   0.986   1.909
13966TIP3    H241856   1.660   0.980   1.860
13967TIP3   OH241857   1.062   0.262   0.432
13967TIP3    H141858   1.132   0.229   0.488
13967TIP3    H241859   0.988   0.205   0.451
13968TIP3   OH241860   1.124   0.520   0.885
13968TIP3    H141861   1.160   0.433   0.902
13968TIP3    H241862   1.180   0.556   0.815
13969TIP3   OH241863   1.282   0.694   1.391
13969TIP3    H141864   1.365   0.715   1.347
13969TIP3    H241865   1.291   0.732   1.478
13970TIP3   OH241866   1.351   0.844   1.621
13970TIP3    H141867   1.276   0.876   1.672
13970TIP3    H241868   1.383   0.921   1.575
13971TIP3   OH241869   1.229   0.270   0.926
13971TIP3    H141870   1.277   0.257   1.008
13971TIP3    H241871   1.168   0.197   0.923
13972TIP3   OH241872   1.309   0.203   0.560
13972TIP3    H141873   1.345   0.133   0.505
13972TIP3    H241874   1.375   0.273   0.557
13973TIP3   OH241875   8.213   0.018   1.300
13973TIP3    H141876   8.189   0.069   1.378
13973TIP3    H241877   8.222   0.084   1.231
13974TIP3   OH241878   0.874   1.740   0.823
13974TIP3    H141879   0.928   1.732   0.744
13974TIP3    H241880   0.922   1.802   0.878
13975TIP3   OH241881   0.151   1.598   1.759
13975TIP3    H141882   0.130   1.674   1.705
13975TIP3    H241883   0.237   1.569   1.729
13976TIP3   OH241884   0.763   1.965   1.728
13976TIP3    H141885   0.853   1.936   1.712
13976TIP3    H241886   0.767   2.009   1.813
13977TIP3   OH241887   0.056   1.824   1.635
13977TIP3    H141888  -0.035   1.833   1.662
13977TIP3    H241889   0.057   1.847   1.542
13978TIP3   OH241890   0.497   1.844   1.436
13978TIP3    H141891   0.424   1.854   1.374
13978TIP3    H241892   0.505   1.930   1.477
13979TIP3   OH241893   0.761   1.766   1.486
13979TIP3    H141894   0.669   1.790   1.470
13979TIP3    H241895   0.811   1.841   1.453
13980TIP3   OH241896   0.962   1.964   1.401
13980TIP3    H141897   0.951   2.048   1.357
13980TIP3    H241898   0.992   1.904   1.333
13981TIP3   OH241899   8.262   1.631   1.499
13981TIP3    H141900   8.277   1.598   1.587
13981TIP3    H241901   8.327   1.587   1.445
13982TIP3   OH241902   8.450   1.496   1.364
13982TIP3    H141903   8.457   1.415   1.414
13982TIP3    H241904   8.538   1.534   1.367
13983TIP3   OH241905   0.210   1.585   1.388
13983TIP3    H141906   0.233   1.492   1.378
13983TIP3    H241907   0.258   1.613   1.466
13984TIP3   OH241908   0.800   0.267   1.485
13984TIP3    H141909   0.725   0.219   1.519
13984TIP3    H241910   0.850   0.202   1.435
13985TIP3   OH241911   1.303   0.133   1.378
13985TIP3    H141912   1.335   0.183   1.304
13985TIP3    H241913   1.207   0.141   1.372
13986TIP3   OH241914   1.397   0.226   1.140
13986TIP3    H141915   1.468   0.174   1.102
13986TIP3    H241916   1.426   0.317   1.129
13987TIP3   OH241917   5.454   7.852   1.106
13987TIP3    H141918   5.501   7.907   1.043
13987TIP3    H241919   5.439   7.909   1.181
13988TIP3   OH241920   0.488   0.011   1.359
13988TIP3    H141921   0.541   0.042   1.286
13988TIP3    H241922   0.504   0.074   1.429
13989TIP3   OH241923   1.027   0.126   1.347
13989TIP3    H141924   1.013   0.093   1.258
13989TIP3    H241925   1.000   0.054   1.404
13990TIP3   OH241926   1.044   0.059   0.919
13990TIP3    H141927   0.962   0.105   0.934
13990TIP3    H241928   1.033  -0.026   0.962
13991TIP3   OH241929   8.027   1.401   0.914
13991TIP3    H141930   7.944   1.366   0.882
13991TIP3    H241931   8.021   1.495   0.896
13992TIP3   OH241932   5.602   8.000   0.898
13992TIP3    H141933   5.646   7.935   0.844
13992TIP3    H241934   5.672   8.053   0.935
13993TIP3   OH241935   0.442   0.163   0.998
13993TIP3    H141936   0.496   0.113   1.059
13993TIP3    H241937   0.463   0.255   1.018
13994TIP3   OH241938   0.303   1.580   0.496
13994TIP3    H141939   0.389   1.605   0.465
13994TIP3    H241940   0.278   1.506   0.441
13995TIP3   OH241941   1.022   1.703   0.591
13995TIP3    H141942   1.015   1.608   0.585
13995TIP3    H241943   0.975   1.736   0.515
13996TIP3   OH241944   8.107   1.421   0.556
13996TIP3    H141945   8.107   1.438   0.650
13996TIP3    H241946   8.192   1.379   0.539
13997TIP3   OH241947   1.237   1.836   1.773
13997TIP3    H141948   1.162   1.818   1.716
13997TIP3    H241949   1.233   1.931   1.787
13998TIP3   OH241950   2.512   1.220   0.542
13998TIP3    H141951   2.488   1.311   0.526
13998TIP3    H241952   2.436   1.170   0.512
13999TIP3   OH241953   2.511   1.219   0.930
13999TIP3    H141954   2.547   1.204   1.017
13999TIP3    H241955   2.470   1.136   0.906
14000TIP3   OH241956   1.812   1.114   1.291
14000TIP3    H141957   1.837   1.045   1.352
14000TIP3    H241958   1.887   1.173   1.290
14001TIP3   OH241959   2.759   1.523   0.613
14001TIP3    H141960   2.743   1.459   0.682
14001TIP3    H241961   2.785   1.603   0.659
14002TIP3   OH241962   1.786   1.522   1.012
14002TIP3    H141963   1.775   1.427   1.015
14002TIP3    H241964   1.880   1.536   1.010
14003TIP3   OH241965   1.489   0.726   0.796
14003TIP3    H141966   1.446   0.809   0.818
14003TIP3    H241967   1.420   0.673   0.758
14004TIP3   OH241968   1.549   1.013   0.976
14004TIP3    H141969   1.595   0.937   1.011
14004TIP3    H241970   1.612   1.055   0.918
14005TIP3   OH241971   2.407   1.982   0.627
14005TIP3    H141972   2.449   1.912   0.577
14005TIP3    H241973   2.404   1.948   0.717
14006TIP3   OH241974   2.315   1.445   0.976
14006TIP3    H141975   2.352   1.369   0.933
14006TIP3    H241976   2.390   1.496   1.005
14007TIP3   OH241977   3.326   0.767   0.977
14007TIP3    H141978   3.351   0.846   1.024
14007TIP3    H241979   3.344   0.787   0.885
14008TIP3   OH241980   2.722   0.943   1.006
14008TIP3    H141981   2.768   0.862   1.028
14008TIP3    H241982   2.691   0.929   0.916
14009TIP3   OH241983   2.065   0.606   0.968
14009TIP3    H141984   2.047   0.680   0.911
14009TIP3    H241985   2.017   0.533   0.929
14010TIP3   OH241986   2.762   0.699   0.593
14010TIP3    H141987   2.828   0.684   0.660
14010TIP3    H241988   2.811   0.734   0.519
14011TIP3   OH241989   1.697   0.807   1.079
14011TIP3    H141990   1.777   0.793   1.129
14011TIP3    H241991   1.708   0.754   1.000
14012TIP3   OH241992   2.137   1.003   0.874
14012TIP3    H141993   2.229   0.982   0.886
14012TIP3    H241994   2.098   0.922   0.842
14013TIP3   OH241995   3.387   0.972   1.155
14013TIP3    H141996   3.308   1.023   1.136
14013TIP3    H241997   3.428   1.016   1.228
14014TIP3   OH241998   2.056   0.595   1.402
14014TIP3    H141999   2.006   0.625   1.326
14014TIP3    H242000   2.007   0.626   1.478
14015TIP3   OH242001   2.401   1.444   0.412
14015TIP3    H142002   2.361   1.428   0.326
14015TIP3    H242003   2.360   1.524   0.444
14016TIP3   OH242004   2.164   1.369   1.199
14016TIP3    H142005   2.105   1.435   1.236
14016TIP3    H242006   2.209   1.414   1.128
14017TIP3   OH242007   2.964   0.704   0.774
14017TIP3    H142008   2.943   0.665   0.859
14017TIP3    H242009   3.014   0.783   0.796
14018TIP3   OH242010   1.933   0.707   1.187
14018TIP3    H142011   1.989   0.780   1.214
14018TIP3    H242012   1.979   0.667   1.113
14019TIP3   OH242013   1.988   1.565   1.298
14019TIP3    H142014   1.970   1.652   1.262
14019TIP3    H242015   1.912   1.546   1.353
14020TIP3   OH242016   1.389   1.257   0.536
14020TIP3    H142017   1.339   1.296   0.463
14020TIP3    H242018   1.425   1.332   0.583
14021TIP3   OH242019   2.806   1.760   0.752
14021TIP3    H142020   2.726   1.753   0.803
14021TIP3    H242021   2.807   1.850   0.720
14022TIP3   OH242022   3.119   0.657   1.135
14022TIP3    H142023   3.034   0.691   1.106
14022TIP3    H242024   3.181   0.693   1.073
14023TIP3   OH242025   2.412   0.313   1.125
14023TIP3    H142026   2.392   0.220   1.128
14023TIP3    H242027   2.339   0.355   1.170
14024TIP3   OH242028   2.527   1.809   0.442
14024TIP3    H142029   2.574   1.727   0.429
14024TIP3    H242030   2.585   1.876   0.406
14025TIP3   OH242031   2.673   1.593   0.361
14025TIP3    H142032   2.627   1.515   0.329
14025TIP3    H242033   2.711   1.564   0.445
14026TIP3   OH242034   3.036   1.667   1.122
14026TIP3    H142035   3.025   1.592   1.063
14026TIP3    H242036   3.018   1.743   1.067
14027TIP3   OH242037   2.341   1.071   0.377
14027TIP3    H142038   2.264   1.125   0.358
14027TIP3    H242039   2.390   1.070   0.294
14028TIP3   OH242040   2.304   0.860   0.090
14028TIP3    H142041   2.366   0.913   0.140
14028TIP3    H242042   2.359   0.797   0.043
14029TIP3   OH242043   3.252   1.323   0.964
14029TIP3    H142044   3.167   1.367   0.975
14029TIP3    H242045   3.278   1.344   0.875
14030TIP3   OH242046   2.693   1.154   0.350
14030TIP3    H142047   2.637   1.178   0.423
14030TIP3    H242048   2.777   1.132   0.389
14031TIP3   OH242049   2.918   1.181   1.256
14031TIP3    H142050   2.933   1.254   1.316
14031TIP3    H242051   2.837   1.203   1.211
14032TIP3   OH242052   1.925   1.149   0.766
14032TIP3    H142053   1.885   1.093   0.700
14032TIP3    H242054   2.001   1.099   0.797
14033TIP3   OH242055   2.056   1.562   0.914
14033TIP3    H142056   2.037   1.527   0.827
14033TIP3    H242057   2.144   1.529   0.934
14034TIP3   OH242058   2.061   1.125   1.118
14034TIP3    H142059   2.094   1.101   1.031
14034TIP3    H242060   2.103   1.209   1.138
14035TIP3   OH242061   2.579   1.759   0.897
14035TIP3    H142062   2.571   1.842   0.944
14035TIP3    H242063   2.568   1.692   0.965
14036TIP3   OH242064   2.195   1.677   1.445
14036TIP3    H142065   2.136   1.738   1.489
14036TIP3    H242066   2.138   1.624   1.391
14037TIP3   OH242067   2.531   1.016   0.174
14037TIP3    H142068   2.587   1.074   0.225
14037TIP3    H242069   2.556   1.033   0.083
14038TIP3   OH242070   1.953   1.234   1.541
14038TIP3    H142071   1.956   1.320   1.581
14038TIP3    H242072   1.861   1.206   1.549
14039TIP3   OH242073   2.277   1.691   0.448
14039TIP3    H142074   2.359   1.738   0.459
14039TIP3    H242075   2.216   1.757   0.413
14040TIP3   OH242076   1.985   1.827   1.527
14040TIP3    H142077   1.952   1.846   1.439
14040TIP3    H242078   1.908   1.825   1.583
14041TIP3   OH242079   3.046   0.254   0.225
14041TIP3    H142080   2.966   0.273   0.274
14041TIP3    H242081   3.063   0.333   0.174
14042TIP3   OH242082   1.790   0.994   0.566
14042TIP3    H142083   1.722   1.036   0.514
14042TIP3    H242084   1.755   0.907   0.585
14043TIP3   OH242085   5.682   5.627   6.712
14043TIP3    H142086   5.687   5.722   6.699
14043TIP3    H242087   5.772   5.597   6.700
14044TIP3   OH242088   1.568   1.382   1.480
14044TIP3    H142089   1.500   1.363   1.416
14044TIP3    H242090   1.607   1.296   1.499
14045TIP3   OH242091   1.427   1.576   1.107
14045TIP3    H142092   1.522   1.568   1.102
14045TIP3    H242093   1.413   1.651   1.165
14046TIP3   OH242094   2.386   1.809   1.299
14046TIP3    H142095   2.388   1.899   1.332
14046TIP3    H242096   2.321   1.765   1.353
14047TIP3   OH242097   2.157   1.936   0.254
14047TIP3    H142098   2.113   1.923   0.170
14047TIP3    H242099   2.127   2.022   0.283
14048TIP3   OH242100   1.594   1.784   0.644
14048TIP3    H142101   1.647   1.781   0.724
14048TIP3    H242102   1.535   1.709   0.651
14049TIP3   OH242103   5.191   5.845   6.833
14049TIP3    H142104   5.248   5.777   6.797
14049TIP3    H242105   5.224   5.858   6.922
14050TIP3   OH242106   2.407   1.888   0.163
14050TIP3    H142107   2.321   1.896   0.203
14050TIP3    H242108   2.464   1.856   0.234
14051TIP3   OH242109   3.206   1.156   1.407
14051TIP3    H142110   3.117   1.190   1.412
14051TIP3    H242111   3.196   1.061   1.411
14052TIP3   OH242112   1.770   1.562   1.464
14052TIP3    H142113   1.817   1.544   1.545
14052TIP3    H242114   1.695   1.503   1.466
14053TIP3   OH242115   2.174   0.383   1.254
14053TIP3    H142116   2.089   0.352   1.223
14053TIP3    H242117   2.154   0.465   1.299
14054TIP3   OH242118   2.709   0.499   1.448
14054TIP3    H142119   2.772   0.476   1.516
14054TIP3    H242120   2.624   0.485   1.489
14055TIP3   OH242121   2.938   0.927   1.362
14055TIP3    H142122   2.890   0.932   1.445
14055TIP3    H242123   2.926   1.013   1.322
14056TIP3   OH242124   5.441   5.062   6.858
14056TIP3    H142125   5.405   5.040   6.772
14056TIP3    H242126   5.523   5.108   6.838
14057TIP3   OH242127   2.317   0.430   0.225
14057TIP3    H142128   2.284   0.429   0.315
14057TIP3    H242129   2.280   0.351   0.185
14058TIP3   OH242130   2.103   0.904   1.268
14058TIP3    H142131   2.057   0.925   1.350
14058TIP3    H242132   2.091   0.982   1.213
14059TIP3   OH242133   1.989   0.785   0.782
14059TIP3    H142134   1.899   0.762   0.804
14059TIP3    H242135   2.003   0.746   0.695
14060TIP3   OH242136   2.480   0.871   0.510
14060TIP3    H142137   2.430   0.942   0.470
14060TIP3    H242138   2.536   0.838   0.439
14061TIP3   OH242139   2.642   1.149   1.589
14061TIP3    H142140   2.637   1.084   1.659
14061TIP3    H242141   2.722   1.198   1.607
14062TIP3   OH242142   2.634   0.896   0.748
14062TIP3    H142143   2.573   0.931   0.682
14062TIP3    H242144   2.672   0.819   0.706
14063TIP3   OH242145   1.927   0.934   1.477
14063TIP3    H142146   1.958   1.000   1.539
14063TIP3    H242147   1.914   0.855   1.531
14064TIP3   OH242148   1.973   0.409   0.189
14064TIP3    H142149   1.967   0.406   0.285
14064TIP3    H242150   1.897   0.461   0.162
14065TIP3   OH242151   1.520   0.449   1.060
14065TIP3    H142152   1.593   0.482   1.112
14065TIP3    H242153   1.559   0.421   0.978
14066TIP3   OH242154   1.486   0.433   0.576
14066TIP3    H142155   1.533   0.467   0.500
14066TIP3    H242156   1.424   0.503   0.598
14067TIP3   OH242157   2.631   1.141   1.166
14067TIP3    H142158   2.674   1.075   1.110
14067TIP3    H242159   2.607   1.092   1.245
14068TIP3   OH242160   2.321   0.602   0.845
14068TIP3    H142161   2.240   0.606   0.896
14068TIP3    H242162   2.391   0.610   0.910
14069TIP3   OH242163   1.750   0.665   0.851
14069TIP3    H142164   1.659   0.675   0.823
14069TIP3    H242165   1.773   0.575   0.829
14070TIP3   OH242166   2.017   0.659   0.541
14070TIP3    H142167   2.110   0.675   0.521
14070TIP3    H242168   1.971   0.682   0.460
14071TIP3   OH242169   2.808   0.682   1.045
14071TIP3    H142170   2.781   0.699   1.135
14071TIP3    H242171   2.739   0.625   1.010
14072TIP3   OH242172   1.867   0.695   0.315
14072TIP3    H142173   1.795   0.650   0.270
14072TIP3    H242174   1.919   0.733   0.245
14073TIP3   OH242175   1.918   1.476   1.689
14073TIP3    H142176   2.002   1.513   1.715
14073TIP3    H242177   1.880   1.445   1.771
14074TIP3   OH242178   2.401   0.934   0.938
14074TIP3    H142179   2.477   0.904   0.890
14074TIP3    H242180   2.411   0.896   1.026
14075TIP3   OH242181   1.921   0.422   0.824
14075TIP3    H142182   1.884   0.348   0.872
14075TIP3    H242183   1.962   0.383   0.747
14076TIP3   OH242184   2.376   0.835   1.239
14076TIP3    H142185   2.289   0.875   1.247
14076TIP3    H242186   2.434   0.898   1.282
14077TIP3   OH242187   2.110   1.223   0.326
14077TIP3    H142188   2.040   1.159   0.313
14077TIP3    H242189   2.094   1.258   0.414
14078TIP3   OH242190   3.014   1.453   0.949
14078TIP3    H142191   3.037   1.510   0.876
14078TIP3    H242192   2.929   1.417   0.924
14079TIP3   OH242193   2.570   0.534   0.195
14079TIP3    H142194   2.476   0.516   0.202
14079TIP3    H242195   2.578   0.627   0.217
14080TIP3   OH242196   2.498   1.542   1.326
14080TIP3    H142197   2.518   1.524   1.418
14080TIP3    H242198   2.468   1.633   1.325
14081TIP3   OH242199   2.641   0.787   0.294
14081TIP3    H142200   2.735   0.792   0.311
14081TIP3    H242201   2.621   0.866   0.244
14082TIP3   OH242202   1.806   1.244   1.000
14082TIP3    H142203   1.845   1.218   0.917
14082TIP3    H242204   1.851   1.190   1.065
14083TIP3   OH242205   2.256   1.374   0.149
14083TIP3    H142206   2.210   1.458   0.150
14083TIP3    H242207   2.206   1.319   0.209
14084TIP3   OH242208   1.692   1.167   1.603
14084TIP3    H142209   1.722   1.162   1.694
14084TIP3    H242210   1.614   1.110   1.602
14085TIP3   OH242211   2.400   1.278   1.618
14085TIP3    H142212   2.347   1.214   1.571
14085TIP3    H242213   2.490   1.247   1.609
14086TIP3   OH242214   2.663   1.794   1.218
14086TIP3    H142215   2.568   1.799   1.227
14086TIP3    H242216   2.697   1.840   1.295
14087TIP3   OH242217   3.079   0.880   0.125
14087TIP3    H142218   3.019   0.833   0.067
14087TIP3    H242219   3.079   0.969   0.092
14088TIP3   OH242220   3.296   1.677   1.186
14088TIP3    H142221   3.203   1.692   1.169
14088TIP3    H242222   3.339   1.695   1.102
14089TIP3   OH242223   2.785   1.695   0.038
14089TIP3    H142224   2.756   1.629   0.102
14089TIP3    H242225   2.796   1.646  -0.043
14090TIP3   OH242226   2.776   1.323   0.866
14090TIP3    H142227   2.684   1.304   0.883
14090TIP3    H242228   2.810   1.245   0.824
14091TIP3   OH242229   1.909   1.552   0.623
14091TIP3    H142230   1.909   1.633   0.571
14091TIP3    H242231   1.817   1.539   0.646
14092TIP3   OH242232   1.464   0.861   0.323
14092TIP3    H142233   1.516   0.936   0.351
14092TIP3    H242234   1.393   0.856   0.387
14093TIP3   OH242235   2.038   1.314   0.568
14093TIP3    H142236   2.006   1.403   0.585
14093TIP3    H242237   2.007   1.263   0.644
14094TIP3   OH242238   2.181   1.896   1.095
14094TIP3    H142239   2.221   1.966   1.044
14094TIP3    H242240   2.254   1.855   1.141
14095TIP3   OH242241   1.824   1.794   0.478
14095TIP3    H142242   1.741   1.800   0.525
14095TIP3    H242243   1.859   1.883   0.481
14096TIP3   OH242244   2.562   1.524   1.061
14096TIP3    H142245   2.549   1.525   1.156
14096TIP3    H242246   2.649   1.486   1.049
14097TIP3   OH242247   5.375   5.429   6.882
14097TIP3    H142248   5.431   5.404   6.956
14097TIP3    H242249   5.286   5.404   6.910
14098TIP3   OH242250   2.773   2.086   1.140
14098TIP3    H142251   2.741   2.002   1.107
14098TIP3    H242252   2.802   2.134   1.063
14099TIP3   OH242253   5.710   5.904   6.697
14099TIP3    H142254   5.744   5.972   6.639
14099TIP3    H242255   5.632   5.942   6.736
14100TIP3   OH242256   1.879   0.677   1.602
14100TIP3    H142257   1.785   0.694   1.610
14100TIP3    H242258   1.889   0.585   1.628
14101TIP3   OH242259   2.705   1.349   0.151
14101TIP3    H142260   2.690   1.289   0.224
14101TIP3    H242261   2.800   1.351   0.140
14102TIP3   OH242262   1.615   1.756   1.255
14102TIP3    H142263   1.670   1.690   1.296
14102TIP3    H242264   1.638   1.838   1.299
14103TIP3   OH242265   4.735   5.407   6.881
14103TIP3    H142266   4.753   5.317   6.854
14103TIP3    H242267   4.717   5.401   6.974
14104TIP3   OH242268   1.848   1.409   0.213
14104TIP3    H142269   1.922   1.380   0.266
14104TIP3    H242270   1.850   1.504   0.219
14105TIP3   OH242271   1.580   1.101   0.415
14105TIP3    H142272   1.518   1.145   0.473
14105TIP3    H242273   1.603   1.168   0.350
14106TIP3   OH242274   2.740   0.734   1.303
14106TIP3    H142275   2.817   0.780   1.337
14106TIP3    H242276   2.730   0.658   1.360
14107TIP3   OH242277   2.618   0.486   0.475
14107TIP3    H142278   2.604   0.505   0.382
14107TIP3    H242279   2.656   0.566   0.511
14108TIP3   OH242280   2.112   1.603   0.156
14108TIP3    H142281   2.028   1.626   0.196
14108TIP3    H242282   2.136   1.680   0.104
14109TIP3   OH242283   2.302   0.671   0.576
14109TIP3    H142284   2.364   0.741   0.556
14109TIP3    H242285   2.308   0.660   0.671
14110TIP3   OH242286   2.572   0.983   1.378
14110TIP3    H142287   2.592   1.039   1.453
14110TIP3    H242288   2.630   0.907   1.390
14111TIP3   OH242289   2.446   0.391   0.673
14111TIP3    H142290   2.434   0.466   0.731
14111TIP3    H242291   2.508   0.422   0.607
14112TIP3   OH242292   1.858   1.681   0.229
14112TIP3    H142293   1.831   1.749   0.167
14112TIP3    H242294   1.845   1.720   0.315
14113TIP3   OH242295   1.963   0.397   0.466
14113TIP3    H142296   1.957   0.485   0.502
14113TIP3    H242297   2.056   0.375   0.471
14114TIP3   OH242298   3.205   0.875   1.372
14114TIP3    H142299   3.109   0.875   1.364
14114TIP3    H242300   3.236   0.863   1.282
14115TIP3   OH242301   2.865   1.077   0.749
14115TIP3    H142302   2.789   1.021   0.763
14115TIP3    H242303   2.936   1.034   0.797
14116TIP3   OH242304   1.583   1.310   0.214
14116TIP3    H142305   1.650   1.376   0.231
14116TIP3    H242306   1.623   1.251   0.151
14117TIP3   OH242307   1.517   0.590   0.353
14117TIP3    H142308   1.517   0.685   0.346
14117TIP3    H242309   1.438   0.563   0.306
14118TIP3   OH242310   2.833   2.030   0.694
14118TIP3    H142311   2.791   2.077   0.622
14118TIP3    H242312   2.926   2.048   0.684
14119TIP3   OH242313   1.911   0.306   1.221
14119TIP3    H142314   1.880   0.275   1.136
14119TIP3    H242315   1.899   0.231   1.279
14120TIP3   OH242316   1.441   1.516   0.604
14120TIP3    H142317   1.382   1.550   0.672
14120TIP3    H242318   1.412   1.560   0.524
14121TIP3   OH242319   1.611   2.051   1.662
14121TIP3    H142320   1.694   2.019   1.698
14121TIP3    H242321   1.555   1.974   1.658
14122TIP3   OH242322   4.899   5.609   6.786
14122TIP3    H142323   4.845   5.540   6.826
14122TIP3    H242324   4.976   5.562   6.755
14123TIP3   OH242325   2.712   1.909   1.467
14123TIP3    H142326   2.720   1.856   1.547
14123TIP3    H242327   2.781   1.974   1.475
14124TIP3   OH242328   5.337   5.649   6.702
14124TIP3    H142329   5.378   5.588   6.762
14124TIP3    H242330   5.393   5.647   6.624
14125TIP3   OH242331   1.714   1.118   0.073
14125TIP3    H142332   1.766   1.088   0.148
14125TIP3    H242333   1.777   1.124   0.001
14126TIP3   OH242334   2.373   1.554   1.635
14126TIP3    H142335   2.310   1.581   1.568
14126TIP3    H242336   2.372   1.458   1.633
14127TIP3   OH242337   5.058   5.326   6.822
14127TIP3    H142338   5.063   5.341   6.916
14127TIP3    H242339   5.060   5.231   6.813
14128TIP3   OH242340   2.822   1.568   1.257
14128TIP3    H142341   2.904   1.601   1.221
14128TIP3    H242342   2.758   1.637   1.241
14129TIP3   OH242343   1.869   1.166   1.831
14129TIP3    H142344   1.962   1.148   1.818
14129TIP3    H242345   1.854   1.153   1.924
14130TIP3   OH242346   1.914   1.027   0.290
14130TIP3    H142347   1.893   0.990   0.375
14130TIP3    H242348   1.954   0.955   0.242
14131TIP3   OH242349   2.190   1.086   1.515
14131TIP3    H142350   2.116   1.146   1.519
14131TIP3    H242351   2.242   1.116   1.441
14132TIP3   OH242352   2.025   0.824   0.131
14132TIP3    H142353   1.999   0.830   0.039
14132TIP3    H242354   2.121   0.824   0.128
14133TIP3   OH242355   5.673   5.158   6.738
14133TIP3    H142356   5.656   5.111   6.656
14133TIP3    H242357   5.642   5.247   6.722
14134TIP3   OH242358   2.318   0.881   1.646
14134TIP3    H142359   2.320   0.804   1.590
14134TIP3    H242360   2.274   0.948   1.593
14135TIP3   OH242361   2.317   0.666   1.455
14135TIP3    H142362   2.347   0.712   1.377
14135TIP3    H242363   2.225   0.645   1.436
14136TIP3   OH242364   2.339   1.195   1.321
14136TIP3    H142365   2.427   1.215   1.288
14136TIP3    H242366   2.283   1.262   1.281
14137TIP3   OH242367   2.955   1.387   1.419
14137TIP3    H142368   2.897   1.453   1.381
14137TIP3    H242369   3.043   1.421   1.402
14138TIP3   OH242370   2.138   0.996   1.853
14138TIP3    H142371   2.094   0.912   1.844
14138TIP3    H242372   2.211   0.992   1.790
14139TIP3   OH242373   2.448   0.430   1.524
14139TIP3    H142374   2.402   0.512   1.504
14139TIP3    H242375   2.382   0.362   1.516
14140TIP3   OH242376   2.574   0.926   1.744
14140TIP3    H142377   2.562   0.920   1.838
14140TIP3    H242378   2.489   0.906   1.707
14141TIP3   OH242379   2.803   0.878   1.599
14141TIP3    H142380   2.720   0.886   1.645
14141TIP3    H242381   2.866   0.857   1.667
14142TIP3   OH242382   2.036   0.734   1.906
14142TIP3    H142383   2.113   0.695   1.865
14142TIP3    H242384   2.061   0.746   1.998
14143TIP3   OH242385   2.553   0.411   1.780
14143TIP3    H142386   2.621   0.347   1.758
14143TIP3    H242387   2.508   0.426   1.697
14144TIP3   OH242388   1.831   1.879   0.035
14144TIP3    H142389   1.926   1.869   0.023
14144TIP3    H242390   1.804   1.934  -0.038
14145TIP3   OH242391   1.314   1.276   0.245
14145TIP3    H142392   1.406   1.302   0.239
14145TIP3    H242393   1.317   1.180   0.252
14146TIP3   OH242394   1.228   1.872   0.673
14146TIP3    H142395   1.161   1.815   0.634
14146TIP3    H242396   1.272   1.816   0.737
14147TIP3   OH242397   1.365   1.719   0.858
14147TIP3    H142398   1.350   1.651   0.923
14147TIP3    H242399   1.416   1.786   0.903
14148TIP3   OH242400   3.087   2.118   0.673
14148TIP3    H142401   3.091   2.179   0.747
14148TIP3    H242402   3.142   2.158   0.606
14149TIP3   OH242403   2.983   1.336   0.132
14149TIP3    H142404   3.046   1.402   0.101
14149TIP3    H242405   3.024   1.299   0.210
14150TIP3   OH242406   3.108   1.203   0.337
14150TIP3    H142407   3.041   1.163   0.393
14150TIP3    H242408   3.171   1.241   0.399
14151TIP3   OH242409   3.166   1.598   0.767
14151TIP3    H142410   3.213   1.532   0.716
14151TIP3    H242411   3.153   1.670   0.707
14152TIP3   OH242412   2.995   1.868   0.954
14152TIP3    H142413   3.004   1.961   0.975
14152TIP3    H242414   2.929   1.865   0.885
14153TIP3   OH242415   5.876   5.122   6.920
14153TIP3    H142416   5.807   5.120   6.853
14153TIP3    H242417   5.851   5.195   6.977
14154TIP3   OH242418   5.749   4.790   6.872
14154TIP3    H142419   5.703   4.828   6.797
14154TIP3    H242420   5.728   4.697   6.868
14155TIP3   OH242421   2.919   1.063   0.482
14155TIP3    H142422   2.928   0.968   0.473
14155TIP3    H242423   2.905   1.077   0.575
14156TIP3   OH242424   1.547   1.132   1.227
14156TIP3    H142425   1.541   1.101   1.137
14156TIP3    H242426   1.641   1.135   1.246
14157TIP3   OH242427   3.200   1.462   1.324
14157TIP3    H142428   3.283   1.432   1.361
14157TIP3    H242429   3.223   1.539   1.272
14158TIP3   OH242430   3.427   1.304   1.386
14158TIP3    H142431   3.341   1.266   1.402
14158TIP3    H242432   3.486   1.229   1.379
14159TIP3   OH242433   5.692   4.525   6.859
14159TIP3    H142434   5.763   4.494   6.915
14159TIP3    H242435   5.619   4.467   6.879
14160TIP3   OH242436   2.920   0.777   0.372
14160TIP3    H142437   2.957   0.690   0.389
14160TIP3    H242438   2.975   0.813   0.303
14161TIP3   OH242439   3.079   0.949   0.872
14161TIP3    H142440   3.161   0.970   0.828
14161TIP3    H242441   3.088   0.988   0.959
14162TIP3   OH242442   3.145   1.099   1.097
14162TIP3    H142443   3.071   1.128   1.152
14162TIP3    H242444   3.179   1.179   1.059
14163TIP3   OH242445   3.027   0.527   0.414
14163TIP3    H142446   3.075   0.514   0.496
14163TIP3    H242447   2.966   0.454   0.410
14164TIP3   OH242448   1.729   0.516   1.231
14164TIP3    H142449   1.787   0.440   1.240
14164TIP3    H242450   1.788   0.590   1.222
14165TIP3   OH242451   1.531   0.784   1.308
14165TIP3    H142452   1.577   0.785   1.224
14165TIP3    H242453   1.546   0.872   1.344
14166TIP3   OH242454   3.451   0.823   1.474
14166TIP3    H142455   3.361   0.853   1.461
14166TIP3    H242456   3.457   0.742   1.424
14167TIP3   OH242457   3.105   0.459   0.047
14167TIP3    H142458   3.142   0.390  -0.009
14167TIP3    H242459   3.171   0.529   0.044
14168TIP3   OH242460   1.512   0.292   0.807
14168TIP3    H142461   1.421   0.284   0.836
14168TIP3    H242462   1.506   0.348   0.729
14169TIP3   OH242463   2.668   1.995   0.308
14169TIP3    H142464   2.725   1.989   0.231
14169TIP3    H242465   2.713   2.057   0.366
14170TIP3   OH242466   1.746   0.402   1.587
14170TIP3    H142467   1.700   0.352   1.654
14170TIP3    H242468   1.676   0.440   1.533
14171TIP3   OH242469   1.766   1.808   1.707
14171TIP3    H142470   1.679   1.784   1.674
14171TIP3    H242471   1.778   1.756   1.786
14172TIP3   OH242472   1.952   1.836   1.238
14172TIP3    H142473   1.902   1.910   1.204
14172TIP3    H242474   2.039   1.845   1.200
14173TIP3   OH242475   2.408   2.074   1.394
14173TIP3    H142476   2.466   2.052   1.467
14173TIP3    H242477   2.461   2.130   1.337
14174TIP3   OH242478   2.581   2.233   1.250
14174TIP3    H142479   2.637   2.167   1.209
14174TIP3    H242480   2.631   2.315   1.242
14175TIP3   OH242481   3.370   0.587   1.336
14175TIP3    H142482   3.283   0.590   1.296
14175TIP3    H242483   3.399   0.496   1.324
14176TIP3   OH242484   1.623   2.084   1.279
14176TIP3    H142485   1.536   2.113   1.251
14176TIP3    H242486   1.644   2.141   1.352
14177TIP3   OH242487   1.860   2.068   1.128
14177TIP3    H142488   1.776   2.079   1.173
14177TIP3    H242489   1.845   2.105   1.041
14178TIP3   OH242490   2.282   2.099   0.925
14178TIP3    H142491   2.214   2.116   0.860
14178TIP3    H242492   2.296   2.184   0.967
14179TIP3   OH242493   2.549   2.025   0.967
14179TIP3    H142494   2.461   2.057   0.948
14179TIP3    H242495   2.607   2.096   0.940
14180TIP3   OH242496   2.745   2.215   0.888
14180TIP3    H142497   2.738   2.300   0.846
14180TIP3    H242498   2.782   2.157   0.821
14181TIP3   OH242499   1.539   1.877   1.011
14181TIP3    H142500   1.559   1.854   1.102
14181TIP3    H242501   1.610   1.838   0.960
14182TIP3   OH242502   1.737   1.752   0.872
14182TIP3    H142503   1.748   1.671   0.921
14182TIP3    H242504   1.824   1.790   0.869
14183TIP3   OH242505   2.000   1.843   0.881
14183TIP3    H142506   2.031   1.753   0.869
14183TIP3    H242507   2.045   1.873   0.960
14184TIP3   OH242508   2.579   0.505   0.965
14184TIP3    H142509   2.534   0.436   1.013
14184TIP3    H242510   2.650   0.460   0.919
14185TIP3   OH242511   3.093   0.382   0.863
14185TIP3    H142512   3.131   0.434   0.793
14185TIP3    H242513   2.999   0.404   0.861
14186TIP3   OH242514   3.192   0.483   0.628
14186TIP3    H142515   3.263   0.430   0.591
14186TIP3    H242516   3.221   0.573   0.617
14187TIP3   OH242517   1.818   0.210   0.976
14187TIP3    H142518   1.727   0.183   0.980
14187TIP3    H242519   1.867   0.128   0.970
14188TIP3   OH242520   1.614   0.086   0.629
14188TIP3    H142521   1.641   0.139   0.554
14188TIP3    H242522   1.585   0.149   0.694
14189TIP3   OH242523   2.273   0.242   0.860
14189TIP3    H142524   2.323   0.286   0.791
14189TIP3    H242525   2.285   0.297   0.937
14190TIP3   OH242526   2.806   0.388   0.841
14190TIP3    H142527   2.812   0.353   0.753
14190TIP3    H242528   2.796   0.311   0.897
14191TIP3   OH242529   2.841   0.316   0.406
14191TIP3    H142530   2.757   0.361   0.420
14191TIP3    H242531   2.829   0.231   0.448
14192TIP3   OH242532   1.325   1.655   0.403
14192TIP3    H142533   1.240   1.625   0.370
14192TIP3    H242534   1.322   1.750   0.390
14193TIP3   OH242535   1.731   0.241   0.386
14193TIP3    H142536   1.775   0.177   0.330
14193TIP3    H242537   1.802   0.293   0.423
14194TIP3   OH242538   2.239   0.420   0.490
14194TIP3    H142539   2.298   0.370   0.545
14194TIP3    H242540   2.257   0.512   0.511
14195TIP3   OH242541   4.933   5.843   6.925
14195TIP3    H142542   5.019   5.870   6.894
14195TIP3    H242543   4.908   5.770   6.869
14196TIP3   OH242544   2.819   1.961   0.079
14196TIP3    H142545   2.812   1.866   0.073
14196TIP3    H242546   2.772   1.994   0.003
14197TIP3   OH242547   1.396   1.664   0.045
14197TIP3    H142548   1.402   1.696   0.135
14197TIP3    H242549   1.483   1.628   0.027
14198TIP3   OH242550   4.304   1.476   0.028
14198TIP3    H142551   4.276   1.566   0.011
14198TIP3    H242552   4.232   1.423  -0.007
14199TIP3   OH242553   4.264   1.488   0.446
14199TIP3    H142554   4.314   1.434   0.508
14199TIP3    H242555   4.239   1.427   0.376
14200TIP3   OH242556   3.607   1.341   0.755
14200TIP3    H142557   3.632   1.271   0.815
14200TIP3    H242558   3.657   1.417   0.785
14201TIP3   OH242559   3.585   1.781   0.496
14201TIP3    H142560   3.564   1.687   0.500
14201TIP3    H242561   3.680   1.784   0.506
14202TIP3   OH242562   3.286   0.984   0.282
14202TIP3    H142563   3.241   1.065   0.305
14202TIP3    H242564   3.218   0.930   0.243
14203TIP3   OH242565   3.346   1.269   0.462
14203TIP3    H142566   3.393   1.194   0.498
14203TIP3    H242567   3.403   1.302   0.393
14204TIP3   OH242568   4.098   1.705   0.399
14204TIP3    H142569   4.123   1.612   0.399
14204TIP3    H242570   4.180   1.752   0.414
14205TIP3   OH242571   4.520   1.107   0.468
14205TIP3    H142572   4.467   1.090   0.545
14205TIP3    H242573   4.461   1.151   0.407
14206TIP3   OH242574   3.862   0.862   0.454
14206TIP3    H142575   3.841   0.936   0.397
14206TIP3    H242576   3.814   0.788   0.416
14207TIP3   OH242577   4.581   0.964   0.097
14207TIP3    H142578   4.609   0.873   0.100
14207TIP3    H242579   4.622   0.999   0.017
14208TIP3   OH242580   3.492   1.063   0.564
14208TIP3    H142581   3.571   1.050   0.616
14208TIP3    H242582   3.504   1.008   0.487
14209TIP3   OH242583   3.936   1.261   0.345
14209TIP3    H142584   4.026   1.237   0.369
14209TIP3    H242585   3.895   1.178   0.321
14210TIP3   OH242586   3.848   0.845   0.895
14210TIP3    H142587   3.792   0.884   0.828
14210TIP3    H242588   3.801   0.860   0.977
14211TIP3   OH242589   7.033   5.708   6.841
14211TIP3    H142590   6.997   5.683   6.756
14211TIP3    H242591   6.991   5.791   6.861
14212TIP3   OH242592   3.944   1.619   0.642
14212TIP3    H142593   3.899   1.667   0.712
14212TIP3    H242594   4.008   1.681   0.608
14213TIP3   OH242595   3.726   0.961   0.674
14213TIP3    H142596   3.783   1.031   0.705
14213TIP3    H242597   3.774   0.920   0.602
14214TIP3   OH242598   3.182   1.510   0.020
14214TIP3    H142599   3.139   1.536  -0.061
14214TIP3    H242600   3.213   1.592   0.058
14215TIP3   OH242601   4.199   0.565   0.608
14215TIP3    H142602   4.189   0.471   0.625
14215TIP3    H242603   4.125   0.605   0.655
14216TIP3   OH242604   7.297   5.877   6.761
14216TIP3    H142605   7.256   5.800   6.722
14216TIP3    H242606   7.332   5.845   6.844
14217TIP3   OH242607   6.971   5.338   6.802
14217TIP3    H142608   6.891   5.387   6.788
14217TIP3    H242609   7.012   5.334   6.716
14218TIP3   OH242610   6.935   5.122   6.516
14218TIP3    H142611   6.998   5.177   6.563
14218TIP3    H242612   6.988   5.058   6.470
14219TIP3   OH242613   7.322   5.418   6.778
14219TIP3    H142614   7.264   5.440   6.850
14219TIP3    H242615   7.405   5.396   6.820
14220TIP3   OH242616   3.720   1.406   0.250
14220TIP3    H142617   3.677   1.351   0.184
14220TIP3    H242618   3.796   1.355   0.278
14221TIP3   OH242619   3.857   1.832   0.381
14221TIP3    H142620   3.809   1.800   0.304
14221TIP3    H242621   3.934   1.776   0.387
14222TIP3   OH242622   3.875   1.359   0.596
14222TIP3    H142623   3.891   1.341   0.503
14222TIP3    H242624   3.900   1.450   0.608
14223TIP3   OH242625   7.162   5.275   6.600
14223TIP3    H142626   7.216   5.335   6.651
14223TIP3    H242627   7.186   5.292   6.509
14224TIP3   OH242628   3.669   1.528   0.962
14224TIP3    H142629   3.606   1.596   0.938
14224TIP3    H242630   3.620   1.469   1.019
14225TIP3   OH242631   6.915   5.955   6.856
14225TIP3    H142632   6.969   6.007   6.915
14225TIP3    H242633   6.844   6.014   6.830
14226TIP3   OH242634   7.676   4.517   6.652
14226TIP3    H142635   7.595   4.534   6.699
14226TIP3    H242636   7.691   4.595   6.599
14227TIP3   OH242637   3.586   1.252   0.053
14227TIP3    H142638   3.518   1.295   0.001
14227TIP3    H242639   3.550   1.165   0.071
14228TIP3   OH242640   7.481   5.887   6.200
14228TIP3    H142641   7.486   5.982   6.197
14228TIP3    H242642   7.569   5.857   6.176
14229TIP3   OH242643   3.396   1.620   0.932
14229TIP3    H142644   3.315   1.613   0.880
14229TIP3    H242645   3.396   1.542   0.986
14230TIP3   OH242646   3.214   1.830   0.594
14230TIP3    H142647   3.309   1.840   0.592
14230TIP3    H242648   3.184   1.904   0.646
14231TIP3   OH242649   6.780   6.203   6.681
14231TIP3    H142650   6.732   6.186   6.601
14231TIP3    H242651   6.749   6.289   6.710
14232TIP3   OH242652   3.388   2.040   0.123
14232TIP3    H142653   3.430   2.035   0.209
14232TIP3    H242654   3.331   1.964   0.120
14233TIP3   OH242655   6.985   6.094   6.311
14233TIP3    H142656   7.042   6.028   6.272
14233TIP3    H242657   7.015   6.101   6.401
14234TIP3   OH242658   7.018   6.126   6.584
14234TIP3    H142659   6.938   6.158   6.625
14234TIP3    H242660   7.044   6.051   6.637
14235TIP3   OH242661   3.967   0.645   0.741
14235TIP3    H142662   3.884   0.610   0.710
14235TIP3    H242663   3.944   0.722   0.792
14236TIP3   OH242664   4.501   0.737   0.922
14236TIP3    H142665   4.558   0.784   0.983
14236TIP3    H242666   4.415   0.738   0.964
14237TIP3   OH242667   7.240   5.317   6.345
14237TIP3    H142668   7.201   5.295   6.260
14237TIP3    H242669   7.319   5.366   6.323
14238TIP3   OH242670   6.949   4.692   6.652
14238TIP3    H142671   6.913   4.692   6.741
14238TIP3    H242672   6.911   4.615   6.610
14239TIP3   OH242673   3.907   1.146   0.755
14239TIP3    H142674   3.867   1.170   0.839
14239TIP3    H242675   3.893   1.223   0.699
14240TIP3   OH242676   3.784   1.042   0.268
14240TIP3    H142677   3.695   1.019   0.292
14240TIP3    H242678   3.798   1.003   0.182
14241TIP3   OH242679   7.104   5.135   6.928
14241TIP3    H142680   7.053   5.206   6.890
14241TIP3    H242681   7.160   5.104   6.856
14242TIP3   OH242682   4.416   1.160   0.215
14242TIP3    H142683   4.347   1.184   0.153
14242TIP3    H242684   4.457   1.083   0.177
14243TIP3   OH242685   3.735   1.177   0.969
14243TIP3    H142686   3.781   1.234   1.031
14243TIP3    H242687   3.715   1.098   1.019
14244TIP3   OH242688   6.606   4.676   6.617
14244TIP3    H142689   6.596   4.670   6.712
14244TIP3    H242690   6.529   4.725   6.588
14245TIP3   OH242691   3.315   0.705   0.546
14245TIP3    H142692   3.387   0.738   0.600
14245TIP3    H242693   3.357   0.676   0.465
14246TIP3   OH242694   3.281   0.691   0.063
14246TIP3    H142695   3.329   0.723  -0.013
14246TIP3    H242696   3.220   0.761   0.085
14247TIP3   OH242697   4.117   0.887   0.335
14247TIP3    H142698   4.036   0.873   0.385
14247TIP3    H242699   4.185   0.847   0.389
14248TIP3   OH242700   3.547   0.922   0.336
14248TIP3    H142701   3.456   0.932   0.309
14248TIP3    H242702   3.569   0.831   0.316
14249TIP3   OH242703   6.647   4.924   6.968
14249TIP3    H142704   6.738   4.938   6.943
14249TIP3    H242705   6.598   4.945   6.888
14250TIP3   OH242706   6.497   4.959   6.745
14250TIP3    H142707   6.424   4.914   6.702
14250TIP3    H242708   6.548   4.995   6.672
14251TIP3   OH242709   4.203   1.191   0.442
14251TIP3    H142710   4.230   1.117   0.387
14251TIP3    H242711   4.191   1.154   0.529
14252TIP3   OH242712   3.717   0.678   0.312
14252TIP3    H142713   3.680   0.606   0.363
14252TIP3    H242714   3.758   0.635   0.237
14253TIP3   OH242715   4.176   1.102   0.709
14253TIP3    H142716   4.083   1.123   0.723
14253TIP3    H242717   4.219   1.128   0.790
14254TIP3   OH242718   6.742   5.486   6.758
14254TIP3    H142719   6.673   5.422   6.743
14254TIP3    H242720   6.723   5.522   6.845
14255TIP3   OH242721   7.198   4.794   6.627
14255TIP3    H142722   7.105   4.773   6.629
14255TIP3    H242723   7.202   4.889   6.643
14256TIP3   OH242724   7.273   5.052   6.724
14256TIP3    H142725   7.368   5.058   6.729
14256TIP3    H242726   7.247   5.127   6.671
14257TIP3   OH242727   3.609   1.507   0.490
14257TIP3    H142728   3.647   1.473   0.409
14257TIP3    H242729   3.632   1.443   0.557
14258TIP3   OH242730   6.887   5.638   6.580
14258TIP3    H142731   6.842   5.722   6.580
14258TIP3    H242732   6.835   5.583   6.638
14259TIP3   OH242733   3.472   1.392   1.120
14259TIP3    H142734   3.451   1.378   1.212
14259TIP3    H242735   3.399   1.352   1.072
14260TIP3   OH242736   7.704   5.141   6.550
14260TIP3    H142737   7.648   5.091   6.492
14260TIP3    H242738   7.703   5.230   6.514
14261TIP3   OH242739   7.356   5.946   6.450
14261TIP3    H142740   7.371   5.886   6.524
14261TIP3    H242741   7.408   5.910   6.379
14262TIP3   OH242742   3.703   1.814   0.121
14262TIP3    H142743   3.698   1.892   0.065
14262TIP3    H242744   3.613   1.786   0.132
14263TIP3   OH242745   6.102   5.120   6.763
14263TIP3    H142746   6.146   5.203   6.782
14263TIP3    H242747   6.025   5.120   6.820
14264TIP3   OH242748   3.836   1.576   0.058
14264TIP3    H142749   3.804   1.664   0.079
14264TIP3    H242750   3.803   1.521   0.130
14265TIP3   OH242751   6.454   6.051   6.908
14265TIP3    H142752   6.370   6.059   6.952
14265TIP3    H242753   6.490   6.140   6.910
14266TIP3   OH242754   7.169   5.679   6.367
14266TIP3    H142755   7.220   5.662   6.446
14266TIP3    H242756   7.080   5.655   6.391
14267TIP3   OH242757   7.494   6.162   6.191
14267TIP3    H142758   7.537   6.204   6.117
14267TIP3    H242759   7.412   6.211   6.201
14268TIP3   OH242760   3.694   0.921   1.112
14268TIP3    H142761   3.601   0.931   1.132
14268TIP3    H242762   3.729   0.870   1.185
14269TIP3   OH242763   7.323   5.621   6.589
14269TIP3    H142764   7.310   5.553   6.655
14269TIP3    H242765   7.417   5.617   6.569
14270TIP3   OH242766   3.420   2.021   0.763
14270TIP3    H142767   3.417   1.930   0.789
14270TIP3    H242768   3.402   2.070   0.843
14271TIP3   OH242769   6.534   5.664   6.366
14271TIP3    H142770   6.546   5.573   6.338
14271TIP3    H242771   6.514   5.658   6.460
14272TIP3   OH242772   6.480   5.674   6.636
14272TIP3    H142773   6.549   5.644   6.696
14272TIP3    H242774   6.482   5.769   6.644
14273TIP3   OH242775   6.211   5.367   6.842
14273TIP3    H142776   6.146   5.406   6.900
14273TIP3    H242777   6.224   5.432   6.772
14274TIP3   OH242778   7.249   4.758   6.897
14274TIP3    H142779   7.228   4.754   6.804
14274TIP3    H242780   7.258   4.851   6.915
14275TIP3   OH242781   6.745   5.870   6.583
14275TIP3    H142782   6.660   5.889   6.622
14275TIP3    H242783   6.761   5.942   6.522
14276TIP3   OH242784   4.103   0.924   0.063
14276TIP3    H142785   4.159   0.999   0.043
14276TIP3    H242786   4.103   0.919   0.159
14277TIP3   OH242787   4.242   0.648   0.159
14277TIP3    H142788   4.248   0.715   0.227
14277TIP3    H242789   4.302   0.679   0.090
14278TIP3   OH242790   6.493   5.945   6.655
14278TIP3    H142791   6.463   6.012   6.594
14278TIP3    H242792   6.476   5.983   6.742
14279TIP3   OH242793   6.590   4.659   6.892
14279TIP3    H142794   6.584   4.747   6.930
14279TIP3    H242795   6.683   4.637   6.897
14280TIP3   OH242796   4.684   1.239   0.257
14280TIP3    H142797   4.595   1.251   0.226
14280TIP3    H242798   4.707   1.323   0.297
14281TIP3   OH242799   6.210   5.568   6.644
14281TIP3    H142800   6.272   5.640   6.656
14281TIP3    H242801   6.251   5.511   6.579
14282TIP3   OH242802   6.149   4.850   6.780
14282TIP3    H142803   6.151   4.946   6.779
14282TIP3    H242804   6.069   4.827   6.733
14283TIP3   OH242805   3.707   0.559   0.708
14283TIP3    H142806   3.676   0.528   0.624
14283TIP3    H242807   3.696   0.485   0.767
14284TIP3   OH242808   3.237   1.776   0.088
14284TIP3    H142809   3.182   1.808   0.159
14284TIP3    H242810   3.203   1.819   0.010
14285TIP3   OH242811   6.696   5.865   6.275
14285TIP3    H142812   6.640   5.798   6.313
14285TIP3    H242813   6.774   5.817   6.245
14286TIP3   OH242814   7.137   5.903   6.188
14286TIP3    H142815   7.181   5.854   6.257
14286TIP3    H242816   7.197   5.901   6.114
14287TIP3   OH242817   6.347   5.383   6.499
14287TIP3    H142818   6.399   5.353   6.574
14287TIP3    H242819   6.410   5.390   6.427
14288TIP3   OH242820   6.860   5.585   6.310
14288TIP3    H142821   6.859   5.598   6.404
14288TIP3    H242822   6.859   5.490   6.299
14289TIP3   OH242823   6.552   5.290   6.721
14289TIP3    H142824   6.520   5.253   6.804
14289TIP3    H242825   6.587   5.215   6.673
14290TIP3   OH242826   3.995   1.331   0.985
14290TIP3    H142827   3.949   1.374   1.057
14290TIP3    H242828   4.005   1.400   0.919
14291TIP3   OH242829   6.653   5.086   6.557
14291TIP3    H142830   6.625   5.094   6.466
14291TIP3    H242831   6.749   5.087   6.553
14292TIP3   OH242832   7.471   5.416   6.225
14292TIP3    H142833   7.453   5.369   6.143
14292TIP3    H242834   7.440   5.505   6.209
14293TIP3   OH242835   4.081   1.123   1.149
14293TIP3    H142836   4.112   1.057   1.087
14293TIP3    H242837   4.056   1.197   1.094
14294TIP3   OH242838   4.110   0.909   0.931
14294TIP3    H142839   4.134   0.950   0.847
14294TIP3    H242840   4.016   0.895   0.924
14295TIP3   OH242841   4.243   0.691   1.029
14295TIP3    H142842   4.196   0.769   0.999
14295TIP3    H242843   4.182   0.619   1.014
14296TIP3   OH242844   3.808   1.016   1.421
14296TIP3    H142845   3.838   0.938   1.374
14296TIP3    H242846   3.878   1.035   1.483
14297TIP3   OH242847   4.348   0.686   1.287
14297TIP3    H142848   4.419   0.634   1.250
14297TIP3    H242849   4.289   0.701   1.214
14298TIP3   OH242850   6.463   6.150   6.466
14298TIP3    H142851   6.556   6.139   6.447
14298TIP3    H242852   6.428   6.197   6.391
14299TIP3   OH242853   5.940   5.527   6.678
14299TIP3    H142854   6.032   5.550   6.667
14299TIP3    H242855   5.931   5.440   6.640
14300TIP3   OH242856   3.025   2.131   0.156
14300TIP3    H142857   2.958   2.076   0.116
14300TIP3    H242858   3.068   2.074   0.220
14301TIP3   OH242859   3.155   1.969   0.338
14301TIP3    H142860   3.135   1.901   0.403
14301TIP3    H242861   3.205   2.034   0.387
14302TIP3   OH242862   7.592   5.588   6.565
14302TIP3    H142863   7.646   5.646   6.511
14302TIP3    H242864   7.647   5.570   6.642
14303TIP3   OH242865   7.737   5.482   6.781
14303TIP3    H142866   7.666   5.427   6.815
14303TIP3    H242867   7.814   5.454   6.830
14304TIP3   OH242868   7.664   5.375   6.412
14304TIP3    H142869   7.600   5.373   6.341
14304TIP3    H242870   7.637   5.448   6.468
14305TIP3   OH242871   7.542   5.046   6.361
14305TIP3    H142872   7.500   5.084   6.284
14305TIP3    H242873   7.522   4.953   6.355
14306TIP3   OH242874   7.554   5.311   6.908
14306TIP3    H142875   7.556   5.223   6.870
14306TIP3    H242876   7.547   5.296   7.002
14307TIP3   OH242877   3.341   1.384   0.710
14307TIP3    H142878   3.329   1.353   0.620
14307TIP3    H242879   3.435   1.381   0.724
14308TIP3   OH242880   7.487   4.782   6.348
14308TIP3    H142881   7.556   4.746   6.403
14308TIP3    H242882   7.412   4.725   6.363
14309TIP3   OH242883   7.558   5.049   6.796
14309TIP3    H142884   7.587   4.959   6.813
14309TIP3    H242885   7.610   5.076   6.720
14310TIP3   OH242886   3.546   1.059   1.369
14310TIP3    H142887   3.641   1.057   1.381
14310TIP3    H242888   3.514   0.987   1.423
14311TIP3   OH242889   7.640   4.794   6.849
14311TIP3    H142890   7.700   4.774   6.921
14311TIP3    H242891   7.586   4.715   6.840
14312TIP3   OH242892   3.524   0.769   0.717
14312TIP3    H142893   3.583   0.695   0.728
14312TIP3    H242894   3.582   0.845   0.710
14313TIP3   OH242895   3.323   1.042   0.791
14313TIP3    H142896   3.371   1.042   0.708
14313TIP3    H242897   3.345   1.125   0.832
14314TIP3   OH242898   7.738   4.722   6.478
14314TIP3    H142899   7.771   4.654   6.420
14314TIP3    H242900   7.801   4.793   6.470
14315TIP3   OH242901   3.308   0.547   0.292
14315TIP3    H142902   3.218   0.541   0.322
14315TIP3    H242903   3.303   0.605   0.216
14316TIP3   OH242904   3.525   0.615   1.100
14316TIP3    H142905   3.485   0.622   1.186
14316TIP3    H242906   3.464   0.660   1.041
14317TIP3   OH242907   3.320   2.123   0.504
14317TIP3    H142908   3.350   2.110   0.594
14317TIP3    H242909   3.391   2.088   0.450
14318TIP3   OH242910   3.515   2.005   0.360
14318TIP3    H142911   3.535   1.924   0.406
14318TIP3    H242912   3.600   2.040   0.334
14319TIP3   OH242913   3.767   2.092   0.314
14319TIP3    H142914   3.809   2.006   0.312
14319TIP3    H242915   3.815   2.141   0.381
14320TIP3   OH242916   4.339   0.749   0.430
14320TIP3    H142917   4.310   0.688   0.497
14320TIP3    H242918   4.431   0.726   0.413
14321TIP3   OH242919   4.898   0.637   0.345
14321TIP3    H142920   4.932   0.693   0.275
14321TIP3    H242921   4.804   0.657   0.348
14322TIP3   OH242922   4.989   0.750   0.112
14322TIP3    H142923   5.052   0.686   0.080
14322TIP3    H242924   5.035   0.834   0.109
14323TIP3   OH242925   3.616   0.465   0.462
14323TIP3    H142926   3.524   0.438   0.466
14323TIP3    H242927   3.666   0.383   0.458
14324TIP3   OH242928   3.409   0.342   0.116
14324TIP3    H142929   3.437   0.395   0.041
14324TIP3    H242930   3.381   0.406   0.181
14325TIP3   OH242931   4.067   0.499   0.346
14325TIP3    H142932   4.122   0.546   0.283
14325TIP3    H242933   4.089   0.537   0.431
14326TIP3   OH242934   4.613   0.646   0.317
14326TIP3    H142935   4.607   0.594   0.237
14326TIP3    H242936   4.600   0.583   0.388
14327TIP3   OH242937   7.470   4.576   6.833
14327TIP3    H142938   7.385   4.617   6.843
14327TIP3    H242939   7.461   4.491   6.876
14328TIP3   OH242940   5.953   5.923   6.828
14328TIP3    H142941   5.870   5.887   6.799
14328TIP3    H242942   5.949   6.016   6.805
14329TIP3   OH242943   6.360   4.503   6.813
14329TIP3    H142944   6.403   4.438   6.757
14329TIP3    H242945   6.431   4.555   6.849
14330TIP3   OH242946   4.033   0.677  -0.026
14330TIP3    H142947   4.086   0.623   0.032
14330TIP3    H242948   4.054   0.767  -0.002
14331TIP3   OH242949   6.729   6.100   6.409
14331TIP3    H142950   6.815   6.126   6.376
14331TIP3    H242951   6.702   6.027   6.353
14332TIP3   OH242952   7.440   6.200   6.486
14332TIP3    H142953   7.402   6.112   6.489
14332TIP3    H242954   7.470   6.210   6.396
14333TIP3   OH242955   3.819   0.727   1.329
14333TIP3    H142956   3.772   0.671   1.391
14333TIP3    H242957   3.910   0.726   1.360
14334TIP3   OH242958   4.063   0.720   1.452
14334TIP3    H142959   4.154   0.729   1.424
14334TIP3    H242960   4.068   0.720   1.548
14335TIP3   OH242961   6.031   5.941   6.467
14335TIP3    H142962   6.027   5.966   6.560
14335TIP3    H242963   6.117   5.899   6.458
14336TIP3   OH242964   7.894   5.250   6.717
14336TIP3    H142965   7.859   5.334   6.688
14336TIP3    H242966   7.842   5.185   6.672
14337TIP3   OH242967   7.748   5.742   6.405
14337TIP3    H142968   7.738   5.760   6.312
14337TIP3    H242969   7.718   5.822   6.448
14338TIP3   OH242970   0.238   4.942   6.080
14338TIP3    H142971   0.277   4.959   6.165
14338TIP3    H242972   0.198   4.855   6.089
14339TIP3   OH242973   8.393   4.922   6.100
14339TIP3    H142974   8.388   4.922   6.196
14339TIP3    H242975   8.324   4.983   6.073
14340TIP3   OH242976   7.974   4.966   6.975
14340TIP3    H142977   8.024   5.039   6.939
14340TIP3    H242978   7.957   4.910   6.899
14341TIP3   OH242979   7.911   4.949   6.493
14341TIP3    H142980   7.961   4.976   6.416
14341TIP3    H242981   7.850   5.021   6.509
14342TIP3   OH242982   8.125   5.113   6.823
14342TIP3    H142983   8.079   5.165   6.757
14342TIP3    H242984   8.195   5.069   6.775
14343TIP3   OH242985   8.482   5.152   6.424
14343TIP3    H142986   8.539   5.229   6.428
14343TIP3    H242987   8.416   5.174   6.358
14344TIP3   OH242988   8.295   5.211   6.237
14344TIP3    H142989   8.218   5.173   6.195
14344TIP3    H242990   8.350   5.240   6.164
14345TIP3   OH242991   8.327   4.951   6.722
14345TIP3    H142992   8.299   4.873   6.770
14345TIP3    H242993   8.395   4.919   6.662
14346TIP3   OH242994   7.881   5.354   6.243
14346TIP3    H142995   7.922   5.441   6.244
14346TIP3    H242996   7.810   5.360   6.306
14347TIP3   OH242997   8.348   5.871   5.813
14347TIP3    H142998   8.305   5.796   5.772
14347TIP3    H242999   8.424   5.834   5.857
14348TIP3   OH243000   7.954   5.611   6.275
14348TIP3    H143001   7.883   5.635   6.334
14348TIP3    H243002   8.022   5.677   6.291
14349TIP3   OH243003   8.377   4.902   6.376
14349TIP3    H143004   8.388   4.993   6.405
14349TIP3    H243005   8.463   4.863   6.384
14350TIP3   OH243006   8.001   5.866   6.094
14350TIP3    H143007   8.021   5.852   6.186
14350TIP3    H243008   8.051   5.799   6.048
14351TIP3   OH243009   7.948   5.093   6.268
14351TIP3    H143010   7.948   5.189   6.267
14351TIP3    H243011   7.873   5.068   6.214
14352TIP3   OH243012   8.163   5.662   5.996
14352TIP3    H143013   8.201   5.604   6.061
14352TIP3    H243014   8.214   5.647   5.917
14353TIP3   OH243015   8.320   5.510   6.171
14353TIP3    H143016   8.349   5.463   6.249
14353TIP3    H243017   8.363   5.465   6.098
14354TIP3   OH243018   8.447   5.317   6.029
14354TIP3    H143019   8.418   5.314   5.938
14354TIP3    H243020   8.532   5.360   6.026
14355TIP3   OH243021   7.734   5.789   6.131
14355TIP3    H143022   7.824   5.817   6.116
14355TIP3    H243023   7.732   5.699   6.097
14356TIP3   OH243024   7.923   4.834   6.739
14356TIP3    H143025   7.831   4.806   6.737
14356TIP3    H243026   7.935   4.881   6.656
14357TIP3   OH243027   8.249   4.743   6.894
14357TIP3    H143028   8.157   4.717   6.901
14357TIP3    H243029   8.297   4.660   6.900
14358TIP3   OH243030   8.040   4.603   6.539
14358TIP3    H143031   8.069   4.654   6.463
14358TIP3    H243032   8.015   4.669   6.603
14359TIP3   OH243033   8.150   4.755   6.302
14359TIP3    H143034   8.196   4.694   6.244
14359TIP3    H243035   8.219   4.811   6.337
14360TIP3   OH243036   0.144   4.907   6.445
14360TIP3    H143037   0.202   4.857   6.502
14360TIP3    H243038   0.116   4.981   6.499
14361TIP3   OH243039   7.787   6.151   5.952
14361TIP3    H143040   7.809   6.223   6.010
14361TIP3    H243041   7.872   6.115   5.925
14362TIP3   OH243042   7.780   2.118   1.555
14362TIP3    H143043   7.803   2.132   1.647
14362TIP3    H243044   7.864   2.102   1.512
14363TIP3   OH243045   7.313   1.986   1.249
14363TIP3    H143046   7.366   1.987   1.329
14363TIP3    H243047   7.363   2.038   1.186
14364TIP3   OH243048   7.510   2.017   1.446
14364TIP3    H143049   7.504   1.937   1.498
14364TIP3    H243050   7.595   2.054   1.470
14365TIP3   OH243051   6.863   2.263   0.971
14365TIP3    H143052   6.780   2.310   0.978
14365TIP3    H243053   6.913   2.313   0.907
14366TIP3   OH243054   6.852   2.141   0.723
14366TIP3    H143055   6.891   2.165   0.807
14366TIP3    H243056   6.921   2.093   0.677
14367TIP3   OH243057   7.259   2.414   1.007
14367TIP3    H143058   7.245   2.481   1.074
14367TIP3    H243059   7.343   2.374   1.032
14368TIP3   OH243060   7.083   2.314   0.822
14368TIP3    H143061   7.152   2.360   0.870
14368TIP3    H243062   7.101   2.334   0.730
14369TIP3   OH243063   7.589   1.556   0.887
14369TIP3    H143064   7.509   1.573   0.937
14369TIP3    H243065   7.605   1.637   0.838
14370TIP3   OH243066   7.410   2.914   0.395
14370TIP3    H143067   7.421   3.009   0.395
14370TIP3    H243068   7.499   2.880   0.409
14371TIP3   OH243069   7.149   2.348   0.565
14371TIP3    H143070   7.120   2.327   0.476
14371TIP3    H243071   7.228   2.401   0.553
14372TIP3   OH243072   6.851   1.745   0.865
14372TIP3    H143073   6.838   1.744   0.960
14372TIP3    H243074   6.826   1.657   0.837
14373TIP3   OH243075   7.019   2.166   1.166
14373TIP3    H143076   6.963   2.192   1.093
14373TIP3    H243077   7.098   2.130   1.125
14374TIP3   OH243078   7.109   1.843   0.847
14374TIP3    H143079   7.015   1.825   0.857
14374TIP3    H243080   7.119   1.932   0.880
14375TIP3   OH243081   7.188   2.086   0.957
14375TIP3    H143082   7.283   2.091   0.973
14375TIP3    H243083   7.169   2.163   0.904
14376TIP3   OH243084   7.619   2.180   0.791
14376TIP3    H143085   7.561   2.133   0.731
14376TIP3    H243086   7.622   2.269   0.755
14377TIP3   OH243087   7.075   2.724   0.579
14377TIP3    H143088   7.130   2.678   0.643
14377TIP3    H243089   6.985   2.700   0.603
14378TIP3   OH243090   7.481   3.229   0.379
14378TIP3    H143091   7.469   3.276   0.297
14378TIP3    H243092   7.394   3.225   0.418
14379TIP3   OH243093   7.221   2.582   0.766
14379TIP3    H143094   7.223   2.539   0.852
14379TIP3    H243095   7.305   2.627   0.760
14380TIP3   OH243096   7.173   1.782   1.130
14380TIP3    H143097   7.154   1.809   1.040
14380TIP3    H243098   7.215   1.858   1.170
14381TIP3   OH243099   6.855   1.965   1.251
14381TIP3    H143100   6.922   2.027   1.222
14381TIP3    H243101   6.853   1.974   1.346
14382TIP3   OH243102   7.007   1.680   1.329
14382TIP3    H143103   7.016   1.730   1.410
14382TIP3    H243104   7.060   1.729   1.265
14383TIP3   OH243105   7.045   2.946   0.405
14383TIP3    H143106   7.081   2.891   0.473
14383TIP3    H243107   7.106   2.936   0.331
14384TIP3   OH243108   6.788   2.629   0.552
14384TIP3    H143109   6.805   2.634   0.646
14384TIP3    H243110   6.778   2.536   0.535
14385TIP3   OH243111   6.604   2.158   0.850
14385TIP3    H143112   6.574   2.150   0.759
14385TIP3    H243113   6.698   2.140   0.845
14386TIP3   OH243114   7.386   2.452   0.460
14386TIP3    H143115   7.368   2.405   0.378
14386TIP3    H243116   7.355   2.541   0.444
14387TIP3   OH243117   7.534   2.638   0.793
14387TIP3    H143118   7.599   2.695   0.753
14387TIP3    H243119   7.582   2.592   0.862
14388TIP3   OH243120   7.647   2.494   0.993
14388TIP3    H143121   7.596   2.458   1.066
14388TIP3    H243122   7.725   2.531   1.035
14389TIP3   OH243123   7.587   2.413   0.641
14389TIP3    H143124   7.520   2.410   0.573
14389TIP3    H243125   7.561   2.486   0.697
14390TIP3   OH243126   7.456   2.084   0.596
14390TIP3    H143127   7.414   2.122   0.519
14390TIP3    H243128   7.438   1.990   0.591
14391TIP3   OH243129   7.473   2.337   1.167
14391TIP3    H143130   7.487   2.247   1.137
14391TIP3    H243131   7.432   2.327   1.253
14392TIP3   OH243132   7.404   1.819   0.581
14392TIP3    H143133   7.477   1.790   0.635
14392TIP3    H243134   7.332   1.760   0.604
14393TIP3   OH243135   7.468   2.088   1.030
14393TIP3    H143136   7.494   1.998   1.047
14393TIP3    H243137   7.524   2.117   0.958
14394TIP3   OH243138   7.558   1.835   1.062
14394TIP3    H143139   7.615   1.823   1.138
14394TIP3    H243140   7.498   1.760   1.065
14395TIP3   OH243141   7.650   1.762   0.709
14395TIP3    H143142   7.688   1.692   0.656
14395TIP3    H243143   7.716   1.831   0.708
14396TIP3   OH243144   7.661   1.680   1.473
14396TIP3    H143145   7.701   1.727   1.400
14396TIP3    H243146   7.567   1.684   1.455
14397TIP3   OH243147   7.746   1.807   1.253
14397TIP3    H143148   7.818   1.752   1.222
14397TIP3    H243149   7.779   1.896   1.245
14398TIP3   OH243150   7.398   1.672   1.448
14398TIP3    H143151   7.330   1.658   1.382
14398TIP3    H243152   7.377   1.610   1.517
14399TIP3   OH243153   7.384   1.617   1.067
14399TIP3    H143154   7.302   1.663   1.085
14399TIP3    H243155   7.373   1.531   1.108
14400TIP3   OH243156   6.823   1.725   1.131
14400TIP3    H143157   6.869   1.681   1.202
14400TIP3    H243158   6.809   1.815   1.163
14401TIP3   OH243159   0.351   2.783   0.694
14401TIP3    H143160   0.327   2.874   0.675
14401TIP3    H243161   0.274   2.732   0.669
14402TIP3   OH243162   0.366   2.754   1.068
14402TIP3    H143163   0.388   2.744   1.160
14402TIP3    H243164   0.318   2.675   1.045
14403TIP3   OH243165   0.599   3.081   0.758
14403TIP3    H143166   0.582   3.017   0.826
14403TIP3    H243167   0.637   3.156   0.804
14404TIP3   OH243168   7.835   2.273   0.944
14404TIP3    H143169   7.807   2.361   0.969
14404TIP3    H243170   7.757   2.232   0.907
14405TIP3   OH243171   7.895   2.565   1.085
14405TIP3    H143172   7.942   2.509   1.146
14405TIP3    H243173   7.947   2.646   1.081
14406TIP3   OH243174   0.256   3.518   0.783
14406TIP3    H143175   0.298   3.464   0.716
14406TIP3    H243176   0.281   3.477   0.866
14407TIP3   OH243177   0.190   2.961   1.093
14407TIP3    H143178   0.237   2.887   1.055
14407TIP3    H243179   0.258   3.015   1.134
14408TIP3   OH243180   1.169   2.323   1.118
14408TIP3    H143181   1.193   2.396   1.174
14408TIP3    H243182   1.218   2.338   1.037
14409TIP3   OH243183   0.561   2.510   1.158
14409TIP3    H143184   0.604   2.428   1.183
14409TIP3    H243185   0.529   2.495   1.069
14410TIP3   OH243186   8.404   2.162   1.117
14410TIP3    H143187   8.386   2.236   1.059
14410TIP3    H243188   8.357   2.088   1.077
14411TIP3   OH243189   0.603   2.257   0.743
14411TIP3    H143190   0.667   2.242   0.812
14411TIP3    H243191   0.654   2.291   0.670
14412TIP3   OH243192   8.057   2.382   1.224
14412TIP3    H143193   8.133   2.348   1.270
14412TIP3    H243194   8.055   2.334   1.141
14413TIP3   OH243195   8.478   2.553   1.030
14413TIP3    H143196   8.571   2.533   1.038
14413TIP3    H243197   8.439   2.473   0.995
14414TIP3   OH243198   1.213   2.508   1.323
14414TIP3    H143199   1.159   2.573   1.278
14414TIP3    H243200   1.290   2.557   1.352
14415TIP3   OH243201   8.412   2.140   1.551
14415TIP3    H143202   8.345   2.180   1.495
14415TIP3    H243203   8.369   2.132   1.637
14416TIP3   OH243204   0.255   3.010   0.552
14416TIP3    H143205   0.201   2.983   0.478
14416TIP3    H243206   0.211   3.087   0.587
14417TIP3   OH243207   0.804   2.264   0.923
14417TIP3    H143208   0.794   2.217   1.005
14417TIP3    H243209   0.861   2.338   0.944
14418TIP3   OH243210   8.276   2.257   1.339
14418TIP3    H143211   8.335   2.328   1.364
14418TIP3    H243212   8.319   2.214   1.265
14419TIP3   OH243213   7.723   2.805   0.683
14419TIP3    H143214   7.697   2.834   0.596
14419TIP3    H243215   7.777   2.876   0.718
14420TIP3   OH243216   0.682   3.314   0.903
14420TIP3    H143217   0.597   3.297   0.945
14420TIP3    H243218   0.672   3.401   0.865
14421TIP3   OH243219   0.959   2.212   1.280
14421TIP3    H143220   0.877   2.255   1.254
14421TIP3    H243221   1.025   2.251   1.222
14422TIP3   OH243222   0.253   1.859   1.274
14422TIP3    H143223   0.241   1.766   1.291
14422TIP3    H243224   0.178   1.901   1.317
14423TIP3   OH243225   0.380   3.365   0.590
14423TIP3    H143226   0.425   3.282   0.573
14423TIP3    H243227   0.438   3.432   0.554
14424TIP3   OH243228   0.512   3.135   0.504
14424TIP3    H143229   0.434   3.080   0.505
14424TIP3    H243230   0.557   3.113   0.586
14425TIP3   OH243231   0.883   3.243   1.229
14425TIP3    H143232   0.872   3.153   1.197
14425TIP3    H243233   0.909   3.292   1.151
14426TIP3   OH243234   0.182   2.626   0.526
14426TIP3    H143235   0.102   2.677   0.516
14426TIP3    H243236   0.224   2.630   0.440
14427TIP3   OH243237   0.145   2.414   0.239
14427TIP3    H143238   0.205   2.461   0.296
14427TIP3    H243239   0.201   2.353   0.190
14428TIP3   OH243240   1.082   2.863   1.114
14428TIP3    H143241   1.006   2.921   1.109
14428TIP3    H243242   1.127   2.875   1.031
14429TIP3   OH243243   0.533   2.709   0.506
14429TIP3    H143244   0.478   2.737   0.579
14429TIP3    H243245   0.618   2.689   0.545
14430TIP3   OH243246   0.763   2.737   1.407
14430TIP3    H143247   0.769   2.815   1.463
14430TIP3    H243248   0.682   2.749   1.357
14431TIP3   OH243249   8.272   2.702   0.911
14431TIP3    H143250   8.228   2.649   0.844
14431TIP3    H243251   8.343   2.646   0.943
14432TIP3   OH243252   8.447   3.075   1.102
14432TIP3    H143253   8.389   3.030   1.040
14432TIP3    H243254   8.533   3.036   1.087
14433TIP3   OH243255   8.418   2.683   1.262
14433TIP3    H143256   8.437   2.644   1.177
14433TIP3    H243257   8.499   2.729   1.285
14434TIP3   OH243258   0.441   3.283   1.019
14434TIP3    H143259   0.443   3.344   1.093
14434TIP3    H243260   0.419   3.198   1.059
14435TIP3   OH243261   0.380   2.580   0.323
14435TIP3    H143262   0.434   2.625   0.389
14435TIP3    H243263   0.385   2.637   0.246
14436TIP3   OH243264   0.121   3.242   0.596
14436TIP3    H143265   0.195   3.299   0.617
14436TIP3    H243266   0.052   3.302   0.565
14437TIP3   OH243267   0.885   1.811   0.373
14437TIP3    H143268   0.806   1.829   0.424
14437TIP3    H243269   0.903   1.893   0.326
14438TIP3   OH243270   8.136   2.550   0.710
14438TIP3    H143271   8.067   2.597   0.663
14438TIP3    H243272   8.094   2.469   0.739
14439TIP3   OH243273   3.527   7.181   6.854
14439TIP3    H143274   3.527   7.276   6.846
14439TIP3    H243275   3.619   7.157   6.845
14440TIP3   OH243276   8.508   3.507   0.397
14440TIP3    H143277   8.475   3.464   0.317
14440TIP3    H243278   8.447   3.579   0.412
14441TIP3   OH243279   0.200   3.405   0.036
14441TIP3    H143280   0.257   3.339  -0.003
14441TIP3    H243281   0.232   3.414   0.125
14442TIP3   OH243282   0.254   3.439   0.311
14442TIP3    H143283   0.167   3.458   0.344
14442TIP3    H243284   0.301   3.402   0.386
14443TIP3   OH243285   1.022   2.708   1.587
14443TIP3    H143286   0.959   2.719   1.516
14443TIP3    H243287   1.041   2.614   1.588
14444TIP3   OH243288   8.515   1.941   1.392
14444TIP3    H143289   8.428   1.913   1.363
14444TIP3    H243290   8.499   2.021   1.442
14445TIP3   OH243291   0.553   2.065   1.590
14445TIP3    H143292   0.625   2.026   1.639
14445TIP3    H243293   0.474   2.036   1.635
14446TIP3   OH243294   0.772   2.480   1.514
14446TIP3    H143295   0.741   2.496   1.603
14446TIP3    H243296   0.770   2.566   1.472
14447TIP3   OH243297   0.159   1.989   0.376
14447TIP3    H143298   0.127   1.988   0.466
14447TIP3    H243299   0.122   1.910   0.337
14448TIP3   OH243300   8.446   2.459   1.416
14448TIP3    H143301   8.442   2.487   1.508
14448TIP3    H243302   8.434   2.539   1.366
14449TIP3   OH243303   8.330   2.343   0.932
14449TIP3    H143304   8.239   2.321   0.954
14449TIP3    H243305   8.344   2.304   0.846
14450TIP3   OH243306   0.323   2.431   0.664
14450TIP3    H143307   0.273   2.501   0.622
14450TIP3    H243308   0.377   2.395   0.594
14451TIP3   OH243309   0.476   2.454   0.899
14451TIP3    H143310   0.415   2.485   0.832
14451TIP3    H243311   0.515   2.375   0.861
14452TIP3   OH243312   8.315   1.967   0.339
14452TIP3    H143313   8.309   1.963   0.435
14452TIP3    H243314   8.239   2.020   0.313
14453TIP3   OH243315   7.874   2.033   1.196
14453TIP3    H143316   7.947   2.054   1.255
14453TIP3    H243317   7.915   1.997   1.118
14454TIP3   OH243318   7.825   1.990   0.726
14454TIP3    H143319   7.873   2.022   0.650
14454TIP3    H243320   7.767   2.063   0.749
14455TIP3   OH243321   0.480   2.701   1.329
14455TIP3    H143322   0.517   2.643   1.263
14455TIP3    H243323   0.448   2.643   1.398
14456TIP3   OH243324   0.163   2.169   0.996
14456TIP3    H143325   0.083   2.166   1.049
14456TIP3    H243326   0.234   2.157   1.059
14457TIP3   OH243327   8.093   2.222   1.003
14457TIP3    H143328   8.002   2.230   0.975
14457TIP3    H243329   8.118   2.133   0.979
14458TIP3   OH243330   8.358   2.217   0.693
14458TIP3    H143331   8.450   2.232   0.672
14458TIP3    H243332   8.312   2.239   0.612
14459TIP3   OH243333   0.640   2.249   1.201
14459TIP3    H143334   0.608   2.260   1.290
14459TIP3    H243335   0.581   2.184   1.162
14460TIP3   OH243336   8.208   2.251   0.467
14460TIP3    H143337   8.135   2.208   0.423
14460TIP3    H243338   8.260   2.290   0.396
14461TIP3   OH243339   0.244   2.494   1.093
14461TIP3    H143340   0.315   2.454   1.043
14461TIP3    H243341   0.245   2.449   1.177
14462TIP3   OH243342   8.261   1.978   0.974
14462TIP3    H143343   8.224   1.905   1.024
14462TIP3    H243344   8.310   1.937   0.903
14463TIP3   OH243345   0.220   2.395   1.366
14463TIP3    H143346   0.131   2.427   1.384
14463TIP3    H243347   0.276   2.448   1.422
14464TIP3   OH243348   8.457   2.777   0.475
14464TIP3    H143349   8.384   2.717   0.460
14464TIP3    H243350   8.446   2.806   0.565
14465TIP3   OH243351   0.850   3.011   1.093
14465TIP3    H143352   0.876   3.062   1.016
14465TIP3    H243353   0.768   2.969   1.068
14466TIP3   OH243354   0.408   2.095   0.337
14466TIP3    H143355   0.316   2.073   0.351
14466TIP3    H243356   0.416   2.185   0.368
14467TIP3   OH243357   0.481   2.343   0.446
14467TIP3    H143358   0.575   2.345   0.466
14467TIP3    H243359   0.466   2.422   0.394
14468TIP3   OH243360   8.138   2.748   1.142
14468TIP3    H143361   8.175   2.758   1.055
14468TIP3    H243362   8.199   2.690   1.187
14469TIP3   OH243363   0.098   2.930   0.296
14469TIP3    H143364   0.054   3.015   0.298
14469TIP3    H243365   0.047   2.875   0.356
14470TIP3   OH243366   0.906   2.412   0.290
14470TIP3    H143367   0.848   2.384   0.219
14470TIP3    H243368   0.934   2.500   0.265
14471TIP3   OH243369   1.136   3.234   1.337
14471TIP3    H143370   1.048   3.249   1.303
14471TIP3    H243371   1.189   3.219   1.259
14472TIP3   OH243372   0.612   3.253   0.182
14472TIP3    H143373   0.598   3.195   0.257
14472TIP3    H243374   0.641   3.195   0.112
14473TIP3   OH243375   0.613   2.877   1.021
14473TIP3    H143376   0.522   2.852   1.029
14473TIP3    H243377   0.655   2.802   0.978
14474TIP3   OH243378   8.241   3.054   0.727
14474TIP3    H143379   8.280   3.131   0.770
14474TIP3    H243380   8.152   3.050   0.762
14475TIP3   OH243381   7.813   2.414   0.483
14475TIP3    H143382   7.860   2.495   0.503
14475TIP3    H243383   7.738   2.414   0.543
14476TIP3   OH243384   8.409   2.847   0.726
14476TIP3    H143385   8.359   2.928   0.720
14476TIP3    H243386   8.371   2.801   0.801
14477TIP3   OH243387   0.426   3.066   1.186
14477TIP3    H143388   0.433   3.114   1.268
14477TIP3    H243389   0.506   3.013   1.182
14478TIP3   OH243390   0.372   2.972   0.094
14478TIP3    H143391   0.425   2.947   0.170
14478TIP3    H243392   0.282   2.959   0.122
14479TIP3   OH243393   3.548   7.458   6.843
14479TIP3    H143394   3.587   7.527   6.789
14479TIP3    H243395   3.471   7.500   6.882
14480TIP3   OH243396   0.544   2.880   0.287
14480TIP3    H143397   0.531   2.840   0.372
14480TIP3    H243398   0.638   2.895   0.280
14481TIP3   OH243399   8.243   2.952   0.092
14481TIP3    H143400   8.257   2.860   0.069
14481TIP3    H243401   8.227   2.951   0.187
14482TIP3   OH243402   8.191   2.974   0.363
14482TIP3    H143403   8.250   2.946   0.432
14482TIP3    H243404   8.190   3.069   0.369
14483TIP3   OH243405   7.925   2.657   0.565
14483TIP3    H143406   7.860   2.697   0.623
14483TIP3    H243407   7.941   2.724   0.498
14484TIP3   OH243408   0.567   2.307   1.463
14484TIP3    H143409   0.653   2.344   1.483
14484TIP3    H243410   0.564   2.225   1.512
14485TIP3   OH243411   0.461   2.044   0.625
14485TIP3    H143412   0.448   2.065   0.533
14485TIP3    H243413   0.499   2.123   0.663
14486TIP3   OH243414   8.455   3.157   0.306
14486TIP3    H143415   8.370   3.176   0.347
14486TIP3    H243416   8.474   3.234   0.253
14487TIP3   OH243417   0.144   2.229   0.727
14487TIP3    H143418   0.205   2.301   0.709
14487TIP3    H243419   0.148   2.217   0.822
14488TIP3   OH243420   0.402   2.535   1.528
14488TIP3    H143421   0.434   2.588   1.601
14488TIP3    H243422   0.461   2.460   1.524
14489TIP3   OH243423   0.288   1.949   0.823
14489TIP3    H143424   0.285   2.022   0.885
14489TIP3    H243425   0.349   1.979   0.755
14490TIP3   OH243426   8.202   3.250   0.373
14490TIP3    H143427   8.173   3.307   0.301
14490TIP3    H243428   8.204   3.308   0.449
14491TIP3   OH243429   8.304   1.954   0.615
14491TIP3    H143430   8.297   2.042   0.652
14491TIP3    H243431   8.397   1.933   0.621
14492TIP3   OH243432   1.049   2.440   1.536
14492TIP3    H143433   0.958   2.424   1.510
14492TIP3    H243434   1.096   2.449   1.453
14493TIP3   OH243435   0.705   2.639   0.901
14493TIP3    H143436   0.631   2.580   0.914
14493TIP3    H243437   0.778   2.597   0.946
14494TIP3   OH243438   7.927   2.864   0.368
14494TIP3    H143439   7.990   2.936   0.378
14494TIP3    H243440   7.966   2.808   0.302
14495TIP3   OH243441   7.860   2.144   0.503
14495TIP3    H143442   7.865   2.239   0.501
14495TIP3    H243443   7.779   2.123   0.457
14496TIP3   OH243444   0.684   3.577   0.829
14496TIP3    H143445   0.627   3.634   0.778
14496TIP3    H243446   0.771   3.617   0.821
14497TIP3   OH243447   8.244   1.874   1.368
14497TIP3    H143448   8.219   1.841   1.282
14497TIP3    H243449   8.239   1.797   1.426
14498TIP3   OH243450   8.398   3.146  -0.014
14498TIP3    H143451   8.340   3.086   0.033
14498TIP3    H243452   8.484   3.105  -0.008
14499TIP3   OH243453   3.185   7.207   6.856
14499TIP3    H143454   3.220   7.159   6.932
14499TIP3    H243455   3.259   7.214   6.796
14500TIP3   OH243456   8.059   2.677   0.224
14500TIP3    H143457   8.111   2.648   0.299
14500TIP3    H243458   8.122   2.684   0.152
14501TIP3   OH243459   0.072   2.883   0.027
14501TIP3    H143460   0.068   2.898   0.121
14501TIP3    H243461   0.077   2.788   0.017
14502TIP3   OH243462   0.680   3.106   1.384
14502TIP3    H143463   0.751   3.162   1.354
14502TIP3    H243464   0.603   3.162   1.386
14503TIP3   OH243465   8.258   2.585   0.442
14503TIP3    H143466   8.231   2.552   0.528
14503TIP3    H243467   8.295   2.509   0.397
14504TIP3   OH243468   8.364   2.379   0.281
14504TIP3    H143469   8.337   2.388   0.190
14504TIP3    H243470   8.460   2.381   0.277
14505TIP3   OH243471   0.098   2.431   1.742
14505TIP3    H143472   0.124   2.339   1.741
14505TIP3    H243473   0.176   2.478   1.712
14506TIP3   OH243474   0.174   2.205   1.584
14506TIP3    H143475   0.201   2.250   1.503
14506TIP3    H243476   0.081   2.190   1.572
14507TIP3   OH243477   0.164   2.764   1.417
14507TIP3    H143478   0.256   2.741   1.419
14507TIP3    H243479   0.162   2.859   1.434
14508TIP3   OH243480   0.797   2.959   1.576
14508TIP3    H143481   0.747   3.014   1.515
14508TIP3    H243482   0.887   2.963   1.543
14509TIP3   OH243483   0.306   1.976   1.671
14509TIP3    H143484   0.261   2.059   1.654
14509TIP3    H243485   0.236   1.911   1.673
14510TIP3   OH243486   0.661   2.440   1.780
14510TIP3    H143487   0.584   2.410   1.828
14510TIP3    H243488   0.726   2.371   1.791
14511TIP3   OH243489   7.664   2.815   0.409
14511TIP3    H143490   7.754   2.840   0.390
14511TIP3    H243491   7.652   2.731   0.365
14512TIP3   OH243492   0.915   3.724   0.814
14512TIP3    H143493   0.978   3.759   0.876
14512TIP3    H243494   0.964   3.711   0.733
14513TIP3   OH243495   0.823   2.887   0.259
14513TIP3    H143496   0.888   2.953   0.235
14513TIP3    H243497   0.861   2.843   0.335
14514TIP3   OH243498   0.943   2.760   0.476
14514TIP3    H143499   0.880   2.725   0.540
14514TIP3    H243500   1.012   2.799   0.530
14515TIP3   OH243501   0.992   3.152   0.906
14515TIP3    H143502   1.050   3.084   0.872
14515TIP3    H243503   0.991   3.220   0.839
14516TIP3   OH243504   0.895   3.440   1.031
14516TIP3    H143505   0.866   3.531   1.023
14516TIP3    H243506   0.835   3.391   0.975
14517TIP3   OH243507   0.747   2.352   0.071
14517TIP3    H143508   0.717   2.363  -0.019
14517TIP3    H243509   0.731   2.259   0.090
14518TIP3   OH243510   0.759   2.620   0.634
14518TIP3    H143511   0.769   2.525   0.626
14518TIP3    H243512   0.745   2.635   0.728
14519TIP3   OH243513   1.038   3.009   1.464
14519TIP3    H143514   1.115   2.953   1.480
14519TIP3    H243515   1.074   3.085   1.418
14520TIP3   OH243516   1.253   2.847   1.525
14520TIP3    H143517   1.178   2.809   1.571
14520TIP3    H243518   1.316   2.775   1.518
14521TIP3   OH243519   0.699   2.088   0.079
14521TIP3    H143520   0.774   2.051   0.126
14521TIP3    H243521   0.628   2.024   0.094
14522TIP3   OH243522   0.760   2.331   0.522
14522TIP3    H143523   0.796   2.244   0.540
14522TIP3    H243524   0.814   2.365   0.450
14523TIP3   OH243525   0.926   2.517   1.014
14523TIP3    H143526   1.010   2.533   0.972
14523TIP3    H243527   0.936   2.551   1.103
14524TIP3   OH243528   0.980   2.652   1.246
14524TIP3    H143529   0.904   2.688   1.292
14524TIP3    H243530   1.023   2.728   1.207
14525TIP3   OH243531   0.866   2.083   0.564
14525TIP3    H143532   0.916   2.072   0.645
14525TIP3    H243533   0.806   2.009   0.563
14526TIP3   OH243534   8.063   2.083   1.392
14526TIP3    H143535   8.112   2.001   1.399
14526TIP3    H243536   8.130   2.149   1.375
14527TIP3   OH243537   7.887   2.375   1.444
14527TIP3    H143538   7.863   2.292   1.403
14527TIP3    H243539   7.956   2.411   1.389
14528TIP3   OH243540   1.295   2.382   1.633
14528TIP3    H143541   1.204   2.409   1.616
14528TIP3    H243542   1.308   2.304   1.580
14529TIP3   OH243543   0.946   2.020   0.194
14529TIP3    H143544   0.988   1.949   0.146
14529TIP3    H243545   1.013   2.088   0.199
14530TIP3   OH243546   7.852   1.851   0.956
14530TIP3    H143547   7.760   1.843   0.982
14530TIP3    H243548   7.849   1.909   0.879
14531TIP3   OH243549   0.531   3.548   0.464
14531TIP3    H143550   0.566   3.537   0.376
14531TIP3    H243551   0.577   3.625   0.499
14532TIP3   OH243552   1.210   2.143   1.485
14532TIP3    H143553   1.122   2.144   1.448
14532TIP3    H243554   1.240   2.053   1.474
14533TIP3   OH243555   0.408   2.056   1.108
14533TIP3    H143556   0.371   1.987   1.163
14533TIP3    H243557   0.486   2.016   1.069
14534TIP3   OH243558   0.934   1.936   1.009
14534TIP3    H143559   0.972   1.990   0.939
14534TIP3    H243560   0.841   1.961   1.010
14535TIP3   OH243561   1.035   2.043   0.777
14535TIP3    H143562   1.106   1.989   0.742
14535TIP3    H243563   1.066   2.133   0.765
14536TIP3   OH243564   8.161   1.768   1.125
14536TIP3    H143565   8.071   1.738   1.130
14536TIP3    H243566   8.213   1.687   1.123
14537TIP3   OH243567   7.947   1.644   0.776
14537TIP3    H143568   7.979   1.697   0.704
14537TIP3    H243569   7.924   1.707   0.844
14538TIP3   OH243570   0.109   1.804   1.010
14538TIP3    H143571   0.164   1.850   0.946
14538TIP3    H243572   0.138   1.837   1.095
14539TIP3   OH243573   0.647   1.948   0.993
14539TIP3    H143574   0.655   1.909   0.906
14539TIP3    H243575   0.637   1.874   1.052
14540TIP3   OH243576   0.682   1.871   0.556
14540TIP3    H143577   0.599   1.917   0.572
14540TIP3    H243578   0.672   1.787   0.600
14541TIP3   OH243579   8.072   1.799   0.537
14541TIP3    H143580   8.116   1.735   0.481
14541TIP3    H243581   8.143   1.852   0.573
14542TIP3   OH243582   0.080   1.979   0.639
14542TIP3    H143583   0.136   1.927   0.697
14542TIP3    H243584   0.099   2.070   0.661
14543TIP3   OH243585   8.460   3.382   0.162
14543TIP3    H143586   8.533   3.396   0.101
14543TIP3    H243587   8.382   3.387   0.106
14544TIP3   OH243588   0.657   3.517   0.224
14544TIP3    H143589   0.644   3.423   0.215
14544TIP3    H243590   0.612   3.555   0.148
14545TIP3   OH243591   7.742   3.220   0.184
14545TIP3    H143592   7.746   3.266   0.268
14545TIP3    H243593   7.830   3.184   0.173
14546TIP3   OH243594   2.148   3.038   0.179
14546TIP3    H143595   2.120   3.127   0.158
14546TIP3    H243596   2.076   2.983   0.150
14547TIP3   OH243597   2.128   3.025   0.573
14547TIP3    H143598   2.171   3.003   0.656
14547TIP3    H243599   2.089   2.943   0.544
14548TIP3   OH243600   1.440   2.938   0.925
14548TIP3    H143601   1.431   2.853   0.967
14548TIP3    H243602   1.522   2.973   0.960
14549TIP3   OH243603   2.399   3.328   0.255
14549TIP3    H143604   2.385   3.249   0.307
14549TIP3    H243605   2.394   3.400   0.318
14550TIP3   OH243606   1.415   3.338   0.654
14550TIP3    H143607   1.403   3.243   0.647
14550TIP3    H243608   1.508   3.349   0.674
14551TIP3   OH243609   1.130   2.537   0.421
14551TIP3    H143610   1.101   2.623   0.454
14551TIP3    H243611   1.053   2.481   0.428
14552TIP3   OH243612   1.178   2.828   0.604
14552TIP3    H143613   1.222   2.753   0.645
14552TIP3    H243614   1.249   2.878   0.563
14553TIP3   OH243615   2.025   3.785   0.259
14553TIP3    H143616   2.069   3.717   0.209
14553TIP3    H243617   2.072   3.787   0.343
14554TIP3   OH243618   1.945   3.263   0.604
14554TIP3    H143619   1.976   3.178   0.571
14554TIP3    H243620   2.025   3.312   0.621
14555TIP3   OH243621   2.891   2.555   0.554
14555TIP3    H143622   2.963   2.575   0.613
14555TIP3    H243623   2.928   2.566   0.466
14556TIP3   OH243624   2.361   2.764   0.639
14556TIP3    H143625   2.405   2.683   0.665
14556TIP3    H243626   2.329   2.747   0.551
14557TIP3   OH243627   1.712   2.416   0.593
14557TIP3    H143628   1.690   2.494   0.541
14557TIP3    H243629   1.654   2.347   0.559
14558TIP3   OH243630   2.400   2.512   0.231
14558TIP3    H143631   2.465   2.498   0.300
14558TIP3    H243632   2.450   2.549   0.158
14559TIP3   OH243633   1.327   2.635   0.712
14559TIP3    H143634   1.373   2.629   0.796
14559TIP3    H243635   1.373   2.573   0.655
14560TIP3   OH243636   1.777   2.820   0.508
14560TIP3    H143637   1.868   2.796   0.524
14560TIP3    H243638   1.735   2.739   0.479
14561TIP3   OH243639   1.695   2.405   1.042
14561TIP3    H143640   1.631   2.447   0.985
14561TIP3    H243641   1.662   2.420   1.131
14562TIP3   OH243642   2.043   3.261   0.047
14562TIP3    H143643   1.995   3.238  -0.033
14562TIP3    H243644   2.002   3.342   0.077
14563TIP3   OH243645   1.803   3.182   0.834
14563TIP3    H143646   1.739   3.240   0.877
14563TIP3    H243647   1.839   3.234   0.763
14564TIP3   OH243648   2.603   2.514   0.411
14564TIP3    H143649   2.581   2.473   0.494
14564TIP3    H243650   2.667   2.582   0.434
14565TIP3   OH243651   1.566   2.505   0.814
14565TIP3    H143652   1.611   2.582   0.849
14565TIP3    H243653   1.626   2.471   0.747
14566TIP3   OH243654   1.610   3.362   0.917
14566TIP3    H143655   1.623   3.457   0.921
14566TIP3    H243656   1.544   3.344   0.983
14567TIP3   OH243657   1.023   3.070   0.170
14567TIP3    H143658   0.990   3.105   0.087
14567TIP3    H243659   1.056   3.146   0.218
14568TIP3   OH243660   2.722   2.462   0.757
14568TIP3    H143661   2.635   2.491   0.729
14568TIP3    H243662   2.781   2.495   0.690
14569TIP3   OH243663   2.043   2.122   0.760
14569TIP3    H143664   2.031   2.029   0.778
14569TIP3    H243665   1.971   2.165   0.806
14570TIP3   OH243666   2.174   3.624   0.097
14570TIP3    H143667   2.215   3.540   0.077
14570TIP3    H243668   2.224   3.688   0.045
14571TIP3   OH243669   2.312   3.409   0.003
14571TIP3    H143670   2.261   3.339  -0.037
14571TIP3    H243671   2.347   3.371   0.083
14572TIP3   OH243672   4.815   6.890   6.956
14572TIP3    H143673   4.736   6.941   6.942
14572TIP3    H243674   4.860   6.892   6.872
14573TIP3   OH243675   4.776   6.680   6.665
14573TIP3    H143676   4.835   6.734   6.717
14573TIP3    H243677   4.834   6.620   6.618
14574TIP3   OH243678   2.330   2.971  -0.014
14574TIP3    H143679   2.274   2.993   0.061
14574TIP3    H243680   2.414   2.946   0.026
14575TIP3   OH243681   1.564   2.964   0.404
14575TIP3    H143682   1.525   2.909   0.336
14575TIP3    H243683   1.640   2.914   0.435
14576TIP3   OH243684   1.697   3.396   0.548
14576TIP3    H143685   1.663   3.360   0.466
14576TIP3    H243686   1.778   3.348   0.563
14577TIP3   OH243687   1.702   2.933   0.757
14577TIP3    H143688   1.733   2.913   0.669
14577TIP3    H243689   1.740   3.019   0.777
14578TIP3   OH243690   5.004   6.837   6.750
14578TIP3    H143691   5.059   6.895   6.801
14578TIP3    H243692   5.026   6.856   6.659
14579TIP3   OH243693   1.587   3.055   1.170
14579TIP3    H143694   1.582   3.140   1.212
14579TIP3    H243695   1.501   3.014   1.186
14580TIP3   OH243696   1.914   3.499   0.083
14580TIP3    H143697   1.972   3.566   0.118
14580TIP3    H243698   1.843   3.547   0.042
14581TIP3   OH243699   5.517   6.074   6.802
14581TIP3    H143700   5.437   6.094   6.851
14581TIP3    H243701   5.535   6.153   6.752
14582TIP3   OH243702   1.431   2.809   0.200
14582TIP3    H143703   1.363   2.851   0.148
14582TIP3    H243704   1.392   2.726   0.228
14583TIP3   OH243705   5.325   7.444   6.347
14583TIP3    H143706   5.326   7.535   6.318
14583TIP3    H243707   5.415   7.414   6.338
14584TIP3   OH243708   1.231   3.182   1.084
14584TIP3    H143709   1.167   3.154   1.018
14584TIP3    H243710   1.269   3.101   1.117
14585TIP3   OH243711   1.059   3.388   0.742
14585TIP3    H143712   1.153   3.371   0.732
14585TIP3    H243713   1.053   3.439   0.823
14586TIP3   OH243714   4.628   7.764   6.828
14586TIP3    H143715   4.571   7.741   6.754
14586TIP3    H243716   4.595   7.848   6.858
14587TIP3   OH243717   1.220   3.596   0.281
14587TIP3    H143718   1.278   3.593   0.357
14587TIP3    H243719   1.175   3.512   0.282
14588TIP3   OH243720   4.827   7.662   6.470
14588TIP3    H143721   4.884   7.592   6.438
14588TIP3    H243722   4.852   7.672   6.562
14589TIP3   OH243723   4.876   7.707   6.735
14589TIP3    H143724   4.789   7.720   6.774
14589TIP3    H243725   4.926   7.664   6.804
14590TIP3   OH243726   1.412   3.384   1.105
14590TIP3    H143727   1.452   3.368   1.190
14590TIP3    H243728   1.344   3.317   1.097
14591TIP3   OH243729   1.808   2.203   0.892
14591TIP3    H143730   1.723   2.171   0.862
14591TIP3    H243731   1.788   2.284   0.939
14592TIP3   OH243732   2.342   2.313   1.087
14592TIP3    H143733   2.408   2.283   1.150
14592TIP3    H243734   2.259   2.298   1.132
14593TIP3   OH243735   5.077   6.881   6.493
14593TIP3    H143736   5.044   6.854   6.408
14593TIP3    H243737   5.162   6.921   6.474
14594TIP3   OH243738   4.785   6.253   6.802
14594TIP3    H143739   4.756   6.252   6.893
14594TIP3    H243740   4.750   6.172   6.765
14595TIP3   OH243741   1.731   2.709   0.908
14595TIP3    H143742   1.693   2.731   0.993
14595TIP3    H243743   1.720   2.789   0.856
14596TIP3   OH243744   1.627   2.603   0.417
14596TIP3    H143745   1.538   2.579   0.443
14596TIP3    H243746   1.638   2.562   0.331
14597TIP3   OH243747   2.119   2.684   0.148
14597TIP3    H143748   2.069   2.755   0.108
14597TIP3    H243749   2.174   2.651   0.077
14598TIP3   OH243750   2.269   2.709   0.384
14598TIP3    H143751   2.207   2.739   0.318
14598TIP3    H243752   2.309   2.631   0.346
14599TIP3   OH243753   4.440   6.227   6.766
14599TIP3    H143754   4.438   6.227   6.862
14599TIP3    H243755   4.368   6.286   6.741
14600TIP3   OH243756   1.161   2.265   0.693
14600TIP3    H143757   1.224   2.301   0.756
14600TIP3    H243758   1.215   2.237   0.619
14601TIP3   OH243759   1.125   2.241   0.214
14601TIP3    H143760   1.170   2.276   0.138
14601TIP3    H243761   1.067   2.311   0.242
14602TIP3   OH243762   2.256   2.952   0.808
14602TIP3    H143763   2.305   2.892   0.751
14602TIP3    H243764   2.230   2.898   0.883
14603TIP3   OH243765   1.965   2.418   0.477
14603TIP3    H143766   1.882   2.419   0.526
14603TIP3    H243767   2.032   2.418   0.545
14604TIP3   OH243768   1.395   2.479   0.485
14604TIP3    H143769   1.303   2.488   0.459
14604TIP3    H243770   1.417   2.388   0.465
14605TIP3   OH243771   1.654   2.471   0.178
14605TIP3    H143772   1.747   2.489   0.163
14605TIP3    H243773   1.611   2.496   0.096
14606TIP3   OH243774   2.440   2.500   0.682
14606TIP3    H143775   2.415   2.516   0.773
14606TIP3    H243776   2.372   2.441   0.648
14607TIP3   OH243777   4.335   6.513   6.889
14607TIP3    H143778   4.267   6.470   6.837
14607TIP3    H243779   4.391   6.557   6.824
14608TIP3   OH243780   1.549   3.289   1.339
14608TIP3    H143781   1.639   3.308   1.365
14608TIP3    H243782   1.519   3.223   1.402
14609TIP3   OH243783   2.037   2.750   0.580
14609TIP3    H143784   2.112   2.712   0.535
14609TIP3    H243785   2.036   2.708   0.666
14610TIP3   OH243786   1.550   2.236   0.459
14610TIP3    H143787   1.517   2.162   0.510
14610TIP3    H243788   1.609   2.197   0.395
14611TIP3   OH243789   2.006   2.653   0.858
14611TIP3    H143790   1.917   2.683   0.879
14611TIP3    H243791   2.063   2.707   0.913
14612TIP3   OH243792   4.589   7.039   6.908
14612TIP3    H143793   4.509   6.993   6.884
14612TIP3    H243794   4.568   7.081   6.991
14613TIP3   OH243795   5.040   6.356   6.770
14613TIP3    H143796   4.946   6.340   6.778
14613TIP3    H243797   5.050   6.448   6.794
14614TIP3   OH243798   5.111   6.607   6.870
14614TIP3    H143799   5.205   6.613   6.887
14614TIP3    H243800   5.091   6.686   6.820
14615TIP3   OH243801   1.435   3.061   0.637
14615TIP3    H143802   1.483   3.028   0.561
14615TIP3    H243803   1.473   3.015   0.712
14616TIP3   OH243804   4.723   7.199   6.729
14616TIP3    H143805   4.677   7.283   6.731
14616TIP3    H243806   4.673   7.143   6.787
14617TIP3   OH243807   1.329   2.979   1.245
14617TIP3    H143808   1.328   2.965   1.340
14617TIP3    H243809   1.296   2.898   1.208
14618TIP3   OH243810   5.548   6.701   6.701
14618TIP3    H143811   5.486   6.655   6.644
14618TIP3    H243812   5.551   6.790   6.665
14619TIP3   OH243813   5.256   7.528   6.612
14619TIP3    H143814   5.229   7.462   6.676
14619TIP3    H243815   5.271   7.478   6.531
14620TIP3   OH243816   2.356   3.159   0.479
14620TIP3    H143817   2.277   3.106   0.485
14620TIP3    H243818   2.427   3.096   0.468
14621TIP3   OH243819   1.549   3.367   0.278
14621TIP3    H143820   1.549   3.449   0.230
14621TIP3    H243821   1.459   3.334   0.271
14622TIP3   OH243822   3.941   6.686   6.914
14622TIP3    H143823   4.011   6.751   6.916
14622TIP3    H243824   3.875   6.720   6.974
14623TIP3   OH243825   1.681   3.130   0.208
14623TIP3    H143826   1.650   3.220   0.225
14623TIP3    H243827   1.647   3.079   0.282
14624TIP3   OH243828   1.479   3.607   0.157
14624TIP3    H143829   1.384   3.611   0.166
14624TIP3    H243830   1.504   3.693   0.125
14625TIP3   OH243831   2.211   3.316   0.693
14625TIP3    H143832   2.203   3.249   0.761
14625TIP3    H243833   2.265   3.275   0.625
14626TIP3   OH243834   5.012   7.249   6.517
14626TIP3    H143835   5.067   7.225   6.592
14626TIP3    H243836   4.924   7.219   6.542
14627TIP3   OH243837   5.329   7.724   6.306
14627TIP3    H143838   5.392   7.788   6.273
14627TIP3    H243839   5.259   7.777   6.344
14628TIP3   OH243840   1.583   2.466   1.277
14628TIP3    H143841   1.520   2.528   1.239
14628TIP3    H243842   1.532   2.416   1.340
14629TIP3   OH243843   5.174   7.175   6.728
14629TIP3    H143844   5.158   7.113   6.800
14629TIP3    H243845   5.269   7.174   6.716
14630TIP3   OH243846   1.283   3.584   0.920
14630TIP3    H143847   1.291   3.490   0.904
14630TIP3    H243848   1.348   3.603   0.987
14631TIP3   OH243849   1.220   2.918   0.048
14631TIP3    H143850   1.160   2.965   0.105
14631TIP3    H243851   1.246   2.983  -0.018
14632TIP3   OH243852   2.384   2.547   0.945
14632TIP3    H143853   2.466   2.573   0.987
14632TIP3    H243854   2.357   2.468   0.992
14633TIP3   OH243855   2.258   2.300   0.112
14633TIP3    H143856   2.244   2.321   0.020
14633TIP3    H243857   2.295   2.380   0.149
14634TIP3   OH243858   4.572   7.424   6.732
14634TIP3    H143859   4.479   7.404   6.745
14634TIP3    H243860   4.573   7.511   6.693
14635TIP3   OH243861   1.937   2.486   0.211
14635TIP3    H143862   2.000   2.556   0.192
14635TIP3    H243863   1.945   2.472   0.306
14636TIP3   OH243864   2.192   2.786   1.017
14636TIP3    H143865   2.173   2.803   1.109
14636TIP3    H243866   2.265   2.724   1.018
14637TIP3   OH243867   2.084   2.205   0.310
14637TIP3    H143868   2.075   2.278   0.371
14637TIP3    H243869   2.146   2.237   0.244
14638TIP3   OH243870   1.600   2.211   0.101
14638TIP3    H143871   1.593   2.298   0.139
14638TIP3    H243872   1.693   2.189   0.109
14639TIP3   OH243873   2.491   2.900   0.374
14639TIP3    H143874   2.418   2.842   0.395
14639TIP3    H243875   2.564   2.866   0.426
14640TIP3   OH243876   4.055   7.139   6.787
14640TIP3    H143877   4.099   7.224   6.778
14640TIP3    H243878   4.101   7.082   6.727
14641TIP3   OH243879   3.983   6.408   6.936
14641TIP3    H143880   3.989   6.503   6.933
14641TIP3    H243881   3.917   6.386   6.870
14642TIP3   OH243882   1.544   2.119   0.859
14642TIP3    H143883   1.516   2.086   0.774
14642TIP3    H243884   1.536   2.044   0.918
14643TIP3   OH243885   1.080   3.333   0.241
14643TIP3    H143886   1.013   3.368   0.299
14643TIP3    H243887   1.061   3.373   0.156
14644TIP3   OH243888   4.518   7.412   6.434
14644TIP3    H143889   4.449   7.387   6.495
14644TIP3    H243890   4.580   7.339   6.436
14645TIP3   OH243891   4.977   7.468   6.345
14645TIP3    H143892   5.009   7.400   6.405
14645TIP3    H243893   5.032   7.458   6.267
14646TIP3   OH243894   4.185   6.935   6.655
14646TIP3    H143895   4.242   6.912   6.728
14646TIP3    H243896   4.244   6.949   6.581
14647TIP3   OH243897   4.690   7.150   6.460
14647TIP3    H143898   4.696   7.161   6.555
14647TIP3    H243899   4.689   7.055   6.447
14648TIP3   OH243900   1.532   3.049   1.508
14648TIP3    H143901   1.579   2.979   1.465
14648TIP3    H243902   1.488   3.006   1.582
14649TIP3   OH243903   4.376   6.849   6.862
14649TIP3    H143904   4.366   6.817   6.952
14649TIP3    H243905   4.422   6.778   6.817
14650TIP3   OH243906   1.818   2.889   1.146
14650TIP3    H143907   1.742   2.946   1.152
14650TIP3    H243908   1.880   2.937   1.092
14651TIP3   OH243909   4.496   6.642   6.709
14651TIP3    H143910   4.469   6.653   6.618
14651TIP3    H243911   4.592   6.645   6.706
14652TIP3   OH243912   5.310   6.973   6.374
14652TIP3    H143913   5.301   6.921   6.294
14652TIP3    H243914   5.272   7.058   6.352
14653TIP3   OH243915   1.939   2.690   1.285
14653TIP3    H143916   1.936   2.612   1.230
14653TIP3    H243917   1.893   2.757   1.233
14654TIP3   OH243918   1.952   2.478   1.087
14654TIP3    H143919   1.979   2.522   1.006
14654TIP3    H243920   1.860   2.458   1.074
14655TIP3   OH243921   1.977   3.016   0.965
14655TIP3    H143922   2.054   3.014   0.907
14655TIP3    H243923   1.917   3.077   0.923
14656TIP3   OH243924   1.816   2.815   1.504
14656TIP3    H143925   1.755   2.746   1.531
14656TIP3    H243926   1.860   2.779   1.427
14657TIP3   OH243927   2.085   2.248   1.176
14657TIP3    H143928   2.038   2.327   1.148
14657TIP3    H243929   2.023   2.177   1.161
14658TIP3   OH243930   2.209   2.753   1.295
14658TIP3    H143931   2.239   2.758   1.386
14658TIP3    H243932   2.117   2.727   1.302
14659TIP3   OH243933   1.665   2.587   1.559
14659TIP3    H143934   1.668   2.520   1.490
14659TIP3    H243935   1.704   2.544   1.635
14660TIP3   OH243936   2.172   2.240   1.446
14660TIP3    H143937   2.243   2.177   1.433
14660TIP3    H243938   2.137   2.254   1.357
14661TIP3   OH243939   4.310   7.772   6.624
14661TIP3    H143940   4.377   7.704   6.622
14661TIP3    H243941   4.291   7.789   6.531
14662TIP3   OH243942   3.788   7.087   6.824
14662TIP3    H143943   3.880   7.114   6.816
14662TIP3    H243944   3.787   6.996   6.795
14663TIP3   OH243945   0.860   3.689   0.312
14663TIP3    H143946   0.797   3.632   0.269
14663TIP3    H243947   0.905   3.633   0.375
14664TIP3   OH243948   0.994   3.536   0.501
14664TIP3    H143949   0.987   3.463   0.562
14664TIP3    H243950   1.056   3.596   0.542
14665TIP3   OH243951   5.452   7.159   6.711
14665TIP3    H143952   5.514   7.223   6.677
14665TIP3    H243953   5.495   7.122   6.788
14666TIP3   OH243954   2.746   3.023  -0.021
14666TIP3    H143955   2.676   2.977   0.026
14666TIP3    H243956   2.797   3.066   0.047
14667TIP3   OH243957   5.513   6.938   6.556
14667TIP3    H143958   5.445   6.934   6.489
14667TIP3    H243959   5.487   7.011   6.612
14668TIP3   OH243960   5.380   6.605   6.510
14668TIP3    H143961   5.344   6.636   6.427
14668TIP3    H243962   5.358   6.512   6.512
14669TIP3   OH243963   2.559   2.876   0.113
14669TIP3    H143964   2.564   2.781   0.104
14669TIP3    H243965   2.539   2.891   0.205
14670TIP3   OH243966   1.180   2.963   0.857
14670TIP3    H143967   1.175   2.920   0.771
14670TIP3    H243968   1.273   2.964   0.879
14671TIP3   OH243969   5.330   6.339   6.500
14671TIP3    H143970   5.403   6.307   6.554
14671TIP3    H243971   5.258   6.279   6.520
14672TIP3   OH243972   5.391   6.599   6.949
14672TIP3    H143973   5.427   6.512   6.966
14672TIP3    H243974   5.445   6.633   6.877
14673TIP3   OH243975   2.708   2.795   0.506
14673TIP3    H143976   2.796   2.800   0.470
14673TIP3    H243977   2.718   2.817   0.599
14674TIP3   OH243978   1.396   2.617   1.522
14674TIP3    H143979   1.491   2.621   1.532
14674TIP3    H243980   1.370   2.541   1.574
14675TIP3   OH243981   2.663   2.341   0.050
14675TIP3    H143982   2.711   2.329   0.132
14675TIP3    H243983   2.601   2.269   0.047
14676TIP3   OH243984   1.356   2.329   0.881
14676TIP3    H143985   1.420   2.258   0.884
14676TIP3    H243986   1.409   2.409   0.871
14677TIP3   OH243987   5.578   6.280   6.626
14677TIP3    H143988   5.613   6.211   6.570
14677TIP3    H243989   5.640   6.353   6.617
14678TIP3   OH243990   1.147   2.089   0.437
14678TIP3    H143991   1.059   2.096   0.475
14678TIP3    H243992   1.146   2.152   0.365
14679TIP3   OH243993   5.149   7.789   6.871
14679TIP3    H143994   5.185   7.806   6.784
14679TIP3    H243995   5.091   7.863   6.888
14680TIP3   OH243996   1.367   2.177   1.253
14680TIP3    H143997   1.323   2.182   1.338
14680TIP3    H243998   1.306   2.220   1.192
14681TIP3   OH243999   1.610   3.634   0.868
14681TIP3    H144000   1.549   3.706   0.852
14681TIP3    H244001   1.622   3.592   0.783
14682TIP3   OH244002   3.029   2.379   0.922
14682TIP3    H144003   2.936   2.379   0.942
14682TIP3    H244004   3.068   2.318   0.985
14683TIP3   OH244005   1.505   3.831   0.713
14683TIP3    H144006   1.472   3.876   0.791
14683TIP3    H244007   1.490   3.894   0.642
14684TIP3   OH244008   1.174   3.685   0.657
14684TIP3    H144009   1.207   3.675   0.746
14684TIP3    H244010   1.243   3.648   0.602
14685TIP3   OH244011   1.368   3.567   0.507
14685TIP3    H144012   1.385   3.483   0.551
14685TIP3    H244013   1.454   3.599   0.483
14686TIP3   OH244014   1.631   3.665   0.490
14686TIP3    H144015   1.671   3.578   0.498
14686TIP3    H244016   1.626   3.697   0.580
14687TIP3   OH244017   2.212   2.315   0.599
14687TIP3    H144018   2.168   2.246   0.648
14687TIP3    H244019   2.287   2.272   0.558
14688TIP3   OH244020   2.732   2.188   0.494
14688TIP3    H144021   2.769   2.245   0.427
14688TIP3    H244022   2.641   2.217   0.503
14689TIP3   OH244023   2.831   2.301   0.263
14689TIP3    H144024   2.903   2.247   0.228
14689TIP3    H244025   2.861   2.391   0.251
14690TIP3   OH244026   1.457   2.022   0.611
14690TIP3    H144027   1.366   1.991   0.618
14690TIP3    H244028   1.508   1.941   0.609
14691TIP3   OH244029   1.237   1.898   0.256
14691TIP3    H144030   1.274   1.955   0.189
14691TIP3    H244031   1.214   1.957   0.328
14692TIP3   OH244032   1.904   2.059   0.497
14692TIP3    H144033   1.959   2.105   0.433
14692TIP3    H244034   1.928   2.098   0.581
14693TIP3   OH244035   2.443   2.204   0.481
14693TIP3    H144036   2.452   2.167   0.393
14693TIP3    H244037   2.433   2.128   0.538
14694TIP3   OH244038   2.477   2.131   0.043
14694TIP3    H144039   2.394   2.177   0.059
14694TIP3    H244040   2.466   2.046   0.086
14695TIP3   OH244041   0.954   3.470   0.043
14695TIP3    H144042   0.869   3.442   0.009
14695TIP3    H244043   0.958   3.564   0.022
14696TIP3   OH244044   1.369   2.055   0.023
14696TIP3    H144045   1.417   1.994  -0.033
14696TIP3    H244046   1.437   2.111   0.060
14697TIP3   OH244047   1.878   2.234   0.127
14697TIP3    H144048   1.937   2.187   0.185
14697TIP3    H244049   1.892   2.326   0.147
14698TIP3   OH244050   4.564   7.653   6.564
14698TIP3    H144051   4.651   7.678   6.533
14698TIP3    H244052   4.539   7.581   6.506
14699TIP3   OH244053   5.280   7.799   6.631
14699TIP3    H144054   5.300   7.709   6.655
14699TIP3    H244055   5.239   7.792   6.545
14700TIP3   OH244056   1.652   2.284   1.515
14700TIP3    H144057   1.620   2.214   1.572
14700TIP3    H244058   1.745   2.291   1.536
14701TIP3   OH244059   1.919   2.284   1.598
14701TIP3    H144060   1.995   2.291   1.541
14701TIP3    H244061   1.953   2.243   1.678
14702TIP3   OH244062   3.898   7.490   6.624
14702TIP3    H144063   3.881   7.527   6.711
14702TIP3    H244064   3.983   7.448   6.633
14703TIP3   OH244065   5.748   6.812   6.865
14703TIP3    H144066   5.697   6.891   6.883
14703TIP3    H244067   5.686   6.752   6.823
14704TIP3   OH244068   2.987   3.098   0.104
14704TIP3    H144069   3.035   3.032   0.153
14704TIP3    H244070   3.009   3.081   0.012
14705TIP3   OH244071   3.460   2.712   0.123
14705TIP3    H144072   3.456   2.768   0.044
14705TIP3    H244073   3.436   2.625   0.091
14706TIP3   OH244074   3.149   2.888   0.200
14706TIP3    H144075   3.220   2.836   0.238
14706TIP3    H244076   3.122   2.838   0.123
14707TIP3   OH244077   5.652   7.318   6.599
14707TIP3    H144078   5.619   7.336   6.511
14707TIP3    H244079   5.679   7.404   6.633
14708TIP3   OH244080   6.581   6.968   6.214
14708TIP3    H144081   6.667   7.008   6.230
14708TIP3    H244082   6.602   6.885   6.172
14709TIP3   OH244083   7.276   6.322   6.239
14709TIP3    H144084   7.211   6.306   6.307
14709TIP3    H244085   7.276   6.417   6.227
14710TIP3   OH244086   6.060   7.071   6.611
14710TIP3    H144087   5.986   7.119   6.574
14710TIP3    H244088   6.024   6.987   6.637
14711TIP3   OH244089   6.874   7.119   5.942
14711TIP3    H144090   6.820   7.084   5.871
14711TIP3    H244091   6.944   7.167   5.897
14712TIP3   OH244092   6.589   6.513   6.286
14712TIP3    H144093   6.559   6.508   6.377
14712TIP3    H244094   6.553   6.435   6.244
14713TIP3   OH244095   6.234   6.866   6.833
14713TIP3    H144096   6.151   6.834   6.867
14713TIP3    H244097   6.245   6.821   6.749
14714TIP3   OH244098   6.250   6.492   6.254
14714TIP3    H144099   6.235   6.482   6.348
14714TIP3    H244100   6.169   6.532   6.221
14715TIP3   OH244101   2.953   2.524   0.179
14715TIP3    H144102   3.031   2.562   0.220
14715TIP3    H244103   2.986   2.486   0.097
14716TIP3   OH244104   5.752   6.519   6.638
14716TIP3    H144105   5.793   6.553   6.558
14716TIP3    H244106   5.687   6.585   6.660
14717TIP3   OH244107   6.008   6.740   6.910
14717TIP3    H144108   5.916   6.743   6.885
14717TIP3    H244109   6.032   6.648   6.901
14718TIP3   OH244110   6.280   6.733   6.601
14718TIP3    H144111   6.372   6.742   6.576
14718TIP3    H244112   6.232   6.758   6.522
14719TIP3   OH244113   6.131   6.789   6.379
14719TIP3    H144114   6.047   6.742   6.377
14719TIP3    H244115   6.168   6.775   6.292
14720TIP3   OH244116   6.191   6.504   6.893
14720TIP3    H144117   6.152   6.433   6.945
14720TIP3    H244118   6.232   6.459   6.819
14721TIP3   OH244119   6.433   7.217   6.380
14721TIP3    H144120   6.347   7.221   6.421
14721TIP3    H244121   6.489   7.274   6.433
14722TIP3   OH244122   6.833   6.632   6.259
14722TIP3    H144123   6.747   6.591   6.267
14722TIP3    H244124   6.815   6.725   6.249
14723TIP3   OH244125   5.754   6.938   6.416
14723TIP3    H144126   5.784   7.028   6.429
14723TIP3    H244127   5.670   6.934   6.461
14724TIP3   OH244128   6.178   7.464   5.977
14724TIP3    H144129   6.184   7.373   5.949
14724TIP3    H244130   6.184   7.459   6.073
14725TIP3   OH244131   6.153   7.457   6.245
14725TIP3    H144132   6.129   7.406   6.323
14725TIP3    H244133   6.076   7.512   6.228
14726TIP3   OH244134   5.855   7.197   6.474
14726TIP3    H144135   5.791   7.230   6.537
14726TIP3    H244136   5.846   7.255   6.399
14727TIP3   OH244137   6.875   6.568   6.530
14727TIP3    H144138   6.872   6.604   6.442
14727TIP3    H244139   6.955   6.604   6.568
14728TIP3   OH244140   6.569   6.752   6.629
14728TIP3    H144141   6.643   6.812   6.620
14728TIP3    H244142   6.540   6.764   6.720
14729TIP3   OH244143   6.722   6.479   6.741
14729TIP3    H144144   6.763   6.531   6.810
14729TIP3    H244145   6.766   6.508   6.660
14730TIP3   OH244146   6.228   6.471   6.527
14730TIP3    H144147   6.221   6.556   6.572
14730TIP3    H244148   6.321   6.450   6.532
14731TIP3   OH244149   5.793   6.669   6.403
14731TIP3    H144150   5.786   6.764   6.408
14731TIP3    H244151   5.739   6.645   6.327
14732TIP3   OH244152   3.295   2.368   0.357
14732TIP3    H144153   3.299   2.339   0.266
14732TIP3    H244154   3.316   2.290   0.408
14733TIP3   OH244155   5.703   7.577   6.652
14733TIP3    H144156   5.638   7.616   6.711
14733TIP3    H244157   5.704   7.635   6.576
14734TIP3   OH244158   6.331   7.679   5.915
14734TIP3    H144159   6.269   7.608   5.937
14734TIP3    H244160   6.411   7.633   5.891
14735TIP3   OH244161   5.974   7.179   6.116
14735TIP3    H144162   6.014   7.155   6.199
14735TIP3    H244163   6.048   7.199   6.059
14736TIP3   OH244164   6.483   7.394   5.955
14736TIP3    H144165   6.461   7.414   6.046
14736TIP3    H244166   6.493   7.299   5.953
14737TIP3   OH244167   6.202   7.071   6.372
14737TIP3    H144168   6.154   7.079   6.455
14737TIP3    H244169   6.172   6.988   6.336
14738TIP3   OH244170   6.302   6.902   6.170
14738TIP3    H144171   6.242   6.905   6.095
14738TIP3    H244172   6.378   6.853   6.138
14739TIP3   OH244173   5.591   7.339   6.326
14739TIP3    H144174   5.614   7.406   6.262
14739TIP3    H244175   5.588   7.258   6.275
14740TIP3   OH244176   3.167   2.607   0.335
14740TIP3    H144177   3.208   2.520   0.338
14740TIP3    H244178   3.193   2.648   0.417
14741TIP3   OH244179   2.965   2.880   0.443
14741TIP3    H144180   3.022   2.870   0.367
14741TIP3    H244181   2.942   2.973   0.442
14742TIP3   OH244182   7.419   6.605   6.017
14742TIP3    H144183   7.417   6.510   6.009
14742TIP3    H244184   7.459   6.621   6.102
14743TIP3   OH244185   5.778   6.377   6.871
14743TIP3    H144186   5.687   6.363   6.896
14743TIP3    H244187   5.774   6.431   6.792
14744TIP3   OH244188   3.256   2.280   0.091
14744TIP3    H144189   3.164   2.254   0.099
14744TIP3    H244190   3.305   2.198   0.088
14745TIP3   OH244191   5.883   6.162   6.692
14745TIP3    H144192   5.910   6.214   6.616
14745TIP3    H244193   5.853   6.226   6.756
14746TIP3   OH244194   6.535   6.315   6.921
14746TIP3    H144195   6.593   6.373   6.871
14746TIP3    H244196   6.519   6.362   7.003
14747TIP3   OH244197   7.078   6.366   6.449
14747TIP3    H144198   7.005   6.423   6.469
14747TIP3    H244199   7.057   6.283   6.492
14748TIP3   OH244200   5.586   7.750   6.465
14748TIP3    H144201   5.547   7.682   6.411
14748TIP3    H244202   5.565   7.832   6.420
14749TIP3   OH244203   5.995   6.308   6.465
14749TIP3    H144204   6.035   6.251   6.400
14749TIP3    H244205   6.067   6.363   6.497
14750TIP3   OH244206   6.508   6.496   6.550
14750TIP3    H144207   6.558   6.442   6.610
14750TIP3    H244208   6.533   6.586   6.572
14751TIP3   OH244209   5.469   0.220   6.783
14751TIP3    H144210   5.513   0.290   6.832
14751TIP3    H244211   5.539   0.180   6.731
14752TIP3   OH244212   0.530   3.623   0.004
14752TIP3    H144213   0.453   3.638   0.060
14752TIP3    H244214   0.543   3.707  -0.041
14753TIP3   OH244215   5.751   0.385   6.640
14753TIP3    H144216   5.719   0.371   6.551
14753TIP3    H244217   5.813   0.457   6.633
14754TIP3   OH244218   8.282   3.826   0.007
14754TIP3    H144219   8.272   3.828   0.102
14754TIP3    H244220   8.256   3.737  -0.018
14755TIP3   OH244221   2.881   7.896   6.882
14755TIP3    H144222   2.789   7.893   6.907
14755TIP3    H244223   2.903   7.989   6.884
14756TIP3   OH244224   5.817   0.137   6.864
14756TIP3    H144225   5.869   0.138   6.944
14756TIP3    H244226   5.771   0.221   6.864
14757TIP3   OH244227   6.216   0.231   6.829
14757TIP3    H144228   6.158   0.183   6.770
14757TIP3    H244229   6.219   0.320   6.794
14758TIP3   OH244230   0.155   3.867   0.221
14758TIP3    H144231   0.116   3.868   0.134
14758TIP3    H244232   0.112   3.939   0.268
14759TIP3   OH244233   5.986   0.529   6.522
14759TIP3    H144234   5.959   0.476   6.447
14759TIP3    H244235   5.985   0.619   6.489
14760TIP3   OH244236   6.187   0.487   6.700
14760TIP3    H144237   6.115   0.471   6.639
14760TIP3    H244238   6.194   0.582   6.705
14761TIP3   OH244239   6.062   0.143   6.624
14761TIP3    H144240   5.989   0.181   6.577
14761TIP3    H244241   6.041   0.050   6.631
14762TIP3   OH244242   3.176   7.888   6.645
14762TIP3    H144243   3.258   7.875   6.693
14762TIP3    H244244   3.111   7.839   6.696
14763TIP3   OH244245   0.425   4.144   0.125
14763TIP3    H144246   0.467   4.065   0.161
14763TIP3    H244247   0.477   4.165   0.048
14764TIP3   OH244248   0.524   3.892   0.191
14764TIP3    H144249   0.557   3.888   0.280
14764TIP3    H244250   0.455   3.826   0.188
14765TIP3   OH244251   3.417   7.845   6.769
14765TIP3    H144252   3.458   7.773   6.721
14765TIP3    H244253   3.485   7.912   6.773
14766TIP3   OH244254   0.585   3.781   0.658
14766TIP3    H144255   0.623   3.813   0.576
14766TIP3    H244256   0.493   3.767   0.638
14767TIP3   OH244257   0.677   3.867   0.418
14767TIP3    H144258   0.746   3.816   0.376
14767TIP3    H244259   0.702   3.958   0.400
14768TIP3   OH244260   0.321   3.741   0.632
14768TIP3    H144261   0.263   3.748   0.557
14768TIP3    H244262   0.285   3.669   0.684
14769TIP3   OH244263   0.341   3.677   0.192
14769TIP3    H144264   0.270   3.739   0.207
14769TIP3    H244265   0.312   3.596   0.235
14770TIP3   OH244266   7.712   3.595   0.147
14770TIP3    H144267   7.742   3.523   0.091
14770TIP3    H244268   7.793   3.632   0.184
14771TIP3   OH244269   0.765   4.315   0.054
14771TIP3    H144270   0.751   4.409   0.048
14771TIP3    H244271   0.682   4.277   0.025
14772TIP3   OH244272   1.339   4.234   0.233
14772TIP3    H144273   1.315   4.306   0.175
14772TIP3    H244274   1.295   4.157   0.196
14773TIP3   OH244275   7.705   0.285   6.798
14773TIP3    H144276   7.747   0.285   6.884
14773TIP3    H244277   7.699   0.378   6.776
14774TIP3   OH244278   1.422   4.615   0.165
14774TIP3    H144279   1.508   4.583   0.138
14774TIP3    H244280   1.360   4.550   0.132
14775TIP3   OH244281   1.213   4.342   0.453
14775TIP3    H144282   1.253   4.428   0.442
14775TIP3    H244283   1.255   4.288   0.385
14776TIP3   OH244284   1.657   3.926   0.373
14776TIP3    H144285   1.666   3.836   0.402
14776TIP3    H244286   1.592   3.964   0.432
14777TIP3   OH244287   7.280   0.676   6.580
14777TIP3    H144288   7.205   0.735   6.571
14777TIP3    H244289   7.333   0.693   6.502
14778TIP3   OH244290   7.240   0.480   6.303
14778TIP3    H144291   7.294   0.523   6.369
14778TIP3    H244292   7.300   0.420   6.259
14779TIP3   OH244293   6.886   0.757   6.926
14779TIP3    H144294   6.884   0.667   6.894
14779TIP3    H244295   6.950   0.755   6.998
14780TIP3   OH244296   7.484   0.653   6.388
14780TIP3    H144297   7.545   0.719   6.420
14780TIP3    H244298   7.499   0.651   6.293
14781TIP3   OH244299   5.111   7.930   6.387
14781TIP3    H144300   5.045   7.917   6.456
14781TIP3    H244301   5.179   7.983   6.428
14782TIP3   OH244302   6.752   0.575   6.754
14782TIP3    H144303   6.695   0.651   6.766
14782TIP3    H244304   6.699   0.500   6.781
14783TIP3   OH244305   1.449   4.026   0.527
14783TIP3    H144306   1.360   3.998   0.507
14783TIP3    H244307   1.439   4.115   0.561
14784TIP3   OH244308   7.554   0.654   6.130
14784TIP3    H144309   7.519   0.632   6.044
14784TIP3    H244310   7.592   0.741   6.119
14785TIP3   OH244311   7.261   0.051   6.437
14785TIP3    H144312   7.227   0.053   6.526
14785TIP3    H244313   7.223  -0.027   6.398
14786TIP3   OH244314   1.267   4.421   0.048
14786TIP3    H144315   1.179   4.388   0.066
14786TIP3    H244316   1.289   4.385  -0.038
14787TIP3   OH244317   7.419   0.491   6.721
14787TIP3    H144318   7.367   0.563   6.685
14787TIP3    H244319   7.463   0.453   6.645
14788TIP3   OH244320   6.912   0.028   6.403
14788TIP3    H144321   6.910   0.024   6.499
14788TIP3    H244322   6.839   0.085   6.381
14789TIP3   OH244323   0.806   4.091   0.326
14789TIP3    H144324   0.886   4.107   0.376
14789TIP3    H244325   0.836   4.050   0.245
14790TIP3   OH244326   6.429   0.047   6.789
14790TIP3    H144327   6.483   0.078   6.716
14790TIP3    H244328   6.371   0.120   6.808
14791TIP3   OH244329   1.596   4.256   0.125
14791TIP3    H144330   1.511   4.243   0.167
14791TIP3    H244331   1.658   4.212   0.183
14792TIP3   OH244332   1.038   4.296   0.097
14792TIP3    H144333   0.943   4.303   0.100
14792TIP3    H244334   1.055   4.202   0.089
14793TIP3   OH244335   6.962   0.283   6.753
14793TIP3    H144336   7.053   0.290   6.725
14793TIP3    H244337   6.911   0.302   6.674
14794TIP3   OH244338   6.808   0.310   6.529
14794TIP3    H144339   6.734   0.271   6.483
14794TIP3    H244340   6.860   0.352   6.460
14795TIP3   OH244341   1.201   4.043   0.098
14795TIP3    H144342   1.163   3.971   0.149
14795TIP3    H244343   1.250   4.000   0.028
14796TIP3   OH244344   7.052   0.828   6.549
14796TIP3    H144345   6.978   0.769   6.531
14796TIP3    H244346   7.030   0.867   6.633
14797TIP3   OH244347   7.505   0.157   6.388
14797TIP3    H144348   7.416   0.127   6.405
14797TIP3    H244349   7.507   0.246   6.422
14798TIP3   OH244350   7.548   0.405   6.494
14798TIP3    H144351   7.642   0.400   6.510
14798TIP3    H244352   7.536   0.491   6.452
14799TIP3   OH244353   7.154   1.001   6.363
14799TIP3    H144354   7.127   1.078   6.413
14799TIP3    H244355   7.130   0.927   6.419
14800TIP3   OH244356   8.033   0.444   6.290
14800TIP3    H144357   7.950   0.412   6.256
14800TIP3    H244358   8.039   0.534   6.258
14801TIP3   OH244359   6.417   0.475   6.544
14801TIP3    H144360   6.460   0.558   6.562
14801TIP3    H244361   6.343   0.472   6.604
14802TIP3   OH244362   7.532   0.966   6.156
14802TIP3    H144363   7.584   1.038   6.192
14802TIP3    H244364   7.445   1.003   6.146
14803TIP3   OH244365   6.827   0.972   6.203
14803TIP3    H144366   6.868   0.888   6.183
14803TIP3    H244367   6.865   0.997   6.287
14804TIP3   OH244368   6.509   0.724   6.626
14804TIP3    H144369   6.549   0.765   6.703
14804TIP3    H244370   6.522   0.788   6.556
14805TIP3   OH244371   7.556   0.091   6.677
14805TIP3    H144372   7.536   0.122   6.588
14805TIP3    H244373   7.605   0.163   6.717
14806TIP3   OH244374   7.252   0.291   6.795
14806TIP3    H144375   7.311   0.363   6.773
14806TIP3    H244376   7.249   0.292   6.891
14807TIP3   OH244377   7.393   0.022   6.892
14807TIP3    H144378   7.368   0.108   6.926
14807TIP3    H244379   7.449   0.041   6.817
14808TIP3   OH244380   6.900   0.017   6.678
14808TIP3    H144381   6.901   0.104   6.717
14808TIP3    H244382   6.991  -0.013   6.683
14809TIP3   OH244383   6.530   0.941   6.440
14809TIP3    H144384   6.562   1.031   6.433
14809TIP3    H244385   6.579   0.892   6.375
14810TIP3   OH244386   6.461   0.204   6.565
14810TIP3    H144387   6.470   0.299   6.559
14810TIP3    H244388   6.372   0.187   6.533
14811TIP3   OH244389   1.193   3.923   0.497
14811TIP3    H144390   1.165   3.891   0.412
14811TIP3    H244391   1.182   3.849   0.556
14812TIP3   OH244392   6.652   0.734   6.295
14812TIP3    H144393   6.698   0.699   6.371
14812TIP3    H244394   6.719   0.741   6.227
14813TIP3   OH244395   7.094   0.906   6.100
14813TIP3    H144396   7.116   0.927   6.191
14813TIP3    H244397   7.129   0.818   6.086
14814TIP3   OH244398   6.849   0.645   6.505
14814TIP3    H144399   6.819   0.609   6.589
14814TIP3    H244400   6.889   0.571   6.460
14815TIP3   OH244401   6.964   0.443   6.347
14815TIP3    H144402   6.937   0.446   6.255
14815TIP3    H244403   7.060   0.447   6.344
14816TIP3   OH244404   7.788   0.783   6.012
14816TIP3    H144405   7.761   0.733   5.935
14816TIP3    H244406   7.775   0.874   5.987
14817TIP3   OH244407   6.264   0.864   6.480
14817TIP3    H144408   6.352   0.896   6.464
14817TIP3    H244409   6.258   0.784   6.426
14818TIP3   OH244410   8.002   0.673   6.149
14818TIP3    H144411   7.923   0.694   6.100
14818TIP3    H244412   8.059   0.748   6.138
14819TIP3   OH244413   7.823   0.376   6.126
14819TIP3    H144414   7.798   0.461   6.090
14819TIP3    H244415   7.779   0.313   6.070
14820TIP3   OH244416   7.812   0.391   6.554
14820TIP3    H144417   7.832   0.317   6.612
14820TIP3    H244418   7.857   0.465   6.594
14821TIP3   OH244419   7.943   0.155   6.662
14821TIP3    H144420   7.960   0.153   6.756
14821TIP3    H244421   7.880   0.085   6.648
14822TIP3   OH244422   1.025   4.140   0.491
14822TIP3    H144423   1.084   4.064   0.496
14822TIP3    H244424   1.082   4.213   0.468
14823TIP3   OH244425   8.081   0.071   6.181
14823TIP3    H144426   8.163   0.025   6.195
14823TIP3    H244427   8.099   0.161   6.206
14824TIP3   OH244428   0.787   3.918   0.083
14824TIP3    H144429   0.696   3.908   0.111
14824TIP3    H244430   0.782   3.975   0.007
14825TIP3   OH244431   1.804   4.108   0.237
14825TIP3    H144432   1.758   4.038   0.282
14825TIP3    H244433   1.850   4.065   0.165
14826TIP3   OH244434   1.093   3.837   0.253
14826TIP3    H144435   1.001   3.811   0.256
14826TIP3    H244436   1.141   3.754   0.248
14827TIP3   OH244437   3.718   7.720   6.843
14827TIP3    H144438   3.745   7.775   6.769
14827TIP3    H244439   3.691   7.782   6.910
14828TIP3   OH244440   1.535   3.886   0.126
14828TIP3    H144441   1.601   3.926   0.069
14828TIP3    H244442   1.569   3.899   0.214
14829TIP3   OH244443   2.131   3.939   0.058
14829TIP3    H144444   2.103   4.029   0.074
14829TIP3    H244445   2.094   3.889   0.131
14830TIP3   OH244446   4.945   7.945   6.618
14830TIP3    H144447   4.862   7.989   6.632
14830TIP3    H244448   4.936   7.860   6.661
14831TIP3   OH244449   3.839   7.879   6.599
14831TIP3    H144450   3.886   7.814   6.546
14831TIP3    H244451   3.908   7.932   6.637
14832TIP3   OH244452   7.174   0.050   6.694
14832TIP3    H144453   7.216  -0.020   6.745
14832TIP3    H244454   7.209   0.131   6.732
14833TIP3   OH244455   0.195   0.300   5.904
14833TIP3    H144456   0.175   0.283   5.996
14833TIP3    H244457   0.115   0.340   5.869
14834TIP3   OH244458   8.235   0.266   6.266
14834TIP3    H144459   8.306   0.298   6.210
14834TIP3    H244460   8.178   0.342   6.279
14835TIP3   OH244461   8.201   0.440   6.004
14835TIP3    H144462   8.263   0.502   6.041
14835TIP3    H244463   8.123   0.449   6.060
14836TIP3   OH244464   8.147   0.097   6.468
14836TIP3    H144465   8.094   0.142   6.534
14836TIP3    H244466   8.190   0.168   6.420
14837TIP3   OH244467   5.471   7.965   6.280
14837TIP3    H144468   5.529   8.021   6.229
14837TIP3    H244469   5.448   8.017   6.357
14838TIP3   OH244470  -0.034   0.110   6.091
14838TIP3    H144471   0.003   0.043   6.034
14838TIP3    H244472   0.040   0.141   6.143
   8.50000   8.01388   6.94022   0.00000   0.00000  -2.83333   0.00000  -2.83333  -4.00694
