Title
44469
    1GLY      N    1   6.365   4.601   3.637
    1GLY    HT1    2   6.466   4.612   3.659
    1GLY    HT2    3   6.319   4.694   3.638
    1GLY    HT3    4   6.359   4.563   3.540
    1GLY     CA    5   6.301   4.503   3.732
    1GLY    HA1    6   6.290   4.552   3.828
    1GLY    HA2    7   6.363   4.415   3.734
    1GLY      C    8   6.164   4.463   3.687
    1GLY      O    9   6.109   4.535   3.604
    2PRO      N   10   6.104   4.353   3.734
    2PRO     CD   11   6.165   4.261   3.830
    2PRO    HD1   12   6.172   4.311   3.929
    2PRO    HD2   13   6.265   4.227   3.797
    2PRO     CA   14   5.962   4.323   3.714
    2PRO     HA   15   5.951   4.296   3.610
    2PRO     CB   16   5.932   4.206   3.810
    2PRO    HB1   17   5.860   4.133   3.766
    2PRO    HB2   18   5.890   4.243   3.905
    2PRO     CG   19   6.069   4.143   3.838
    2PRO    HG1   20   6.072   4.092   3.937
    2PRO    HG2   21   6.094   4.068   3.760
    2PRO      C   22   5.867   4.440   3.737
    2PRO      O   23   5.899   4.532   3.813
    3GLY      N   24   5.751   4.441   3.669
    3GLY     HN   25   5.730   4.369   3.603
    3GLY     CA   26   5.641   4.531   3.700
    3GLY    HA1   27   5.560   4.507   3.634
    3GLY    HA2   28   5.677   4.633   3.688
    3GLY      C   29   5.589   4.518   3.841
    3GLY      O   30   5.615   4.422   3.913
    4ASN      N   31   5.509   4.617   3.884
    4ASN     HN   32   5.491   4.697   3.827
    4ASN     CA   33   5.429   4.603   4.004
    4ASN     HA   34   5.497   4.573   4.082
    4ASN     CB   35   5.364   4.738   4.043
    4ASN    HB1   36   5.294   4.725   4.129
    4ASN    HB2   37   5.306   4.778   3.957
    4ASN     CG   38   5.471   4.839   4.084
    4ASN    OD1   39   5.590   4.810   4.097
    4ASN    ND2   40   5.429   4.966   4.104
    4ASN   HD21   41   5.498   5.034   4.131
    4ASN   HD22   42   5.331   4.988   4.101
    4ASN      C   43   5.323   4.494   3.984
    4ASN      O   44   5.269   4.485   3.873
    5PRO      N   45   5.289   4.410   4.082
    5PRO     CD   46   5.362   4.399   4.208
    5PRO    HD1   47   5.346   4.491   4.267
    5PRO    HD2   48   5.471   4.382   4.190
    5PRO     CA   49   5.172   4.322   4.079
    5PRO     HA   50   5.196   4.242   4.010
    5PRO     CB   51   5.157   4.274   4.224
    5PRO    HB1   52   5.113   4.172   4.230
    5PRO    HB2   53   5.095   4.345   4.282
    5PRO     CG   54   5.300   4.278   4.279
    5PRO    HG1   55   5.304   4.290   4.389
    5PRO    HG2   56   5.355   4.186   4.250
    5PRO      C   57   5.045   4.387   4.027
    5PRO      O   58   5.024   4.506   4.050
    6GLY      N   59   4.957   4.310   3.959
    6GLY     HN   60   4.977   4.214   3.943
    6GLY     CA   61   4.825   4.359   3.919
    6GLY    HA1   62   4.772   4.275   3.875
    6GLY    HA2   63   4.842   4.440   3.850
    6GLY      C   64   4.739   4.411   4.033
    6GLY      O   65   4.768   4.386   4.150
    7PRO      N   66   4.631   4.484   4.005
    7PRO     CD   67   4.584   4.513   3.869
    7PRO    HD1   68   4.596   4.426   3.801
    7PRO    HD2   69   4.641   4.600   3.830
    7PRO     CA   70   4.524   4.502   4.103
    7PRO     HA   71   4.566   4.550   4.191
    7PRO     CB   72   4.423   4.591   4.029
    7PRO    HB1   73   4.454   4.697   4.039
    7PRO    HB2   74   4.319   4.580   4.068
    7PRO     CG   75   4.435   4.546   3.883
    7PRO    HG1   76   4.375   4.454   3.868
    7PRO    HG2   77   4.400   4.624   3.812
    7PRO      C   78   4.465   4.370   4.149
    7PRO      O   79   4.462   4.274   4.072
    8GLY      N   80   4.418   4.361   4.275
    8GLY     HN   81   4.430   4.438   4.337
    8GLY     CA   82   4.342   4.245   4.322
    8GLY    HA1   83   4.313   4.264   4.424
    8GLY    HA2   84   4.406   4.158   4.312
    8GLY      C   85   4.215   4.217   4.245
    8GLY      O   86   4.158   4.305   4.181
    9ASN      N   87   4.163   4.093   4.254
    9ASN     HN   88   4.213   4.022   4.304
    9ASN     CA   89   4.035   4.055   4.196
    9ASN     HA   90   4.045   4.072   4.090
    9ASN     CB   91   4.001   3.906   4.225
    9ASN    HB1   92   3.894   3.885   4.199
    9ASN    HB2   93   4.016   3.885   4.333
    9ASN     CG   94   4.083   3.808   4.141
    9ASN    OD1   95   4.137   3.838   4.035
    9ASN    ND2   96   4.092   3.682   4.190
    9ASN   HD21   97   4.147   3.615   4.139
    9ASN   HD22   98   4.044   3.656   4.274
    9ASN      C   99   3.920   4.141   4.250
    9ASN      O  100   3.923   4.178   4.368
   10PRO      N  101   3.817   4.177   4.170
   10PRO     CD  102   3.799   4.124   4.034
   10PRO    HD1  103   3.785   4.014   4.039
   10PRO    HD2  104   3.887   4.149   3.970
   10PRO     CA  105   3.693   4.236   4.221
   10PRO     HA  106   3.719   4.336   4.255
   10PRO     CB  107   3.594   4.238   4.102
   10PRO    HB1  108   3.554   4.340   4.086
   10PRO    HB2  109   3.508   4.169   4.119
   10PRO     CG  110   3.673   4.190   3.979
   10PRO    HG1  111   3.613   4.118   3.919
   10PRO    HG2  112   3.700   4.277   3.915
   10PRO      C  113   3.635   4.164   4.341
   10PRO      O  114   3.642   4.042   4.348
   11GLY      N  115   3.578   4.238   4.439
   11GLY     HN  116   3.576   4.337   4.432
   11GLY     CA  117   3.509   4.175   4.551
   11GLY    HA1  118   3.473   4.255   4.615
   11GLY    HA2  119   3.581   4.111   4.600
   11GLY      C  120   3.390   4.089   4.513
   11GLY      O  121   3.343   4.094   4.399
   12PRO      N  122   3.338   4.009   4.604
   12PRO     CD  123   3.377   4.010   4.746
   12PRO    HD1  124   3.390   4.113   4.785
   12PRO    HD2  125   3.471   3.952   4.758
   12PRO     CA  126   3.215   3.934   4.582
   12PRO     HA  127   3.229   3.872   4.495
   12PRO     CB  128   3.202   3.851   4.711
   12PRO    HB1  129   3.264   3.759   4.700
   12PRO    HB2  130   3.097   3.820   4.732
   12PRO     CG  131   3.262   3.940   4.819
   12PRO    HG1  132   3.186   4.015   4.851
   12PRO    HG2  133   3.296   3.882   4.908
   12PRO      C  134   3.093   4.021   4.555
   12PRO      O  135   3.087   4.137   4.599
   13GLY      N  136   2.995   3.967   4.480
   13GLY     HN  137   3.008   3.875   4.443
   13GLY     CA  138   2.862   4.024   4.464
   13GLY    HA1  139   2.803   3.955   4.406
   13GLY    HA2  140   2.872   4.120   4.417
   13GLY      C  141   2.788   4.045   4.595
   13GLY      O  142   2.816   3.981   4.696
   14ASN      N  143   2.689   4.136   4.595
   14ASN     HN  144   2.666   4.186   4.512
   14ASN     CA  145   2.602   4.159   4.708
   14ASN     HA  146   2.667   4.176   4.793
   14ASN     CB  147   2.521   4.289   4.681
   14ASN    HB1  148   2.443   4.269   4.605
   14ASN    HB2  149   2.591   4.365   4.640
   14ASN     CG  150   2.461   4.350   4.808
   14ASN    OD1  151   2.509   4.335   4.919
   14ASN    ND2  152   2.349   4.425   4.790
   14ASN   HD21  153   2.311   4.466   4.872
   14ASN   HD22  154   2.306   4.428   4.700
   14ASN      C  155   2.510   4.038   4.733
   14ASN      O  156   2.458   3.986   4.634
   15PRO      N  157   2.487   3.988   4.856
   15PRO     CD  158   2.572   4.016   4.972
   15PRO    HD1  159   2.531   4.106   5.024
   15PRO    HD2  160   2.678   4.033   4.944
   15PRO     CA  161   2.397   3.876   4.879
   15PRO     HA  162   2.421   3.796   4.811
   15PRO     CB  163   2.423   3.835   5.026
   15PRO    HB1  164   2.419   3.725   5.038
   15PRO    HB2  165   2.347   3.881   5.094
   15PRO     CG  166   2.561   3.893   5.061
   15PRO    HG1  167   2.569   3.919   5.169
   15PRO    HG2  168   2.640   3.820   5.034
   15PRO      C  169   2.249   3.908   4.861
   15PRO    OT1  170   2.213   4.021   4.817
   15PRO    OT2  171   2.165   3.820   4.896
   16LIT    LIT  172   7.970   7.815   1.451
   17LIT    LIT  173   7.771   3.442   6.625
   18LIT    LIT  174   3.071   3.800   2.187
   19LIT    LIT  175   4.275   7.432   2.118
   20LIT    LIT  176   6.882   5.187   5.134
   21LIT    LIT  177   3.527   6.802   6.774
   22LIT    LIT  178   6.676   6.527   4.813
   23LIT    LIT  179   2.070   1.074   6.217
   24LIT    LIT  180   5.408   2.694   3.164
   25LIT    LIT  181   5.736   7.028   6.068
   26LIT    LIT  182   7.456   1.875   2.158
   27LIT    LIT  183   6.102   4.699   0.570
   28LIT    LIT  184   1.444   3.956   2.260
   29LIT    LIT  185   1.353   1.836   5.710
   30LIT    LIT  186   3.545   0.993   2.682
   31LIT    LIT  187   1.808   2.306   2.543
   32LIT    LIT  188   3.023   7.550   6.229
   33LIT    LIT  189   1.097   4.795   4.871
   34LIT    LIT  190   5.089   7.987   6.168
   35LIT    LIT  191   7.069   3.570   3.092
   36LIT    LIT  192   1.444   6.863   0.590
   37LIT    LIT  193   6.047   7.415   2.065
   38LIT    LIT  194   3.842   4.993   6.843
   39LIT    LIT  195   2.511   3.765   3.388
   40LIT    LIT  196   0.632   5.557   5.940
   41LIT    LIT  197   7.561   1.315   2.810
   42LIT    LIT  198   4.342   0.002   2.286
   43LIT    LIT  199   6.400   7.027   6.278
   44LIT    LIT  200   2.084   5.584   0.970
   45LIT    LIT  201   6.989   0.541   2.170
   46LIT    LIT  202   7.724   4.809   0.173
   47LIT    LIT  203   0.172   6.104   5.170
   48LIT    LIT  204   7.859   4.859   2.631
   49LIT    LIT  205   8.354   3.316   3.009
   50LIT    LIT  206   7.254   6.696   5.876
   51LIT    LIT  207   0.366   3.681   4.259
   52LIT    LIT  208   5.794   0.116   3.625
   53LIT    LIT  209   4.679   0.990   0.307
   54LIT    LIT  210   0.897   6.937   5.696
   55LIT    LIT  211   1.098   5.916   2.410
   56LIT    LIT  212   2.958   0.986   2.400
   57LIT    LIT  213   5.902   0.304   5.435
   58CLA    CLA  214   4.829   2.597   3.254
   59CLA    CLA  215   5.694   6.854   5.936
   60CLA    CLA  216   3.822   6.077   3.925
   61CLA    CLA  217   7.291   2.611   2.779
   62CLA    CLA  218   3.550   0.764   2.687
   63CLA    CLA  219   3.391   5.027   0.007
   64CLA    CLA  220   4.220   7.374   6.632
   65CLA    CLA  221   7.475   6.830   2.470
   66CLA    CLA  222   2.447   2.351   1.812
   67CLA    CLA  223   4.730   4.519   1.186
   68CLA    CLA  224   1.113   1.242   3.112
   69CLA    CLA  225   7.708   4.441   2.052
   70CLA    CLA  226   4.401   5.908   0.348
   71CLA    CLA  227   3.316   7.346   1.002
   72CLA    CLA  228   6.398   1.018   3.098
   73CLA    CLA  229   3.559   1.097   2.477
   74CLA    CLA  230   7.457   7.520   2.904
   75CLA    CLA  231   7.017   3.628   6.361
   76CLA    CLA  232   5.300   2.598   2.707
   77CLA    CLA  233   3.254   1.425   4.108
   78CLA    CLA  234   1.397   3.284   2.114
   79CLA    CLA  235   1.430   2.653   1.078
   80CLA    CLA  236   2.588   0.832   5.748
   81CLA    CLA  237   2.446   0.617   3.339
   82CLA    CLA  238   6.276   7.707   2.364
   83CLA    CLA  239   5.674   7.559   6.118
   84CLA    CLA  240   3.823   2.237   4.087
   85CLA    CLA  241   6.982   4.245   3.200
   86CLA    CLA  242   5.994   6.165   5.240
   87CLA    CLA  243   2.649   1.865   6.792
   88CLA    CLA  244   1.319   7.906   2.298
   89CLA    CLA  245   1.161   4.005   4.488
   90CLA    CLA  246   1.307   4.232   1.137
   91CLA    CLA  247   4.994   1.720   0.340
   92CLA    CLA  248   6.246   3.349   2.407
   93CLA    CLA  249   8.204   3.536   0.171
   94CLA    CLA  250   8.485   3.305   2.832
   95CLA    CLA  251   7.146   1.823   3.995
   96CLA    CLA  252   7.326   0.777   2.521
   97CLA    CLA  253   5.237   0.293   5.650
   98CLA    CLA  254   1.408   0.728   4.991
   99CLA    CLA  255   5.560   2.274   6.383
  100TIP3   OH2  256   3.277   0.368   2.243
  100TIP3    H1  257   3.280   0.273   2.254
  100TIP3    H2  258   3.198   0.396   2.290
  101TIP3   OH2  259   2.973   0.776   2.336
  101TIP3    H1  260   2.956   0.748   2.246
  101TIP3    H2  261   3.069   0.777   2.343
  102TIP3   OH2  262   3.284   0.058   2.242
  102TIP3    H1  263   3.189   0.052   2.234
  102TIP3    H2  264   3.318   0.002   2.172
  103TIP3   OH2  265   2.782   0.251   2.505
  103TIP3    H1  266   2.738   0.199   2.572
  103TIP3    H2  267   2.825   0.321   2.554
  104TIP3   OH2  268   3.102   0.478   2.023
  104TIP3    H1  269   3.146   0.445   1.945
  104TIP3    H2  270   3.152   0.443   2.096
  105TIP3   OH2  271   3.150   0.175   2.585
  105TIP3    H1  272   3.074   0.182   2.643
  105TIP3    H2  273   3.193   0.260   2.591
  106TIP3   OH2  274   0.365   7.843   2.407
  106TIP3    H1  275   0.415   7.761   2.407
  106TIP3    H2  276   0.412   7.900   2.346
  107TIP3   OH2  277   0.547   7.644   2.428
  107TIP3    H1  278   0.568   7.556   2.459
  107TIP3    H2  279   0.632   7.687   2.421
  108TIP3   OH2  280   2.575   0.668   2.274
  108TIP3    H1  281   2.610   0.583   2.248
  108TIP3    H2  282   2.612   0.685   2.360
  109TIP3   OH2  283   3.033   0.449   2.338
  109TIP3    H1  284   2.963   0.393   2.373
  109TIP3    H2  285   3.006   0.538   2.362
  110TIP3   OH2  286   1.485   7.854   1.487
  110TIP3    H1  287   1.506   7.840   1.580
  110TIP3    H2  288   1.495   7.768   1.447
  111TIP3   OH2  289   4.596   0.105   1.269
  111TIP3    H1  290   4.505   0.094   1.294
  111TIP3    H2  291   4.622   0.188   1.307
  112TIP3   OH2  292   4.157   0.607   1.271
  112TIP3    H1  293   4.198   0.541   1.216
  112TIP3    H2  294   4.088   0.560   1.318
  113TIP3   OH2  295   4.126   0.038   1.528
  113TIP3    H1  296   4.198  -0.004   1.481
  113TIP3    H2  297   4.166   0.113   1.571
  114TIP3   OH2  298   3.929  -0.015   1.765
  114TIP3    H1  299   3.856   0.030   1.807
  114TIP3    H2  300   3.954   0.041   1.692
  115TIP3   OH2  301   3.759   0.177   1.874
  115TIP3    H1  302   3.741   0.269   1.859
  115TIP3    H2  303   3.684   0.145   1.925
  116TIP3   OH2  304   4.629   0.376   1.320
  116TIP3    H1  305   4.553   0.375   1.379
  116TIP3    H2  306   4.635   0.467   1.291
  117TIP3   OH2  307   4.375   0.501   1.123
  117TIP3    H1  308   4.458   0.484   1.078
  117TIP3    H2  309   4.324   0.552   1.060
  118TIP3   OH2  310   4.831   0.308   1.707
  118TIP3    H1  311   4.825   0.233   1.648
  118TIP3    H2  312   4.816   0.384   1.651
  119TIP3   OH2  313   1.881   7.826   1.836
  119TIP3    H1  314   1.875   7.905   1.889
  119TIP3    H2  315   1.801   7.826   1.783
  120TIP3   OH2  316   3.865   0.174   1.357
  120TIP3    H1  317   3.770   0.165   1.370
  120TIP3    H2  318   3.902   0.170   1.445
  121TIP3   OH2  319   4.436   0.376   1.507
  121TIP3    H1  320   4.399   0.445   1.561
  121TIP3    H2  321   4.399   0.295   1.544
  122TIP3   OH2  322   3.988   0.276   2.007
  122TIP3    H1  323   3.940   0.330   2.069
  122TIP3    H2  324   3.923   0.213   1.974
  123TIP3   OH2  325   0.869   7.881   2.131
  123TIP3    H1  326   0.898   7.971   2.146
  123TIP3    H2  327   0.844   7.849   2.217
  124TIP3   OH2  328   3.968   0.139   1.105
  124TIP3    H1  329   4.020   0.219   1.094
  124TIP3    H2  330   3.939   0.143   1.196
  125TIP3   OH2  331   3.789   0.434   2.119
  125TIP3    H1  332   3.752   0.445   2.031
  125TIP3    H2  333   3.714   0.410   2.173
  126TIP3   OH2  334   5.065   0.634   1.739
  126TIP3    H1  335   5.071   0.540   1.753
  126TIP3    H2  336   4.986   0.660   1.786
  127TIP3   OH2  337   4.176   0.412   1.870
  127TIP3    H1  338   4.175   0.503   1.900
  127TIP3    H2  339   4.114   0.367   1.927
  128TIP3   OH2  340   4.226   0.469   0.728
  128TIP3    H1  341   4.147   0.518   0.751
  128TIP3    H2  342   4.198   0.378   0.725
  129TIP3   OH2  343   2.131   7.748   1.926
  129TIP3    H1  344   2.058   7.804   1.898
  129TIP3    H2  345   2.101   7.659   1.908
  130TIP3   OH2  346   3.544   0.169   2.042
  130TIP3    H1  347   3.605   0.173   2.116
  130TIP3    H2  348   3.479   0.103   2.068
  131TIP3   OH2  349   1.963   7.537   1.911
  131TIP3    H1  350   1.890   7.530   1.973
  131TIP3    H2  351   1.926   7.582   1.836
  132TIP3   OH2  352   1.581   7.777   1.730
  132TIP3    H1  353   1.645   7.709   1.712
  132TIP3    H2  354   1.543   7.753   1.814
  133TIP3   OH2  355   4.779   0.980   1.829
  133TIP3    H1  356   4.776   1.000   1.735
  133TIP3    H2  357   4.857   1.025   1.861
  134TIP3   OH2  358   3.720   0.116   2.248
  134TIP3    H1  359   3.803   0.124   2.295
  134TIP3    H2  360   3.653   0.125   2.316
  135TIP3   OH2  361   1.303   7.430   1.910
  135TIP3    H1  362   1.270   7.405   1.823
  135TIP3    H2  363   1.365   7.501   1.892
  136TIP3   OH2  364   4.801   0.111   1.529
  136TIP3    H1  365   4.837   0.128   1.442
  136TIP3    H2  366   4.719   0.065   1.513
  137TIP3   OH2  367   4.280   0.115   1.925
  137TIP3    H1  368   4.224   0.038   1.932
  137TIP3    H2  369   4.220   0.190   1.932
  138TIP3   OH2  370   4.446   0.421   1.813
  138TIP3    H1  371   4.351   0.410   1.817
  138TIP3    H2  372   4.468   0.467   1.894
  139TIP3   OH2  373   5.087   0.359   1.770
  139TIP3    H1  374   4.992   0.346   1.774
  139TIP3    H2  375   5.112   0.328   1.683
  140TIP3   OH2  376   1.732   7.975   1.521
  140TIP3    H1  377   1.642   7.970   1.490
  140TIP3    H2  378   1.761   7.884   1.526
  141TIP3   OH2  379   3.958   0.486   1.724
  141TIP3    H1  380   3.985   0.552   1.660
  141TIP3    H2  381   4.039   0.454   1.762
  142TIP3   OH2  382   4.361   0.145   1.654
  142TIP3    H1  383   4.349   0.139   1.749
  142TIP3    H2  384   4.446   0.103   1.638
  143TIP3   OH2  385   4.601   0.668   1.666
  143TIP3    H1  386   4.515   0.625   1.668
  143TIP3    H2  387   4.590   0.738   1.602
  144TIP3   OH2  388   3.372   0.303   1.864
  144TIP3    H1  389   3.443   0.281   1.925
  144TIP3    H2  390   3.391   0.392   1.836
  145TIP3   OH2  391   1.483   7.641   1.944
  145TIP3    H1  392   1.437   7.695   2.008
  145TIP3    H2  393   1.562   7.611   1.989
  146TIP3   OH2  394   4.664   0.634   1.248
  146TIP3    H1  395   4.622   0.708   1.203
  146TIP3    H2  396   4.756   0.658   1.252
  147TIP3   OH2  397   3.394   0.663   2.227
  147TIP3    H1  398   3.468   0.662   2.287
  147TIP3    H2  399   3.362   0.573   2.228
  148TIP3   OH2  400   3.856   0.650   2.281
  148TIP3    H1  401   3.949   0.651   2.304
  148TIP3    H2  402   3.847   0.577   2.220
  149TIP3   OH2  403   4.520   0.524   2.061
  149TIP3    H1  404   4.568   0.449   2.096
  149TIP3    H2  405   4.583   0.597   2.064
  150TIP3   OH2  406   3.499   0.089   2.421
  150TIP3    H1  407   3.524  -0.002   2.434
  150TIP3    H2  408   3.418   0.085   2.371
  151TIP3   OH2  409   4.610   0.202   1.827
  151TIP3    H1  410   4.686   0.243   1.786
  151TIP3    H2  411   4.540   0.267   1.818
  152TIP3   OH2  412   0.817   7.848   2.408
  152TIP3    H1  413   0.870   7.769   2.410
  152TIP3    H2  414   0.846   7.898   2.484
  153TIP3   OH2  415   1.097   7.723   2.048
  153TIP3    H1  416   1.021   7.781   2.059
  153TIP3    H2  417   1.164   7.778   2.007
  154TIP3   OH2  418   1.260   7.526   2.154
  154TIP3    H1  419   1.276   7.477   2.074
  154TIP3    H2  420   1.222   7.609   2.125
  155TIP3   OH2  421   1.300   7.875   1.891
  155TIP3    H1  422   1.339   7.830   1.816
  155TIP3    H2  423   1.226   7.923   1.855
  156TIP3   OH2  424   1.874   7.763   2.183
  156TIP3    H1  425   1.852   7.769   2.276
  156TIP3    H2  426   1.904   7.850   2.160
  157TIP3   OH2  427   4.755   0.039   1.983
  157TIP3    H1  428   4.694   0.096   1.936
  157TIP3    H2  429   4.840   0.057   1.943
  158TIP3   OH2  430   1.111   7.712   2.430
  158TIP3    H1  431   1.156   7.631   2.408
  158TIP3    H2  432   1.156   7.779   2.380
  159TIP3   OH2  433   4.916   0.734   1.252
  159TIP3    H1  434   4.930   0.740   1.346
  159TIP3    H2  435   4.922   0.825   1.221
  160TIP3   OH2  436   4.921   0.740   1.525
  160TIP3    H1  437   4.867   0.661   1.523
  160TIP3    H2  438   4.990   0.721   1.588
  161TIP3   OH2  439   4.934   0.430   2.093
  161TIP3    H1  440   4.862   0.440   2.156
  161TIP3    H2  441   4.981   0.513   2.097
  162TIP3   OH2  442   4.964   0.207   1.317
  162TIP3    H1  443   4.972   0.168   1.230
  162TIP3    H2  444   4.968   0.302   1.302
  163TIP3   OH2  445   4.775   0.506   1.527
  163TIP3    H1  446   4.702   0.549   1.573
  163TIP3    H2  447   4.733   0.453   1.459
  164TIP3   OH2  448   5.013   0.076   1.884
  164TIP3    H1  449   5.080   0.008   1.877
  164TIP3    H2  450   5.030   0.134   1.810
  165TIP3   OH2  451   2.364   7.882   1.891
  165TIP3    H1  452   2.290   7.823   1.904
  165TIP3    H2  453   2.441   7.830   1.915
  166TIP3   OH2  454   0.645   7.399   2.522
  166TIP3    H1  455   0.673   7.328   2.463
  166TIP3    H2  456   0.655   7.363   2.610
  167TIP3   OH2  457   4.597   0.551   0.975
  167TIP3    H1  458   4.562   0.547   0.886
  167TIP3    H2  459   4.598   0.644   0.995
  168TIP3   OH2  460   3.559   0.398   2.268
  168TIP3    H1  461   3.464   0.384   2.260
  168TIP3    H2  462   3.567   0.476   2.323
  169TIP3   OH2  463   3.724   0.449   1.848
  169TIP3    H1  464   3.681   0.533   1.834
  169TIP3    H2  465   3.815   0.464   1.821
  170TIP3   OH2  466   4.170   0.674   1.950
  170TIP3    H1  467   4.209   0.668   2.038
  170TIP3    H2  468   4.230   0.731   1.902
  171TIP3   OH2  469   4.348   0.839   1.820
  171TIP3    H1  470   4.404   0.786   1.763
  171TIP3    H2  471   4.409   0.893   1.870
  172TIP3   OH2  472   3.426   0.784   1.854
  172TIP3    H1  473   3.331   0.786   1.856
  172TIP3    H2  474   3.454   0.827   1.935
  173TIP3   OH2  475   3.657   0.690   1.748
  173TIP3    H1  476   3.577   0.730   1.782
  173TIP3    H2  477   3.638   0.676   1.655
  174TIP3   OH2  478   4.063   0.666   1.552
  174TIP3    H1  479   4.006   0.684   1.477
  174TIP3    H2  480   4.068   0.750   1.599
  175TIP3   OH2  481   4.334   0.625   1.603
  175TIP3    H1  482   4.238   0.624   1.599
  175TIP3    H2  483   4.362   0.645   1.514
  176TIP3   OH2  484   4.568   0.858   1.468
  176TIP3    H1  485   4.560   0.940   1.420
  176TIP3    H2  486   4.516   0.795   1.417
  177TIP3   OH2  487   3.401   0.414   1.485
  177TIP3    H1  488   3.405   0.463   1.566
  177TIP3    H2  489   3.324   0.357   1.495
  178TIP3   OH2  490   3.907   0.440   1.376
  178TIP3    H1  491   3.899   0.346   1.359
  178TIP3    H2  492   3.844   0.456   1.447
  179TIP3   OH2  493   4.818   0.707   1.836
  179TIP3    H1  494   4.744   0.677   1.783
  179TIP3    H2  495   4.807   0.802   1.840
  180TIP3   OH2  496   5.564   0.442   1.328
  180TIP3    H1  497   5.548   0.530   1.293
  180TIP3    H2  498   5.487   0.423   1.381
  181TIP3   OH2  499   5.770   0.540   1.484
  181TIP3    H1  500   5.707   0.600   1.523
  181TIP3    H2  501   5.719   0.488   1.421
  182TIP3   OH2  502   5.565   0.704   1.567
  182TIP3    H1  503   5.541   0.714   1.475
  182TIP3    H2  504   5.482   0.689   1.612
  183TIP3   OH2  505   5.148   0.245   1.529
  183TIP3    H1  506   5.084   0.219   1.463
  183TIP3    H2  507   5.181   0.162   1.563
  184TIP3   OH2  508   4.990   0.469   1.228
  184TIP3    H1  509   5.081   0.488   1.249
  184TIP3    H2  510   4.945   0.554   1.234
  185TIP3   OH2  511   5.934   0.710   1.321
  185TIP3    H1  512   5.938   0.794   1.367
  185TIP3    H2  513   5.891   0.651   1.383
  186TIP3   OH2  514   5.345   0.440   1.497
  186TIP3    H1  515   5.399   0.434   1.575
  186TIP3    H2  516   5.279   0.371   1.508
  187TIP3   OH2  517   6.538   1.213   1.385
  187TIP3    H1  518   6.555   1.188   1.294
  187TIP3    H2  519   6.610   1.273   1.407
  188TIP3   OH2  520   5.499   0.396   1.733
  188TIP3    H1  521   5.584   0.389   1.776
  188TIP3    H2  522   5.436   0.387   1.804
  189TIP3   OH2  523   5.245   0.038   1.676
  189TIP3    H1  524   5.310   0.083   1.730
  189TIP3    H2  525   5.224  -0.042   1.725
  190TIP3   OH2  526   5.746   0.766   1.129
  190TIP3    H1  527   5.780   0.825   1.061
  190TIP3    H2  528   5.823   0.744   1.182
  191TIP3   OH2  529   5.214   0.619   1.313
  191TIP3    H1  530   5.266   0.562   1.371
  191TIP3    H2  531   5.229   0.707   1.347
  192TIP3   OH2  532   5.205   0.947   1.720
  192TIP3    H1  533   5.285   0.960   1.771
  192TIP3    H2  534   5.201   0.853   1.704
  193TIP3   OH2  535   5.662   0.862   1.772
  193TIP3    H1  536   5.758   0.866   1.766
  193TIP3    H2  537   5.636   0.808   1.698
  194TIP3   OH2  538   6.296   0.832   1.545
  194TIP3    H1  539   6.310   0.749   1.592
  194TIP3    H2  540   6.381   0.876   1.549
  195TIP3   OH2  541   5.304   0.365   1.930
  195TIP3    H1  542   5.327   0.272   1.931
  195TIP3    H2  543   5.220   0.369   1.884
  196TIP3   OH2  544   5.909   0.431   1.689
  196TIP3    H1  545   5.861   0.467   1.615
  196TIP3    H2  546   5.954   0.354   1.654
  197TIP3   OH2  547   5.395   0.105   1.903
  197TIP3    H1  548   5.387   0.010   1.912
  197TIP3    H2  549   5.445   0.132   1.980
  198TIP3   OH2  550   4.750   0.755   0.816
  198TIP3    H1  551   4.809   0.743   0.742
  198TIP3    H2  552   4.784   0.697   0.884
  199TIP3   OH2  553   4.923   0.577   0.943
  199TIP3    H1  554   4.916   0.494   0.991
  199TIP3    H2  555   4.988   0.628   0.992
  200TIP3   OH2  556   5.335   0.680   1.724
  200TIP3    H1  557   5.244   0.652   1.724
  200TIP3    H2  558   5.368   0.655   1.810
  201TIP3   OH2  559   5.532   0.717   1.289
  201TIP3    H1  560   5.481   0.793   1.260
  201TIP3    H2  561   5.612   0.721   1.237
  202TIP3   OH2  562   5.945   0.964   1.437
  202TIP3    H1  563   5.988   0.955   1.522
  202TIP3    H2  564   6.008   1.010   1.382
  203TIP3   OH2  565   6.130   1.108   1.291
  203TIP3    H1  566   6.201   1.068   1.241
  203TIP3    H2  567   6.174   1.160   1.358
  204TIP3   OH2  568   5.197   0.946   1.332
  204TIP3    H1  569   5.106   0.966   1.309
  204TIP3    H2  570   5.220   1.012   1.397
  205TIP3   OH2  571   5.427   0.947   1.182
  205TIP3    H1  572   5.343   0.952   1.227
  205TIP3    H2  573   5.409   0.973   1.092
  206TIP3   OH2  574   5.830   0.965   0.948
  206TIP3    H1  575   5.746   1.004   0.922
  206TIP3    H2  576   5.872   1.032   1.002
  207TIP3   OH2  577   5.143   0.723   1.049
  207TIP3    H1  578   5.141   0.707   1.143
  207TIP3    H2  579   5.231   0.696   1.022
  208TIP3   OH2  580   0.831   2.274   2.485
  208TIP3    H1  581   0.821   2.331   2.409
  208TIP3    H2  582   0.913   2.303   2.526
  209TIP3   OH2  583   1.045   1.718   2.738
  209TIP3    H1  584   0.977   1.696   2.802
  209TIP3    H2  585   1.070   1.808   2.760
  210TIP3   OH2  586   2.398   1.629   1.497
  210TIP3    H1  587   2.315   1.656   1.457
  210TIP3    H2  588   2.442   1.712   1.518
  211TIP3   OH2  589   1.994   2.078   1.341
  211TIP3    H1  590   1.997   1.993   1.385
  211TIP3    H2  591   1.961   2.138   1.408
  212TIP3   OH2  592   2.966   0.934   1.770
  212TIP3    H1  593   2.980   1.022   1.805
  212TIP3    H2  594   3.020   0.931   1.691
  213TIP3   OH2  595   3.039   1.163   1.907
  213TIP3    H1  596   2.982   1.238   1.887
  213TIP3    H2  597   3.002   1.127   1.987
  214TIP3   OH2  598   2.465   1.892   1.549
  214TIP3    H1  599   2.387   1.901   1.604
  214TIP3    H2  600   2.443   1.939   1.469
  215TIP3   OH2  601   2.668   1.876   1.877
  215TIP3    H1  602   2.675   1.810   1.808
  215TIP3    H2  603   2.632   1.953   1.833
  216TIP3   OH2  604   2.894   1.482   1.690
  216TIP3    H1  605   2.837   1.558   1.702
  216TIP3    H2  606   2.902   1.472   1.595
  217TIP3   OH2  607   2.584   1.350   2.011
  217TIP3    H1  608   2.576   1.434   2.056
  217TIP3    H2  609   2.500   1.336   1.969
  218TIP3   OH2  610   2.222   1.961   1.642
  218TIP3    H1  611   2.188   2.040   1.684
  218TIP3    H2  612   2.185   1.889   1.693
  219TIP3   OH2  613   1.804   1.846   2.164
  219TIP3    H1  614   1.759   1.916   2.212
  219TIP3    H2  615   1.734   1.789   2.133
  220TIP3   OH2  616   1.621   2.034   2.253
  220TIP3    H1  617   1.593   2.030   2.162
  220TIP3    H2  618   1.543   2.013   2.304
  221TIP3   OH2  619   2.914   2.189   1.888
  221TIP3    H1  620   2.918   2.095   1.902
  221TIP3    H2  621   2.838   2.218   1.940
  222TIP3   OH2  622   2.001   1.965   2.013
  222TIP3    H1  623   2.005   2.057   2.042
  222TIP3    H2  624   1.932   1.926   2.066
  223TIP3   OH2  625   2.822   1.289   2.163
  223TIP3    H1  626   2.739   1.319   2.127
  223TIP3    H2  627   2.828   1.197   2.138
  224TIP3   OH2  628   2.581   1.071   2.056
  224TIP3    H1  629   2.524   1.053   2.130
  224TIP3    H2  630   2.567   1.164   2.036
  225TIP3   OH2  631   2.280   1.314   2.320
  225TIP3    H1  632   2.258   1.245   2.383
  225TIP3    H2  633   2.374   1.327   2.330
  226TIP3   OH2  634   2.348   1.276   1.909
  226TIP3    H1  635   2.313   1.270   1.820
  226TIP3    H2  636   2.281   1.235   1.963
  227TIP3   OH2  637   2.598   2.540   2.006
  227TIP3    H1  638   2.556   2.501   1.930
  227TIP3    H2  639   2.670   2.592   1.969
  228TIP3   OH2  640   1.552   1.726   2.412
  228TIP3    H1  641   1.636   1.707   2.454
  228TIP3    H2  642   1.489   1.671   2.458
  229TIP3   OH2  643   2.705   1.677   1.700
  229TIP3    H1  644   2.711   1.713   1.611
  229TIP3    H2  645   2.639   1.608   1.694
  230TIP3   OH2  646   2.115   1.706   2.062
  230TIP3    H1  647   2.187   1.705   2.125
  230TIP3    H2  648   2.091   1.798   2.053
  231TIP3   OH2  649   2.048   1.461   2.334
  231TIP3    H1  650   1.991   1.413   2.275
  231TIP3    H2  651   2.136   1.425   2.318
  232TIP3   OH2  652   2.282   1.960   1.966
  232TIP3    H1  653   2.189   1.973   1.946
  232TIP3    H2  654   2.302   2.028   2.031
  233TIP3   OH2  655   2.932   1.910   1.915
  233TIP3    H1  656   2.837   1.907   1.922
  233TIP3    H2  657   2.951   1.878   1.827
  234TIP3   OH2  658   2.538   1.470   1.664
  234TIP3    H1  659   2.477   1.519   1.609
  234TIP3    H2  660   2.494   1.387   1.681
  235TIP3   OH2  661   1.811   2.074   1.830
  235TIP3    H1  662   1.822   2.167   1.851
  235TIP3    H2  663   1.891   2.033   1.862
  236TIP3   OH2  664   2.149   1.739   1.786
  236TIP3    H1  665   2.146   1.722   1.880
  236TIP3    H2  666   2.169   1.654   1.747
  237TIP3   OH2  667   2.204   1.154   2.109
  237TIP3    H1  668   2.223   1.222   2.174
  237TIP3    H2  669   2.255   1.078   2.138
  238TIP3   OH2  670   2.852   1.026   2.070
  238TIP3    H1  671   2.757   1.031   2.065
  238TIP3    H2  672   2.876   0.953   2.013
  239TIP3   OH2  673   2.504   2.253   1.490
  239TIP3    H1  674   2.443   2.323   1.466
  239TIP3    H2  675   2.590   2.285   1.463
  240TIP3   OH2  676   1.233   2.208   2.366
  240TIP3    H1  677   1.302   2.143   2.383
  240TIP3    H2  678   1.152   2.158   2.370
  241TIP3   OH2  679   2.329   2.114   2.193
  241TIP3    H1  680   2.346   2.039   2.249
  241TIP3    H2  681   2.408   2.168   2.199
  242TIP3   OH2  682   1.343   1.641   2.595
  242TIP3    H1  683   1.383   1.554   2.590
  242TIP3    H2  684   1.253   1.625   2.624
  243TIP3   OH2  685   1.973   1.729   2.355
  243TIP3    H1  686   1.929   1.751   2.273
  243TIP3    H2  687   2.013   1.644   2.339
  244TIP3   OH2  688   2.448   1.746   1.980
  244TIP3    H1  689   2.527   1.791   1.949
  244TIP3    H2  690   2.378   1.810   1.969
  245TIP3   OH2  691   1.500   1.415   2.583
  245TIP3    H1  692   1.520   1.322   2.570
  245TIP3    H2  693   1.519   1.430   2.675
  246TIP3   OH2  694   2.333   1.648   2.340
  246TIP3    H1  695   2.400   1.607   2.286
  246TIP3    H2  696   2.328   1.593   2.419
  247TIP3   OH2  697   2.541   1.345   2.407
  247TIP3    H1  698   2.577   1.275   2.461
  247TIP3    H2  699   2.617   1.400   2.386
  248TIP3   OH2  700   2.584   1.591   2.150
  248TIP3    H1  701   2.524   1.643   2.097
  248TIP3    H2  702   2.671   1.610   2.114
  249TIP3   OH2  703   1.798   1.121   2.625
  249TIP3    H1  704   1.727   1.143   2.685
  249TIP3    H2  705   1.756   1.073   2.554
  250TIP3   OH2  706   2.232   1.097   2.482
  250TIP3    H1  707   2.287   1.088   2.560
  250TIP3    H2  708   2.145   1.069   2.511
  251TIP3   OH2  709   2.421   1.028   2.283
  251TIP3    H1  710   2.355   1.050   2.349
  251TIP3    H2  711   2.475   0.961   2.324
  252TIP3   OH2  712   2.776   0.998   2.457
  252TIP3    H1  713   2.736   0.912   2.470
  252TIP3    H2  714   2.720   1.058   2.505
  253TIP3   OH2  715   2.234   0.809   2.644
  253TIP3    H1  716   2.210   0.737   2.586
  253TIP3    H2  717   2.156   0.865   2.646
  254TIP3   OH2  718   2.748   2.342   1.394
  254TIP3    H1  719   2.782   2.306   1.476
  254TIP3    H2  720   2.821   2.332   1.332
  255TIP3   OH2  721   2.784   2.281   1.655
  255TIP3    H1  722   2.693   2.283   1.686
  255TIP3    H2  723   2.834   2.247   1.729
  256TIP3   OH2  724   2.800   1.990   2.228
  256TIP3    H1  725   2.726   1.998   2.289
  256TIP3    H2  726   2.843   2.075   2.232
  257TIP3   OH2  727   2.762   1.761   1.449
  257TIP3    H1  728   2.813   1.688   1.413
  257TIP3    H2  729   2.819   1.838   1.438
  258TIP3   OH2  730   2.576   2.084   1.730
  258TIP3    H1  731   2.528   2.164   1.751
  258TIP3    H2  732   2.521   2.041   1.664
  259TIP3   OH2  733   2.831   1.640   2.039
  259TIP3    H1  734   2.897   1.573   2.021
  259TIP3    H2  735   2.843   1.705   1.970
  260TIP3   OH2  736   3.017   1.440   2.039
  260TIP3    H1  737   2.965   1.388   2.100
  260TIP3    H2  738   3.102   1.451   2.083
  261TIP3   OH2  739   2.773   1.005   1.564
  261TIP3    H1  740   2.836   1.072   1.589
  261TIP3    H2  741   2.724   0.987   1.645
  262TIP3   OH2  742   2.779   1.277   1.825
  262TIP3    H1  743   2.709   1.295   1.888
  262TIP3    H2  744   2.803   1.363   1.790
  263TIP3   OH2  745   3.227   0.871   2.329
  263TIP3    H1  746   3.276   0.803   2.375
  263TIP3    H2  747   3.283   0.897   2.256
  264TIP3   OH2  748   2.339   2.052   1.081
  264TIP3    H1  749   2.342   2.056   0.985
  264TIP3    H2  750   2.258   2.098   1.104
  265TIP3   OH2  751   1.394   1.966   2.417
  265TIP3    H1  752   1.428   1.879   2.393
  265TIP3    H2  753   1.379   1.960   2.511
  266TIP3   OH2  754   1.583   2.006   1.977
  266TIP3    H1  755   1.515   2.031   1.913
  266TIP3    H2  756   1.665   2.024   1.932
  267TIP3   OH2  757   2.016   2.231   2.082
  267TIP3    H1  758   2.048   2.226   2.172
  267TIP3    H2  759   2.083   2.281   2.035
  268TIP3   OH2  760   2.195   2.413   1.980
  268TIP3    H1  761   2.265   2.385   1.921
  268TIP3    H2  762   2.238   2.467   2.045
  269TIP3   OH2  763   2.957   0.705   2.064
  269TIP3    H1  764   2.882   0.696   2.006
  269TIP3    H2  765   3.003   0.622   2.056
  270TIP3   OH2  766   1.253   2.275   2.016
  270TIP3    H1  767   1.203   2.251   1.938
  270TIP3    H2  768   1.250   2.196   2.071
  271TIP3   OH2  769   1.460   2.263   1.821
  271TIP3    H1  770   1.413   2.298   1.896
  271TIP3    H2  771   1.429   2.315   1.746
  272TIP3   OH2  772   2.155   2.206   1.761
  272TIP3    H1  773   2.119   2.292   1.741
  272TIP3    H2  774   2.250   2.221   1.768
  273TIP3   OH2  775   2.737   0.729   2.489
  273TIP3    H1  776   2.745   0.697   2.579
  273TIP3    H2  777   2.825   0.719   2.452
  274TIP3   OH2  778   2.681   2.273   2.008
  274TIP3    H1  779   2.609   2.253   1.949
  274TIP3    H2  780   2.670   2.365   2.029
  275TIP3   OH2  781   3.985   1.691   0.876
  275TIP3    H1  782   3.961   1.773   0.832
  275TIP3    H2  783   3.905   1.638   0.872
  276TIP3   OH2  784   3.882   1.632   1.187
  276TIP3    H1  785   3.961   1.638   1.242
  276TIP3    H2  786   3.819   1.586   1.242
  277TIP3   OH2  787   3.274   1.603   1.560
  277TIP3    H1  788   3.284   1.519   1.604
  277TIP3    H2  789   3.349   1.608   1.501
  278TIP3   OH2  790   4.196   1.947   0.832
  278TIP3    H1  791   4.192   1.886   0.905
  278TIP3    H2  792   4.220   2.030   0.872
  279TIP3   OH2  793   3.199   1.975   1.277
  279TIP3    H1  794   3.173   1.919   1.204
  279TIP3    H2  795   3.285   1.941   1.304
  280TIP3   OH2  796   3.013   1.387   1.141
  280TIP3    H1  797   3.085   1.364   1.082
  280TIP3    H2  798   2.983   1.473   1.110
  281TIP3   OH2  799   3.823   2.401   0.843
  281TIP3    H1  800   3.875   2.337   0.794
  281TIP3    H2  801   3.822   2.367   0.932
  282TIP3   OH2  802   3.743   1.873   1.175
  282TIP3    H1  803   3.777   1.787   1.150
  282TIP3    H2  804   3.820   1.923   1.201
  283TIP3   OH2  805   4.768   1.192   1.163
  283TIP3    H1  806   4.786   1.273   1.211
  283TIP3    H2  807   4.809   1.205   1.077
  284TIP3   OH2  808   4.202   1.377   1.218
  284TIP3    H1  809   4.242   1.296   1.250
  284TIP3    H2  810   4.151   1.349   1.141
  285TIP3   OH2  811   3.549   1.067   1.114
  285TIP3    H1  812   3.539   1.148   1.063
  285TIP3    H2  813   3.469   1.017   1.095
  286TIP3   OH2  814   4.269   1.156   0.856
  286TIP3    H1  815   4.322   1.136   0.933
  286TIP3    H2  816   4.329   1.202   0.796
  287TIP3   OH2  817   3.157   1.159   1.273
  287TIP3    H1  818   3.158   1.254   1.284
  287TIP3    H2  819   3.071   1.139   1.237
  288TIP3   OH2  820   3.599   1.503   1.137
  288TIP3    H1  821   3.664   1.443   1.175
  288TIP3    H2  822   3.526   1.446   1.112
  289TIP3   OH2  823   4.827   1.402   1.337
  289TIP3    H1  824   4.739   1.439   1.333
  289TIP3    H2  825   4.864   1.438   1.418
  290TIP3   OH2  826   3.482   1.011   1.634
  290TIP3    H1  827   3.436   0.932   1.606
  290TIP3    H2  828   3.421   1.054   1.694
  291TIP3   OH2  829   3.832   1.877   0.693
  291TIP3    H1  830   3.903   1.923   0.648
  291TIP3    H2  831   3.777   1.947   0.728
  292TIP3   OH2  832   3.611   1.815   1.415
  292TIP3    H1  833   3.537   1.873   1.431
  292TIP3    H2  834   3.647   1.844   1.331
  293TIP3   OH2  835   4.428   1.120   1.065
  293TIP3    H1  836   4.376   1.119   1.145
  293TIP3    H2  837   4.471   1.206   1.066
  294TIP3   OH2  838   3.375   0.996   1.336
  294TIP3    H1  839   3.313   1.068   1.331
  294TIP3    H2  840   3.461   1.038   1.335
  295TIP3   OH2  841   3.411   1.992   1.480
  295TIP3    H1  842   3.399   2.082   1.450
  295TIP3    H2  843   3.337   1.974   1.537
  296TIP3   OH2  844   4.234   2.196   0.954
  296TIP3    H1  845   4.147   2.186   0.995
  296TIP3    H2  846   4.231   2.281   0.911
  297TIP3   OH2  847   4.577   1.103   1.349
  297TIP3    H1  848   4.485   1.119   1.327
  297TIP3    H2  849   4.625   1.127   1.270
  298TIP3   OH2  850   3.883   0.707   1.349
  298TIP3    H1  851   3.871   0.612   1.346
  298TIP3    H2  852   3.810   0.738   1.403
  299TIP3   OH2  853   3.965   2.243   0.673
  299TIP3    H1  854   3.996   2.154   0.656
  299TIP3    H2  855   4.029   2.300   0.629
  300TIP3   OH2  856   4.060   1.996   0.604
  300TIP3    H1  857   4.116   1.991   0.526
  300TIP3    H2  858   4.118   1.975   0.677
  301TIP3   OH2  859   4.467   2.096   1.307
  301TIP3    H1  860   4.458   2.019   1.251
  301TIP3    H2  861   4.451   2.170   1.248
  302TIP3   OH2  862   3.676   1.616   0.486
  302TIP3    H1  863   3.594   1.592   0.529
  302TIP3    H2  864   3.732   1.539   0.495
  303TIP3   OH2  865   4.662   1.737   1.151
  303TIP3    H1  866   4.580   1.785   1.157
  303TIP3    H2  867   4.693   1.754   1.062
  304TIP3   OH2  868   4.103   1.440   0.642
  304TIP3    H1  869   4.044   1.511   0.619
  304TIP3    H2  870   4.189   1.469   0.612
  305TIP3   OH2  871   4.351   1.610   1.477
  305TIP3    H1  872   4.352   1.692   1.526
  305TIP3    H2  873   4.269   1.614   1.426
  306TIP3   OH2  874   3.262   1.566   0.948
  306TIP3    H1  875   3.221   1.563   0.861
  306TIP3    H2  876   3.286   1.475   0.965
  307TIP3   OH2  877   3.535   2.021   1.079
  307TIP3    H1  878   3.556   2.007   0.986
  307TIP3    H2  879   3.606   1.979   1.127
  308TIP3   OH2  880   3.476   1.575   1.376
  308TIP3    H1  881   3.518   1.540   1.297
  308TIP3    H2  882   3.509   1.665   1.382
  309TIP3   OH2  883   3.999   2.180   1.089
  309TIP3    H1  884   3.987   2.262   1.138
  309TIP3    H2  885   3.989   2.111   1.155
  310TIP3   OH2  886   3.619   2.092   1.636
  310TIP3    H1  887   3.559   2.150   1.683
  310TIP3    H2  888   3.561   2.037   1.582
  311TIP3   OH2  889   3.994   1.434   0.353
  311TIP3    H1  890   4.009   1.515   0.402
  311TIP3    H2  891   4.032   1.451   0.267
  312TIP3   OH2  892   3.400   1.656   1.813
  312TIP3    H1  893   3.399   1.749   1.835
  312TIP3    H2  894   3.322   1.644   1.758
  313TIP3   OH2  895   3.726   2.126   0.594
  313TIP3    H1  896   3.793   2.186   0.627
  313TIP3    H2  897   3.644   2.157   0.634
  314TIP3   OH2  898   3.408   2.250   1.721
  314TIP3    H1  899   3.379   2.258   1.630
  314TIP3    H2  900   3.328   2.232   1.770
  315TIP3   OH2  901   7.139   6.069   6.886
  315TIP3    H1  902   7.152   6.163   6.872
  315TIP3    H2  903   7.227   6.034   6.899
  316TIP3   OH2  904   3.008   1.802   1.675
  316TIP3    H1  905   2.992   1.769   1.586
  316TIP3    H2  906   3.052   1.730   1.720
  317TIP3   OH2  907   2.950   1.950   1.379
  317TIP3    H1  908   3.044   1.964   1.364
  317TIP3    H2  909   2.923   2.027   1.430
  318TIP3   OH2  910   4.701   2.444   1.367
  318TIP3    H1  911   4.707   2.350   1.383
  318TIP3    H2  912   4.622   2.471   1.413
  319TIP3   OH2  913   3.807   2.230   1.493
  319TIP3    H1  914   3.803   2.321   1.525
  319TIP3    H2  915   3.741   2.184   1.545
  320TIP3   OH2  916   3.669   2.412   0.489
  320TIP3    H1  917   3.608   2.363   0.435
  320TIP3    H2  918   3.619   2.487   0.520
  321TIP3   OH2  919   3.054   2.169   0.869
  321TIP3    H1  920   3.076   2.160   0.962
  321TIP3    H2  921   2.959   2.160   0.866
  322TIP3   OH2  922   3.760   2.328   0.135
  322TIP3    H1  923   3.807   2.257   0.092
  322TIP3    H2  924   3.795   2.331   0.224
  323TIP3   OH2  925   3.895   2.323   0.375
  323TIP3    H1  926   3.822   2.343   0.433
  323TIP3    H2  927   3.973   2.335   0.430
  324TIP3   OH2  928   4.593   1.563   1.645
  324TIP3    H1  929   4.511   1.573   1.597
  324TIP3    H2  930   4.613   1.469   1.639
  325TIP3   OH2  931   3.200   1.997   1.652
  325TIP3    H1  932   3.249   1.987   1.733
  325TIP3    H2  933   3.129   1.933   1.658
  326TIP3   OH2  934   3.680   0.808   1.493
  326TIP3    H1  935   3.588   0.790   1.478
  326TIP3    H2  936   3.680   0.872   1.564
  327TIP3   OH2  937   4.141   0.914   1.658
  327TIP3    H1  938   4.210   0.895   1.721
  327TIP3    H2  939   4.059   0.905   1.707
  328TIP3   OH2  940   4.353   1.346   1.568
  328TIP3    H1  941   4.315   1.348   1.656
  328TIP3    H2  942   4.338   1.434   1.533
  329TIP3   OH2  943   4.097   1.527   0.118
  329TIP3    H1  944   4.011   1.526   0.074
  329TIP3    H2  945   4.122   1.620   0.118
  330TIP3   OH2  946   3.604   1.375   1.556
  330TIP3    H1  947   3.522   1.372   1.605
  330TIP3    H2  948   3.591   1.444   1.491
  331TIP3   OH2  949   3.410   1.197   0.929
  331TIP3    H1  950   3.321   1.162   0.919
  331TIP3    H2  951   3.457   1.168   0.851
  332TIP3   OH2  952   3.885   1.330   0.763
  332TIP3    H1  953   3.824   1.348   0.691
  332TIP3    H2  954   3.968   1.366   0.734
  333TIP3   OH2  955   4.081   1.567   1.810
  333TIP3    H1  956   4.050   1.496   1.868
  333TIP3    H2  957   4.173   1.577   1.832
  334TIP3   OH2  958   4.157   1.398   0.902
  334TIP3    H1  959   4.139   1.427   0.813
  334TIP3    H2  960   4.184   1.307   0.892
  335TIP3   OH2  961   3.368   1.369   1.698
  335TIP3    H1  962   3.380   1.416   1.780
  335TIP3    H2  963   3.338   1.282   1.724
  336TIP3   OH2  964   4.090   1.576   1.362
  336TIP3    H1  965   4.131   1.511   1.305
  336TIP3    H2  966   4.064   1.527   1.440
  337TIP3   OH2  967   3.829   1.053   1.040
  337TIP3    H1  968   3.741   1.026   1.064
  337TIP3    H2  969   3.887   0.992   1.085
  338TIP3   OH2  970   4.301   1.111   1.305
  338TIP3    H1  971   4.242   1.134   1.377
  338TIP3    H2  972   4.269   1.026   1.273
  339TIP3   OH2  973   4.411   2.792   1.464
  339TIP3    H1  974   4.409   2.811   1.370
  339TIP3    H2  975   4.490   2.836   1.496
  340TIP3   OH2  976   3.356   1.918   1.888
  340TIP3    H1  977   3.436   1.939   1.936
  340TIP3    H2  978   3.287   1.918   1.954
  341TIP3   OH2  979   3.773   1.344   1.262
  341TIP3    H1  980   3.846   1.338   1.200
  341TIP3    H2  981   3.801   1.292   1.338
  342TIP3   OH2  982   3.843   1.260   1.516
  342TIP3    H1  983   3.763   1.311   1.527
  342TIP3    H2  984   3.913   1.322   1.535
  343TIP3   OH2  985   3.427   1.581   0.570
  343TIP3    H1  986   3.377   1.610   0.494
  343TIP3    H2  987   3.412   1.648   0.637
  344TIP3   OH2  988   4.431   1.887   1.134
  344TIP3    H1  989   4.463   1.932   1.056
  344TIP3    H2  990   4.343   1.857   1.110
  345TIP3   OH2  991   3.933   1.956   1.534
  345TIP3    H1  992   3.979   1.947   1.617
  345TIP3    H2  993   3.888   2.041   1.541
  346TIP3   OH2  994   3.995   1.178   0.507
  346TIP3    H1  995   4.069   1.117   0.504
  346TIP3    H2  996   4.037   1.265   0.510
  347TIP3   OH2  997   3.207   1.623   1.211
  347TIP3    H1  998   3.206   1.601   1.118
  347TIP3    H2  999   3.295   1.600   1.241
  348TIP3   OH2 1000   3.663   1.742   0.249
  348TIP3    H1 1001   3.590   1.803   0.260
  348TIP3    H2 1002   3.659   1.687   0.327
  349TIP3   OH2 1003   3.114   1.598   1.821
  349TIP3    H1 1004   3.140   1.574   1.910
  349TIP3    H2 1005   3.047   1.534   1.797
  350TIP3   OH2 1006   3.856   1.729   1.832
  350TIP3    H1 1007   3.786   1.666   1.811
  350TIP3    H2 1008   3.937   1.683   1.809
  351TIP3   OH2 1009   4.077   2.241   1.414
  351TIP3    H1 1010   3.983   2.229   1.423
  351TIP3    H2 1011   4.104   2.283   1.496
  352TIP3   OH2 1012   4.497   1.335   0.300
  352TIP3    H1 1013   4.411   1.293   0.308
  352TIP3    H2 1014   4.479   1.421   0.263
  353TIP3   OH2 1015   4.716   2.158   1.397
  353TIP3    H1 1016   4.621   2.150   1.391
  353TIP3    H2 1017   4.747   2.131   1.310
  354TIP3   OH2 1018   4.186   2.151   0.182
  354TIP3    H1 1019   4.184   2.089   0.254
  354TIP3    H2 1020   4.222   2.101   0.109
  355TIP3   OH2 1021   4.186   1.774   1.053
  355TIP3    H1 1022   4.101   1.743   1.020
  355TIP3    H2 1023   4.246   1.702   1.035
  356TIP3   OH2 1024   3.272   2.001   0.855
  356TIP3    H1 1025   3.224   2.080   0.834
  356TIP3    H2 1026   3.227   1.965   0.932
  357TIP3   OH2 1027   3.386   1.787   0.747
  357TIP3    H1 1028   3.352   1.868   0.784
  357TIP3    H2 1029   3.450   1.756   0.811
  358TIP3   OH2 1030   3.619   2.319   1.300
  358TIP3    H1 1031   3.661   2.388   1.249
  358TIP3    H2 1032   3.691   2.280   1.350
  359TIP3   OH2 1033   3.265   2.274   0.729
  359TIP3    H1 1034   3.177   2.269   0.767
  359TIP3    H2 1035   3.284   2.367   0.726
  360TIP3   OH2 1036   3.987   1.960   1.263
  360TIP3    H1 1037   3.975   1.954   1.358
  360TIP3    H2 1038   4.069   1.913   1.247
  361TIP3   OH2 1039   4.061   1.804   0.112
  361TIP3    H1 1040   4.010   1.809   0.193
  361TIP3    H2 1041   3.999   1.828   0.044
  362TIP3   OH2 1042   4.227   2.468   1.301
  362TIP3    H1 1043   4.154   2.406   1.311
  362TIP3    H2 1044   4.200   2.525   1.229
  363TIP3   OH2 1045   7.130   6.342   6.877
  363TIP3    H1 1046   7.183   6.421   6.862
  363TIP3    H2 1047   7.046   6.376   6.910
  364TIP3   OH2 1048   3.307   1.120   1.833
  364TIP3    H1 1049   3.215   1.137   1.854
  364TIP3    H2 1050   3.342   1.078   1.911
  365TIP3   OH2 1051   4.198   1.960   0.371
  365TIP3    H1 1052   4.138   1.890   0.342
  365TIP3    H2 1053   4.285   1.919   0.369
  366TIP3   OH2 1054   3.048   2.205   1.477
  366TIP3    H1 1055   3.111   2.146   1.520
  366TIP3    H2 1056   3.041   2.280   1.536
  367TIP3   OH2 1057   3.289   1.698   0.378
  367TIP3    H1 1058   3.233   1.755   0.430
  367TIP3    H2 1059   3.320   1.753   0.306
  368TIP3   OH2 1060   4.154   1.159   1.531
  368TIP3    H1 1061   4.233   1.206   1.557
  368TIP3    H2 1062   4.149   1.084   1.590
  369TIP3   OH2 1063   4.032   0.862   0.603
  369TIP3    H1 1064   3.970   0.853   0.530
  369TIP3    H2 1065   3.993   0.928   0.660
  370TIP3   OH2 1066   3.567   2.164   0.342
  370TIP3    H1 1067   3.561   2.149   0.436
  370TIP3    H2 1068   3.655   2.134   0.319
  371TIP3   OH2 1069   3.664   1.105   0.749
  371TIP3    H1 1070   3.692   1.182   0.799
  371TIP3    H2 1071   3.655   1.036   0.815
  372TIP3   OH2 1072   4.047   1.423   1.582
  372TIP3    H1 1073   4.056   1.474   1.663
  372TIP3    H2 1074   4.092   1.341   1.601
  373TIP3   OH2 1075   3.912   0.801   0.858
  373TIP3    H1 1076   3.886   0.797   0.950
  373TIP3    H2 1077   3.834   0.833   0.812
  374TIP3   OH2 1078   3.230   2.106   0.407
  374TIP3    H1 1079   3.222   2.178   0.345
  374TIP3    H2 1080   3.162   2.123   0.472
  375TIP3   OH2 1081   4.617   1.291   1.554
  375TIP3    H1 1082   4.522   1.301   1.563
  375TIP3    H2 1083   4.628   1.230   1.482
  376TIP3   OH2 1084   4.349   1.567   0.981
  376TIP3    H1 1085   4.273   1.510   0.969
  376TIP3    H2 1086   4.414   1.510   1.024
  377TIP3   OH2 1087   4.254   2.462   0.873
  377TIP3    H1 1088   4.213   2.512   0.802
  377TIP3    H2 1089   4.348   2.475   0.860
  378TIP3   OH2 1090   3.146   0.625   1.550
  378TIP3    H1 1091   3.150   0.644   1.457
  378TIP3    H2 1092   3.145   0.711   1.593
  379TIP3   OH2 1093   2.919   1.900   0.827
  379TIP3    H1 1094   2.841   1.923   0.877
  379TIP3    H2 1095   2.888   1.834   0.764
  380TIP3   OH2 1096   3.039   2.500   1.870
  380TIP3    H1 1097   3.121   2.500   1.918
  380TIP3    H2 1098   3.015   2.407   1.863
  381TIP3   OH2 1099   3.508   2.422   1.912
  381TIP3    H1 1100   3.600   2.398   1.924
  381TIP3    H2 1101   3.478   2.365   1.841
  382TIP3   OH2 1102   3.507   1.872  -0.002
  382TIP3    H1 1103   3.459   1.908   0.072
  382TIP3    H2 1104   3.488   1.932  -0.074
  383TIP3   OH2 1105   4.136   2.355   1.656
  383TIP3    H1 1106   4.139   2.285   1.721
  383TIP3    H2 1107   4.212   2.410   1.676
  384TIP3   OH2 1108   3.894   2.133   0.011
  384TIP3    H1 1109   3.900   2.044   0.045
  384TIP3    H2 1110   3.980   2.151  -0.026
  385TIP3   OH2 1111   3.154   1.901   2.076
  385TIP3    H1 1112   3.153   1.818   2.124
  385TIP3    H2 1113   3.072   1.902   2.028
  386TIP3   OH2 1114   3.769   1.992   1.844
  386TIP3    H1 1115   3.725   2.008   1.760
  386TIP3    H2 1116   3.809   1.905   1.833
  387TIP3   OH2 1117   3.551   1.599   0.028
  387TIP3    H1 1118   3.567   1.616   0.121
  387TIP3    H2 1119   3.525   1.684  -0.008
  388TIP3   OH2 1120   4.244   2.014   1.447
  388TIP3    H1 1121   4.323   2.048   1.405
  388TIP3    H2 1122   4.178   2.082   1.435
  389TIP3   OH2 1123   3.273   1.578   2.062
  389TIP3    H1 1124   3.340   1.598   1.997
  389TIP3    H2 1125   3.297   1.630   2.139
  390TIP3   OH2 1126   3.655   1.557   1.765
  390TIP3    H1 1127   3.568   1.594   1.777
  390TIP3    H2 1128   3.672   1.564   1.671
  391TIP3   OH2 1129   4.127   1.905   1.823
  391TIP3    H1 1130   4.203   1.870   1.776
  391TIP3    H2 1131   4.119   1.850   1.901
  392TIP3   OH2 1132   7.183   5.647   6.899
  392TIP3    H1 1133   7.212   5.578   6.840
  392TIP3    H2 1134   7.124   5.701   6.845
  393TIP3   OH2 1135   3.732   1.306   1.860
  393TIP3    H1 1136   3.735   1.232   1.800
  393TIP3    H2 1137   3.708   1.381   1.806
  394TIP3   OH2 1138   3.742   1.072   1.687
  394TIP3    H1 1139   3.773   1.133   1.620
  394TIP3    H2 1140   3.647   1.071   1.677
  395TIP3   OH2 1141   3.774   1.623   1.513
  395TIP3    H1 1142   3.862   1.661   1.518
  395TIP3    H2 1143   3.718   1.696   1.484
  396TIP3   OH2 1144   4.346   1.585   1.896
  396TIP3    H1 1145   4.395   1.505   1.911
  396TIP3    H2 1146   4.412   1.652   1.879
  397TIP3   OH2 1147   4.377   1.849   1.618
  397TIP3    H1 1148   4.319   1.906   1.567
  397TIP3    H2 1149   4.465   1.868   1.586
  398TIP3   OH2 1150   3.606   1.389   2.093
  398TIP3    H1 1151   3.548   1.315   2.115
  398TIP3    H2 1152   3.641   1.367   2.007
  399TIP3   OH2 1153   3.886   0.848   1.736
  399TIP3    H1 1154   3.840   0.930   1.722
  399TIP3    H2 1155   3.816   0.782   1.739
  400TIP3   OH2 1156   3.995   1.345   1.945
  400TIP3    H1 1157   4.000   1.332   2.040
  400TIP3    H2 1158   3.903   1.326   1.924
  401TIP3   OH2 1159   4.229   1.292   1.801
  401TIP3    H1 1160   4.153   1.297   1.860
  401TIP3    H2 1161   4.302   1.269   1.859
  402TIP3   OH2 1162   4.467   1.253   1.947
  402TIP3    H1 1163   4.482   1.159   1.956
  402TIP3    H2 1164   4.461   1.285   2.037
  403TIP3   OH2 1165   3.461   1.175   2.184
  403TIP3    H1 1166   3.449   1.085   2.152
  403TIP3    H2 1167   3.495   1.164   2.273
  404TIP3   OH2 1168   3.947   0.834   2.001
  404TIP3    H1 1169   4.019   0.771   1.998
  404TIP3    H2 1170   3.919   0.843   1.910
  405TIP3   OH2 1171   4.023   1.063   2.134
  405TIP3    H1 1172   3.991   0.988   2.084
  405TIP3    H2 1173   3.947   1.121   2.142
  406TIP3   OH2 1174   3.232   2.316   0.232
  406TIP3    H1 1175   3.265   2.296   0.145
  406TIP3    H2 1176   3.144   2.350   0.217
  407TIP3   OH2 1177   2.533   2.209   0.882
  407TIP3    H1 1178   2.499   2.247   0.801
  407TIP3    H2 1179   2.611   2.259   0.901
  408TIP3   OH2 1180   2.795   2.244   1.017
  408TIP3    H1 1181   2.771   2.158   1.050
  408TIP3    H2 1182   2.844   2.285   1.088
  409TIP3   OH2 1183   4.523   2.519   0.864
  409TIP3    H1 1184   4.542   2.547   0.953
  409TIP3    H2 1185   4.580   2.573   0.809
  410TIP3   OH2 1186   4.543   2.549   1.145
  410TIP3    H1 1187   4.495   2.466   1.140
  410TIP3    H2 1188   4.613   2.532   1.208
  411TIP3   OH2 1189   4.587   2.244   1.716
  411TIP3    H1 1190   4.517   2.253   1.780
  411TIP3    H2 1191   4.634   2.328   1.720
  412TIP3   OH2 1192   4.414   1.785   0.364
  412TIP3    H1 1193   4.475   1.849   0.329
  412TIP3    H2 1194   4.465   1.734   0.428
  413TIP3   OH2 1195   4.559   1.628   0.531
  413TIP3    H1 1196   4.497   1.607   0.601
  413TIP3    H2 1197   4.635   1.664   0.575
  414TIP3   OH2 1198   4.596   2.012   0.952
  414TIP3    H1 1199   4.649   1.944   0.909
  414TIP3    H2 1200   4.598   2.086   0.890
  415TIP3   OH2 1201   4.400   2.310   1.147
  415TIP3    H1 1202   4.333   2.352   1.201
  415TIP3    H2 1203   4.351   2.267   1.077
  416TIP3   OH2 1204   4.477   1.581   0.184
  416TIP3    H1 1205   4.426   1.606   0.108
  416TIP3    H2 1206   4.460   1.649   0.249
  417TIP3   OH2 1207   4.247   1.112   0.117
  417TIP3    H1 1208   4.283   1.197   0.090
  417TIP3    H2 1209   4.154   1.129   0.132
  418TIP3   OH2 1210   4.370   1.537   0.704
  418TIP3    H1 1211   4.390   1.443   0.708
  418TIP3    H2 1212   4.366   1.564   0.796
  419TIP3   OH2 1213   3.034   1.662   1.436
  419TIP3    H1 1214   3.064   1.675   1.346
  419TIP3    H2 1215   3.113   1.638   1.485
  420TIP3   OH2 1216   4.633   1.901   1.525
  420TIP3    H1 1217   4.697   1.832   1.510
  420TIP3    H2 1218   4.660   1.973   1.467
  421TIP3   OH2 1219   4.802   1.686   1.517
  421TIP3    H1 1220   4.730   1.644   1.564
  421TIP3    H2 1221   4.878   1.631   1.537
  422TIP3   OH2 1222   4.412   1.271   0.654
  422TIP3    H1 1223   4.358   1.201   0.619
  422TIP3    H2 1224   4.500   1.253   0.619
  423TIP3   OH2 1225   4.517   1.373   1.084
  423TIP3    H1 1226   4.600   1.393   1.039
  423TIP3    H2 1227   4.528   1.411   1.172
  424TIP3   OH2 1228   4.573   1.522   1.307
  424TIP3    H1 1229   4.498   1.552   1.359
  424TIP3    H2 1230   4.603   1.601   1.261
  425TIP3   OH2 1231   5.027   1.114   1.844
  425TIP3    H1 1232   5.090   1.055   1.802
  425TIP3    H2 1233   4.992   1.166   1.772
  426TIP3   OH2 1234   4.509   0.907   0.620
  426TIP3    H1 1235   4.530   0.928   0.711
  426TIP3    H2 1236   4.431   0.852   0.625
  427TIP3   OH2 1237   3.154   0.901   1.577
  427TIP3    H1 1238   3.162   0.871   1.486
  427TIP3    H2 1239   3.191   0.990   1.576
  428TIP3   OH2 1240   2.954   1.208   1.603
  428TIP3    H1 1241   2.931   1.261   1.527
  428TIP3    H2 1242   2.929   1.261   1.678
  429TIP3   OH2 1243   4.882   1.241   1.652
  429TIP3    H1 1244   4.803   1.280   1.689
  429TIP3    H2 1245   4.850   1.170   1.596
  430TIP3   OH2 1246   4.118   2.404   0.512
  430TIP3    H1 1247   4.171   2.414   0.433
  430TIP3    H2 1248   4.138   2.481   0.565
  431TIP3   OH2 1249   3.161   0.774   1.877
  431TIP3    H1 1250   3.112   0.749   1.956
  431TIP3    H2 1251   3.099   0.828   1.827
  432TIP3   OH2 1252   3.188   2.219   1.889
  432TIP3    H1 1253   3.094   2.200   1.881
  432TIP3    H2 1254   3.206   2.211   1.982
  433TIP3   OH2 1255   3.387   2.261   1.437
  433TIP3    H1 1256   3.333   2.334   1.407
  433TIP3    H2 1257   3.472   2.277   1.398
  434TIP3   OH2 1258   3.799   2.497   1.572
  434TIP3    H1 1259   3.835   2.489   1.660
  434TIP3    H2 1260   3.863   2.549   1.524
  435TIP3   OH2 1261   3.991   2.650   1.445
  435TIP3    H1 1262   4.058   2.595   1.404
  435TIP3    H2 1263   4.040   2.709   1.502
  436TIP3   OH2 1264   4.805   0.991   1.544
  436TIP3    H1 1265   4.715   0.972   1.515
  436TIP3    H2 1266   4.849   0.907   1.543
  437TIP3   OH2 1267   3.039   2.532   1.479
  437TIP3    H1 1268   2.945   2.547   1.478
  437TIP3    H2 1269   3.073   2.590   1.547
  438TIP3   OH2 1270   3.275   2.490   1.337
  438TIP3    H1 1271   3.189   2.503   1.379
  438TIP3    H2 1272   3.267   2.535   1.253
  439TIP3   OH2 1273   3.709   2.515   1.125
  439TIP3    H1 1274   3.642   2.529   1.058
  439TIP3    H2 1275   3.720   2.600   1.167
  440TIP3   OH2 1276   3.970   2.445   1.168
  440TIP3    H1 1277   3.878   2.468   1.155
  440TIP3    H2 1278   4.019   2.516   1.127
  441TIP3   OH2 1279   4.166   2.626   1.077
  441TIP3    H1 1280   4.162   2.714   1.038
  441TIP3    H2 1281   4.196   2.569   1.006
  442TIP3   OH2 1282   2.973   2.302   1.232
  442TIP3    H1 1283   2.998   2.273   1.320
  442TIP3    H2 1284   3.044   2.272   1.176
  443TIP3   OH2 1285   3.191   2.190   1.109
  443TIP3    H1 1286   3.192   2.119   1.173
  443TIP3    H2 1287   3.283   2.218   1.103
  444TIP3   OH2 1288   3.448   2.281   1.085
  444TIP3    H1 1289   3.479   2.192   1.071
  444TIP3    H2 1290   3.493   2.310   1.165
  445TIP3   OH2 1291   3.985   0.852   1.140
  445TIP3    H1 1292   3.944   0.791   1.201
  445TIP3    H2 1293   4.051   0.898   1.191
  446TIP3   OH2 1294   4.561   0.849   1.116
  446TIP3    H1 1295   4.586   0.927   1.066
  446TIP3    H2 1296   4.470   0.864   1.141
  447TIP3   OH2 1297   4.613   0.979   0.865
  447TIP3    H1 1298   4.672   0.904   0.854
  447TIP3    H2 1299   4.663   1.053   0.830
  448TIP3   OH2 1300   3.746   0.649   1.046
  448TIP3    H1 1301   3.658   0.619   1.022
  448TIP3    H2 1302   3.731   0.714   1.114
  449TIP3   OH2 1303   4.289   0.866   1.141
  449TIP3    H1 1304   4.249   0.903   1.062
  449TIP3    H2 1305   4.240   0.785   1.157
  450TIP3   OH2 1306   4.278   0.764   0.634
  450TIP3    H1 1307   4.183   0.776   0.623
  450TIP3    H2 1308   4.289   0.743   0.727
  451TIP3   OH2 1309   3.500   2.279   0.096
  451TIP3    H1 1310   3.587   2.307   0.124
  451TIP3    H2 1311   3.469   2.223   0.167
  452TIP3   OH2 1312   4.233   2.405   0.258
  452TIP3    H1 1313   4.223   2.312   0.243
  452TIP3    H2 1314   4.187   2.447   0.185
  453TIP3   OH2 1315   3.440   0.903   2.106
  453TIP3    H1 1316   3.417   0.817   2.141
  453TIP3    H2 1317   3.535   0.909   2.118
  454TIP3   OH2 1318   3.706   0.884   2.148
  454TIP3    H1 1319   3.788   0.853   2.110
  454TIP3    H2 1320   3.721   0.884   2.242
  455TIP3   OH2 1321   4.536   0.982   1.964
  455TIP3    H1 1322   4.553   0.956   2.055
  455TIP3    H2 1323   4.622   0.979   1.922
  456TIP3   OH2 1324   4.453   2.518   1.462
  456TIP3    H1 1325   4.376   2.488   1.414
  456TIP3    H2 1326   4.439   2.612   1.474
  457TIP3   OH2 1327   5.682   1.890   0.242
  457TIP3    H1 1328   5.688   1.972   0.193
  457TIP3    H2 1329   5.588   1.878   0.258
  458TIP3   OH2 1330   5.715   1.901   0.627
  458TIP3    H1 1331   5.760   1.885   0.710
  458TIP3    H2 1332   5.671   1.819   0.607
  459TIP3   OH2 1333   5.020   1.754   0.971
  459TIP3    H1 1334   5.059   1.705   1.043
  459TIP3    H2 1335   5.095   1.782   0.918
  460TIP3   OH2 1336   5.996   2.206   0.310
  460TIP3    H1 1337   5.973   2.143   0.378
  460TIP3    H2 1338   6.015   2.287   0.357
  461TIP3   OH2 1339   5.013   2.198   0.673
  461TIP3    H1 1340   5.000   2.104   0.690
  461TIP3    H2 1341   5.107   2.206   0.658
  462TIP3   OH2 1342   4.722   1.406   0.445
  462TIP3    H1 1343   4.702   1.499   0.458
  462TIP3    H2 1344   4.641   1.369   0.409
  463TIP3   OH2 1345   4.804   1.700   0.632
  463TIP3    H1 1346   4.851   1.627   0.673
  463TIP3    H2 1347   4.856   1.721   0.555
  464TIP3   OH2 1348   5.632   2.648   0.330
  464TIP3    H1 1349   5.665   2.577   0.275
  464TIP3    H2 1350   5.627   2.610   0.418
  465TIP3   OH2 1351   5.524   2.126   0.639
  465TIP3    H1 1352   5.561   2.044   0.607
  465TIP3    H2 1353   5.599   2.177   0.669
  466TIP3   OH2 1354   5.942   1.618   0.675
  466TIP3    H1 1355   5.966   1.531   0.707
  466TIP3    H2 1356   5.886   1.601   0.599
  467TIP3   OH2 1357   5.262   1.313   0.646
  467TIP3    H1 1358   5.235   1.381   0.585
  467TIP3    H2 1359   5.243   1.230   0.601
  468TIP3   OH2 1360   4.915   1.482   0.763
  468TIP3    H1 1361   4.996   1.475   0.813
  468TIP3    H2 1362   4.923   1.415   0.695
  469TIP3   OH2 1363   5.349   1.703   0.603
  469TIP3    H1 1364   5.441   1.677   0.606
  469TIP3    H2 1365   5.308   1.637   0.547
  470TIP3   OH2 1366   6.534   1.613   0.859
  470TIP3    H1 1367   6.458   1.669   0.848
  470TIP3    H2 1368   6.593   1.663   0.916
  471TIP3   OH2 1369   5.268   1.271   1.095
  471TIP3    H1 1370   5.221   1.318   1.026
  471TIP3    H2 1371   5.217   1.287   1.175
  472TIP3   OH2 1372   5.626   2.120   0.088
  472TIP3    H1 1373   5.588   2.088   0.006
  472TIP3    H2 1374   5.569   2.192   0.113
  473TIP3   OH2 1375   5.380   2.051   0.864
  473TIP3    H1 1376   5.321   2.120   0.896
  473TIP3    H2 1377   5.423   2.089   0.788
  474TIP3   OH2 1378   5.151   1.394   0.881
  474TIP3    H1 1379   5.206   1.468   0.906
  474TIP3    H2 1380   5.192   1.359   0.802
  475TIP3   OH2 1381   5.210   2.247   0.960
  475TIP3    H1 1382   5.195   2.336   0.930
  475TIP3    H2 1383   5.134   2.226   1.013
  476TIP3   OH2 1384   4.573   1.970   0.258
  476TIP3    H1 1385   4.574   1.976   0.162
  476TIP3    H2 1386   4.625   2.046   0.287
  477TIP3   OH2 1387   6.034   2.459   0.442
  477TIP3    H1 1388   5.950   2.444   0.485
  477TIP3    H2 1389   6.023   2.543   0.397
  478TIP3   OH2 1390   5.726   2.484   0.129
  478TIP3    H1 1391   5.776   2.403   0.118
  478TIP3    H2 1392   5.777   2.551   0.084
  479TIP3   OH2 1393   5.866   2.259   0.073
  479TIP3    H1 1394   5.796   2.194   0.070
  479TIP3    H2 1395   5.922   2.230   0.145
  480TIP3   OH2 1396   6.250   2.343   0.799
  480TIP3    H1 1397   6.234   2.270   0.739
  480TIP3    H2 1398   6.245   2.421   0.744
  481TIP3   OH2 1399   6.336   1.931   0.631
  481TIP3    H1 1400   6.265   1.993   0.622
  481TIP3    H2 1401   6.415   1.981   0.609
  482TIP3   OH2 1402   6.100   1.869   0.985
  482TIP3    H1 1403   6.098   1.951   1.036
  482TIP3    H2 1404   6.019   1.870   0.936
  483TIP3   OH2 1405   5.271   2.240   0.568
  483TIP3    H1 1406   5.248   2.213   0.479
  483TIP3    H2 1407   5.357   2.201   0.583
  484TIP3   OH2 1408   5.249   1.812   0.829
  484TIP3    H1 1409   5.277   1.783   0.742
  484TIP3    H2 1410   5.294   1.896   0.841
  485TIP3   OH2 1411   5.802   2.439   0.578
  485TIP3    H1 1412   5.786   2.518   0.629
  485TIP3    H2 1413   5.784   2.367   0.639
  486TIP3   OH2 1414   5.413   2.346   1.122
  486TIP3    H1 1415   5.354   2.404   1.171
  486TIP3    H2 1416   5.355   2.294   1.067
  487TIP3   OH2 1417   5.172   1.897   1.260
  487TIP3    H1 1418   5.177   1.990   1.283
  487TIP3    H2 1419   5.078   1.880   1.252
  488TIP3   OH2 1420   5.480   2.359   0.121
  488TIP3    H1 1421   5.561   2.409   0.135
  488TIP3    H2 1422   5.423   2.419   0.074
  489TIP3   OH2 1423   5.203   2.504   1.209
  489TIP3    H1 1424   5.175   2.513   1.118
  489TIP3    H2 1425   5.122   2.488   1.258
  490TIP3   OH2 1426   4.790   2.057   1.155
  490TIP3    H1 1427   4.723   2.036   1.090
  490TIP3    H2 1428   4.826   1.972   1.181
  491TIP3   OH2 1429   4.644   2.248   0.799
  491TIP3    H1 1430   4.739   2.262   0.804
  491TIP3    H2 1431   4.607   2.324   0.844
  492TIP3   OH2 1432   6.482   2.736   0.850
  492TIP3    H1 1433   6.495   2.641   0.856
  492TIP3    H2 1434   6.403   2.753   0.901
  493TIP3   OH2 1435   5.601   2.486   0.979
  493TIP3    H1 1436   5.597   2.577   1.010
  493TIP3    H2 1437   5.535   2.441   1.031
  494TIP3   OH2 1438   8.189   6.603   6.878
  494TIP3    H1 1439   8.108   6.585   6.829
  494TIP3    H2 1440   8.174   6.690   6.917
  495TIP3   OH2 1441   4.818   2.454   0.322
  495TIP3    H1 1442   4.865   2.447   0.405
  495TIP3    H2 1443   4.772   2.370   0.313
  496TIP3   OH2 1444   8.443   6.547   6.779
  496TIP3    H1 1445   8.355   6.564   6.813
  496TIP3    H2 1446   8.482   6.486   6.842
  497TIP3   OH2 1447   6.339   1.818   1.171
  497TIP3    H1 1448   6.268   1.819   1.106
  497TIP3    H2 1449   6.368   1.727   1.173
  498TIP3   OH2 1450   4.992   2.242   1.128
  498TIP3    H1 1451   5.042   2.233   1.209
  498TIP3    H2 1452   4.920   2.179   1.136
  499TIP3   OH2 1453   5.353   1.057   0.944
  499TIP3    H1 1454   5.268   1.027   0.911
  499TIP3    H2 1455   5.333   1.138   0.992
  500TIP3   OH2 1456   5.913   1.162   1.126
  500TIP3    H1 1457   5.983   1.142   1.189
  500TIP3    H2 1458   5.832   1.144   1.173
  501TIP3   OH2 1459   6.132   1.602   1.051
  501TIP3    H1 1460   6.090   1.592   1.137
  501TIP3    H2 1461   6.105   1.689   1.021
  502TIP3   OH2 1462   5.329   1.587   0.962
  502TIP3    H1 1463   5.286   1.600   1.046
  502TIP3    H2 1464   5.312   1.668   0.913
  503TIP3   OH2 1465   5.182   1.500   0.461
  503TIP3    H1 1466   5.116   1.568   0.450
  503TIP3    H2 1467   5.226   1.496   0.376
  504TIP3   OH2 1468   5.868   1.810   1.271
  504TIP3    H1 1469   5.840   1.743   1.333
  504TIP3    H2 1470   5.960   1.826   1.294
  505TIP3   OH2 1471   5.803   1.560   0.447
  505TIP3    H1 1472   5.805   1.628   0.380
  505TIP3    H2 1473   5.797   1.478   0.397
  506TIP3   OH2 1474   5.150   1.603   1.173
  506TIP3    H1 1475   5.171   1.668   1.239
  506TIP3    H2 1476   5.133   1.523   1.223
  507TIP3   OH2 1477   4.786   1.146   0.738
  507TIP3    H1 1478   4.836   1.171   0.816
  507TIP3    H2 1479   4.828   1.194   0.667
  508TIP3   OH2 1480   4.811   1.131   0.320
  508TIP3    H1 1481   4.822   1.190   0.246
  508TIP3    H2 1482   4.794   1.190   0.395
  509TIP3   OH2 1483   5.859   1.812   0.851
  509TIP3    H1 1484   5.892   1.748   0.788
  509TIP3    H2 1485   5.822   1.759   0.922
  510TIP3   OH2 1486   5.531   1.316   0.559
  510TIP3    H1 1487   5.446   1.326   0.602
  510TIP3    H2 1488   5.584   1.268   0.622
  511TIP3   OH2 1489   4.939   1.299   0.557
  511TIP3    H1 1490   4.864   1.344   0.517
  511TIP3    H2 1491   5.012   1.318   0.498
  512TIP3   OH2 1492   5.958   1.350   0.738
  512TIP3    H1 1493   5.941   1.371   0.830
  512TIP3    H2 1494   5.957   1.255   0.735
  513TIP3   OH2 1495   6.207   3.052   0.958
  513TIP3    H1 1496   6.206   3.068   0.863
  513TIP3    H2 1497   6.286   3.096   0.989
  514TIP3   OH2 1498   5.154   2.159   1.362
  514TIP3    H1 1499   5.234   2.182   1.410
  514TIP3    H2 1500   5.084   2.166   1.428
  515TIP3   OH2 1501   5.612   1.630   0.641
  515TIP3    H1 1502   5.667   1.581   0.580
  515TIP3    H2 1503   5.613   1.577   0.721
  516TIP3   OH2 1504   5.589   1.513   0.902
  516TIP3    H1 1505   5.502   1.548   0.921
  516TIP3    H2 1506   5.648   1.568   0.953
  517TIP3   OH2 1507   5.263   1.929  -0.004
  517TIP3    H1 1508   5.212   1.849  -0.018
  517TIP3    H2 1509   5.264   1.940   0.091
  518TIP3   OH2 1510   6.185   2.159   0.607
  518TIP3    H1 1511   6.224   2.197   0.529
  518TIP3    H2 1512   6.100   2.125   0.577
  519TIP3   OH2 1513   5.725   2.220   1.015
  519TIP3    H1 1514   5.768   2.209   1.099
  519TIP3    H2 1515   5.682   2.306   1.020
  520TIP3   OH2 1516   8.310   6.060   6.809
  520TIP3    H1 1517   8.267   6.140   6.776
  520TIP3    H2 1518   8.238   6.008   6.846
  521TIP3   OH2 1519   4.899   1.839   1.292
  521TIP3    H1 1520   4.914   1.824   1.386
  521TIP3    H2 1521   4.831   1.776   1.269
  522TIP3   OH2 1522   5.634   1.963   1.308
  522TIP3    H1 1523   5.568   1.905   1.271
  522TIP3    H2 1524   5.718   1.925   1.281
  523TIP3   OH2 1525   5.871   2.505   0.898
  523TIP3    H1 1526   5.777   2.491   0.907
  523TIP3    H2 1527   5.898   2.542   0.982
  524TIP3   OH2 1528   6.472   2.463   0.915
  524TIP3    H1 1529   6.381   2.434   0.915
  524TIP3    H2 1530   6.510   2.424   0.836
  525TIP3   OH2 1531   5.956   2.024   0.524
  525TIP3    H1 1532   5.865   1.996   0.540
  525TIP3    H2 1533   6.002   1.943   0.503
  526TIP3   OH2 1534   5.128   2.212   0.321
  526TIP3    H1 1535   5.136   2.288   0.265
  526TIP3    H2 1536   5.034   2.197   0.330
  527TIP3   OH2 1537   4.702   1.554   0.022
  527TIP3    H1 1538   4.746   1.638   0.035
  527TIP3    H2 1539   4.619   1.564   0.069
  528TIP3   OH2 1540   5.220   1.946   0.264
  528TIP3    H1 1541   5.194   2.033   0.294
  528TIP3    H2 1542   5.159   1.886   0.307
  529TIP3   OH2 1543   5.413   2.561   0.777
  529TIP3    H1 1544   5.451   2.634   0.728
  529TIP3    H2 1545   5.485   2.526   0.829
  530TIP3   OH2 1546   5.046   2.465   0.171
  530TIP3    H1 1547   4.961   2.467   0.215
  530TIP3    H2 1548   5.080   2.554   0.179
  531TIP3   OH2 1549   5.768   2.215   0.742
  531TIP3    H1 1550   5.759   2.211   0.837
  531TIP3    H2 1551   5.842   2.157   0.723
  532TIP3   OH2 1552   6.024   2.721   0.787
  532TIP3    H1 1553   5.954   2.657   0.802
  532TIP3    H2 1554   5.991   2.776   0.716
  533TIP3   OH2 1555   5.104   1.347   1.302
  533TIP3    H1 1556   5.009   1.356   1.309
  533TIP3    H2 1557   5.130   1.301   1.382
  534TIP3   OH2 1558   4.840   2.444   0.939
  534TIP3    H1 1559   4.891   2.379   0.989
  534TIP3    H2 1560   4.856   2.527   0.984
  535TIP3   OH2 1561   7.919   6.064   6.548
  535TIP3    H1 1562   7.905   5.972   6.569
  535TIP3    H2 1563   7.924   6.108   6.632
  536TIP3   OH2 1564   7.909   6.108   6.826
  536TIP3    H1 1565   7.982   6.061   6.864
  536TIP3    H2 1566   7.925   6.200   6.848
  537TIP3   OH2 1567   4.797   1.796   0.095
  537TIP3    H1 1568   4.844   1.786   0.178
  537TIP3    H2 1569   4.832   1.876   0.057
  538TIP3   OH2 1570   5.934   1.407   1.004
  538TIP3    H1 1571   6.019   1.446   1.028
  538TIP3    H2 1572   5.930   1.326   1.053
  539TIP3   OH2 1573   8.170   6.287   6.741
  539TIP3    H1 1574   8.094   6.316   6.792
  539TIP3    H2 1575   8.197   6.364   6.692
  540TIP3   OH2 1576   5.786   1.642   1.053
  540TIP3    H1 1577   5.813   1.688   1.133
  540TIP3    H2 1578   5.836   1.561   1.054
  541TIP3   OH2 1579   7.941   6.374   6.866
  541TIP3    H1 1580   7.914   6.443   6.806
  541TIP3    H2 1581   7.915   6.406   6.953
  542TIP3   OH2 1582   6.394   1.548   1.088
  542TIP3    H1 1583   6.299   1.548   1.076
  542TIP3    H2 1584   6.430   1.544   0.999
  543TIP3   OH2 1585   6.080   1.779   0.499
  543TIP3    H1 1586   6.030   1.726   0.560
  543TIP3    H2 1587   6.168   1.740   0.499
  544TIP3   OH2 1588   7.656   6.007   6.836
  544TIP3    H1 1589   7.732   6.064   6.839
  544TIP3    H2 1590   7.681   5.937   6.775
  545TIP3   OH2 1591   6.036   2.727   0.354
  545TIP3    H1 1592   5.995   2.775   0.282
  545TIP3    H2 1593   6.130   2.747   0.347
  546TIP3   OH2 1594   5.095   0.957   0.899
  546TIP3    H1 1595   5.064   0.916   0.818
  546TIP3    H2 1596   5.105   0.885   0.961
  547TIP3   OH2 1597   4.663   2.227   0.309
  547TIP3    H1 1598   4.614   2.261   0.384
  547TIP3    H2 1599   4.614   2.259   0.233
  548TIP3   OH2 1600   4.836   2.758   1.358
  548TIP3    H1 1601   4.918   2.764   1.408
  548TIP3    H2 1602   4.819   2.664   1.351
  549TIP3   OH2 1603   5.301   2.681   1.399
  549TIP3    H1 1604   5.393   2.661   1.412
  549TIP3    H2 1605   5.273   2.621   1.329
  550TIP3   OH2 1606   5.933   2.607   1.144
  550TIP3    H1 1607   5.938   2.538   1.210
  550TIP3    H2 1608   6.006   2.666   1.165
  551TIP3   OH2 1609   4.947   2.153   1.550
  551TIP3    H1 1610   4.966   2.059   1.561
  551TIP3    H2 1611   4.860   2.155   1.510
  552TIP3   OH2 1612   7.799   5.809   6.698
  552TIP3    H1 1613   7.841   5.777   6.778
  552TIP3    H2 1614   7.823   5.746   6.631
  553TIP3   OH2 1615   5.565   2.239   1.327
  553TIP3    H1 1616   5.521   2.259   1.245
  553TIP3    H2 1617   5.600   2.150   1.315
  554TIP3   OH2 1618   6.027   2.273   0.942
  554TIP3    H1 1619   6.108   2.299   0.898
  554TIP3    H2 1620   5.964   2.342   0.921
  555TIP3   OH2 1621   5.060   1.893   1.549
  555TIP3    H1 1622   5.139   1.876   1.497
  555TIP3    H2 1623   5.093   1.915   1.636
  556TIP3   OH2 1624   5.096   1.694  -0.010
  556TIP3    H1 1625   5.062   1.703   0.079
  556TIP3    H2 1626   5.162   1.625  -0.004
  557TIP3   OH2 1627   5.417   1.773   1.208
  557TIP3    H1 1628   5.337   1.824   1.218
  557TIP3    H2 1629   5.456   1.806   1.126
  558TIP3   OH2 1630   5.917   2.161   1.313
  558TIP3    H1 1631   5.987   2.127   1.257
  558TIP3    H2 1632   5.917   2.103   1.389
  559TIP3   OH2 1633   5.527   1.551   1.322
  559TIP3    H1 1634   5.530   1.478   1.261
  559TIP3    H2 1635   5.491   1.624   1.272
  560TIP3   OH2 1636   5.531   1.346   1.127
  560TIP3    H1 1637   5.559   1.385   1.043
  560TIP3    H2 1638   5.440   1.322   1.113
  561TIP3   OH2 1639   5.551   1.885   1.000
  561TIP3    H1 1640   5.639   1.907   0.971
  561TIP3    H2 1641   5.494   1.947   0.954
  562TIP3   OH2 1642   6.133   1.833   1.377
  562TIP3    H1 1643   6.170   1.746   1.395
  562TIP3    H2 1644   6.204   1.880   1.332
  563TIP3   OH2 1645   6.126   2.108   1.132
  563TIP3    H1 1646   6.074   2.166   1.075
  563TIP3    H2 1647   6.216   2.119   1.102
  564TIP3   OH2 1648   5.409   1.643   1.561
  564TIP3    H1 1649   5.340   1.581   1.581
  564TIP3    H2 1650   5.439   1.618   1.473
  565TIP3   OH2 1651   5.653   1.113   1.216
  565TIP3    H1 1652   5.610   1.194   1.187
  565TIP3    H2 1653   5.588   1.045   1.203
  566TIP3   OH2 1654   5.783   1.597   1.421
  566TIP3    H1 1655   5.773   1.587   1.516
  566TIP3    H2 1656   5.697   1.575   1.385
  567TIP3   OH2 1657   6.020   1.545   1.287
  567TIP3    H1 1658   5.942   1.548   1.342
  567TIP3    H2 1659   6.091   1.522   1.347
  568TIP3   OH2 1660   6.245   1.509   1.445
  568TIP3    H1 1661   6.251   1.414   1.457
  568TIP3    H2 1662   6.244   1.544   1.534
  569TIP3   OH2 1663   5.244   1.423   1.625
  569TIP3    H1 1664   5.251   1.333   1.591
  569TIP3    H2 1665   5.281   1.418   1.713
  570TIP3   OH2 1666   5.713   1.106   1.483
  570TIP3    H1 1667   5.788   1.047   1.479
  570TIP3    H2 1668   5.683   1.113   1.393
  571TIP3   OH2 1669   5.814   1.320   1.624
  571TIP3    H1 1670   5.782   1.250   1.568
  571TIP3    H2 1671   5.744   1.384   1.626
  572TIP3   OH2 1672   7.934   6.569   6.673
  572TIP3    H1 1673   7.943   6.532   6.585
  572TIP3    H2 1674   7.865   6.635   6.664
  573TIP3   OH2 1675   7.400   5.956   6.917
  573TIP3    H1 1676   7.477   5.999   6.882
  573TIP3    H2 1677   7.432   5.871   6.949
  574TIP3   OH2 1678   4.445   2.538   0.372
  574TIP3    H1 1679   4.381   2.487   0.322
  574TIP3    H2 1680   4.485   2.475   0.431
  575TIP3   OH2 1681   4.580   2.371   0.546
  575TIP3    H1 1682   4.572   2.304   0.614
  575TIP3    H2 1683   4.632   2.440   0.587
  576TIP3   OH2 1684   6.298   2.791   0.342
  576TIP3    H1 1685   6.329   2.819   0.428
  576TIP3    H2 1686   6.371   2.810   0.283
  577TIP3   OH2 1687   6.335   2.810   0.626
  577TIP3    H1 1688   6.292   2.725   0.618
  577TIP3    H2 1689   6.399   2.798   0.695
  578TIP3   OH2 1690   6.380   2.500   1.217
  578TIP3    H1 1691   6.307   2.509   1.279
  578TIP3    H2 1692   6.416   2.588   1.209
  579TIP3   OH2 1693   6.340   2.267   0.407
  579TIP3    H1 1694   6.390   2.207   0.352
  579TIP3    H2 1695   6.325   2.344   0.352
  580TIP3   OH2 1696   6.202   2.564   0.636
  580TIP3    H1 1697   6.137   2.608   0.692
  580TIP3    H2 1698   6.150   2.522   0.568
  581TIP3   OH2 1699   4.764   1.799   0.894
  581TIP3    H1 1700   4.764   1.771   0.803
  581TIP3    H2 1701   4.855   1.791   0.922
  582TIP3   OH2 1702   6.373   2.158   1.041
  582TIP3    H1 1703   6.442   2.091   1.036
  582TIP3    H2 1704   6.391   2.215   0.965
  583TIP3   OH2 1705   6.551   1.957   1.080
  583TIP3    H1 1706   6.476   1.912   1.117
  583TIP3    H2 1707   6.621   1.891   1.079
  584TIP3   OH2 1708   6.299   1.616   0.578
  584TIP3    H1 1709   6.367   1.554   0.603
  584TIP3    H2 1710   6.280   1.665   0.658
  585TIP3   OH2 1711   6.314   1.767   0.838
  585TIP3    H1 1712   6.238   1.800   0.887
  585TIP3    H2 1713   6.324   1.829   0.766
  586TIP3   OH2 1714   4.981   1.482   1.565
  586TIP3    H1 1715   5.075   1.481   1.582
  586TIP3    H2 1716   4.948   1.402   1.607
  587TIP3   OH2 1717   6.801   1.333   1.357
  587TIP3    H1 1718   6.889   1.348   1.322
  587TIP3    H2 1719   6.745   1.388   1.303
  588TIP3   OH2 1720   4.954   1.197   0.949
  588TIP3    H1 1721   5.007   1.118   0.943
  588TIP3    H2 1722   5.016   1.269   0.936
  589TIP3   OH2 1723   4.749   1.467   0.983
  589TIP3    H1 1724   4.797   1.468   0.901
  589TIP3    H2 1725   4.774   1.548   1.027
  590TIP3   OH2 1726   6.623   1.478   1.211
  590TIP3    H1 1727   6.535   1.497   1.179
  590TIP3    H2 1728   6.667   1.439   1.136
  591TIP3   OH2 1729   4.734   0.885   0.463
  591TIP3    H1 1730   4.662   0.862   0.522
  591TIP3    H2 1731   4.799   0.926   0.520
  592TIP3   OH2 1732   0.204   6.674   6.932
  592TIP3    H1 1733   0.235   6.635   6.850
  592TIP3    H2 1734   0.276   6.730   6.961
  593TIP3   OH2 1735   4.931   1.012   1.290
  593TIP3    H1 1736   4.891   1.019   1.376
  593TIP3    H2 1737   4.879   1.070   1.234
  594TIP3   OH2 1738   4.979   2.473   1.375
  594TIP3    H1 1739   4.885   2.454   1.366
  594TIP3    H2 1740   4.996   2.465   1.468
  595TIP3   OH2 1741   5.182   2.520   0.924
  595TIP3    H1 1742   5.131   2.594   0.892
  595TIP3    H2 1743   5.268   2.530   0.882
  596TIP3   OH2 1744   5.594   2.753   1.059
  596TIP3    H1 1745   5.630   2.744   1.147
  596TIP3    H2 1746   5.658   2.806   1.011
  597TIP3   OH2 1747   5.785   2.907   0.932
  597TIP3    H1 1748   5.850   2.851   0.891
  597TIP3    H2 1749   5.835   2.965   0.989
  598TIP3   OH2 1750   4.846   2.769   0.966
  598TIP3    H1 1751   4.754   2.787   0.945
  598TIP3    H2 1752   4.867   2.833   1.035
  599TIP3   OH2 1753   5.076   2.750   0.817
  599TIP3    H1 1754   4.993   2.758   0.865
  599TIP3    H2 1755   5.053   2.777   0.728
  600TIP3   OH2 1756   5.496   2.768   0.610
  600TIP3    H1 1757   5.423   2.782   0.550
  600TIP3    H2 1758   5.507   2.852   0.654
  601TIP3   OH2 1759   5.761   2.705   0.657
  601TIP3    H1 1760   5.669   2.725   0.641
  601TIP3    H2 1761   5.808   2.777   0.615
  602TIP3   OH2 1762   5.962   2.887   0.567
  602TIP3    H1 1763   5.955   2.974   0.528
  602TIP3    H2 1764   5.988   2.830   0.495
  603TIP3   OH2 1765   4.757   2.546   0.690
  603TIP3    H1 1766   4.780   2.519   0.780
  603TIP3    H2 1767   4.831   2.515   0.637
  604TIP3   OH2 1768   4.964   2.437   0.552
  604TIP3    H1 1769   4.974   2.352   0.595
  604TIP3    H2 1770   5.052   2.475   0.555
  605TIP3   OH2 1771   5.232   2.517   0.568
  605TIP3    H1 1772   5.249   2.424   0.553
  605TIP3    H2 1773   5.284   2.539   0.646
  606TIP3   OH2 1774   4.529   2.332   0.097
  606TIP3    H1 1775   4.444   2.304   0.063
  606TIP3    H2 1776   4.541   2.420   0.060
  607TIP3   OH2 1777   5.248   1.149   1.534
  607TIP3    H1 1778   5.215   1.084   1.595
  607TIP3    H2 1779   5.341   1.158   1.556
  608TIP3   OH2 1780   5.496   1.158   1.656
  608TIP3    H1 1781   5.574   1.138   1.604
  608TIP3    H2 1782   5.493   1.090   1.722
  609TIP3   OH2 1783   7.501   6.430   6.657
  609TIP3    H1 1784   7.454   6.397   6.734
  609TIP3    H2 1785   7.500   6.356   6.595
  610TIP3   OH2 1786   6.285   1.238   1.481
  610TIP3    H1 1787   6.297   1.208   1.571
  610TIP3    H2 1788   6.372   1.232   1.442
  611TIP3   OH2 1789   6.236   2.778   0.958
  611TIP3    H1 1790   6.161   2.748   0.906
  611TIP3    H2 1791   6.221   2.872   0.969
  612TIP3   OH2 1792   6.831   2.117   0.357
  612TIP3    H1 1793   6.833   2.035   0.406
  612TIP3    H2 1794   6.923   2.142   0.348
  613TIP3   OH2 1795   6.843   2.379   0.276
  613TIP3    H1 1796   6.800   2.316   0.219
  613TIP3    H2 1797   6.819   2.464   0.241
  614TIP3   OH2 1798   7.111   2.492   0.222
  614TIP3    H1 1799   7.120   2.504   0.316
  614TIP3    H2 1800   7.197   2.459   0.194
  615TIP3   OH2 1801   7.044   2.516   0.498
  615TIP3    H1 1802   7.004   2.577   0.435
  615TIP3    H2 1803   6.972   2.460   0.526
  616TIP3   OH2 1804   7.280   2.535   0.633
  616TIP3    H1 1805   7.315   2.620   0.608
  616TIP3    H2 1806   7.212   2.518   0.568
  617TIP3   OH2 1807   7.049   2.120   0.736
  617TIP3    H1 1808   7.090   2.193   0.691
  617TIP3    H2 1809   7.006   2.160   0.812
  618TIP3   OH2 1810   6.924   2.883   0.765
  618TIP3    H1 1811   6.880   2.860   0.683
  618TIP3    H2 1812   6.866   2.851   0.834
  619TIP3   OH2 1813   6.505   2.371   0.620
  619TIP3    H1 1814   6.434   2.389   0.558
  619TIP3    H2 1815   6.513   2.276   0.620
  620TIP3   OH2 1816   6.376   2.518   0.288
  620TIP3    H1 1817   6.442   2.550   0.349
  620TIP3    H2 1818   6.303   2.580   0.296
  621TIP3   OH2 1819   7.407   2.777   0.573
  621TIP3    H1 1820   7.389   2.871   0.578
  621TIP3    H2 1821   7.379   2.752   0.485
  622TIP3   OH2 1822   6.685   2.545   0.745
  622TIP3    H1 1823   6.766   2.525   0.793
  622TIP3    H2 1824   6.668   2.466   0.694
  623TIP3   OH2 1825   6.915   1.875   0.706
  623TIP3    H1 1826   6.842   1.916   0.752
  623TIP3    H2 1827   6.911   1.783   0.731
  624TIP3   OH2 1828   6.920   2.547   0.884
  624TIP3    H1 1829   7.009   2.582   0.876
  624TIP3    H2 1830   6.880   2.597   0.955
  625TIP3   OH2 1831   7.584   2.562   0.537
  625TIP3    H1 1832   7.534   2.616   0.599
  625TIP3    H2 1833   7.614   2.624   0.471
  626TIP3   OH2 1834   6.636   1.896   0.793
  626TIP3    H1 1835   6.678   1.927   0.873
  626TIP3    H2 1836   6.554   1.947   0.787
  627TIP3   OH2 1837   7.385   2.213   0.749
  627TIP3    H1 1838   7.351   2.126   0.725
  627TIP3    H2 1839   7.460   2.226   0.691
  628TIP3   OH2 1840   7.192   2.870   0.281
  628TIP3    H1 1841   7.169   2.923   0.205
  628TIP3    H2 1842   7.284   2.889   0.297
  629TIP3   OH2 1843   6.548   2.623   0.468
  629TIP3    H1 1844   6.556   2.585   0.556
  629TIP3    H2 1845   6.587   2.709   0.474
  630TIP3   OH2 1846   6.630   3.019   0.850
  630TIP3    H1 1847   6.710   3.021   0.901
  630TIP3    H2 1848   6.604   2.926   0.850
  631TIP3   OH2 1849   7.108   2.966   0.950
  631TIP3    H1 1850   7.200   2.948   0.932
  631TIP3    H2 1851   7.062   2.938   0.870
  632TIP3   OH2 1852   6.696   2.419   1.074
  632TIP3    H1 1853   6.670   2.360   1.144
  632TIP3    H2 1854   6.616   2.436   1.026
  633TIP3   OH2 1855   7.396   2.456   0.873
  633TIP3    H1 1856   7.427   2.529   0.819
  633TIP3    H2 1857   7.405   2.379   0.816
  634TIP3   OH2 1858   6.809   2.003   0.975
  634TIP3    H1 1859   6.892   1.980   1.017
  634TIP3    H2 1860   6.756   2.041   1.045
  635TIP3   OH2 1861   7.269   1.973   0.692
  635TIP3    H1 1862   7.184   2.016   0.699
  635TIP3    H2 1863   7.269   1.933   0.605
  636TIP3   OH2 1864   7.031   1.931   1.107
  636TIP3    H1 1865   7.078   1.853   1.137
  636TIP3    H2 1866   7.097   1.982   1.061
  637TIP3   OH2 1867   6.963   1.600   1.088
  637TIP3    H1 1868   6.974   1.591   0.994
  637TIP3    H2 1869   7.046   1.637   1.118
  638TIP3   OH2 1870   6.375   2.632   0.016
  638TIP3    H1 1871   6.341   2.562   0.073
  638TIP3    H2 1872   6.415   2.694   0.076
  639TIP3   OH2 1873   6.564   2.106   0.325
  639TIP3    H1 1874   6.543   2.027   0.276
  639TIP3    H2 1875   6.660   2.105   0.333
  640TIP3   OH2 1876   6.711   1.724   1.041
  640TIP3    H1 1877   6.796   1.764   1.060
  640TIP3    H2 1878   6.690   1.673   1.119
  641TIP3   OH2 1879   6.745   2.769   0.938
  641TIP3    H1 1880   6.665   2.731   0.900
  641TIP3    H2 1881   6.733   2.760   1.032
  642TIP3   OH2 1882   6.977   2.722   0.340
  642TIP3    H1 1883   6.959   2.789   0.406
  642TIP3    H2 1884   7.052   2.756   0.291
  643TIP3   OH2 1885   7.402   3.055   0.565
  643TIP3    H1 1886   7.448   3.058   0.648
  643TIP3    H2 1887   7.467   3.080   0.500
  644TIP3   OH2 1888   7.604   3.116   0.368
  644TIP3    H1 1889   7.672   3.136   0.304
  644TIP3    H2 1890   7.562   3.200   0.387
  645TIP3   OH2 1891   6.644   3.107   0.454
  645TIP3    H1 1892   6.549   3.095   0.448
  645TIP3    H2 1893   6.658   3.145   0.540
  646TIP3   OH2 1894   6.830   3.099   0.262
  646TIP3    H1 1895   6.779   3.096   0.343
  646TIP3    H2 1896   6.806   3.183   0.222
  647TIP3   OH2 1897   6.519   2.808   0.174
  647TIP3    H1 1898   6.580   2.825   0.245
  647TIP3    H2 1899   6.555   2.857   0.100
  648TIP3   OH2 1900   1.035   6.724   6.889
  648TIP3    H1 1901   0.966   6.659   6.880
  648TIP3    H2 1902   1.095   6.688   6.954
  649TIP3   OH2 1903   0.885   2.679   2.071
  649TIP3    H1 1904   0.809   2.728   2.038
  649TIP3    H2 1905   0.929   2.741   2.129
  650TIP3   OH2 1906   0.321   3.511   1.642
  650TIP3    H1 1907   0.236   3.468   1.640
  650TIP3    H2 1908   0.309   3.590   1.589
  651TIP3   OH2 1909   0.528   3.399   1.989
  651TIP3    H1 1910   0.521   3.328   1.925
  651TIP3    H2 1911   0.508   3.478   1.939
  652TIP3   OH2 1912   0.712   3.013   1.828
  652TIP3    H1 1913   0.645   3.081   1.821
  652TIP3    H2 1914   0.722   2.979   1.739
  653TIP3   OH2 1915   0.443   2.915   2.148
  653TIP3    H1 1916   0.427   2.997   2.195
  653TIP3    H2 1917   0.356   2.884   2.123
  654TIP3   OH2 1918   0.747   3.765   2.032
  654TIP3    H1 1919   0.758   3.671   2.040
  654TIP3    H2 1920   0.662   3.783   2.074
  655TIP3   OH2 1921   8.355   3.499   2.177
  655TIP3    H1 1922   8.367   3.593   2.188
  655TIP3    H2 1923   8.263   3.484   2.199
  656TIP3   OH2 1924   0.657   2.877   2.323
  656TIP3    H1 1925   0.580   2.896   2.270
  656TIP3    H2 1926   0.664   2.782   2.322
  657TIP3   OH2 1927   0.147   2.921   2.528
  657TIP3    H1 1928   0.104   2.844   2.565
  657TIP3    H2 1929   0.241   2.900   2.530
  658TIP3   OH2 1930   0.462   4.098   2.129
  658TIP3    H1 1931   0.454   4.113   2.035
  658TIP3    H2 1932   0.540   4.146   2.154
  659TIP3   OH2 1933   0.513   3.205   1.792
  659TIP3    H1 1934   0.537   3.253   1.713
  659TIP3    H2 1935   0.423   3.177   1.776
  660TIP3   OH2 1936   0.049   3.310   2.217
  660TIP3    H1 1937   0.047   3.287   2.310
  660TIP3    H2 1938  -0.024   3.370   2.205
  661TIP3   OH2 1939   0.130   3.577   2.067
  661TIP3    H1 1940   0.044   3.534   2.067
  661TIP3    H2 1941   0.148   3.596   2.159
  662TIP3   OH2 1942   0.774   3.493   2.062
  662TIP3    H1 1943   0.682   3.469   2.072
  662TIP3    H2 1944   0.801   3.454   1.978
  663TIP3   OH2 1945   0.272   3.787   1.968
  663TIP3    H1 1946   0.210   3.716   1.984
  663TIP3    H2 1947   0.236   3.834   1.892
  664TIP3   OH2 1948   0.632   2.607   2.262
  664TIP3    H1 1949   0.568   2.558   2.313
  664TIP3    H2 1950   0.626   2.570   2.174
  665TIP3   OH2 1951   0.300   3.788   1.548
  665TIP3    H1 1952   0.255   3.845   1.486
  665TIP3    H2 1953   0.393   3.802   1.530
  666TIP3   OH2 1954   8.138   3.750   2.451
  666TIP3    H1 1955   8.213   3.692   2.466
  666TIP3    H2 1956   8.082   3.737   2.528
  667TIP3   OH2 1957   0.189   3.651   2.327
  667TIP3    H1 1958   0.198   3.576   2.387
  667TIP3    H2 1959   0.267   3.704   2.344
  668TIP3   OH2 1960   8.369   3.281   2.482
  668TIP3    H1 1961   8.338   3.203   2.435
  668TIP3    H2 1962   8.451   3.253   2.523
  669TIP3   OH2 1963   0.286   3.259   2.093
  669TIP3    H1 1964   0.324   3.341   2.063
  669TIP3    H2 1965   0.198   3.282   2.122
  670TIP3   OH2 1966   0.147   3.192   2.471
  670TIP3    H1 1967   0.228   3.181   2.420
  670TIP3    H2 1968   0.133   3.106   2.512
  671TIP3   OH2 1969   0.413   2.851   2.538
  671TIP3    H1 1970   0.460   2.770   2.559
  671TIP3    H2 1971   0.482   2.917   2.528
  672TIP3   OH2 1972   0.428   3.154   2.295
  672TIP3    H1 1973   0.371   3.193   2.229
  672TIP3    H2 1974   0.517   3.173   2.265
  673TIP3   OH2 1975   0.548   2.570   2.611
  673TIP3    H1 1976   0.556   2.475   2.620
  673TIP3    H2 1977   0.527   2.601   2.699
  674TIP3   OH2 1978   0.567   3.845   1.526
  674TIP3    H1 1979   0.594   3.866   1.615
  674TIP3    H2 1980   0.637   3.881   1.471
  675TIP3   OH2 1981   0.604   3.859   1.805
  675TIP3    H1 1982   0.549   3.780   1.805
  675TIP3    H2 1983   0.680   3.837   1.858
  676TIP3   OH2 1984   0.637   3.547   2.380
  676TIP3    H1 1985   0.568   3.553   2.446
  676TIP3    H2 1986   0.681   3.632   2.383
  677TIP3   OH2 1987   0.616   3.330   1.570
  677TIP3    H1 1988   0.705   3.298   1.580
  677TIP3    H2 1989   0.625   3.417   1.531
  678TIP3   OH2 1990   0.463   3.626   1.843
  678TIP3    H1 1991   0.390   3.670   1.886
  678TIP3    H2 1992   0.423   3.581   1.768
  679TIP3   OH2 1993   0.676   3.202   2.186
  679TIP3    H1 1994   0.748   3.143   2.167
  679TIP3    H2 1995   0.661   3.250   2.105
  680TIP3   OH2 1996   0.873   3.004   2.211
  680TIP3    H1 1997   0.796   2.964   2.252
  680TIP3    H2 1998   0.945   2.947   2.237
  681TIP3   OH2 1999   0.649   2.799   1.990
  681TIP3    H1 2000   0.579   2.837   2.044
  681TIP3    H2 2001   0.673   2.870   1.930
  682TIP3   OH2 2002   1.091   2.419   2.499
  682TIP3    H1 2003   1.152   2.358   2.457
  682TIP3    H2 2004   1.044   2.460   2.427
  683TIP3   OH2 2005   0.914   2.534   2.323
  683TIP3    H1 2006   0.854   2.576   2.385
  683TIP3    H2 2007   0.880   2.558   2.237
  684TIP3   OH2 2008   8.392   3.763   2.224
  684TIP3    H1 2009   8.418   3.774   2.316
  684TIP3    H2 2010   8.457   3.813   2.175
  685TIP3   OH2 2011   0.066   3.939   2.107
  685TIP3    H1 2012   0.138   3.893   2.063
  685TIP3    H2 2013   0.109   4.001   2.166
  686TIP3   OH2 2014   8.505   3.799   1.819
  686TIP3    H1 2015   8.429   3.847   1.852
  686TIP3    H2 2016   8.561   3.867   1.781
  687TIP3   OH2 2017   0.226   3.965   1.749
  687TIP3    H1 2018   0.212   4.048   1.705
  687TIP3    H2 2019   0.249   3.904   1.679
  688TIP3   OH2 2020   0.602   2.304   2.649
  688TIP3    H1 2021   0.608   2.258   2.733
  688TIP3    H2 2022   0.675   2.269   2.598
  689TIP3   OH2 2023   0.497   3.825   2.131
  689TIP3    H1 2024   0.422   3.795   2.079
  689TIP3    H2 2025   0.484   3.919   2.141
  690TIP3   OH2 2026   1.791   3.295   1.002
  690TIP3    H1 2027   1.796   3.390   0.999
  690TIP3    H2 2028   1.698   3.276   1.012
  691TIP3   OH2 2029   1.824   3.231   1.314
  691TIP3    H1 2030   1.855   3.208   1.402
  691TIP3    H2 2031   1.822   3.147   1.267
  692TIP3   OH2 2032   1.080   3.108   1.700
  692TIP3    H1 2033   1.105   3.041   1.763
  692TIP3    H2 2034   1.155   3.114   1.640
  693TIP3   OH2 2035   1.979   3.523   0.985
  693TIP3    H1 2036   2.007   3.448   1.038
  693TIP3    H2 2037   2.030   3.597   1.019
  694TIP3   OH2 2038   1.028   3.525   1.393
  694TIP3    H1 2039   1.022   3.447   1.449
  694TIP3    H2 2040   1.120   3.549   1.395
  695TIP3   OH2 2041   1.681   3.939   0.978
  695TIP3    H1 2042   1.743   3.875   0.945
  695TIP3    H2 2043   1.691   3.935   1.074
  696TIP3   OH2 2044   1.571   3.550   1.322
  696TIP3    H1 2045   1.587   3.538   1.229
  696TIP3    H2 2046   1.658   3.545   1.363
  697TIP3   OH2 2047   2.633   2.735   1.319
  697TIP3    H1 2048   2.633   2.820   1.364
  697TIP3    H2 2049   2.673   2.753   1.234
  698TIP3   OH2 2050   2.015   2.999   1.309
  698TIP3    H1 2051   2.077   2.936   1.347
  698TIP3    H2 2052   1.938   2.947   1.286
  699TIP3   OH2 2053   2.093   2.568   0.997
  699TIP3    H1 2054   2.178   2.582   1.039
  699TIP3    H2 2055   2.049   2.652   1.003
  700TIP3   OH2 2056   1.425   2.932   1.210
  700TIP3    H1 2057   1.485   2.902   1.278
  700TIP3    H2 2058   1.403   2.853   1.161
  701TIP3   OH2 2059   2.657   2.952   1.491
  701TIP3    H1 2060   2.582   3.007   1.466
  701TIP3    H2 2061   2.641   2.932   1.583
  702TIP3   OH2 2062   1.347   2.534   1.849
  702TIP3    H1 2063   1.300   2.522   1.766
  702TIP3    H2 2064   1.283   2.576   1.907
  703TIP3   OH2 2065   1.727   3.477   0.710
  703TIP3    H1 2066   1.719   3.422   0.632
  703TIP3    H2 2067   1.664   3.439   0.772
  704TIP3   OH2 2068   1.418   3.362   1.562
  704TIP3    H1 2069   1.352   3.429   1.581
  704TIP3    H2 2070   1.462   3.393   1.483
  705TIP3   OH2 2071   2.281   2.663   1.191
  705TIP3    H1 2072   2.225   2.626   1.260
  705TIP3    H2 2073   2.321   2.740   1.232
  706TIP3   OH2 2074   1.188   2.647   1.655
  706TIP3    H1 2075   1.219   2.723   1.704
  706TIP3    H2 2076   1.251   2.638   1.583
  707TIP3   OH2 2077   1.237   3.560   1.626
  707TIP3    H1 2078   1.228   3.649   1.593
  707TIP3    H2 2079   1.163   3.549   1.686
  708TIP3   OH2 2080   2.085   3.754   1.109
  708TIP3    H1 2081   1.999   3.747   1.151
  708TIP3    H2 2082   2.084   3.838   1.065
  709TIP3   OH2 2083   2.412   2.680   1.480
  709TIP3    H1 2084   2.392   2.587   1.487
  709TIP3    H2 2085   2.479   2.684   1.411
  710TIP3   OH2 2086   1.825   3.757   0.832
  710TIP3    H1 2087   1.876   3.680   0.804
  710TIP3    H2 2088   1.872   3.831   0.793
  711TIP3   OH2 2089   1.984   3.567   0.701
  711TIP3    H1 2090   1.901   3.519   0.702
  711TIP3    H2 2091   2.031   3.535   0.778
  712TIP3   OH2 2092   2.318   3.652   1.466
  712TIP3    H1 2093   2.300   3.578   1.408
  712TIP3    H2 2094   2.301   3.729   1.412
  713TIP3   OH2 2095   2.497   3.314   1.320
  713TIP3    H1 2096   2.411   3.357   1.321
  713TIP3    H2 2097   2.528   3.324   1.230
  714TIP3   OH2 2098   1.933   2.999   0.730
  714TIP3    H1 2099   1.884   3.074   0.696
  714TIP3    H2 2100   2.025   3.020   0.711
  715TIP3   OH2 2101   2.191   3.174   1.626
  715TIP3    H1 2102   2.188   3.254   1.678
  715TIP3    H2 2103   2.104   3.168   1.586
  716TIP3   OH2 2104   1.297   3.579   1.309
  716TIP3    H1 2105   1.288   3.540   1.222
  716TIP3    H2 2106   1.391   3.574   1.328
  717TIP3   OH2 2107   1.289   3.121   1.515
  717TIP3    H1 2108   1.285   3.110   1.420
  717TIP3    H2 2109   1.326   3.208   1.527
  718TIP3   OH2 2110   1.850   3.751   1.242
  718TIP3    H1 2111   1.832   3.829   1.296
  718TIP3    H2 2112   1.843   3.678   1.303
  719TIP3   OH2 2113   1.443   3.658   1.785
  719TIP3    H1 2114   1.383   3.716   1.831
  719TIP3    H2 2115   1.387   3.603   1.730
  720TIP3   OH2 2116   1.558   3.702   0.710
  720TIP3    H1 2117   1.638   3.684   0.759
  720TIP3    H2 2118   1.488   3.691   0.774
  721TIP3   OH2 2119   1.242   3.835   1.872
  721TIP3    H1 2120   1.224   3.841   1.778
  721TIP3    H2 2121   1.158   3.811   1.910
  722TIP3   OH2 2122   2.077   3.589   0.169
  722TIP3    H1 2123   2.136   3.661   0.146
  722TIP3    H2 2124   2.055   3.548   0.086
  723TIP3   OH2 2125   0.851   3.369   1.831
  723TIP3    H1 2126   0.836   3.331   1.745
  723TIP3    H2 2127   0.881   3.295   1.884
  724TIP3   OH2 2128   0.720   3.565   1.455
  724TIP3    H1 2129   0.814   3.563   1.437
  724TIP3    H2 2130   0.708   3.642   1.511
  725TIP3   OH2 2131   2.542   4.012   1.519
  725TIP3    H1 2132   2.549   3.917   1.528
  725TIP3    H2 2133   2.461   4.034   1.564
  726TIP3   OH2 2134   1.650   3.785   1.653
  726TIP3    H1 2135   1.639   3.878   1.676
  726TIP3    H2 2136   1.576   3.742   1.695
  727TIP3   OH2 2137   1.302   3.859   0.606
  727TIP3    H1 2138   1.349   3.871   0.523
  727TIP3    H2 2139   1.358   3.900   0.672
  728TIP3   OH2 2140   0.838   3.765   0.994
  728TIP3    H1 2141   0.881   3.754   1.079
  728TIP3    H2 2142   0.753   3.722   1.004
  729TIP3   OH2 2143   1.556   3.697   0.284
  729TIP3    H1 2144   1.626   3.710   0.220
  729TIP3    H2 2145   1.600   3.663   0.362
  730TIP3   OH2 2146   1.693   3.911   0.591
  730TIP3    H1 2147   1.650   3.826   0.601
  730TIP3    H2 2148   1.785   3.893   0.611
  731TIP3   OH2 2149   2.435   3.126   1.788
  731TIP3    H1 2150   2.355   3.131   1.735
  731TIP3    H2 2151   2.454   3.032   1.792
  732TIP3   OH2 2152   1.030   3.573   1.807
  732TIP3    H1 2153   1.085   3.554   1.883
  732TIP3    H2 2154   0.962   3.506   1.808
  733TIP3   OH2 2155   1.985   2.452   1.807
  733TIP3    H1 2156   2.048   2.438   1.878
  733TIP3    H2 2157   1.904   2.411   1.840
  734TIP3   OH2 2158   2.213   2.914   1.731
  734TIP3    H1 2159   2.161   2.912   1.812
  734TIP3    H2 2160   2.182   2.992   1.685
  735TIP3   OH2 2161   1.378   2.921   1.665
  735TIP3    H1 2162   1.357   2.938   1.757
  735TIP3    H2 2163   1.338   2.994   1.618
  736TIP3   OH2 2164   1.754   2.889   0.893
  736TIP3    H1 2165   1.680   2.896   0.834
  736TIP3    H2 2166   1.828   2.923   0.843
  737TIP3   OH2 2167   1.922   3.124   1.942
  737TIP3    H1 2168   1.893   3.058   2.004
  737TIP3    H2 2169   2.015   3.135   1.960
  738TIP3   OH2 2170   1.982   2.805   1.036
  738TIP3    H1 2171   1.914   2.856   0.992
  738TIP3    H2 2172   1.938   2.768   1.113
  739TIP3   OH2 2173   1.181   2.910   1.873
  739TIP3    H1 2174   1.233   2.960   1.936
  739TIP3    H2 2175   1.165   2.826   1.916
  740TIP3   OH2 2176   1.932   3.121   1.541
  740TIP3    H1 2177   1.958   3.063   1.470
  740TIP3    H2 2178   1.885   3.065   1.603
  741TIP3   OH2 2179   2.039   2.581   1.467
  741TIP3    H1 2180   2.030   2.605   1.559
  741TIP3    H2 2181   1.974   2.512   1.454
  742TIP3   OH2 2182   2.252   4.348   1.612
  742TIP3    H1 2183   2.247   4.364   1.517
  742TIP3    H2 2184   2.330   4.395   1.640
  743TIP3   OH2 2185   1.171   3.502   2.035
  743TIP3    H1 2186   1.247   3.443   2.038
  743TIP3    H2 2187   1.115   3.471   2.106
  744TIP3   OH2 2188   1.628   2.831   1.354
  744TIP3    H1 2189   1.684   2.874   1.289
  744TIP3    H2 2190   1.689   2.796   1.419
  745TIP3   OH2 2191   1.622   2.800   1.672
  745TIP3    H1 2192   1.538   2.845   1.664
  745TIP3    H2 2193   1.686   2.871   1.684
  746TIP3   OH2 2194   2.268   3.457   1.287
  746TIP3    H1 2195   2.304   3.503   1.211
  746TIP3    H2 2196   2.186   3.418   1.255
  747TIP3   OH2 2197   1.774   3.525   1.675
  747TIP3    H1 2198   1.784   3.492   1.765
  747TIP3    H2 2199   1.729   3.609   1.685
  748TIP3   OH2 2200   0.987   3.129   1.371
  748TIP3    H1 2201   1.011   3.071   1.299
  748TIP3    H2 2202   1.055   3.196   1.373
  749TIP3   OH2 2203   0.898   3.150   1.982
  749TIP3    H1 2204   0.918   3.098   2.059
  749TIP3    H2 2205   0.852   3.090   1.923
  750TIP3   OH2 2206   1.707   3.300   1.996
  750TIP3    H1 2207   1.619   3.265   1.980
  750TIP3    H2 2208   1.766   3.239   1.953
  751TIP3   OH2 2209   1.919   3.809   1.567
  751TIP3    H1 2210   1.827   3.787   1.576
  751TIP3    H2 2211   1.944   3.845   1.652
  752TIP3   OH2 2212   2.298   2.845   0.453
  752TIP3    H1 2213   2.235   2.777   0.431
  752TIP3    H2 2214   2.275   2.918   0.395
  753TIP3   OH2 2215   2.567   3.737   1.543
  753TIP3    H1 2216   2.474   3.716   1.548
  753TIP3    H2 2217   2.596   3.699   1.460
  754TIP3   OH2 2218   2.061   3.657   0.442
  754TIP3    H1 2219   2.042   3.606   0.521
  754TIP3    H2 2220   2.062   3.593   0.371
  755TIP3   OH2 2221   2.050   3.333   1.182
  755TIP3    H1 2222   1.967   3.298   1.214
  755TIP3    H2 2223   2.101   3.256   1.159
  756TIP3   OH2 2224   1.145   3.545   1.057
  756TIP3    H1 2225   1.128   3.632   1.020
  756TIP3    H2 2226   1.063   3.498   1.043
  757TIP3   OH2 2227   1.272   3.334   0.851
  757TIP3    H1 2228   1.341   3.392   0.882
  757TIP3    H2 2229   1.253   3.276   0.925
  758TIP3   OH2 2230   1.453   3.872   1.439
  758TIP3    H1 2231   1.487   3.943   1.385
  758TIP3    H2 2232   1.530   3.823   1.466
  759TIP3   OH2 2233   1.109   3.793   0.919
  759TIP3    H1 2234   1.022   3.810   0.954
  759TIP3    H2 2235   1.150   3.880   0.915
  760TIP3   OH2 2236   1.833   3.527   1.408
  760TIP3    H1 2237   1.823   3.518   1.503
  760TIP3    H2 2238   1.889   3.454   1.383
  761TIP3   OH2 2239   1.798   3.452   0.225
  761TIP3    H1 2240   1.871   3.422   0.278
  761TIP3    H2 2241   1.723   3.401   0.256
  762TIP3   OH2 2242   2.069   4.027   1.450
  762TIP3    H1 2243   1.998   3.964   1.464
  762TIP3    H2 2244   2.038   4.082   1.378
  763TIP3   OH2 2245   2.155   3.869   0.153
  763TIP3    H1 2246   2.180   3.955   0.188
  763TIP3    H2 2247   2.073   3.848   0.197
  764TIP3   OH2 2248   1.154   2.660   2.000
  764TIP3    H1 2249   1.059   2.650   2.001
  764TIP3    H2 2250   1.181   2.639   2.089
  765TIP3   OH2 2251   1.997   3.376   0.395
  765TIP3    H1 2252   1.945   3.339   0.467
  765TIP3    H2 2253   2.086   3.377   0.428
  766TIP3   OH2 2254   0.888   3.763   1.622
  766TIP3    H1 2255   0.937   3.704   1.678
  766TIP3    H2 2256   0.910   3.851   1.653
  767TIP3   OH2 2257   2.001   2.706   1.713
  767TIP3    H1 2258   2.085   2.745   1.736
  767TIP3    H2 2259   1.999   2.622   1.760
  768TIP3   OH2 2260   1.255   3.612   0.428
  768TIP3    H1 2261   1.333   3.566   0.460
  768TIP3    H2 2262   1.287   3.699   0.405
  769TIP3   OH2 2263   1.840   2.954   1.741
  769TIP3    H1 2264   1.871   3.008   1.813
  769TIP3    H2 2265   1.896   2.876   1.744
  770TIP3   OH2 2266   2.471   2.842   1.696
  770TIP3    H1 2267   2.381   2.861   1.722
  770TIP3    H2 2268   2.463   2.782   1.622
  771TIP3   OH2 2269   2.211   3.106   1.132
  771TIP3    H1 2270   2.126   3.069   1.157
  771TIP3    H2 2271   2.274   3.039   1.157
  772TIP3   OH2 2272   2.101   4.020   1.033
  772TIP3    H1 2273   2.060   4.074   0.965
  772TIP3    H2 2274   2.195   4.030   1.018
  773TIP3   OH2 2275   0.863   4.030   2.017
  773TIP3    H1 2276   0.945   3.986   2.035
  773TIP3    H2 2277   0.798   3.960   2.014
  774TIP3   OH2 2278   1.388   3.947   2.077
  774TIP3    H1 2279   1.469   3.921   2.034
  774TIP3    H2 2280   1.319   3.919   2.017
  775TIP3   OH2 2281   1.975   3.913   1.816
  775TIP3    H1 2282   1.986   3.842   1.879
  775TIP3    H2 2283   2.051   3.969   1.830
  776TIP3   OH2 2284   1.767   3.702   0.115
  776TIP3    H1 2285   1.786   3.613   0.144
  776TIP3    H2 2286   1.781   3.700   0.020
  777TIP3   OH2 2287   0.986   3.442   2.234
  777TIP3    H1 2288   0.992   3.350   2.259
  777TIP3    H2 2289   0.905   3.448   2.183
  778TIP3   OH2 2290   1.608   3.557   1.990
  778TIP3    H1 2291   1.547   3.553   1.917
  778TIP3    H2 2292   1.641   3.467   1.999
  779TIP3   OH2 2293   2.095   3.578   1.615
  779TIP3    H1 2294   2.169   3.612   1.565
  779TIP3    H2 2295   2.022   3.637   1.592
  780TIP3   OH2 2296   1.440   3.051   1.914
  780TIP3    H1 2297   1.415   3.112   1.983
  780TIP3    H2 2298   1.488   3.104   1.851
  781TIP3   OH2 2299   1.983   3.468   1.986
  781TIP3    H1 2300   2.033   3.419   1.920
  781TIP3    H2 2301   1.950   3.401   2.045
  782TIP3   OH2 2302   1.591   2.840   2.023
  782TIP3    H1 2303   1.591   2.765   1.963
  782TIP3    H2 2304   1.537   2.906   1.980
  783TIP3   OH2 2305   1.608   2.604   1.851
  783TIP3    H1 2306   1.618   2.664   1.778
  783TIP3    H2 2307   1.515   2.580   1.850
  784TIP3   OH2 2308   1.578   3.214   1.740
  784TIP3    H1 2309   1.644   3.183   1.677
  784TIP3    H2 2310   1.523   3.275   1.689
  785TIP3   OH2 2311   2.187   3.139   2.036
  785TIP3    H1 2312   2.212   3.047   2.036
  785TIP3    H2 2313   2.264   3.185   2.003
  786TIP3   OH2 2314   2.214   3.405   1.785
  786TIP3    H1 2315   2.161   3.466   1.734
  786TIP3    H2 2316   2.303   3.418   1.753
  787TIP3   OH2 2317   1.721   2.358   1.864
  787TIP3    H1 2318   1.688   2.448   1.862
  787TIP3    H2 2319   1.644   2.304   1.844
  788TIP3   OH2 2320   1.846   2.912   2.095
  788TIP3    H1 2321   1.846   2.901   2.190
  788TIP3    H2 2322   1.759   2.884   2.067
  789TIP3   OH2 2323   2.085   2.867   1.962
  789TIP3    H1 2324   2.005   2.865   2.015
  789TIP3    H2 2325   2.153   2.831   2.019
  790TIP3   OH2 2326   2.312   2.817   2.110
  790TIP3    H1 2327   2.326   2.722   2.120
  790TIP3    H2 2328   2.308   2.850   2.199
  791TIP3   OH2 2329   1.288   2.712   2.306
  791TIP3    H1 2330   1.304   2.622   2.280
  791TIP3    H2 2331   1.331   2.721   2.391
  792TIP3   OH2 2332   1.811   2.413   2.123
  792TIP3    H1 2333   1.880   2.347   2.120
  792TIP3    H2 2334   1.759   2.397   2.044
  793TIP3   OH2 2335   1.846   2.643   2.266
  793TIP3    H1 2336   1.829   2.575   2.201
  793TIP3    H2 2337   1.765   2.693   2.270
  794TIP3   OH2 2338   0.654   3.690   1.202
  794TIP3    H1 2339   0.653   3.622   1.269
  794TIP3    H2 2340   0.661   3.772   1.252
  795TIP3   OH2 2341   2.370   4.073   1.014
  795TIP3    H1 2342   2.392   4.106   1.101
  795TIP3    H2 2343   2.425   4.124   0.954
  796TIP3   OH2 2344   2.388   4.105   1.295
  796TIP3    H1 2345   2.340   4.023   1.288
  796TIP3    H2 2346   2.459   4.087   1.357
  797TIP3   OH2 2347   2.443   3.803   1.863
  797TIP3    H1 2348   2.368   3.809   1.923
  797TIP3    H2 2349   2.486   3.888   1.869
  798TIP3   OH2 2350   2.251   3.401   0.519
  798TIP3    H1 2351   2.300   3.470   0.475
  798TIP3    H2 2352   2.303   3.322   0.509
  799TIP3   OH2 2353   2.407   3.195   0.721
  799TIP3    H1 2354   2.359   3.136   0.779
  799TIP3    H2 2355   2.474   3.235   0.777
  800TIP3   OH2 2356   2.438   3.580   1.110
  800TIP3    H1 2357   2.487   3.510   1.066
  800TIP3    H2 2358   2.436   3.651   1.046
  801TIP3   OH2 2359   2.247   3.866   1.306
  801TIP3    H1 2360   2.176   3.910   1.354
  801TIP3    H2 2361   2.203   3.822   1.233
  802TIP3   OH2 2362   2.278   3.040   0.271
  802TIP3    H1 2363   2.196   3.014   0.230
  802TIP3    H2 2364   2.272   3.136   0.278
  803TIP3   OH2 2365   2.194   3.084   0.852
  803TIP3    H1 2366   2.197   2.990   0.835
  803TIP3    H2 2367   2.199   3.092   0.947
  804TIP3   OH2 2368   0.866   3.229   1.592
  804TIP3    H1 2369   0.884   3.200   1.503
  804TIP3    H2 2370   0.934   3.187   1.645
  805TIP3   OH2 2371   2.467   3.453   1.679
  805TIP3    H1 2372   2.535   3.387   1.663
  805TIP3    H2 2373   2.461   3.503   1.598
  806TIP3   OH2 2374   2.653   3.249   1.676
  806TIP3    H1 2375   2.576   3.204   1.711
  806TIP3    H2 2376   2.727   3.195   1.704
  807TIP3   OH2 2377   2.169   2.836   0.723
  807TIP3    H1 2378   2.172   2.759   0.780
  807TIP3    H2 2379   2.107   2.811   0.654
  808TIP3   OH2 2380   2.396   2.916   1.245
  808TIP3    H1 2381   2.474   2.952   1.202
  808TIP3    H2 2382   2.390   2.964   1.328
  809TIP3   OH2 2383   2.414   3.090   1.459
  809TIP3    H1 2384   2.334   3.114   1.504
  809TIP3    H2 2385   2.440   3.170   1.413
  810TIP3   OH2 2386   1.035   2.795   2.273
  810TIP3    H1 2387   1.130   2.782   2.278
  810TIP3    H2 2388   0.998   2.727   2.329
  811TIP3   OH2 2389   2.869   2.685   1.979
  811TIP3    H1 2390   2.928   2.620   1.942
  811TIP3    H2 2391   2.832   2.730   1.903
  812TIP3   OH2 2392   2.157   2.541   0.727
  812TIP3    H1 2393   2.176   2.532   0.820
  812TIP3    H2 2394   2.158   2.452   0.692
  813TIP3   OH2 2395   2.733   2.792   1.763
  813TIP3    H1 2396   2.639   2.808   1.771
  813TIP3    H2 2397   2.740   2.729   1.692
  814TIP3   OH2 2398   1.953   3.957   0.704
  814TIP3    H1 2399   2.020   3.938   0.637
  814TIP3    H2 2400   1.978   4.043   0.738
  815TIP3   OH2 2401   1.026   3.792   2.046
  815TIP3    H1 2402   0.932   3.775   2.040
  815TIP3    H2 2403   1.064   3.709   2.074
  816TIP3   OH2 2404   1.226   3.837   1.590
  816TIP3    H1 2405   1.172   3.905   1.549
  816TIP3    H2 2406   1.310   3.842   1.545
  817TIP3   OH2 2407   1.635   4.056   1.737
  817TIP3    H1 2408   1.679   4.049   1.821
  817TIP3    H2 2409   1.695   4.106   1.681
  818TIP3   OH2 2410   1.821   4.205   1.599
  818TIP3    H1 2411   1.880   4.154   1.544
  818TIP3    H2 2412   1.879   4.260   1.651
  819TIP3   OH2 2413   0.895   4.056   1.638
  819TIP3    H1 2414   0.806   4.080   1.614
  819TIP3    H2 2415   0.923   4.126   1.697
  820TIP3   OH2 2416   1.121   4.057   1.457
  820TIP3    H1 2417   1.035   4.071   1.497
  820TIP3    H2 2418   1.109   4.084   1.366
  821TIP3   OH2 2419   1.540   4.079   1.272
  821TIP3    H1 2420   1.465   4.100   1.216
  821TIP3    H2 2421   1.558   4.161   1.319
  822TIP3   OH2 2422   1.803   4.016   1.321
  822TIP3    H1 2423   1.711   4.035   1.305
  822TIP3    H2 2424   1.850   4.086   1.275
  823TIP3   OH2 2425   2.011   4.193   1.229
  823TIP3    H1 2426   2.001   4.278   1.186
  823TIP3    H2 2427   2.042   4.135   1.160
  824TIP3   OH2 2428   0.805   3.872   1.378
  824TIP3    H1 2429   0.837   3.846   1.465
  824TIP3    H2 2430   0.865   3.828   1.317
  825TIP3   OH2 2431   0.979   3.737   1.222
  825TIP3    H1 2432   0.992   3.654   1.268
  825TIP3    H2 2433   1.065   3.778   1.221
  826TIP3   OH2 2434   1.229   3.835   1.240
  826TIP3    H1 2435   1.265   3.752   1.271
  826TIP3    H2 2436   1.284   3.902   1.280
  827TIP3   OH2 2437   1.854   2.414   1.315
  827TIP3    H1 2438   1.761   2.421   1.335
  827TIP3    H2 2439   1.858   2.362   1.236
  828TIP3   OH2 2440   2.400   2.420   1.300
  828TIP3    H1 2441   2.452   2.457   1.229
  828TIP3    H2 2442   2.309   2.428   1.271
  829TIP3   OH2 2443   2.566   2.456   1.081
  829TIP3    H1 2444   2.636   2.392   1.066
  829TIP3    H2 2445   2.600   2.537   1.044
  830TIP3   OH2 2446   2.133   2.413   1.238
  830TIP3    H1 2447   2.096   2.430   1.152
  830TIP3    H2 2448   2.057   2.411   1.297
  831TIP3   OH2 2449   1.342   3.856   0.332
  831TIP3    H1 2450   1.423   3.813   0.305
  831TIP3    H2 2451   1.302   3.884   0.249
  832TIP3   OH2 2452   2.127   3.910   0.499
  832TIP3    H1 2453   2.115   3.817   0.481
  832TIP3    H2 2454   2.093   3.954   0.421
  833TIP3   OH2 2455   1.302   2.450   2.226
  833TIP3    H1 2456   1.290   2.376   2.285
  833TIP3    H2 2457   1.299   2.412   2.139
  834TIP3   OH2 2458   2.363   2.552   2.148
  834TIP3    H1 2459   2.381   2.514   2.233
  834TIP3    H2 2460   2.445   2.542   2.099
  835TIP3   OH2 2461   2.290   4.074   1.617
  835TIP3    H1 2462   2.217   4.044   1.563
  835TIP3    H2 2463   2.277   4.169   1.622
  836TIP3   OH2 2464   3.568   3.463   0.367
  836TIP3    H1 2465   3.542   3.551   0.340
  836TIP3    H2 2466   3.500   3.406   0.332
  837TIP3   OH2 2467   3.567   3.453   0.779
  837TIP3    H1 2468   3.616   3.438   0.860
  837TIP3    H2 2469   3.526   3.368   0.760
  838TIP3   OH2 2470   2.870   3.326   1.130
  838TIP3    H1 2471   2.904   3.270   1.200
  838TIP3    H2 2472   2.947   3.350   1.079
  839TIP3   OH2 2473   3.830   3.760   0.452
  839TIP3    H1 2474   3.818   3.695   0.522
  839TIP3    H2 2475   3.853   3.840   0.498
  840TIP3   OH2 2476   2.854   3.749   0.829
  840TIP3    H1 2477   2.838   3.655   0.833
  840TIP3    H2 2478   2.948   3.757   0.814
  841TIP3   OH2 2479   2.613   3.025   0.640
  841TIP3    H1 2480   2.591   3.115   0.665
  841TIP3    H2 2481   2.560   2.970   0.698
  842TIP3   OH2 2482   2.650   3.276   0.817
  842TIP3    H1 2483   2.700   3.202   0.851
  842TIP3    H2 2484   2.714   3.345   0.804
  843TIP3   OH2 2485   3.478   4.199   0.458
  843TIP3    H1 2486   3.521   4.136   0.400
  843TIP3    H2 2487   3.477   4.156   0.544
  844TIP3   OH2 2488   3.370   3.676   0.791
  844TIP3    H1 2489   3.412   3.596   0.758
  844TIP3    H2 2490   3.443   3.730   0.820
  845TIP3   OH2 2491   4.398   3.000   0.804
  845TIP3    H1 2492   4.419   3.082   0.850
  845TIP3    H2 2493   4.420   3.018   0.713
  846TIP3   OH2 2494   3.787   3.169   0.827
  846TIP3    H1 2495   3.823   3.084   0.853
  846TIP3    H2 2496   3.745   3.152   0.744
  847TIP3   OH2 2497   3.192   2.892   0.831
  847TIP3    H1 2498   3.158   2.954   0.768
  847TIP3    H2 2499   3.154   2.808   0.806
  848TIP3   OH2 2500   3.835   2.939   0.420
  848TIP3    H1 2501   3.899   2.926   0.491
  848TIP3    H2 2502   3.887   2.972   0.347
  849TIP3   OH2 2503   2.779   3.060   0.921
  849TIP3    H1 2504   2.857   3.042   0.974
  849TIP3    H2 2505   2.788   3.001   0.846
  850TIP3   OH2 2506   3.200   3.261   0.733
  850TIP3    H1 2507   3.294   3.244   0.741
  850TIP3    H2 2508   3.162   3.179   0.702
  851TIP3   OH2 2509   4.462   3.215   0.972
  851TIP3    H1 2510   4.375   3.254   0.966
  851TIP3    H2 2511   4.500   3.252   1.052
  852TIP3   OH2 2512   3.111   2.822   1.246
  852TIP3    H1 2513   3.065   2.865   1.175
  852TIP3    H2 2514   3.056   2.836   1.323
  853TIP3   OH2 2515   3.477   3.682   0.222
  853TIP3    H1 2516   3.441   3.660   0.136
  853TIP3    H2 2517   3.422   3.754   0.253
  854TIP3   OH2 2518   3.216   3.605   1.010
  854TIP3    H1 2519   3.162   3.677   1.042
  854TIP3    H2 2520   3.264   3.643   0.936
  855TIP3   OH2 2521   4.003   2.942   0.635
  855TIP3    H1 2522   3.961   2.920   0.718
  855TIP3    H2 2523   4.056   3.019   0.656
  856TIP3   OH2 2524   3.011   2.953   1.029
  856TIP3    H1 2525   3.062   3.028   1.060
  856TIP3    H2 2526   3.063   2.917   0.957
  857TIP3   OH2 2527   3.055   3.805   1.111
  857TIP3    H1 2528   3.039   3.893   1.077
  857TIP3    H2 2529   2.977   3.784   1.161
  858TIP3   OH2 2530   2.437   3.547   0.351
  858TIP3    H1 2531   2.421   3.591   0.268
  858TIP3    H2 2532   2.473   3.615   0.408
  859TIP3   OH2 2533   3.873   4.004   0.593
  859TIP3    H1 2534   3.786   3.997   0.633
  859TIP3    H2 2535   3.871   4.088   0.548
  860TIP3   OH2 2536   4.195   2.885   0.967
  860TIP3    H1 2537   4.109   2.911   0.934
  860TIP3    H2 2538   4.257   2.916   0.901
  861TIP3   OH2 2539   3.481   2.538   0.962
  861TIP3    H1 2540   3.466   2.446   0.985
  861TIP3    H2 2541   3.417   2.587   1.014
  862TIP3   OH2 2542   3.592   4.041   0.262
  862TIP3    H1 2543   3.639   3.959   0.248
  862TIP3    H2 2544   3.654   4.109   0.235
  863TIP3   OH2 2545   3.727   3.810   0.200
  863TIP3    H1 2546   3.652   3.751   0.198
  863TIP3    H2 2547   3.773   3.788   0.280
  864TIP3   OH2 2548   4.101   3.901   0.942
  864TIP3    H1 2549   4.089   3.826   0.883
  864TIP3    H2 2550   4.086   3.977   0.886
  865TIP3   OH2 2551   3.407   3.304   0.203
  865TIP3    H1 2552   3.329   3.360   0.194
  865TIP3    H2 2553   3.437   3.290   0.113
  866TIP3   OH2 2554   6.207   7.125   6.874
  866TIP3    H1 2555   6.291   7.169   6.891
  866TIP3    H2 2556   6.230   7.032   6.872
  867TIP3   OH2 2557   4.293   3.552   0.803
  867TIP3    H1 2558   4.210   3.599   0.805
  867TIP3    H2 2559   4.330   3.571   0.717
  868TIP3   OH2 2560   3.754   3.386   0.183
  868TIP3    H1 2561   3.699   3.415   0.256
  868TIP3    H2 2562   3.837   3.364   0.224
  869TIP3   OH2 2563   3.982   3.420   1.111
  869TIP3    H1 2564   3.982   3.503   1.159
  869TIP3    H2 2565   3.899   3.420   1.064
  870TIP3   OH2 2566   2.991   3.381   0.588
  870TIP3    H1 2567   2.945   3.310   0.543
  870TIP3    H2 2568   3.068   3.339   0.626
  871TIP3   OH2 2569   3.113   3.792   0.722
  871TIP3    H1 2570   3.092   3.776   0.630
  871TIP3    H2 2571   3.201   3.755   0.732
  872TIP3   OH2 2572   3.087   3.372   0.958
  872TIP3    H1 2573   3.128   3.338   0.878
  872TIP3    H2 2574   3.135   3.452   0.977
  873TIP3   OH2 2575   3.636   3.997   0.726
  873TIP3    H1 2576   3.622   4.078   0.775
  873TIP3    H2 2577   3.620   3.927   0.789
  874TIP3   OH2 2578   3.254   3.906   1.276
  874TIP3    H1 2579   3.194   3.967   1.319
  874TIP3    H2 2580   3.199   3.854   1.218
  875TIP3   OH2 2581   6.448   7.255   6.933
  875TIP3    H1 2582   6.490   7.312   6.998
  875TIP3    H2 2583   6.483   7.283   6.849
  876TIP3   OH2 2584   3.007   3.452   1.411
  876TIP3    H1 2585   3.009   3.546   1.430
  876TIP3    H2 2586   2.914   3.431   1.405
  877TIP3   OH2 2587   3.337   3.915   0.276
  877TIP3    H1 2588   3.415   3.971   0.283
  877TIP3    H2 2589   3.275   3.967   0.226
  878TIP3   OH2 2590   3.046   4.069   1.353
  878TIP3    H1 2591   3.025   4.078   1.260
  878TIP3    H2 2592   2.961   4.054   1.395
  879TIP3   OH2 2593   4.085   2.496   0.033
  879TIP3    H1 2594   4.015   2.518   0.095
  879TIP3    H2 2595   4.116   2.581   0.001
  880TIP3   OH2 2596   2.820   3.200   0.455
  880TIP3    H1 2597   2.783   3.257   0.388
  880TIP3    H2 2598   2.744   3.159   0.497
  881TIP3   OH2 2599   2.634   3.614   1.309
  881TIP3    H1 2600   2.565   3.599   1.244
  881TIP3    H2 2601   2.666   3.527   1.331
  882TIP3   OH2 2602   2.486   3.806   0.950
  882TIP3    H1 2603   2.581   3.816   0.948
  882TIP3    H2 2604   2.454   3.885   0.992
  883TIP3   OH2 2605   4.340   4.268   1.013
  883TIP3    H1 2606   4.349   4.173   1.025
  883TIP3    H2 2607   4.259   4.291   1.057
  884TIP3   OH2 2608   3.443   4.045   1.131
  884TIP3    H1 2609   3.438   4.136   1.160
  884TIP3    H2 2610   3.376   4.000   1.183
  885TIP3   OH2 2611   3.202   4.151   0.092
  885TIP3    H1 2612   3.156   4.135   0.010
  885TIP3    H2 2613   3.175   4.239   0.119
  886TIP3   OH2 2614   2.665   4.015   0.475
  886TIP3    H1 2615   2.710   4.007   0.559
  886TIP3    H2 2616   2.616   3.933   0.466
  887TIP3   OH2 2617   0.584   0.034   6.713
  887TIP3    H1 2618   0.666   0.011   6.668
  887TIP3    H2 2619   0.611   0.056   6.802
  888TIP3   OH2 2620   3.463   4.119   0.028
  888TIP3    H1 2621   3.373   4.124   0.060
  888TIP3    H2 2622   3.514   4.089   0.103
  889TIP3   OH2 2623   4.225   3.379   1.283
  889TIP3    H1 2624   4.145   3.387   1.232
  889TIP3    H2 2625   4.246   3.285   1.280
  890TIP3   OH2 2626   2.835   3.798   1.276
  890TIP3    H1 2627   2.885   3.787   1.357
  890TIP3    H2 2628   2.763   3.736   1.283
  891TIP3   OH2 2629   3.271   2.642   1.107
  891TIP3    H1 2630   3.215   2.584   1.055
  891TIP3    H2 2631   3.211   2.706   1.145
  892TIP3   OH2 2632   3.768   2.730   1.288
  892TIP3    H1 2633   3.838   2.706   1.349
  892TIP3    H2 2634   3.687   2.713   1.337
  893TIP3   OH2 2635   3.986   3.155   1.198
  893TIP3    H1 2636   3.945   3.152   1.284
  893TIP3    H2 2637   3.971   3.244   1.167
  894TIP3   OH2 2638   6.534   7.326   6.677
  894TIP3    H1 2639   6.461   7.286   6.629
  894TIP3    H2 2640   6.507   7.417   6.689
  895TIP3   OH2 2641   3.241   2.629   0.048
  895TIP3    H1 2642   3.269   2.611   0.138
  895TIP3    H2 2643   3.293   2.569  -0.006
  896TIP3   OH2 2644   3.173   3.156   1.111
  896TIP3    H1 2645   3.126   3.166   1.195
  896TIP3    H2 2646   3.151   3.236   1.063
  897TIP3   OH2 2647   3.072   3.042   0.638
  897TIP3    H1 2648   2.984   3.008   0.655
  897TIP3    H2 2649   3.093   3.013   0.549
  898TIP3   OH2 2650   3.552   3.111   0.334
  898TIP3    H1 2651   3.498   3.179   0.294
  898TIP3    H2 2652   3.603   3.076   0.261
  899TIP3   OH2 2653   3.711   3.368   1.421
  899TIP3    H1 2654   3.684   3.299   1.482
  899TIP3    H2 2655   3.803   3.383   1.441
  900TIP3   OH2 2656   3.688   3.118   0.578
  900TIP3    H1 2657   3.629   3.150   0.509
  900TIP3    H2 2658   3.735   3.045   0.536
  901TIP3   OH2 2659   2.993   3.157   1.320
  901TIP3    H1 2660   3.007   3.218   1.392
  901TIP3    H2 2661   2.970   3.075   1.362
  902TIP3   OH2 2662   5.813   6.630   6.906
  902TIP3    H1 2663   5.905   6.625   6.933
  902TIP3    H2 2664   5.782   6.715   6.939
  903TIP3   OH2 2665   2.617   2.690   0.926
  903TIP3    H1 2666   2.667   2.741   0.989
  903TIP3    H2 2667   2.650   2.718   0.840
  904TIP3   OH2 2668   2.495   2.684   0.346
  904TIP3    H1 2669   2.565   2.729   0.393
  904TIP3    H2 2670   2.415   2.721   0.383
  905TIP3   OH2 2671   3.722   3.368   1.000
  905TIP3    H1 2672   3.750   3.302   0.936
  905TIP3    H2 2673   3.682   3.317   1.071
  906TIP3   OH2 2674   3.439   2.863   0.706
  906TIP3    H1 2675   3.361   2.873   0.762
  906TIP3    H2 2676   3.507   2.833   0.766
  907TIP3   OH2 2677   2.846   2.899   0.708
  907TIP3    H1 2678   2.767   2.922   0.659
  907TIP3    H2 2679   2.875   2.816   0.671
  908TIP3   OH2 2680   3.168   2.941   0.395
  908TIP3    H1 2681   3.255   2.927   0.433
  908TIP3    H2 2682   3.181   2.930   0.300
  909TIP3   OH2 2683   3.864   2.905   0.878
  909TIP3    H1 2684   3.844   2.923   0.970
  909TIP3    H2 2685   3.795   2.844   0.850
  910TIP3   OH2 2686   2.933   2.857   0.101
  910TIP3    H1 2687   2.843   2.836   0.126
  910TIP3    H2 2688   2.938   2.952   0.108
  911TIP3   OH2 2689   4.039   4.604   1.096
  911TIP3    H1 2690   4.035   4.622   1.002
  911TIP3    H2 2691   4.119   4.647   1.126
  912TIP3   OH2 2692   2.989   3.719   1.511
  912TIP3    H1 2693   3.070   3.739   1.558
  912TIP3    H2 2694   2.922   3.720   1.578
  913TIP3   OH2 2695   3.462   3.183   0.779
  913TIP3    H1 2696   3.523   3.129   0.729
  913TIP3    H2 2697   3.458   3.141   0.865
  914TIP3   OH2 2698   3.059   2.679   0.747
  914TIP3    H1 2699   3.039   2.594   0.787
  914TIP3    H2 2700   3.028   2.670   0.657
  915TIP3   OH2 2701   3.432   3.085   1.043
  915TIP3    H1 2702   3.345   3.115   1.068
  915TIP3    H2 2703   3.492   3.135   1.099
  916TIP3   OH2 2704   3.195   3.474   0.163
  916TIP3    H1 2705   3.110   3.435   0.138
  916TIP3    H2 2706   3.178   3.514   0.248
  917TIP3   OH2 2707   4.056   3.692   0.765
  917TIP3    H1 2708   4.091   3.742   0.691
  917TIP3    H2 2709   3.975   3.655   0.732
  918TIP3   OH2 2710   6.579   6.808   6.885
  918TIP3    H1 2711   6.524   6.744   6.929
  918TIP3    H2 2712   6.568   6.888   6.935
  919TIP3   OH2 2713   3.562   3.775   1.168
  919TIP3    H1 2714   3.619   3.768   1.245
  919TIP3    H2 2715   3.527   3.864   1.171
  920TIP3   OH2 2716   3.712   3.020   0.115
  920TIP3    H1 2717   3.803   3.038   0.141
  920TIP3    H2 2718   3.686   3.099   0.067
  921TIP3   OH2 2719   2.858   3.463   0.815
  921TIP3    H1 2720   2.898   3.449   0.729
  921TIP3    H2 2721   2.925   3.434   0.877
  922TIP3   OH2 2722   6.178   7.627   6.921
  922TIP3    H1 2723   6.128   7.708   6.916
  922TIP3    H2 2724   6.123   7.569   6.974
  923TIP3   OH2 2725   2.737   3.382   1.441
  923TIP3    H1 2726   2.738   3.356   1.533
  923TIP3    H2 2727   2.661   3.337   1.404
  924TIP3   OH2 2728   3.474   3.518   1.452
  924TIP3    H1 2729   3.407   3.459   1.417
  924TIP3    H2 2730   3.557   3.480   1.423
  925TIP3   OH2 2731   3.714   4.052   1.057
  925TIP3    H1 2732   3.619   4.046   1.063
  925TIP3    H2 2733   3.740   4.098   1.136
  926TIP3   OH2 2734   6.945   7.126   6.900
  926TIP3    H1 2735   6.899   7.085   6.827
  926TIP3    H2 2736   6.947   7.219   6.877
  927TIP3   OH2 2737   4.348   3.972   1.037
  927TIP3    H1 2738   4.253   3.965   1.029
  927TIP3    H2 2739   4.381   3.945   0.951
  928TIP3   OH2 2740   6.654   7.918   6.823
  928TIP3    H1 2741   6.642   7.888   6.913
  928TIP3    H2 2742   6.635   7.841   6.769
  929TIP3   OH2 2743   3.821   3.562   0.664
  929TIP3    H1 2744   3.731   3.540   0.688
  929TIP3    H2 2745   3.857   3.481   0.628
  930TIP3   OH2 2746   2.967   3.798   0.472
  930TIP3    H1 2747   2.969   3.876   0.417
  930TIP3    H2 2748   2.874   3.784   0.491
  931TIP3   OH2 2749   2.530   3.118   0.104
  931TIP3    H1 2750   2.550   3.211   0.116
  931TIP3    H2 2751   2.451   3.104   0.156
  932TIP3   OH2 2752   3.084   3.561   0.395
  932TIP3    H1 2753   3.052   3.647   0.421
  932TIP3    H2 2754   3.052   3.502   0.464
  933TIP3   OH2 2755   3.256   4.120   0.925
  933TIP3    H1 2756   3.291   4.193   0.875
  933TIP3    H2 2757   3.331   4.086   0.975
  934TIP3   OH2 2758   2.893   4.027   0.324
  934TIP3    H1 2759   2.807   4.033   0.365
  934TIP3    H2 2760   2.927   4.117   0.326
  935TIP3   OH2 2761   3.610   3.774   0.896
  935TIP3    H1 2762   3.597   3.769   0.990
  935TIP3    H2 2763   3.692   3.727   0.881
  936TIP3   OH2 2764   6.412   7.566   6.726
  936TIP3    H1 2765   6.472   7.588   6.797
  936TIP3    H2 2766   6.326   7.596   6.757
  937TIP3   OH2 2767   3.862   4.283   0.937
  937TIP3    H1 2768   3.787   4.224   0.943
  937TIP3    H2 2769   3.840   4.342   0.864
  938TIP3   OH2 2770   2.933   2.909   1.447
  938TIP3    H1 2771   2.839   2.923   1.454
  938TIP3    H2 2772   2.955   2.853   1.521
  939TIP3   OH2 2773   3.771   3.574  -0.022
  939TIP3    H1 2774   3.754   3.524   0.057
  939TIP3    H2 2775   3.867   3.582  -0.025
  940TIP3   OH2 2776   2.683   4.005   1.090
  940TIP3    H1 2777   2.733   3.940   1.138
  940TIP3    H2 2778   2.704   4.088   1.133
  941TIP3   OH2 2779   5.882   7.617   6.759
  941TIP3    H1 2780   5.801   7.602   6.710
  941TIP3    H2 2781   5.852   7.634   6.849
  942TIP3   OH2 2782   2.929   3.660   0.067
  942TIP3    H1 2783   2.973   3.626   0.145
  942TIP3    H2 2784   2.932   3.755   0.077
  943TIP3   OH2 2785   2.686   3.363   0.283
  943TIP3    H1 2786   2.619   3.387   0.347
  943TIP3    H2 2787   2.648   3.388   0.199
  944TIP3   OH2 2788   3.797   2.960   1.137
  944TIP3    H1 2789   3.873   3.007   1.171
  944TIP3    H2 2790   3.789   2.883   1.194
  945TIP3   OH2 2791   3.698   2.713   0.333
  945TIP3    H1 2792   3.646   2.728   0.254
  945TIP3    H2 2793   3.734   2.799   0.354
  946TIP3   OH2 2794   6.023   7.853   6.929
  946TIP3    H1 2795   5.941   7.882   6.968
  946TIP3    H2 2796   6.036   7.913   6.855
  947TIP3   OH2 2797   3.429   2.892   0.438
  947TIP3    H1 2798   3.476   2.968   0.403
  947TIP3    H2 2799   3.438   2.899   0.533
  948TIP3   OH2 2800   3.634   3.201   1.200
  948TIP3    H1 2801   3.660   3.247   1.280
  948TIP3    H2 2802   3.684   3.120   1.202
  949TIP3   OH2 2803   3.540   2.645   0.549
  949TIP3    H1 2804   3.507   2.726   0.588
  949TIP3    H2 2805   3.593   2.674   0.474
  950TIP3   OH2 2806   2.938   3.930   0.073
  950TIP3    H1 2807   2.905   3.994   0.010
  950TIP3    H2 2808   2.921   3.969   0.159
  951TIP3   OH2 2809   3.056   2.668   0.292
  951TIP3    H1 2810   3.025   2.755   0.318
  951TIP3    H2 2811   3.148   2.667   0.317
  952TIP3   OH2 2812   4.252   3.108   1.191
  952TIP3    H1 2813   4.157   3.112   1.198
  952TIP3    H2 2814   4.269   3.060   1.109
  953TIP3   OH2 2815   3.915   3.305   0.577
  953TIP3    H1 2816   3.837   3.252   0.595
  953TIP3    H2 2817   3.983   3.265   0.631
  954TIP3   OH2 2818   5.526   7.624   6.875
  954TIP3    H1 2819   5.603   7.648   6.927
  954TIP3    H2 2820   5.524   7.528   6.879
  955TIP3   OH2 2821   2.682   2.815   0.184
  955TIP3    H1 2822   2.649   2.887   0.238
  955TIP3    H2 2823   2.624   2.742   0.205
  956TIP3   OH2 2824   3.892   4.269   0.511
  956TIP3    H1 2825   3.848   4.321   0.443
  956TIP3    H2 2826   3.985   4.285   0.497
  957TIP3   OH2 2827   2.913   2.545   1.100
  957TIP3    H1 2828   2.978   2.523   1.033
  957TIP3    H2 2829   2.926   2.480   1.169
  958TIP3   OH2 2830   2.505   3.787   0.470
  958TIP3    H1 2831   2.456   3.828   0.542
  958TIP3    H2 2832   2.471   3.829   0.391
  959TIP3   OH2 2833   2.676   4.316   1.508
  959TIP3    H1 2834   2.759   4.319   1.555
  959TIP3    H2 2835   2.660   4.223   1.493
  960TIP3   OH2 2836   3.144   4.232   1.553
  960TIP3    H1 2837   3.239   4.216   1.558
  960TIP3    H2 2838   3.115   4.179   1.479
  961TIP3   OH2 2839   5.971   7.842   6.626
  961TIP3    H1 2840   5.935   7.768   6.675
  961TIP3    H2 2841   6.041   7.804   6.573
  962TIP3   OH2 2842   3.768   4.172   1.298
  962TIP3    H1 2843   3.773   4.100   1.361
  962TIP3    H2 2844   3.845   4.225   1.316
  963TIP3   OH2 2845   2.788   3.718   1.708
  963TIP3    H1 2846   2.808   3.624   1.710
  963TIP3    H2 2847   2.704   3.723   1.663
  964TIP3   OH2 2848   5.626   7.337   6.865
  964TIP3    H1 2849   5.694   7.370   6.923
  964TIP3    H2 2850   5.665   7.340   6.778
  965TIP3   OH2 2851   3.393   3.791   1.484
  965TIP3    H1 2852   3.356   3.818   1.400
  965TIP3    H2 2853   3.434   3.706   1.465
  966TIP3   OH2 2854   6.104   7.514   6.620
  966TIP3    H1 2855   6.044   7.565   6.675
  966TIP3    H2 2856   6.123   7.435   6.671
  967TIP3   OH2 2857   3.880   3.828   1.090
  967TIP3    H1 2858   3.958   3.857   1.044
  967TIP3    H2 2859   3.816   3.897   1.076
  968TIP3   OH2 2860   2.905   3.468   1.696
  968TIP3    H1 2861   2.974   3.431   1.641
  968TIP3    H2 2862   2.943   3.470   1.784
  969TIP3   OH2 2863   2.941   3.371   0.151
  969TIP3    H1 2864   2.863   3.381   0.206
  969TIP3    H2 2865   2.966   3.279   0.162
  970TIP3   OH2 2866   3.259   3.337   1.361
  970TIP3    H1 2867   3.175   3.383   1.370
  970TIP3    H2 2868   3.294   3.366   1.277
  971TIP3   OH2 2869   5.930   7.105   6.831
  971TIP3    H1 2870   5.925   7.012   6.808
  971TIP3    H2 2871   6.024   7.124   6.834
  972TIP3   OH2 2872   3.765   3.715   1.460
  972TIP3    H1 2873   3.836   3.681   1.405
  972TIP3    H2 2874   3.766   3.658   1.537
  973TIP3   OH2 2875   3.368   3.113   1.475
  973TIP3    H1 2876   3.371   3.039   1.413
  973TIP3    H2 2877   3.331   3.185   1.424
  974TIP3   OH2 2878   3.374   2.909   1.276
  974TIP3    H1 2879   3.401   2.942   1.190
  974TIP3    H2 2880   3.283   2.881   1.264
  975TIP3   OH2 2881   3.387   3.440   1.147
  975TIP3    H1 2882   3.478   3.465   1.126
  975TIP3    H2 2883   3.334   3.504   1.100
  976TIP3   OH2 2884   3.979   3.395   1.522
  976TIP3    H1 2885   4.020   3.309   1.535
  976TIP3    H2 2886   4.051   3.453   1.498
  977TIP3   OH2 2887   4.010   3.660   1.260
  977TIP3    H1 2888   3.955   3.719   1.208
  977TIP3    H2 2889   4.099   3.677   1.229
  978TIP3   OH2 2890   3.253   3.206   1.717
  978TIP3    H1 2891   3.186   3.140   1.737
  978TIP3    H2 2892   3.282   3.184   1.628
  979TIP3   OH2 2893   3.500   2.673   1.365
  979TIP3    H1 2894   3.458   2.752   1.334
  979TIP3    H2 2895   3.434   2.604   1.355
  980TIP3   OH2 2896   3.626   3.155   1.571
  980TIP3    H1 2897   3.618   3.141   1.665
  980TIP3    H2 2898   3.540   3.133   1.535
  981TIP3   OH2 2899   3.868   3.106   1.435
  981TIP3    H1 2900   3.791   3.107   1.492
  981TIP3    H2 2901   3.940   3.081   1.493
  982TIP3   OH2 2902   4.102   3.067   1.585
  982TIP3    H1 2903   4.118   2.973   1.595
  982TIP3    H2 2904   4.098   3.100   1.675
  983TIP3   OH2 2905   3.096   2.979   1.775
  983TIP3    H1 2906   3.097   2.891   1.736
  983TIP3    H2 2907   3.135   2.967   1.862
  984TIP3   OH2 2908   3.573   2.660   1.630
  984TIP3    H1 2909   3.642   2.594   1.625
  984TIP3    H2 2910   3.541   2.668   1.541
  985TIP3   OH2 2911   3.662   2.878   1.775
  985TIP3    H1 2912   3.634   2.805   1.719
  985TIP3    H2 2913   3.588   2.938   1.773
  986TIP3   OH2 2914   0.050   0.110   6.819
  986TIP3    H1 2915   0.139   0.107   6.785
  986TIP3    H2 2916  -0.001   0.155   6.751
  987TIP3   OH2 2917   2.539   3.432   0.068
  987TIP3    H1 2918   2.545   3.526   0.052
  987TIP3    H2 2919   2.458   3.405   0.025
  988TIP3   OH2 2920   2.306   4.113   0.528
  988TIP3    H1 2921   2.238   4.061   0.486
  988TIP3    H2 2922   2.348   4.053   0.590
  989TIP3   OH2 2923   2.428   3.935   0.699
  989TIP3    H1 2924   2.408   3.866   0.763
  989TIP3    H2 2925   2.482   3.998   0.747
  990TIP3   OH2 2926   4.162   4.330   0.503
  990TIP3    H1 2927   4.176   4.354   0.595
  990TIP3    H2 2928   4.210   4.396   0.453
  991TIP3   OH2 2929   4.174   4.362   0.782
  991TIP3    H1 2930   4.131   4.277   0.781
  991TIP3    H2 2931   4.249   4.350   0.841
  992TIP3   OH2 2932   4.229   4.061   1.357
  992TIP3    H1 2933   4.160   4.071   1.423
  992TIP3    H2 2934   4.273   4.146   1.356
  993TIP3   OH2 2935   6.880   7.567   6.917
  993TIP3    H1 2936   6.935   7.638   6.886
  993TIP3    H2 2937   6.927   7.529   6.991
  994TIP3   OH2 2938   4.187   3.424   0.172
  994TIP3    H1 2939   4.120   3.390   0.232
  994TIP3    H2 2940   4.251   3.467   0.229
  995TIP3   OH2 2941   4.227   3.832   0.597
  995TIP3    H1 2942   4.282   3.765   0.555
  995TIP3    H2 2943   4.230   3.906   0.538
  996TIP3   OH2 2944   4.037   4.120   0.789
  996TIP3    H1 2945   3.969   4.165   0.839
  996TIP3    H2 2946   3.990   4.079   0.716
  997TIP3   OH2 2947   6.907   7.357   6.747
  997TIP3    H1 2948   6.819   7.339   6.713
  997TIP3    H2 2949   6.896   7.435   6.802
  998TIP3   OH2 2950   6.820   7.038   6.675
  998TIP3    H1 2951   6.757   7.067   6.609
  998TIP3    H2 2952   6.809   6.943   6.678
  999TIP3   OH2 2953   3.983   3.292   0.311
  999TIP3    H1 2954   3.990   3.198   0.299
  999TIP3    H2 2955   3.963   3.304   0.404
 1000TIP3   OH2 2956   2.608   3.360   1.075
 1000TIP3    H1 2957   2.603   3.333   0.983
 1000TIP3    H2 2958   2.702   3.361   1.095
 1001TIP3   OH2 2959   4.267   3.714   1.166
 1001TIP3    H1 2960   4.332   3.646   1.148
 1001TIP3    H2 2961   4.290   3.786   1.108
 1002TIP3   OH2 2962   4.437   3.498   1.156
 1002TIP3    H1 2963   4.365   3.457   1.204
 1002TIP3    H2 2964   4.513   3.444   1.177
 1003TIP3   OH2 2965   6.787   6.771   6.711
 1003TIP3    H1 2966   6.867   6.736   6.751
 1003TIP3    H2 2967   6.723   6.773   6.783
 1004TIP3   OH2 2968   3.986   3.021   0.194
 1004TIP3    H1 2969   4.030   2.936   0.206
 1004TIP3    H2 2970   4.031   3.061   0.120
 1005TIP3   OH2 2971   4.129   3.179   0.710
 1005TIP3    H1 2972   4.210   3.198   0.663
 1005TIP3    H2 2973   4.142   3.217   0.797
 1006TIP3   OH2 2974   4.202   3.328   0.937
 1006TIP3    H1 2975   4.129   3.358   0.991
 1006TIP3    H2 2976   4.235   3.407   0.894
 1007TIP3   OH2 2977   2.837   3.064   1.770
 1007TIP3    H1 2978   2.930   3.042   1.765
 1007TIP3    H2 2979   2.793   2.981   1.786
 1008TIP3   OH2 2980   4.659   2.930   1.478
 1008TIP3    H1 2981   4.723   2.870   1.441
 1008TIP3    H2 2982   4.625   2.979   1.403
 1009TIP3   OH2 2983   4.098   2.769   0.234
 1009TIP3    H1 2984   4.141   2.757   0.318
 1009TIP3    H2 2985   4.030   2.702   0.232
 1010TIP3   OH2 2986   2.795   2.789   1.101
 1010TIP3    H1 2987   2.839   2.703   1.105
 1010TIP3    H2 2988   2.865   2.850   1.079
 1011TIP3   OH2 2989   2.608   3.053   1.143
 1011TIP3    H1 2990   2.656   3.036   1.062
 1011TIP3    H2 2991   2.624   3.145   1.161
 1012TIP3   OH2 2992   4.515   3.047   1.279
 1012TIP3    H1 2993   4.434   3.088   1.309
 1012TIP3    H2 2994   4.487   2.972   1.227
 1013TIP3   OH2 2995   7.031   6.689   6.797
 1013TIP3    H1 2996   7.108   6.632   6.793
 1013TIP3    H2 2997   7.067   6.777   6.810
 1014TIP3   OH2 2998   2.630   2.554   0.589
 1014TIP3    H1 2999   2.548   2.583   0.629
 1014TIP3    H2 3000   2.646   2.618   0.519
 1015TIP3   OH2 3001   3.750   4.228   0.151
 1015TIP3    H1 3002   3.790   4.223   0.064
 1015TIP3    H2 3003   3.778   4.313   0.185
 1016TIP3   OH2 3004   2.768   2.602   1.515
 1016TIP3    H1 3005   2.737   2.512   1.512
 1016TIP3    H2 3006   2.726   2.645   1.441
 1017TIP3   OH2 3007   2.818   4.040   1.506
 1017TIP3    H1 3008   2.725   4.018   1.506
 1017TIP3    H2 3009   2.847   4.021   1.595
 1018TIP3   OH2 3010   3.028   4.079   1.073
 1018TIP3    H1 3011   2.975   4.152   1.040
 1018TIP3    H2 3012   3.112   4.088   1.029
 1019TIP3   OH2 3013   3.434   4.312   1.211
 1019TIP3    H1 3014   3.473   4.306   1.299
 1019TIP3    H2 3015   3.497   4.364   1.161
 1020TIP3   OH2 3016   3.624   4.465   1.081
 1020TIP3    H1 3017   3.689   4.415   1.032
 1020TIP3    H2 3018   3.675   4.522   1.138
 1021TIP3   OH2 3019   4.425   2.802   1.171
 1021TIP3    H1 3020   4.337   2.794   1.135
 1021TIP3    H2 3021   4.461   2.713   1.167
 1022TIP3   OH2 3022   2.687   4.324   1.120
 1022TIP3    H1 3023   2.596   4.343   1.098
 1022TIP3    H2 3024   2.710   4.390   1.185
 1023TIP3   OH2 3025   2.917   4.307   0.968
 1023TIP3    H1 3026   2.834   4.315   1.014
 1023TIP3    H2 3027   2.897   4.334   0.878
 1024TIP3   OH2 3028   3.337   4.327   0.759
 1024TIP3    H1 3029   3.269   4.339   0.693
 1024TIP3    H2 3030   3.350   4.413   0.797
 1025TIP3   OH2 3031   3.600   4.259   0.812
 1025TIP3    H1 3032   3.509   4.281   0.791
 1025TIP3    H2 3033   3.652   4.325   0.766
 1026TIP3   OH2 3034   3.798   4.433   0.713
 1026TIP3    H1 3035   3.793   4.521   0.677
 1026TIP3    H2 3036   3.829   4.379   0.641
 1027TIP3   OH2 3037   2.600   4.106   0.843
 1027TIP3    H1 3038   2.624   4.080   0.932
 1027TIP3    H2 3039   2.672   4.074   0.789
 1028TIP3   OH2 3040   2.804   3.990   0.708
 1028TIP3    H1 3041   2.815   3.905   0.752
 1028TIP3    H2 3042   2.892   4.028   0.709
 1029TIP3   OH2 3043   3.071   4.071   0.721
 1029TIP3    H1 3044   3.090   3.979   0.707
 1029TIP3    H2 3045   3.125   4.096   0.796
 1030TIP3   OH2 3046   3.649   2.729   0.825
 1030TIP3    H1 3047   3.604   2.658   0.870
 1030TIP3    H2 3048   3.708   2.685   0.764
 1031TIP3   OH2 3049   4.131   2.622   0.686
 1031TIP3    H1 3050   4.168   2.680   0.619
 1031TIP3    H2 3051   4.038   2.644   0.688
 1032TIP3   OH2 3052   4.251   2.717   0.457
 1032TIP3    H1 3053   4.321   2.656   0.432
 1032TIP3    H2 3054   4.289   2.804   0.445
 1033TIP3   OH2 3055   2.956   2.432   0.791
 1033TIP3    H1 3056   2.867   2.432   0.827
 1033TIP3    H2 3057   2.946   2.397   0.703
 1034TIP3   OH2 3058   2.855   2.358   0.534
 1034TIP3    H1 3059   2.851   2.337   0.441
 1034TIP3    H2 3060   2.767   2.339   0.566
 1035TIP3   OH2 3061   3.351   2.531   0.715
 1035TIP3    H1 3062   3.417   2.557   0.650
 1035TIP3    H2 3063   3.394   2.544   0.799
 1036TIP3   OH2 3064   3.847   2.609   0.669
 1036TIP3    H1 3065   3.816   2.571   0.587
 1036TIP3    H2 3066   3.842   2.536   0.732
 1037TIP3   OH2 3067   3.916   2.567   0.241
 1037TIP3    H1 3068   3.834   2.609   0.268
 1037TIP3    H2 3069   3.913   2.481   0.283
 1038TIP3   OH2 3070   2.428   3.900   0.236
 1038TIP3    H1 3071   2.371   3.835   0.196
 1038TIP3    H2 3072   2.397   3.984   0.202
 1039TIP3   OH2 3073   2.751   2.544   0.266
 1039TIP3    H1 3074   2.773   2.510   0.180
 1039TIP3    H2 3075   2.799   2.626   0.273
 1040TIP3   OH2 3076   3.338   2.654   0.314
 1040TIP3    H1 3077   3.376   2.585   0.368
 1040TIP3    H2 3078   3.376   2.735   0.347
 1041TIP3   OH2 3079   0.314   0.072   6.745
 1041TIP3    H1 3080   0.407   0.086   6.729
 1041TIP3    H2 3081   0.293  -0.005   6.692
 1042TIP3   OH2 3082   1.034   0.178   6.839
 1042TIP3    H1 3083   1.024   0.084   6.827
 1042TIP3    H2 3084   0.981   0.217   6.769
 1043TIP3   OH2 3085   3.098   2.707   1.693
 1043TIP3    H1 3086   3.061   2.640   1.749
 1043TIP3    H2 3087   3.190   2.713   1.720
 1044TIP3   OH2 3088   3.347   2.711   1.814
 1044TIP3    H1 3089   3.426   2.689   1.766
 1044TIP3    H2 3090   3.338   2.641   1.879
 1045TIP3   OH2 3091   5.328   7.985   6.849
 1045TIP3    H1 3092   5.370   7.953   6.928
 1045TIP3    H2 3093   5.352   7.921   6.782
 1046TIP3   OH2 3094   4.169   2.797   1.603
 1046TIP3    H1 3095   4.184   2.767   1.693
 1046TIP3    H2 3096   4.255   2.792   1.561
 1047TIP3   OH2 3097   4.084   4.331   1.103
 1047TIP3    H1 3098   4.010   4.301   1.051
 1047TIP3    H2 3099   4.073   4.426   1.110
 1048TIP3   OH2 3100   5.352   3.690   0.263
 1048TIP3    H1 3101   5.392   3.689   0.350
 1048TIP3    H2 3102   5.305   3.607   0.257
 1049TIP3   OH2 3103   4.659   3.588   0.627
 1049TIP3    H1 3104   4.692   3.522   0.688
 1049TIP3    H2 3105   4.731   3.650   0.617
 1050TIP3   OH2 3106   4.639   3.988   0.320
 1050TIP3    H1 3107   4.616   3.895   0.329
 1050TIP3    H2 3108   4.734   3.990   0.322
 1051TIP3   OH2 3109   4.350   3.215   0.083
 1051TIP3    H1 3110   4.310   3.295   0.117
 1051TIP3    H2 3111   4.276   3.163   0.052
 1052TIP3   OH2 3112   4.417   3.515   0.302
 1052TIP3    H1 3113   4.466   3.438   0.332
 1052TIP3    H2 3114   4.484   3.582   0.288
 1053TIP3   OH2 3115   5.175   3.919   0.283
 1053TIP3    H1 3116   5.207   3.842   0.236
 1053TIP3    H2 3117   5.250   3.947   0.337
 1054TIP3   OH2 3118   6.187   3.253   0.306
 1054TIP3    H1 3119   6.211   3.329   0.358
 1054TIP3    H2 3120   6.226   3.269   0.220
 1055TIP3   OH2 3121   5.589   3.421   0.351
 1055TIP3    H1 3122   5.624   3.337   0.381
 1055TIP3    H2 3123   5.548   3.402   0.267
 1056TIP3   OH2 3124   4.932   3.079   0.283
 1056TIP3    H1 3125   4.906   3.154   0.231
 1056TIP3    H2 3126   4.879   3.006   0.250
 1057TIP3   OH2 3127   8.438   7.187   6.900
 1057TIP3    H1 3128   8.515   7.171   6.956
 1057TIP3    H2 3129   8.466   7.161   6.812
 1058TIP3   OH2 3130   4.551   3.295   0.404
 1058TIP3    H1 3131   4.634   3.281   0.449
 1058TIP3    H2 3132   4.556   3.239   0.326
 1059TIP3   OH2 3133   4.990   3.495   0.207
 1059TIP3    H1 3134   5.082   3.472   0.222
 1059TIP3    H2 3135   4.949   3.412   0.184
 1060TIP3   OH2 3136   6.254   3.467   0.464
 1060TIP3    H1 3137   6.165   3.502   0.464
 1060TIP3    H2 3138   6.294   3.503   0.543
 1061TIP3   OH2 3139   4.913   3.081   0.724
 1061TIP3    H1 3140   4.860   3.118   0.653
 1061TIP3    H2 3141   4.860   3.095   0.803
 1062TIP3   OH2 3142   5.015   3.857   0.503
 1062TIP3    H1 3143   4.951   3.921   0.533
 1062TIP3    H2 3144   5.054   3.896   0.425
 1063TIP3   OH2 3145   5.825   3.172   0.133
 1063TIP3    H1 3146   5.771   3.157   0.211
 1063TIP3    H2 3147   5.865   3.258   0.147
 1064TIP3   OH2 3148   4.796   3.192   0.499
 1064TIP3    H1 3149   4.850   3.268   0.521
 1064TIP3    H2 3150   4.845   3.147   0.430
 1065TIP3   OH2 3151   4.835   4.039   0.599
 1065TIP3    H1 3152   4.824   4.127   0.564
 1065TIP3    H2 3153   4.760   4.026   0.656
 1066TIP3   OH2 3154   7.038   7.758   6.806
 1066TIP3    H1 3155   7.005   7.796   6.725
 1066TIP3    H2 3156   7.070   7.833   6.856
 1067TIP3   OH2 3157   5.978   3.147   0.461
 1067TIP3    H1 3158   5.893   3.170   0.425
 1067TIP3    H2 3159   6.041   3.177   0.396
 1068TIP3   OH2 3160   5.253   2.776   0.449
 1068TIP3    H1 3161   5.247   2.685   0.477
 1068TIP3    H2 3162   5.178   2.818   0.491
 1069TIP3   OH2 3163   5.913   4.119   0.456
 1069TIP3    H1 3164   5.892   4.039   0.408
 1069TIP3    H2 3165   5.914   4.188   0.390
 1070TIP3   OH2 3166   6.074   3.809   0.308
 1070TIP3    H1 3167   5.991   3.854   0.294
 1070TIP3    H2 3168   6.137   3.859   0.256
 1071TIP3   OH2 3169   5.766   3.675   0.594
 1071TIP3    H1 3170   5.762   3.752   0.652
 1071TIP3    H2 3171   5.684   3.679   0.545
 1072TIP3   OH2 3172   4.771   3.618   0.088
 1072TIP3    H1 3173   4.725   3.547   0.042
 1072TIP3    H2 3174   4.851   3.577   0.120
 1073TIP3   OH2 3175   4.906   3.994   0.250
 1073TIP3    H1 3176   4.881   4.007   0.159
 1073TIP3    H2 3177   5.001   3.982   0.248
 1074TIP3   OH2 3178   4.891   3.624   0.433
 1074TIP3    H1 3179   4.929   3.594   0.350
 1074TIP3    H2 3180   4.936   3.706   0.453
 1075TIP3   OH2 3181   5.432   4.145   0.228
 1075TIP3    H1 3182   5.356   4.203   0.227
 1075TIP3    H2 3183   5.411   4.080   0.295
 1076TIP3   OH2 3184   5.036   4.125   0.768
 1076TIP3    H1 3185   4.979   4.190   0.810
 1076TIP3    H2 3186   4.978   4.078   0.709
 1077TIP3   OH2 3187   4.808   3.715   0.881
 1077TIP3    H1 3188   4.815   3.805   0.912
 1077TIP3    H2 3189   4.714   3.696   0.884
 1078TIP3   OH2 3190   4.843   4.298   0.839
 1078TIP3    H1 3191   4.804   4.316   0.753
 1078TIP3    H2 3192   4.769   4.299   0.900
 1079TIP3   OH2 3193   7.430   7.448   6.896
 1079TIP3    H1 3194   7.369   7.519   6.874
 1079TIP3    H2 3195   7.375   7.370   6.896
 1080TIP3   OH2 3196   4.425   3.867   0.798
 1080TIP3    H1 3197   4.357   3.849   0.733
 1080TIP3    H2 3198   4.462   3.781   0.819
 1081TIP3   OH2 3199   4.277   4.066   0.446
 1081TIP3    H1 3200   4.371   4.081   0.459
 1081TIP3    H2 3201   4.236   4.145   0.482
 1082TIP3   OH2 3202   6.141   4.532   0.464
 1082TIP3    H1 3203   6.160   4.475   0.390
 1082TIP3    H2 3204   6.114   4.473   0.534
 1083TIP3   OH2 3205   5.244   4.269   0.676
 1083TIP3    H1 3206   5.238   4.355   0.716
 1083TIP3    H2 3207   5.167   4.222   0.708
 1084TIP3   OH2 3208   4.417   4.233  -0.010
 1084TIP3    H1 3209   4.495   4.238   0.045
 1084TIP3    H2 3210   4.345   4.223   0.052
 1085TIP3   OH2 3211   6.023   3.617   0.772
 1085TIP3    H1 3212   5.939   3.627   0.728
 1085TIP3    H2 3213   6.039   3.522   0.771
 1086TIP3   OH2 3214   4.620   4.058   0.765
 1086TIP3    H1 3215   4.662   4.068   0.850
 1086TIP3    H2 3216   4.551   3.993   0.780
 1087TIP3   OH2 3217   5.018   2.870   0.574
 1087TIP3    H1 3218   4.934   2.838   0.543
 1087TIP3    H2 3219   4.997   2.950   0.623
 1088TIP3   OH2 3220   5.562   2.981   0.775
 1088TIP3    H1 3221   5.631   2.959   0.836
 1088TIP3    H2 3222   5.481   2.966   0.824
 1089TIP3   OH2 3223   5.779   3.416   0.688
 1089TIP3    H1 3224   5.735   3.409   0.773
 1089TIP3    H2 3225   5.756   3.503   0.656
 1090TIP3   OH2 3226   4.954   3.401   0.582
 1090TIP3    H1 3227   4.908   3.411   0.666
 1090TIP3    H2 3228   4.932   3.481   0.534
 1091TIP3   OH2 3229   4.835   3.280   0.127
 1091TIP3    H1 3230   4.744   3.265   0.155
 1091TIP3    H2 3231   4.839   3.243   0.039
 1092TIP3   OH2 3232   5.507   3.623   0.910
 1092TIP3    H1 3233   5.479   3.556   0.973
 1092TIP3    H2 3234   5.599   3.640   0.932
 1093TIP3   OH2 3235   5.483   3.380   0.101
 1093TIP3    H1 3236   5.445   3.437   0.034
 1093TIP3    H2 3237   5.518   3.305   0.053
 1094TIP3   OH2 3238   4.788   3.410   0.804
 1094TIP3    H1 3239   4.808   3.474   0.872
 1094TIP3    H2 3240   4.772   3.329   0.851
 1095TIP3   OH2 3241   4.385   2.936   0.375
 1095TIP3    H1 3242   4.449   2.972   0.436
 1095TIP3    H2 3243   4.435   2.912   0.298
 1096TIP3   OH2 3244   7.141   6.934   6.846
 1096TIP3    H1 3245   7.188   6.966   6.769
 1096TIP3    H2 3246   7.079   7.005   6.867
 1097TIP3   OH2 3247   5.497   3.631   0.497
 1097TIP3    H1 3248   5.535   3.564   0.440
 1097TIP3    H2 3249   5.460   3.581   0.570
 1098TIP3   OH2 3250   5.195   3.077   0.174
 1098TIP3    H1 3251   5.115   3.076   0.227
 1098TIP3    H2 3252   5.266   3.072   0.237
 1099TIP3   OH2 3253   4.598   3.146   0.180
 1099TIP3    H1 3254   4.513   3.153   0.136
 1099TIP3    H2 3255   4.631   3.060   0.155
 1100TIP3   OH2 3256   7.691   7.160   6.821
 1100TIP3    H1 3257   7.786   7.154   6.827
 1100TIP3    H2 3258   7.675   7.224   6.753
 1101TIP3   OH2 3259   5.666   3.144   0.357
 1101TIP3    H1 3260   5.651   3.157   0.450
 1101TIP3    H2 3261   5.593   3.090   0.327
 1102TIP3   OH2 3262   5.929   4.872   0.505
 1102TIP3    H1 3263   5.906   4.896   0.415
 1102TIP3    H2 3264   5.991   4.940   0.532
 1103TIP3   OH2 3265   4.797   3.964   1.010
 1103TIP3    H1 3266   4.873   4.002   1.054
 1103TIP3    H2 3267   4.724   3.982   1.070
 1104TIP3   OH2 3268   5.251   3.425   0.272
 1104TIP3    H1 3269   5.329   3.385   0.232
 1104TIP3    H2 3270   5.249   3.389   0.361
 1105TIP3   OH2 3271   4.753   2.905   0.152
 1105TIP3    H1 3272   4.723   2.829   0.201
 1105TIP3    H2 3273   4.779   2.871   0.066
 1106TIP3   OH2 3274   5.224   3.343   0.539
 1106TIP3    H1 3275   5.136   3.376   0.558
 1106TIP3    H2 3276   5.282   3.396   0.594
 1107TIP3   OH2 3277   5.843   3.952   0.251
 1107TIP3    H1 3278   5.827   4.007   0.174
 1107TIP3    H2 3279   5.765   3.897   0.258
 1108TIP3   OH2 3280   5.367   4.010   0.698
 1108TIP3    H1 3281   5.412   3.997   0.782
 1108TIP3    H2 3282   5.318   4.091   0.709
 1109TIP3   OH2 3283   4.635   3.695   0.315
 1109TIP3    H1 3284   4.679   3.684   0.231
 1109TIP3    H2 3285   4.701   3.668   0.380
 1110TIP3   OH2 3286   4.540   3.645   0.931
 1110TIP3    H1 3287   4.556   3.633   1.024
 1110TIP3    H2 3288   4.467   3.587   0.910
 1111TIP3   OH2 3289   5.267   3.765   0.948
 1111TIP3    H1 3290   5.200   3.705   0.914
 1111TIP3    H2 3291   5.350   3.729   0.918
 1112TIP3   OH2 3292   5.501   4.270   0.577
 1112TIP3    H1 3293   5.411   4.249   0.603
 1112TIP3    H2 3294   5.535   4.323   0.649
 1113TIP3   OH2 3295   6.158   4.146   0.564
 1113TIP3    H1 3296   6.067   4.141   0.534
 1113TIP3    H2 3297   6.202   4.201   0.498
 1114TIP3   OH2 3298   5.620   3.798   0.239
 1114TIP3    H1 3299   5.525   3.788   0.232
 1114TIP3    H2 3300   5.655   3.723   0.190
 1115TIP3   OH2 3301   4.771   4.045   0.008
 1115TIP3    H1 3302   4.777   4.124  -0.047
 1115TIP3    H2 3303   4.689   4.055   0.056
 1116TIP3   OH2 3304   7.161   7.334   6.637
 1116TIP3    H1 3305   7.182   7.424   6.610
 1116TIP3    H2 3306   7.074   7.341   6.676
 1117TIP3   OH2 3307   7.707   7.813   6.849
 1117TIP3    H1 3308   7.674   7.897   6.879
 1117TIP3    H2 3309   7.671   7.750   6.911
 1118TIP3   OH2 3310   5.030   4.278   0.410
 1118TIP3    H1 3311   5.027   4.373   0.397
 1118TIP3    H2 3312   5.107   4.263   0.464
 1119TIP3   OH2 3313   5.406   3.963   0.431
 1119TIP3    H1 3314   5.392   3.979   0.524
 1119TIP3    H2 3315   5.496   3.930   0.426
 1120TIP3   OH2 3316   5.545   4.520   0.461
 1120TIP3    H1 3317   5.578   4.435   0.491
 1120TIP3    H2 3318   5.498   4.501   0.380
 1121TIP3   OH2 3319   4.744   3.157   0.933
 1121TIP3    H1 3320   4.648   3.164   0.940
 1121TIP3    H2 3321   4.770   3.110   1.011
 1122TIP3   OH2 3322   4.478   4.257   0.581
 1122TIP3    H1 3323   4.533   4.197   0.632
 1122TIP3    H2 3324   4.493   4.343   0.621
 1123TIP3   OH2 3325   5.615   3.199   0.614
 1123TIP3    H1 3326   5.675   3.257   0.660
 1123TIP3    H2 3327   5.595   3.130   0.677
 1124TIP3   OH2 3328   7.965   7.151   6.854
 1124TIP3    H1 3329   8.025   7.222   6.829
 1124TIP3    H2 3330   7.985   7.135   6.946
 1125TIP3   OH2 3331   5.426   3.458   0.699
 1125TIP3    H1 3332   5.447   3.514   0.774
 1125TIP3    H2 3333   5.476   3.378   0.715
 1126TIP3   OH2 3334   5.303   2.871   0.017
 1126TIP3    H1 3335   5.274   2.943   0.072
 1126TIP3    H2 3336   5.385   2.901  -0.022
 1127TIP3   OH2 3337   7.627   6.885   6.771
 1127TIP3    H1 3338   7.618   6.980   6.784
 1127TIP3    H2 3339   7.721   6.871   6.767
 1128TIP3   OH2 3340   6.038   3.343   0.669
 1128TIP3    H1 3341   5.946   3.363   0.681
 1128TIP3    H2 3342   6.040   3.277   0.600
 1129TIP3   OH2 3343   5.707   3.570   0.108
 1129TIP3    H1 3344   5.635   3.508   0.120
 1129TIP3    H2 3345   5.784   3.522   0.137
 1130TIP3   OH2 3346   7.210   7.066   6.617
 1130TIP3    H1 3347   7.209   7.161   6.629
 1130TIP3    H2 3348   7.160   7.052   6.536
 1131TIP3   OH2 3349   4.757   2.783   0.536
 1131TIP3    H1 3350   4.727   2.750   0.452
 1131TIP3    H2 3351   4.748   2.709   0.596
 1132TIP3   OH2 3352   1.437  -0.013   6.909
 1132TIP3    H1 3353   1.397   0.027   6.986
 1132TIP3    H2 3354   1.500   0.053   6.878
 1133TIP3   OH2 3355   4.475   4.564   1.008
 1133TIP3    H1 3356   4.553   4.559   1.063
 1133TIP3    H2 3357   4.446   4.474   1.000
 1134TIP3   OH2 3358   5.574   4.421   0.791
 1134TIP3    H1 3359   5.578   4.352   0.857
 1134TIP3    H2 3360   5.647   4.479   0.813
 1135TIP3   OH2 3361   4.580   3.960   1.189
 1135TIP3    H1 3362   4.599   3.866   1.193
 1135TIP3    H2 3363   4.495   3.966   1.146
 1136TIP3   OH2 3364   5.200   4.037   0.968
 1136TIP3    H1 3365   5.145   4.055   0.892
 1136TIP3    H2 3366   5.228   3.946   0.957
 1137TIP3   OH2 3367   5.668   4.050   0.571
 1137TIP3    H1 3368   5.746   4.093   0.536
 1137TIP3    H2 3369   5.601   4.118   0.572
 1138TIP3   OH2 3370   4.701   3.699   1.187
 1138TIP3    H1 3371   4.781   3.696   1.135
 1138TIP3    H2 3372   4.729   3.729   1.274
 1139TIP3   OH2 3373   5.057   3.592   0.839
 1139TIP3    H1 3374   4.975   3.641   0.848
 1139TIP3    H2 3375   5.095   3.622   0.757
 1140TIP3   OH2 3376   5.550   3.964   0.937
 1140TIP3    H1 3377   5.625   3.928   0.889
 1140TIP3    H2 3378   5.548   3.914   1.019
 1141TIP3   OH2 3379   5.165   3.369   0.957
 1141TIP3    H1 3380   5.168   3.295   0.896
 1141TIP3    H2 3381   5.128   3.441   0.907
 1142TIP3   OH2 3382   5.173   3.163   0.759
 1142TIP3    H1 3383   5.198   3.205   0.676
 1142TIP3    H2 3384   5.081   3.138   0.746
 1143TIP3   OH2 3385   5.193   3.692   0.625
 1143TIP3    H1 3386   5.279   3.732   0.613
 1143TIP3    H2 3387   5.132   3.753   0.585
 1144TIP3   OH2 3388   5.770   3.650   1.015
 1144TIP3    H1 3389   5.816   3.570   1.042
 1144TIP3    H2 3390   5.840   3.712   0.996
 1145TIP3   OH2 3391   5.786   3.902   0.764
 1145TIP3    H1 3392   5.733   3.956   0.705
 1145TIP3    H2 3393   5.875   3.909   0.730
 1146TIP3   OH2 3394   5.046   3.458   1.198
 1146TIP3    H1 3395   4.977   3.395   1.219
 1146TIP3    H2 3396   5.076   3.432   1.111
 1147TIP3   OH2 3397   5.295   2.928   0.851
 1147TIP3    H1 3398   5.253   3.009   0.821
 1147TIP3    H2 3399   5.227   2.861   0.840
 1148TIP3   OH2 3400   5.421   3.411   1.059
 1148TIP3    H1 3401   5.412   3.399   1.153
 1148TIP3    H2 3402   5.334   3.391   1.024
 1149TIP3   OH2 3403   5.656   3.351   0.918
 1149TIP3    H1 3404   5.581   3.358   0.977
 1149TIP3    H2 3405   5.730   3.331   0.975
 1150TIP3   OH2 3406   5.900   3.324   1.063
 1150TIP3    H1 3407   5.913   3.230   1.076
 1150TIP3    H2 3408   5.892   3.359   1.151
 1151TIP3   OH2 3409   4.881   3.237   1.263
 1151TIP3    H1 3410   4.887   3.148   1.229
 1151TIP3    H2 3411   4.919   3.232   1.350
 1152TIP3   OH2 3412   5.370   2.918   1.116
 1152TIP3    H1 3413   5.439   2.851   1.111
 1152TIP3    H2 3414   5.336   2.924   1.026
 1153TIP3   OH2 3415   5.457   3.136   1.259
 1153TIP3    H1 3416   5.429   3.063   1.204
 1153TIP3    H2 3417   5.383   3.196   1.260
 1154TIP3   OH2 3418   4.073   4.331   0.007
 1154TIP3    H1 3419   4.008   4.279  -0.040
 1154TIP3    H2 3420   4.110   4.271   0.071
 1155TIP3   OH2 3421   4.226   4.182   0.191
 1155TIP3    H1 3422   4.213   4.114   0.257
 1155TIP3    H2 3423   4.267   4.254   0.238
 1156TIP3   OH2 3424   5.911   4.642   0.333
 1156TIP3    H1 3425   5.868   4.612   0.252
 1156TIP3    H2 3426   6.002   4.613   0.324
 1157TIP3   OH2 3427   5.998   4.260   0.913
 1157TIP3    H1 3428   5.916   4.261   0.961
 1157TIP3    H2 3429   6.039   4.344   0.934
 1158TIP3   OH2 3430   5.765   4.528   0.130
 1158TIP3    H1 3431   5.718   4.486   0.202
 1158TIP3    H2 3432   5.728   4.488   0.051
 1159TIP3   OH2 3433   4.397   3.615   0.558
 1159TIP3    H1 3434   4.390   3.583   0.468
 1159TIP3    H2 3435   4.491   3.614   0.576
 1160TIP3   OH2 3436   6.043   3.923   0.673
 1160TIP3    H1 3437   6.104   3.850   0.658
 1160TIP3    H2 3438   6.080   3.995   0.621
 1161TIP3   OH2 3439   6.235   3.732   0.650
 1161TIP3    H1 3440   6.168   3.685   0.699
 1161TIP3    H2 3441   6.316   3.683   0.666
 1162TIP3   OH2 3442   5.929   3.423   0.201
 1162TIP3    H1 3443   6.007   3.451   0.153
 1162TIP3    H2 3444   5.938   3.463   0.287
 1163TIP3   OH2 3445   5.989   3.575   0.426
 1163TIP3    H1 3446   5.915   3.601   0.481
 1163TIP3    H2 3447   6.022   3.657   0.390
 1164TIP3   OH2 3448   4.617   3.293   1.201
 1164TIP3    H1 3449   4.711   3.293   1.220
 1164TIP3    H2 3450   4.584   3.212   1.241
 1165TIP3   OH2 3451   6.457   3.189   0.970
 1165TIP3    H1 3452   6.520   3.128   0.932
 1165TIP3    H2 3453   6.420   3.236   0.895
 1166TIP3   OH2 3454   4.586   3.004   0.552
 1166TIP3    H1 3455   4.643   2.927   0.559
 1166TIP3    H2 3456   4.647   3.077   0.540
 1167TIP3   OH2 3457   4.372   3.269   0.618
 1167TIP3    H1 3458   4.426   3.268   0.539
 1167TIP3    H2 3459   4.394   3.352   0.660
 1168TIP3   OH2 3460   6.308   3.305   0.776
 1168TIP3    H1 3461   6.239   3.347   0.827
 1168TIP3    H2 3462   6.261   3.242   0.721
 1169TIP3   OH2 3463   4.360   2.764   0.118
 1169TIP3    H1 3464   4.277   2.768   0.164
 1169TIP3    H2 3465   4.353   2.830   0.049
 1170TIP3   OH2 3466   4.581   2.837   0.935
 1170TIP3    H1 3467   4.534   2.834   1.019
 1170TIP3    H2 3468   4.524   2.886   0.877
 1171TIP3   OH2 3469   4.627   4.278   1.012
 1171TIP3    H1 3470   4.532   4.275   1.026
 1171TIP3    H2 3471   4.658   4.342   1.076
 1172TIP3   OH2 3472   4.799   4.310   0.558
 1172TIP3    H1 3473   4.752   4.385   0.521
 1172TIP3    H2 3474   4.880   4.305   0.508
 1173TIP3   OH2 3475   5.234   4.557   0.731
 1173TIP3    H1 3476   5.275   4.550   0.818
 1173TIP3    H2 3477   5.279   4.630   0.689
 1174TIP3   OH2 3478   5.393   4.717   0.570
 1174TIP3    H1 3479   5.448   4.646   0.538
 1174TIP3    H2 3480   5.436   4.746   0.650
 1175TIP3   OH2 3481   6.208   3.051   0.672
 1175TIP3    H1 3482   6.117   3.037   0.644
 1175TIP3    H2 3483   6.250   2.965   0.663
 1176TIP3   OH2 3484   4.470   4.566   0.620
 1176TIP3    H1 3485   4.382   4.594   0.597
 1176TIP3    H2 3486   4.500   4.630   0.684
 1177TIP3   OH2 3487   4.677   4.528   0.448
 1177TIP3    H1 3488   4.595   4.545   0.495
 1177TIP3    H2 3489   4.660   4.556   0.358
 1178TIP3   OH2 3490   5.164   4.568   0.174
 1178TIP3    H1 3491   5.070   4.554   0.170
 1178TIP3    H2 3492   5.177   4.633   0.242
 1179TIP3   OH2 3493   5.415   4.470   0.223
 1179TIP3    H1 3494   5.321   4.478   0.237
 1179TIP3    H2 3495   5.430   4.512   0.138
 1180TIP3   OH2 3496   4.403   4.349   0.330
 1180TIP3    H1 3497   4.421   4.324   0.420
 1180TIP3    H2 3498   4.477   4.316   0.280
 1181TIP3   OH2 3499   4.606   4.227   0.191
 1181TIP3    H1 3500   4.613   4.149   0.246
 1181TIP3    H2 3501   4.694   4.264   0.191
 1182TIP3   OH2 3502   4.868   4.314   0.173
 1182TIP3    H1 3503   4.931   4.301   0.103
 1182TIP3    H2 3504   4.915   4.290   0.253
 1183TIP3   OH2 3505   5.436   2.972   0.289
 1183TIP3    H1 3506   5.395   2.903   0.342
 1183TIP3    H2 3507   5.501   2.925   0.237
 1184TIP3   OH2 3508   5.926   2.898   0.166
 1184TIP3    H1 3509   5.936   2.989   0.139
 1184TIP3    H2 3510   5.832   2.883   0.168
 1185TIP3   OH2 3511   4.669   2.682   0.293
 1185TIP3    H1 3512   4.580   2.648   0.305
 1185TIP3    H2 3513   4.724   2.604   0.290
 1186TIP3   OH2 3514   7.278   6.573   6.885
 1186TIP3    H1 3515   7.331   6.621   6.821
 1186TIP3    H2 3516   7.263   6.636   6.955
 1187TIP3   OH2 3517   5.140   2.722   0.193
 1187TIP3    H1 3518   5.195   2.772   0.133
 1187TIP3    H2 3519   5.173   2.745   0.280
 1188TIP3   OH2 3520   5.647   2.844   0.146
 1188TIP3    H1 3521   5.673   2.795   0.069
 1188TIP3    H2 3522   5.642   2.779   0.216
 1189TIP3   OH2 3523   7.422   6.708   6.700
 1189TIP3    H1 3524   7.469   6.635   6.661
 1189TIP3    H2 3525   7.489   6.774   6.716
 1190TIP3   OH2 3526   7.901   6.885   6.787
 1190TIP3    H1 3527   7.967   6.842   6.841
 1190TIP3    H2 3528   7.923   6.978   6.792
 1191TIP3   OH2 3529   4.890   2.963   1.176
 1191TIP3    H1 3530   4.854   2.898   1.235
 1191TIP3    H2 3531   4.982   2.970   1.201
 1192TIP3   OH2 3532   5.139   2.967   1.298
 1192TIP3    H1 3533   5.220   2.945   1.252
 1192TIP3    H2 3534   5.131   2.900   1.366
 1193TIP3   OH2 3535   5.962   3.053   1.090
 1193TIP3    H1 3536   5.976   3.026   1.180
 1193TIP3    H2 3537   6.050   3.050   1.050
 1194TIP3   OH2 3538   5.928   4.642   0.647
 1194TIP3    H1 3539   5.882   4.566   0.612
 1194TIP3    H2 3540   5.877   4.718   0.616
 1195TIP3   OH2 3541   6.679   3.330   0.208
 1195TIP3    H1 3542   6.640   3.406   0.165
 1195TIP3    H2 3543   6.637   3.326   0.293
 1196TIP3   OH2 3544   6.613   3.955   0.397
 1196TIP3    H1 3545   6.620   4.044   0.433
 1196TIP3    H2 3546   6.519   3.936   0.400
 1197TIP3   OH2 3547   6.240   4.036   0.229
 1197TIP3    H1 3548   6.306   4.058   0.163
 1197TIP3    H2 3549   6.290   3.995   0.300
 1198TIP3   OH2 3550   6.487   4.282   0.277
 1198TIP3    H1 3551   6.539   4.257   0.353
 1198TIP3    H2 3552   6.399   4.297   0.312
 1199TIP3   OH2 3553   7.306   3.141   0.263
 1199TIP3    H1 3554   7.366   3.211   0.289
 1199TIP3    H2 3555   7.225   3.161   0.309
 1200TIP3   OH2 3556   7.275   3.889   0.398
 1200TIP3    H1 3557   7.260   3.810   0.451
 1200TIP3    H2 3558   7.363   3.877   0.361
 1201TIP3   OH2 3559   6.590   3.635   0.284
 1201TIP3    H1 3560   6.588   3.717   0.333
 1201TIP3    H2 3561   6.573   3.568   0.349
 1202TIP3   OH2 3562   6.600   4.206   0.517
 1202TIP3    H1 3563   6.682   4.231   0.559
 1202TIP3    H2 3564   6.532   4.235   0.577
 1203TIP3   OH2 3565   6.346   3.900   0.444
 1203TIP3    H1 3566   6.376   3.910   0.534
 1203TIP3    H2 3567   6.275   3.837   0.448
 1204TIP3   OH2 3568   7.041   4.013   0.458
 1204TIP3    H1 3569   6.983   3.953   0.413
 1204TIP3    H2 3570   7.129   3.988   0.429
 1205TIP3   OH2 3571   6.537   3.402   0.435
 1205TIP3    H1 3572   6.443   3.413   0.447
 1205TIP3    H2 3573   6.567   3.361   0.516
 1206TIP3   OH2 3574   6.225   4.816   0.470
 1206TIP3    H1 3575   6.311   4.849   0.497
 1206TIP3    H2 3576   6.240   4.780   0.382
 1207TIP3   OH2 3577   6.701   4.589   0.569
 1207TIP3    H1 3578   6.793   4.601   0.545
 1207TIP3    H2 3579   6.652   4.615   0.491
 1208TIP3   OH2 3580   6.386   4.195   0.715
 1208TIP3    H1 3581   6.430   4.110   0.720
 1208TIP3    H2 3582   6.303   4.176   0.671
 1209TIP3   OH2 3583   6.979   4.282   0.412
 1209TIP3    H1 3584   6.994   4.306   0.321
 1209TIP3    H2 3585   7.030   4.201   0.424
 1210TIP3   OH2 3586   6.510   3.940   0.682
 1210TIP3    H1 3587   6.591   3.917   0.636
 1210TIP3    H2 3588   6.539   3.964   0.770
 1211TIP3   OH2 3589   6.856   3.858   0.321
 1211TIP3    H1 3590   6.773   3.892   0.356
 1211TIP3    H2 3591   6.847   3.866   0.226
 1212TIP3   OH2 3592   7.264   4.212   0.478
 1212TIP3    H1 3593   7.315   4.293   0.472
 1212TIP3    H2 3594   7.313   4.157   0.538
 1213TIP3   OH2 3595   6.952   3.637   0.454
 1213TIP3    H1 3596   6.947   3.563   0.393
 1213TIP3    H2 3597   6.924   3.713   0.402
 1214TIP3   OH2 3598   6.933   3.431   0.267
 1214TIP3    H1 3599   6.984   3.392   0.196
 1214TIP3    H2 3600   6.842   3.405   0.249
 1215TIP3   OH2 3601   7.584   3.904   0.547
 1215TIP3    H1 3602   7.544   3.825   0.513
 1215TIP3    H2 3603   7.666   3.913   0.498
 1216TIP3   OH2 3604   6.836   3.723   0.693
 1216TIP3    H1 3605   6.771   3.658   0.716
 1216TIP3    H2 3606   6.868   3.697   0.607
 1217TIP3   OH2 3607   7.072   3.221   0.385
 1217TIP3    H1 3608   7.028   3.302   0.360
 1217TIP3    H2 3609   7.004   3.154   0.376
 1218TIP3   OH2 3610   7.218   3.657   0.543
 1218TIP3    H1 3611   7.208   3.652   0.638
 1218TIP3    H2 3612   7.129   3.645   0.509
 1219TIP3   OH2 3613   7.476   3.680   0.438
 1219TIP3    H1 3614   7.393   3.652   0.477
 1219TIP3    H2 3615   7.541   3.618   0.471
 1220TIP3   OH2 3616   7.665   3.537   0.573
 1220TIP3    H1 3617   7.718   3.459   0.593
 1220TIP3    H2 3618   7.681   3.596   0.646
 1221TIP3   OH2 3619   6.681   3.502   0.761
 1221TIP3    H1 3620   6.685   3.411   0.730
 1221TIP3    H2 3621   6.718   3.498   0.849
 1222TIP3   OH2 3622   7.162   3.170   0.637
 1222TIP3    H1 3623   7.243   3.122   0.619
 1222TIP3    H2 3624   7.124   3.185   0.550
 1223TIP3   OH2 3625   7.255   3.398   0.753
 1223TIP3    H1 3626   7.221   3.321   0.709
 1223TIP3    H2 3627   7.181   3.460   0.754
 1224TIP3   OH2 3628   6.420   3.538   0.687
 1224TIP3    H1 3629   6.513   3.541   0.711
 1224TIP3    H2 3630   6.388   3.458   0.728
 1225TIP3   OH2 3631   6.371   3.102   0.450
 1225TIP3    H1 3632   6.324   3.087   0.531
 1225TIP3    H2 3633   6.305   3.137   0.390
 1226TIP3   OH2 3634   6.411   4.460   0.527
 1226TIP3    H1 3635   6.322   4.496   0.517
 1226TIP3    H2 3636   6.437   4.485   0.615
 1227TIP3   OH2 3637   6.684   3.235   0.690
 1227TIP3    H1 3638   6.650   3.164   0.744
 1227TIP3    H2 3639   6.778   3.238   0.711
 1228TIP3   OH2 3640   6.937   3.228   0.795
 1228TIP3    H1 3641   7.016   3.202   0.747
 1228TIP3    H2 3642   6.925   3.159   0.860
 1229TIP3   OH2 3643   0.446   4.296   1.469
 1229TIP3    H1 3644   0.463   4.379   1.512
 1229TIP3    H2 3645   0.485   4.305   1.382
 1230TIP3   OH2 3646   8.410   4.486   1.465
 1230TIP3    H1 3647   8.409   4.393   1.487
 1230TIP3    H2 3648   8.489   4.497   1.413
 1231TIP3   OH2 3649   0.502   4.513   1.637
 1231TIP3    H1 3650   0.415   4.550   1.620
 1231TIP3    H2 3651   0.521   4.537   1.728
 1232TIP3   OH2 3652   0.051   4.241   1.274
 1232TIP3    H1 3653   0.092   4.184   1.339
 1232TIP3    H2 3654   0.091   4.327   1.289
 1233TIP3   OH2 3655   0.230   4.216   1.632
 1233TIP3    H1 3656   0.143   4.232   1.596
 1233TIP3    H2 3657   0.290   4.236   1.561
 1234TIP3   OH2 3658   0.135   5.250   1.596
 1234TIP3    H1 3659   0.137   5.163   1.556
 1234TIP3    H2 3660   0.116   5.309   1.523
 1235TIP3   OH2 3661   0.350   4.862   1.477
 1235TIP3    H1 3662   0.270   4.913   1.487
 1235TIP3    H2 3663   0.372   4.871   1.384
 1236TIP3   OH2 3664   0.072   4.741   1.784
 1236TIP3    H1 3665   0.057   4.818   1.840
 1236TIP3    H2 3666  -0.013   4.725   1.744
 1237TIP3   OH2 3667   0.420   5.535   1.700
 1237TIP3    H1 3668   0.417   5.440   1.703
 1237TIP3    H2 3669   0.331   5.562   1.722
 1238TIP3   OH2 3670   0.284   4.675   1.951
 1238TIP3    H1 3671   0.208   4.693   1.896
 1238TIP3    H2 3672   0.297   4.580   1.943
 1239TIP3   OH2 3673   8.363   4.026   1.931
 1239TIP3    H1 3674   8.425   4.000   1.999
 1239TIP3    H2 3675   8.282   4.046   1.979
 1240TIP3   OH2 3676   0.039   4.452   1.832
 1240TIP3    H1 3677   0.014   4.456   1.924
 1240TIP3    H2 3678   0.012   4.537   1.797
 1241TIP3   OH2 3679   8.347   4.703   2.084
 1241TIP3    H1 3680   8.329   4.623   2.035
 1241TIP3    H2 3681   8.436   4.691   2.118
 1242TIP3   OH2 3682   8.343   4.641   1.680
 1242TIP3    H1 3683   8.355   4.590   1.600
 1242TIP3    H2 3684   8.265   4.694   1.662
 1243TIP3   OH2 3685   8.442   4.219   1.554
 1243TIP3    H1 3686   8.398   4.229   1.638
 1243TIP3    H2 3687   8.382   4.167   1.502
 1244TIP3   OH2 3688   8.095   4.317   1.627
 1244TIP3    H1 3689   8.031   4.351   1.690
 1244TIP3    H2 3690   8.175   4.303   1.678
 1245TIP3   OH2 3691   0.112   5.002   1.480
 1245TIP3    H1 3692   0.114   5.015   1.386
 1245TIP3    H2 3693   0.026   4.964   1.497
 1246TIP3   OH2 3694   8.027   4.895   2.154
 1246TIP3    H1 3695   7.985   4.855   2.078
 1246TIP3    H2 3696   8.080   4.825   2.192
 1247TIP3   OH2 3697   0.395   5.255   1.697
 1247TIP3    H1 3698   0.300   5.263   1.684
 1247TIP3    H2 3699   0.428   5.227   1.612
 1248TIP3   OH2 3700   8.333   4.268   1.801
 1248TIP3    H1 3701   8.417   4.310   1.818
 1248TIP3    H2 3702   8.339   4.184   1.846
 1249TIP3   OH2 3703   8.228   4.513   1.892
 1249TIP3    H1 3704   8.264   4.562   1.818
 1249TIP3    H2 3705   8.257   4.423   1.878
 1250TIP3   OH2 3706   0.304   4.403   1.847
 1250TIP3    H1 3707   0.209   4.417   1.848
 1250TIP3    H2 3708   0.319   4.342   1.775
 1251TIP3   OH2 3709   8.322   5.528   1.995
 1251TIP3    H1 3710   8.283   5.510   2.081
 1251TIP3    H2 3711   8.404   5.572   2.016
 1252TIP3   OH2 3712   8.450   5.107   1.760
 1252TIP3    H1 3713   8.503   5.164   1.704
 1252TIP3    H2 3714   8.368   5.097   1.712
 1253TIP3   OH2 3715   8.381   5.044   2.219
 1253TIP3    H1 3716   8.335   5.030   2.136
 1253TIP3    H2 3717   8.385   4.957   2.259
 1254TIP3   OH2 3718   7.819   4.141   1.888
 1254TIP3    H1 3719   7.843   4.189   1.808
 1254TIP3    H2 3720   7.836   4.202   1.959
 1255TIP3   OH2 3721   0.085   4.685   2.232
 1255TIP3    H1 3722   0.112   4.595   2.215
 1255TIP3    H2 3723   0.152   4.739   2.191
 1256TIP3   OH2 3724   0.085   4.972   1.950
 1256TIP3    H1 3725   0.022   5.015   1.893
 1256TIP3    H2 3726   0.170   4.986   1.908
 1257TIP3   OH2 3727   8.057   3.867   2.011
 1257TIP3    H1 3728   8.084   3.956   1.985
 1257TIP3    H2 3729   7.981   3.849   1.955
 1258TIP3   OH2 3730   8.219   4.416   2.186
 1258TIP3    H1 3731   8.251   4.439   2.273
 1258TIP3    H2 3732   8.131   4.381   2.200
 1259TIP3   OH2 3733   8.472   4.433   2.088
 1259TIP3    H1 3734   8.383   4.414   2.119
 1259TIP3    H2 3735   8.530   4.393   2.152
 1260TIP3   OH2 3736   0.171   4.363   2.265
 1260TIP3    H1 3737   0.179   4.268   2.270
 1260TIP3    H2 3738   0.158   4.391   2.356
 1261TIP3   OH2 3739   8.246   3.990   2.199
 1261TIP3    H1 3740   8.291   3.906   2.208
 1261TIP3    H2 3741   8.160   3.966   2.165
 1262TIP3   OH2 3742   8.243   4.191   2.384
 1262TIP3    H1 3743   8.258   4.121   2.320
 1262TIP3    H2 3744   8.154   4.220   2.366
 1263TIP3   OH2 3745   0.287   5.352   2.005
 1263TIP3    H1 3746   0.193   5.352   2.022
 1263TIP3    H2 3747   0.316   5.441   2.023
 1264TIP3   OH2 3748   0.325   5.014   1.826
 1264TIP3    H1 3749   0.387   4.943   1.808
 1264TIP3    H2 3750   0.354   5.086   1.770
 1265TIP3   OH2 3751   0.493   4.799   1.828
 1265TIP3    H1 3752   0.419   4.758   1.871
 1265TIP3    H2 3753   0.568   4.744   1.850
 1266TIP3   OH2 3754   0.176   4.475   1.376
 1266TIP3    H1 3755   0.252   4.497   1.322
 1266TIP3    H2 3756   0.196   4.514   1.461
 1267TIP3   OH2 3757   0.256   4.631   1.597
 1267TIP3    H1 3758   0.191   4.664   1.660
 1267TIP3    H2 3759   0.289   4.710   1.555
 1268TIP3   OH2 3760   0.715   4.233   2.138
 1268TIP3    H1 3761   0.773   4.167   2.098
 1268TIP3    H2 3762   0.678   4.280   2.063
 1269TIP3   OH2 3763   0.562   4.346   1.941
 1269TIP3    H1 3764   0.477   4.386   1.956
 1269TIP3    H2 3765   0.544   4.269   1.888
 1270TIP3   OH2 3766   0.472   4.098   1.842
 1270TIP3    H1 3767   0.382   4.079   1.814
 1270TIP3    H2 3768   0.517   4.014   1.832
 1271TIP3   OH2 3769   0.170   3.978   1.392
 1271TIP3    H1 3770   0.229   4.003   1.321
 1271TIP3    H2 3771   0.086   3.961   1.349
 1272TIP3   OH2 3772   0.305   4.037   1.165
 1272TIP3    H1 3773   0.296   3.985   1.084
 1272TIP3    H2 3774   0.345   4.119   1.136
 1273TIP3   OH2 3775   0.225   4.095   2.272
 1273TIP3    H1 3776   0.245   4.064   2.361
 1273TIP3    H2 3777   0.309   4.092   2.226
 1274TIP3   OH2 3778   0.153   5.582   1.765
 1274TIP3    H1 3779   0.096   5.505   1.766
 1274TIP3    H2 3780   0.098   5.653   1.731
 1275TIP3   OH2 3781   1.391   5.001   0.549
 1275TIP3    H1 3782   1.378   5.093   0.527
 1275TIP3    H2 3783   1.335   4.954   0.488
 1276TIP3   OH2 3784   1.410   5.011   0.932
 1276TIP3    H1 3785   1.457   4.984   1.012
 1276TIP3    H2 3786   1.368   4.930   0.901
 1277TIP3   OH2 3787   0.717   4.884   1.268
 1277TIP3    H1 3788   0.745   4.829   1.341
 1277TIP3    H2 3789   0.798   4.902   1.220
 1278TIP3   OH2 3790   1.687   5.308   0.625
 1278TIP3    H1 3791   1.664   5.239   0.687
 1278TIP3    H2 3792   1.695   5.387   0.678
 1279TIP3   OH2 3793   0.728   5.330   1.047
 1279TIP3    H1 3794   0.720   5.234   1.053
 1279TIP3    H2 3795   0.815   5.344   1.010
 1280TIP3   OH2 3796   0.521   4.800   0.967
 1280TIP3    H1 3797   0.545   4.719   1.013
 1280TIP3    H2 3798   0.571   4.796   0.885
 1281TIP3   OH2 3799   1.433   5.744   0.694
 1281TIP3    H1 3800   1.474   5.709   0.615
 1281TIP3    H2 3801   1.449   5.678   0.761
 1282TIP3   OH2 3802   1.226   5.225   0.942
 1282TIP3    H1 3803   1.268   5.141   0.922
 1282TIP3    H2 3804   1.298   5.283   0.966
 1283TIP3   OH2 3805   2.241   4.550   0.949
 1283TIP3    H1 3806   2.261   4.635   0.989
 1283TIP3    H2 3807   2.271   4.559   0.858
 1284TIP3   OH2 3808   1.634   4.724   0.986
 1284TIP3    H1 3809   1.679   4.643   1.010
 1284TIP3    H2 3810   1.589   4.703   0.904
 1285TIP3   OH2 3811   0.961   4.414   0.940
 1285TIP3    H1 3812   0.935   4.480   0.876
 1285TIP3    H2 3813   0.923   4.332   0.908
 1286TIP3   OH2 3814   1.639   4.482   0.575
 1286TIP3    H1 3815   1.716   4.473   0.630
 1286TIP3    H2 3816   1.667   4.539   0.503
 1287TIP3   OH2 3817   0.614   4.565   1.068
 1287TIP3    H1 3818   0.694   4.544   1.115
 1287TIP3    H2 3819   0.618   4.511   0.989
 1288TIP3   OH2 3820   1.024   4.800   0.868
 1288TIP3    H1 3821   1.118   4.785   0.873
 1288TIP3    H2 3822   0.988   4.718   0.834
 1289TIP3   OH2 3823   2.305   4.772   1.115
 1289TIP3    H1 3824   2.216   4.806   1.109
 1289TIP3    H2 3825   2.337   4.802   1.200
 1290TIP3   OH2 3826   0.964   4.370   1.423
 1290TIP3    H1 3827   0.921   4.371   1.337
 1290TIP3    H2 3828   0.898   4.405   1.483
 1291TIP3   OH2 3829   1.343   5.245   0.439
 1291TIP3    H1 3830   1.322   5.221   0.348
 1291TIP3    H2 3831   1.411   5.311   0.431
 1292TIP3   OH2 3832   1.069   5.149   1.164
 1292TIP3    H1 3833   1.011   5.215   1.203
 1292TIP3    H2 3834   1.105   5.192   1.086
 1293TIP3   OH2 3835   1.838   4.512   0.765
 1293TIP3    H1 3836   1.820   4.469   0.848
 1293TIP3    H2 3837   1.897   4.584   0.787
 1294TIP3   OH2 3838   0.849   4.472   1.183
 1294TIP3    H1 3839   0.906   4.542   1.215
 1294TIP3    H2 3840   0.895   4.437   1.107
 1295TIP3   OH2 3841   0.915   5.339   1.290
 1295TIP3    H1 3842   0.891   5.423   1.250
 1295TIP3    H2 3843   0.839   5.316   1.344
 1296TIP3   OH2 3844   1.727   5.555   0.753
 1296TIP3    H1 3845   1.646   5.553   0.805
 1296TIP3    H2 3846   1.724   5.640   0.708
 1297TIP3   OH2 3847   2.028   4.456   1.122
 1297TIP3    H1 3848   1.939   4.472   1.090
 1297TIP3    H2 3849   2.084   4.479   1.048
 1298TIP3   OH2 3850   1.545   5.650   0.459
 1298TIP3    H1 3851   1.544   5.557   0.436
 1298TIP3    H2 3852   1.635   5.678   0.442
 1299TIP3   OH2 3853   1.574   5.388   0.389
 1299TIP3    H1 3854   1.606   5.337   0.314
 1299TIP3    H2 3855   1.618   5.349   0.465
 1300TIP3   OH2 3856   1.960   5.463   1.069
 1300TIP3    H1 3857   1.945   5.371   1.044
 1300TIP3    H2 3858   1.873   5.503   1.065
 1301TIP3   OH2 3859   1.263   4.868   0.332
 1301TIP3    H1 3860   1.174   4.897   0.313
 1301TIP3    H2 3861   1.284   4.808   0.260
 1302TIP3   OH2 3862   1.061   4.596   0.274
 1302TIP3    H1 3863   1.156   4.596   0.259
 1302TIP3    H2 3864   1.023   4.595   0.186
 1303TIP3   OH2 3865   2.133   5.124   0.959
 1303TIP3    H1 3866   2.045   5.160   0.951
 1303TIP3    H2 3867   2.170   5.130   0.871
 1304TIP3   OH2 3868   1.589   4.965   0.357
 1304TIP3    H1 3869   1.533   4.979   0.434
 1304TIP3    H2 3870   1.671   4.931   0.393
 1305TIP3   OH2 3871   1.823   4.978   1.255
 1305TIP3    H1 3872   1.816   5.057   1.309
 1305TIP3    H2 3873   1.740   4.974   1.208
 1306TIP3   OH2 3874   0.810   4.932   0.756
 1306TIP3    H1 3875   0.790   4.863   0.692
 1306TIP3    H2 3876   0.893   4.906   0.795
 1307TIP3   OH2 3877   0.972   5.336   0.925
 1307TIP3    H1 3878   0.953   5.377   0.840
 1307TIP3    H2 3879   1.059   5.298   0.914
 1308TIP3   OH2 3880   0.950   4.905   1.118
 1308TIP3    H1 3881   0.978   4.877   1.031
 1308TIP3    H2 3882   0.990   4.991   1.130
 1309TIP3   OH2 3883   1.499   5.566   0.898
 1309TIP3    H1 3884   1.487   5.633   0.966
 1309TIP3    H2 3885   1.480   5.483   0.943
 1310TIP3   OH2 3886   1.108   5.467   1.433
 1310TIP3    H1 3887   1.050   5.529   1.476
 1310TIP3    H2 3888   1.050   5.411   1.382
 1311TIP3   OH2 3889   1.530   4.846   0.124
 1311TIP3    H1 3890   1.553   4.888   0.207
 1311TIP3    H2 3891   1.533   4.917   0.059
 1312TIP3   OH2 3892   0.856   5.006   1.573
 1312TIP3    H1 3893   0.859   5.098   1.599
 1312TIP3    H2 3894   0.762   4.987   1.565
 1313TIP3   OH2 3895   0.899   5.627   1.517
 1313TIP3    H1 3896   0.872   5.627   1.425
 1313TIP3    H2 3897   0.821   5.601   1.565
 1314TIP3   OH2 3898   2.069   4.089   0.301
 1314TIP3    H1 3899   1.980   4.055   0.292
 1314TIP3    H2 3900   2.070   4.168   0.247
 1315TIP3   OH2 3901   0.476   5.166   1.456
 1315TIP3    H1 3902   0.429   5.180   1.374
 1315TIP3    H2 3903   0.502   5.074   1.454
 1316TIP3   OH2 3904   2.127   5.719   1.108
 1316TIP3    H1 3905   2.194   5.696   1.173
 1316TIP3    H2 3906   2.068   5.779   1.154
 1317TIP3   OH2 3907   1.288   5.601   1.275
 1317TIP3    H1 3908   1.284   5.692   1.302
 1317TIP3    H2 3909   1.222   5.557   1.329
 1318TIP3   OH2 3910   2.065   4.930   1.425
 1318TIP3    H1 3911   1.986   4.937   1.372
 1318TIP3    H2 3912   2.085   4.836   1.427
 1319TIP3   OH2 3913   0.700   5.324   1.462
 1319TIP3    H1 3914   0.747   5.311   1.544
 1319TIP3    H2 3915   0.625   5.264   1.467
 1320TIP3   OH2 3916   1.606   4.291   1.440
 1320TIP3    H1 3917   1.671   4.262   1.503
 1320TIP3    H2 3918   1.522   4.270   1.481
 1321TIP3   OH2 3919   1.838   4.720   1.360
 1321TIP3    H1 3920   1.790   4.718   1.443
 1321TIP3    H2 3921   1.811   4.802   1.319
 1322TIP3   OH2 3922   1.063   4.190   0.247
 1322TIP3    H1 3923   1.103   4.201   0.333
 1322TIP3    H2 3924   1.119   4.126   0.202
 1323TIP3   OH2 3925   1.008   4.681   1.266
 1323TIP3    H1 3926   0.958   4.696   1.346
 1323TIP3    H2 3927   0.993   4.760   1.214
 1324TIP3   OH2 3928   0.865   4.590   0.748
 1324TIP3    H1 3929   0.781   4.550   0.769
 1324TIP3    H2 3930   0.886   4.556   0.661
 1325TIP3   OH2 3931   1.383   4.679   0.499
 1325TIP3    H1 3932   1.340   4.748   0.450
 1325TIP3    H2 3933   1.463   4.661   0.450
 1326TIP3   OH2 3934   1.552   4.931   1.581
 1326TIP3    H1 3935   1.522   4.860   1.637
 1326TIP3    H2 3936   1.645   4.939   1.600
 1327TIP3   OH2 3937   1.528   4.679   0.738
 1327TIP3    H1 3938   1.472   4.713   0.669
 1327TIP3    H2 3939   1.563   4.597   0.702
 1328TIP3   OH2 3940   0.827   4.719   1.469
 1328TIP3    H1 3941   0.847   4.781   1.539
 1328TIP3    H2 3942   0.808   4.637   1.515
 1329TIP3   OH2 3943   0.445   4.247   1.055
 1329TIP3    H1 3944   0.495   4.283   1.129
 1329TIP3    H2 3945   0.505   4.253   0.981
 1330TIP3   OH2 3946   1.566   4.926   1.149
 1330TIP3    H1 3947   1.595   4.857   1.088
 1330TIP3    H2 3948   1.527   4.878   1.222
 1331TIP3   OH2 3949   1.229   4.402   0.882
 1331TIP3    H1 3950   1.137   4.404   0.907
 1331TIP3    H2 3951   1.274   4.367   0.959
 1332TIP3   OH2 3952   0.648   4.428   0.824
 1332TIP3    H1 3953   0.580   4.408   0.759
 1332TIP3    H2 3954   0.706   4.352   0.822
 1333TIP3   OH2 3955   0.952   4.484   0.504
 1333TIP3    H1 3956   1.036   4.498   0.548
 1333TIP3    H2 3957   0.967   4.515   0.414
 1334TIP3   OH2 3958   1.741   4.476   1.052
 1334TIP3    H1 3959   1.705   4.493   1.139
 1334TIP3    H2 3960   1.675   4.424   1.008
 1335TIP3   OH2 3961   1.898   6.155   1.252
 1335TIP3    H1 3962   1.887   6.183   1.161
 1335TIP3    H2 3963   1.977   6.200   1.282
 1336TIP3   OH2 3964   0.846   5.259   1.690
 1336TIP3    H1 3965   0.925   5.286   1.737
 1336TIP3    H2 3966   0.775   5.273   1.752
 1337TIP3   OH2 3967   1.295   4.751   0.905
 1337TIP3    H1 3968   1.363   4.693   0.870
 1337TIP3    H2 3969   1.288   4.726   0.997
 1338TIP3   OH2 3970   0.818   4.215   0.820
 1338TIP3    H1 3971   0.785   4.139   0.868
 1338TIP3    H2 3972   0.875   4.178   0.753
 1339TIP3   OH2 3973   1.271   4.705   1.172
 1339TIP3    H1 3974   1.191   4.673   1.213
 1339TIP3    H2 3975   1.336   4.705   1.242
 1340TIP3   OH2 3976   1.889   5.245   0.914
 1340TIP3    H1 3977   1.905   5.292   0.833
 1340TIP3    H2 3978   1.807   5.197   0.898
 1341TIP3   OH2 3979   1.520   4.465   0.110
 1341TIP3    H1 3980   1.434   4.436   0.080
 1341TIP3    H2 3981   1.533   4.418   0.193
 1342TIP3   OH2 3982   1.444   5.358   1.304
 1342TIP3    H1 3983   1.435   5.313   1.387
 1342TIP3    H2 3984   1.381   5.430   1.308
 1343TIP3   OH2 3985   1.603   4.637   0.331
 1343TIP3    H1 3986   1.648   4.563   0.289
 1343TIP3    H2 3987   1.575   4.692   0.258
 1344TIP3   OH2 3988   0.702   5.054   0.987
 1344TIP3    H1 3989   0.743   5.028   0.905
 1344TIP3    H2 3990   0.696   4.973   1.038
 1345TIP3   OH2 3991   0.590   4.934   1.597
 1345TIP3    H1 3992   0.593   4.913   1.690
 1345TIP3    H2 3993   0.513   4.889   1.564
 1346TIP3   OH2 3994   1.321   5.083   1.608
 1346TIP3    H1 3995   1.256   5.035   1.557
 1346TIP3    H2 3996   1.404   5.043   1.585
 1347TIP3   OH2 3997   1.572   5.623   1.202
 1347TIP3    H1 3998   1.478   5.605   1.203
 1347TIP3    H2 3999   1.591   5.661   1.288
 1348TIP3   OH2 4000   2.004   4.672   0.084
 1348TIP3    H1 4001   1.921   4.640   0.048
 1348TIP3    H2 4002   2.016   4.758   0.043
 1349TIP3   OH2 4003   2.201   5.474   1.225
 1349TIP3    H1 4004   2.108   5.489   1.207
 1349TIP3    H2 4005   2.235   5.432   1.146
 1350TIP3   OH2 4006   1.656   5.111   0.827
 1350TIP3    H1 4007   1.566   5.086   0.848
 1350TIP3    H2 4008   1.696   5.031   0.794
 1351TIP3   OH2 4009   1.064   5.714   1.081
 1351TIP3    H1 4010   1.124   5.766   1.027
 1351TIP3    H2 4011   1.121   5.656   1.131
 1352TIP3   OH2 4012   1.470   5.325   1.032
 1352TIP3    H1 4013   1.460   5.329   1.127
 1352TIP3    H2 4014   1.523   5.247   1.017
 1353TIP3   OH2 4015   1.751   5.797   1.067
 1353TIP3    H1 4016   1.676   5.748   1.101
 1353TIP3    H2 4017   1.712   5.865   1.012
 1354TIP3   OH2 4018   0.772   4.473   1.597
 1354TIP3    H1 4019   0.677   4.485   1.598
 1354TIP3    H2 4020   0.789   4.405   1.662
 1355TIP3   OH2 4021   1.674   5.240   0.175
 1355TIP3    H1 4022   1.617   5.176   0.134
 1355TIP3    H2 4023   1.760   5.199   0.175
 1356TIP3   OH2 4024   0.592   5.546   1.328
 1356TIP3    H1 4025   0.499   5.551   1.349
 1356TIP3    H2 4026   0.623   5.470   1.377
 1357TIP3   OH2 4027   1.634   4.530   1.304
 1357TIP3    H1 4028   1.716   4.561   1.342
 1357TIP3    H2 4029   1.617   4.447   1.348
 1358TIP3   OH2 4030   1.598   4.313   0.351
 1358TIP3    H1 4031   1.521   4.258   0.341
 1358TIP3    H2 4032   1.583   4.361   0.433
 1359TIP3   OH2 4033   1.194   4.513   0.627
 1359TIP3    H1 4034   1.259   4.580   0.605
 1359TIP3    H2 4035   1.215   4.487   0.717
 1360TIP3   OH2 4036   1.480   4.762   1.351
 1360TIP3    H1 4037   1.503   4.797   1.436
 1360TIP3    H2 4038   1.525   4.678   1.346
 1361TIP3   OH2 4039   1.384   4.261   0.704
 1361TIP3    H1 4040   1.333   4.309   0.768
 1361TIP3    H2 4041   1.475   4.267   0.734
 1362TIP3   OH2 4042   0.786   4.252   0.474
 1362TIP3    H1 4043   0.835   4.335   0.475
 1362TIP3    H2 4044   0.839   4.193   0.527
 1363TIP3   OH2 4045   2.097   4.652   1.334
 1363TIP3    H1 4046   2.003   4.668   1.348
 1363TIP3    H2 4047   2.100   4.593   1.259
 1364TIP3   OH2 4048   1.754   4.863   0.744
 1364TIP3    H1 4049   1.680   4.803   0.754
 1364TIP3    H2 4050   1.827   4.820   0.788
 1365TIP3   OH2 4051   1.769   5.814   0.664
 1365TIP3    H1 4052   1.741   5.856   0.583
 1365TIP3    H2 4053   1.862   5.835   0.670
 1366TIP3   OH2 4054   0.764   4.094   1.214
 1366TIP3    H1 4055   0.753   4.056   1.127
 1366TIP3    H2 4056   0.782   4.019   1.271
 1367TIP3   OH2 4057   0.484   5.814   1.697
 1367TIP3    H1 4058   0.577   5.822   1.718
 1367TIP3    H2 4059   0.471   5.720   1.681
 1368TIP3   OH2 4060   0.986   5.789   1.719
 1368TIP3    H1 4061   1.081   5.774   1.720
 1368TIP3    H2 4062   0.955   5.737   1.645
 1369TIP3   OH2 4063   1.619   5.727   1.450
 1369TIP3    H1 4064   1.627   5.657   1.515
 1369TIP3    H2 4065   1.693   5.784   1.468
 1370TIP3   OH2 4066   0.625   5.263   1.860
 1370TIP3    H1 4067   0.646   5.170   1.869
 1370TIP3    H2 4068   0.539   5.264   1.817
 1371TIP3   OH2 4069   1.251   5.353   1.636
 1371TIP3    H1 4070   1.205   5.376   1.555
 1371TIP3    H2 4071   1.282   5.264   1.622
 1372TIP3   OH2 4072   1.728   5.371   1.248
 1372TIP3    H1 4073   1.763   5.460   1.240
 1372TIP3    H2 4074   1.633   5.384   1.254
 1373TIP3   OH2 4075   0.744   5.009   1.856
 1373TIP3    H1 4076   0.816   4.992   1.796
 1373TIP3    H2 4077   0.785   5.028   1.940
 1374TIP3   OH2 4078   1.096   4.883   1.519
 1374TIP3    H1 4079   1.014   4.932   1.532
 1374TIP3    H2 4080   1.135   4.921   1.441
 1375TIP3   OH2 4081   1.615   5.274   1.615
 1375TIP3    H1 4082   1.677   5.229   1.557
 1375TIP3    H2 4083   1.607   5.216   1.691
 1376TIP3   OH2 4084   1.217   4.654   1.605
 1376TIP3    H1 4085   1.218   4.586   1.538
 1376TIP3    H2 4086   1.175   4.729   1.563
 1377TIP3   OH2 4087   1.225   4.449   1.397
 1377TIP3    H1 4088   1.251   4.415   1.312
 1377TIP3    H2 4089   1.133   4.423   1.406
 1378TIP3   OH2 4090   1.238   5.008   1.326
 1378TIP3    H1 4091   1.298   4.962   1.268
 1378TIP3    H2 4092   1.183   5.061   1.268
 1379TIP3   OH2 4093   1.820   4.951   1.675
 1379TIP3    H1 4094   1.846   4.859   1.675
 1379TIP3    H2 4095   1.897   4.997   1.642
 1380TIP3   OH2 4096   1.846   5.206   1.426
 1380TIP3    H1 4097   1.797   5.264   1.368
 1380TIP3    H2 4098   1.937   5.213   1.396
 1381TIP3   OH2 4099   1.096   4.756   1.857
 1381TIP3    H1 4100   1.027   4.691   1.875
 1381TIP3    H2 4101   1.119   4.740   1.765
 1382TIP3   OH2 4102   1.342   4.228   1.518
 1382TIP3    H1 4103   1.307   4.307   1.476
 1382TIP3    H2 4104   1.282   4.158   1.492
 1383TIP3   OH2 4105   1.464   4.709   1.717
 1383TIP3    H1 4106   1.445   4.698   1.810
 1383TIP3    H2 4107   1.382   4.685   1.673
 1384TIP3   OH2 4108   1.715   4.679   1.597
 1384TIP3    H1 4109   1.635   4.670   1.647
 1384TIP3    H2 4110   1.783   4.641   1.653
 1385TIP3   OH2 4111   1.947   4.620   1.742
 1385TIP3    H1 4112   1.961   4.526   1.749
 1385TIP3    H2 4113   1.944   4.651   1.833
 1386TIP3   OH2 4114   0.934   4.533   1.924
 1386TIP3    H1 4115   0.935   4.445   1.887
 1386TIP3    H2 4116   0.972   4.522   2.011
 1387TIP3   OH2 4117   1.409   4.218   1.780
 1387TIP3    H1 4118   1.479   4.153   1.775
 1387TIP3    H2 4119   1.376   4.226   1.691
 1388TIP3   OH2 4120   1.503   4.437   1.920
 1388TIP3    H1 4121   1.474   4.367   1.861
 1388TIP3    H2 4122   1.430   4.500   1.919
 1389TIP3   OH2 4123   2.024   5.911   0.663
 1389TIP3    H1 4124   2.029   5.994   0.710
 1389TIP3    H2 4125   2.090   5.919   0.594
 1390TIP3   OH2 4126   2.011   5.959   0.946
 1390TIP3    H1 4127   1.992   5.880   0.895
 1390TIP3    H2 4128   2.090   5.937   0.995
 1391TIP3   OH2 4129   2.065   5.619   1.489
 1391TIP3    H1 4130   2.000   5.623   1.559
 1391TIP3    H2 4131   2.114   5.701   1.496
 1392TIP3   OH2 4132   1.916   5.121   0.125
 1392TIP3    H1 4133   1.983   5.183   0.097
 1392TIP3    H2 4134   1.955   5.077   0.201
 1393TIP3   OH2 4135   2.023   4.985   0.336
 1393TIP3    H1 4136   1.953   4.948   0.389
 1393TIP3    H2 4137   2.086   5.019   0.400
 1394TIP3   OH2 4138   2.047   5.410   0.727
 1394TIP3    H1 4139   2.105   5.340   0.699
 1394TIP3    H2 4140   1.993   5.429   0.650
 1395TIP3   OH2 4141   1.930   5.680   0.895
 1395TIP3    H1 4142   1.869   5.727   0.953
 1395TIP3    H2 4143   1.874   5.639   0.830
 1396TIP3   OH2 4144   7.583   0.899   6.888
 1396TIP3    H1 4145   7.515   0.831   6.889
 1396TIP3    H2 4146   7.564   0.953   6.964
 1397TIP3   OH2 4147   7.444   0.637   6.876
 1397TIP3    H1 4148   7.387   0.659   6.803
 1397TIP3    H2 4149   7.433   0.543   6.889
 1398TIP3   OH2 4150   1.818   4.866   0.475
 1398TIP3    H1 4151   1.847   4.778   0.454
 1398TIP3    H2 4152   1.798   4.864   0.569
 1399TIP3   OH2 4153   0.448   4.898   1.221
 1399TIP3    H1 4154   0.452   4.871   1.129
 1399TIP3    H2 4155   0.540   4.905   1.247
 1400TIP3   OH2 4156   2.101   5.247   1.336
 1400TIP3    H1 4157   2.162   5.175   1.320
 1400TIP3    H2 4158   2.141   5.322   1.292
 1401TIP3   OH2 4159   2.283   5.049   1.312
 1401TIP3    H1 4160   2.211   5.000   1.352
 1401TIP3    H2 4161   2.361   4.996   1.329
 1402TIP3   OH2 4162   1.808   4.371  -0.012
 1402TIP3    H1 4163   1.875   4.331   0.044
 1402TIP3    H2 4164   1.726   4.328   0.014
 1403TIP3   OH2 4165   1.927   4.628   0.400
 1403TIP3    H1 4166   1.967   4.554   0.445
 1403TIP3    H2 4167   1.937   4.609   0.307
 1404TIP3   OH2 4168   1.977   4.739   0.858
 1404TIP3    H1 4169   2.057   4.761   0.810
 1404TIP3    H2 4170   1.991   4.772   0.946
 1405TIP3   OH2 4171   2.049   4.890   1.087
 1405TIP3    H1 4172   1.973   4.917   1.137
 1405TIP3    H2 4173   2.081   4.970   1.046
 1406TIP3   OH2 4174   0.669   4.601   1.894
 1406TIP3    H1 4175   0.764   4.590   1.897
 1406TIP3    H2 4176   0.635   4.517   1.925
 1407TIP3   OH2 4177   2.499   4.488   1.627
 1407TIP3    H1 4178   2.563   4.428   1.587
 1407TIP3    H2 4179   2.462   4.536   1.553
 1408TIP3   OH2 4180   1.973   4.349   0.393
 1408TIP3    H1 4181   1.989   4.311   0.480
 1408TIP3    H2 4182   1.902   4.296   0.357
 1409TIP3   OH2 4183   0.624   4.319   1.254
 1409TIP3    H1 4184   0.667   4.234   1.249
 1409TIP3    H2 4185   0.695   4.382   1.242
 1410TIP3   OH2 4186   0.414   4.575   1.274
 1410TIP3    H1 4187   0.475   4.552   1.204
 1410TIP3    H2 4188   0.444   4.661   1.304
 1411TIP3   OH2 4189   2.354   4.598   1.423
 1411TIP3    H1 4190   2.267   4.638   1.431
 1411TIP3    H2 4191   2.340   4.519   1.373
 1412TIP3   OH2 4192   2.040   4.270   0.089
 1412TIP3    H1 4193   2.052   4.198   0.027
 1412TIP3    H2 4194   2.102   4.337   0.061
 1413TIP3   OH2 4195   0.637   4.155   1.615
 1413TIP3    H1 4196   0.579   4.139   1.689
 1413TIP3    H2 4197   0.580   4.192   1.548
 1414TIP3   OH2 4198   0.692   5.571   1.687
 1414TIP3    H1 4199   0.599   5.550   1.676
 1414TIP3    H2 4200   0.699   5.597   1.779
 1415TIP3   OH2 4201   0.862   5.607   1.243
 1415TIP3    H1 4202   0.770   5.630   1.232
 1415TIP3    H2 4203   0.908   5.656   1.175
 1416TIP3   OH2 4204   1.276   5.863   1.365
 1416TIP3    H1 4205   1.311   5.855   1.453
 1416TIP3    H2 4206   1.340   5.917   1.318
 1417TIP3   OH2 4207   1.457   6.022   1.237
 1417TIP3    H1 4208   1.505   5.968   1.174
 1417TIP3    H2 4209   1.526   6.069   1.284
 1418TIP3   OH2 4210   2.265   4.351   1.323
 1418TIP3    H1 4211   2.176   4.339   1.290
 1418TIP3    H2 4212   2.305   4.264   1.317
 1419TIP3   OH2 4213   1.210   5.890   0.929
 1419TIP3    H1 4214   1.148   5.882   0.856
 1419TIP3    H2 4215   1.211   5.983   0.949
 1420TIP3   OH2 4216   1.468   5.834   1.001
 1420TIP3    H1 4217   1.376   5.844   0.975
 1420TIP3    H2 4218   1.517   5.885   0.937
 1421TIP3   OH2 4219   1.664   5.979   0.868
 1421TIP3    H1 4220   1.657   6.069   0.836
 1421TIP3    H2 4221   1.691   5.928   0.792
 1422TIP3   OH2 4222   1.539   4.328   0.950
 1422TIP3    H1 4223   1.475   4.290   1.010
 1422TIP3    H2 4224   1.589   4.253   0.918
 1423TIP3   OH2 4225   1.988   4.198   0.862
 1423TIP3    H1 4226   2.029   4.241   0.787
 1423TIP3    H2 4227   1.894   4.211   0.850
 1424TIP3   OH2 4228   2.108   4.275   0.632
 1424TIP3    H1 4229   2.176   4.218   0.596
 1424TIP3    H2 4230   2.136   4.364   0.610
 1425TIP3   OH2 4231   0.708   4.000   0.949
 1425TIP3    H1 4232   0.628   3.967   0.908
 1425TIP3    H2 4233   0.765   3.923   0.955
 1426TIP3   OH2 4234   1.194   4.053   0.900
 1426TIP3    H1 4235   1.257   4.084   0.835
 1426TIP3    H2 4236   1.215   4.101   0.980
 1427TIP3   OH2 4237   1.719   4.169   0.815
 1427TIP3    H1 4238   1.733   4.154   0.721
 1427TIP3    H2 4239   1.710   4.081   0.852
 1428TIP3   OH2 4240   1.767   4.167   0.529
 1428TIP3    H1 4241   1.711   4.208   0.463
 1428TIP3    H2 4242   1.739   4.076   0.531
 1429TIP3   OH2 4243   1.194   4.257   0.508
 1429TIP3    H1 4244   1.265   4.241   0.570
 1429TIP3    H2 4245   1.159   4.343   0.533
 1430TIP3   OH2 4246   0.941   4.254   1.859
 1430TIP3    H1 4247   0.903   4.182   1.909
 1430TIP3    H2 4248   1.032   4.256   1.887
 1431TIP3   OH2 4249   1.201   4.257   1.965
 1431TIP3    H1 4250   1.264   4.258   1.893
 1431TIP3    H2 4251   1.231   4.186   2.022
 1432TIP3   OH2 4252   2.010   4.349   1.750
 1432TIP3    H1 4253   2.028   4.321   1.840
 1432TIP3    H2 4254   2.094   4.345   1.706
 1433TIP3   OH2 4255   1.949   5.881   1.242
 1433TIP3    H1 4256   1.874   5.854   1.190
 1433TIP3    H2 4257   1.938   5.975   1.255
 1434TIP3   OH2 4258   3.200   5.295   0.142
 1434TIP3    H1 4259   3.160   5.358   0.082
 1434TIP3    H2 4260   3.209   5.215   0.090
 1435TIP3   OH2 4261   3.149   5.279   0.430
 1435TIP3    H1 4262   3.221   5.240   0.480
 1435TIP3    H2 4263   3.162   5.248   0.341
 1436TIP3   OH2 4264   2.496   5.155   0.781
 1436TIP3    H1 4265   2.528   5.090   0.843
 1436TIP3    H2 4266   2.569   5.169   0.720
 1437TIP3   OH2 4267   3.482   5.595   0.039
 1437TIP3    H1 4268   3.451   5.510   0.071
 1437TIP3    H2 4269   3.485   5.651   0.117
 1438TIP3   OH2 4270   2.494   5.562   0.462
 1438TIP3    H1 4271   2.480   5.467   0.465
 1438TIP3    H2 4272   2.588   5.572   0.449
 1439TIP3   OH2 4273   2.197   4.782   0.246
 1439TIP3    H1 4274   2.147   4.855   0.281
 1439TIP3    H2 4275   2.132   4.726   0.204
 1440TIP3   OH2 4276   2.251   5.074   0.473
 1440TIP3    H1 4277   2.298   4.994   0.497
 1440TIP3    H2 4278   2.317   5.129   0.430
 1441TIP3   OH2 4279   3.077   5.955   0.115
 1441TIP3    H1 4280   3.167   5.955   0.082
 1441TIP3    H2 4281   3.086   5.936   0.208
 1442TIP3   OH2 4282   2.993   5.502   0.443
 1442TIP3    H1 4283   3.030   5.415   0.424
 1442TIP3    H2 4284   3.069   5.557   0.462
 1443TIP3   OH2 4285   4.017   4.806   0.456
 1443TIP3    H1 4286   4.032   4.897   0.480
 1443TIP3    H2 4287   4.052   4.798   0.368
 1444TIP3   OH2 4288   3.430   4.985   0.477
 1444TIP3    H1 4289   3.477   4.904   0.496
 1444TIP3    H2 4290   3.381   4.967   0.397
 1445TIP3   OH2 4291   2.770   4.642   0.427
 1445TIP3    H1 4292   2.755   4.717   0.369
 1445TIP3    H2 4293   2.719   4.571   0.387
 1446TIP3   OH2 4294   3.439   4.719   0.086
 1446TIP3    H1 4295   3.521   4.716   0.136
 1446TIP3    H2 4296   3.442   4.804   0.042
 1447TIP3   OH2 4297   2.395   4.851   0.550
 1447TIP3    H1 4298   2.478   4.832   0.593
 1447TIP3    H2 4299   2.398   4.801   0.468
 1448TIP3   OH2 4300   2.815   5.053   0.374
 1448TIP3    H1 4301   2.908   5.034   0.383
 1448TIP3    H2 4302   2.778   4.973   0.335
 1449TIP3   OH2 4303   4.097   5.027   0.627
 1449TIP3    H1 4304   4.009   5.063   0.613
 1449TIP3    H2 4305   4.129   5.072   0.705
 1450TIP3   OH2 4306   2.753   4.639   0.872
 1450TIP3    H1 4307   2.704   4.674   0.798
 1450TIP3    H2 4308   2.697   4.655   0.948
 1451TIP3   OH2 4309   0.272   1.472   6.888
 1451TIP3    H1 4310   0.227   1.435   6.811
 1451TIP3    H2 4311   0.240   1.562   6.894
 1452TIP3   OH2 4312   2.847   5.414   0.662
 1452TIP3    H1 4313   2.792   5.485   0.693
 1452TIP3    H2 4314   2.897   5.452   0.590
 1453TIP3   OH2 4315   3.642   4.734   0.275
 1453TIP3    H1 4316   3.600   4.726   0.360
 1453TIP3    H2 4317   3.691   4.817   0.280
 1454TIP3   OH2 4318   2.637   4.747   0.646
 1454TIP3    H1 4319   2.693   4.822   0.668
 1454TIP3    H2 4320   2.683   4.705   0.573
 1455TIP3   OH2 4321   2.677   5.618   0.764
 1455TIP3    H1 4322   2.667   5.704   0.724
 1455TIP3    H2 4323   2.599   5.607   0.818
 1456TIP3   OH2 4324   7.754   1.303   6.953
 1456TIP3    H1 4325   7.737   1.309   6.859
 1456TIP3    H2 4326   7.765   1.393   6.981
 1457TIP3   OH2 4327   3.493   5.796   0.223
 1457TIP3    H1 4328   3.404   5.797   0.258
 1457TIP3    H2 4329   3.507   5.886   0.192
 1458TIP3   OH2 4330   3.817   4.689   0.610
 1458TIP3    H1 4331   3.732   4.714   0.574
 1458TIP3    H2 4332   3.880   4.725   0.547
 1459TIP3   OH2 4333   3.096   4.334   0.597
 1459TIP3    H1 4334   3.088   4.242   0.621
 1459TIP3    H2 4335   3.021   4.376   0.637
 1460TIP3   OH2 4336   3.696   5.696   0.657
 1460TIP3    H1 4337   3.744   5.629   0.607
 1460TIP3    H2 4338   3.720   5.778   0.614
 1461TIP3   OH2 4339   0.205   1.126   6.820
 1461TIP3    H1 4340   0.134   1.182   6.789
 1461TIP3    H2 4341   0.285   1.168   6.788
 1462TIP3   OH2 4342   3.909   5.318   0.456
 1462TIP3    H1 4343   3.821   5.352   0.444
 1462TIP3    H2 4344   3.954   5.337   0.374
 1463TIP3   OH2 4345   0.447   1.240   6.756
 1463TIP3    H1 4346   0.482   1.316   6.803
 1463TIP3    H2 4347   0.493   1.165   6.794
 1464TIP3   OH2 4348   3.609   5.229   0.752
 1464TIP3    H1 4349   3.604   5.308   0.805
 1464TIP3    H2 4350   3.529   5.230   0.699
 1465TIP3   OH2 4351   2.618   5.185   0.224
 1465TIP3    H1 4352   2.584   5.123   0.159
 1465TIP3    H2 4353   2.692   5.139   0.263
 1466TIP3   OH2 4354   2.752   5.614   0.369
 1466TIP3    H1 4355   2.729   5.588   0.280
 1466TIP3    H2 4356   2.837   5.574   0.385
 1467TIP3   OH2 4357   2.711   5.185   0.593
 1467TIP3    H1 4358   2.752   5.148   0.514
 1467TIP3    H2 4359   2.765   5.261   0.614
 1468TIP3   OH2 4360   3.256   5.804   0.353
 1468TIP3    H1 4361   3.239   5.880   0.409
 1468TIP3    H2 4362   3.251   5.729   0.412
 1469TIP3   OH2 4363   2.885   5.722   0.916
 1469TIP3    H1 4364   2.825   5.780   0.963
 1469TIP3    H2 4365   2.828   5.667   0.862
 1470TIP3   OH2 4366   2.653   5.283   1.048
 1470TIP3    H1 4367   2.656   5.373   1.081
 1470TIP3    H2 4368   2.561   5.268   1.028
 1471TIP3   OH2 4369   0.156   1.728   6.903
 1471TIP3    H1 4370   0.181   1.803   6.957
 1471TIP3    H2 4371   0.060   1.729   6.904
 1472TIP3   OH2 4372   2.673   5.888   0.990
 1472TIP3    H1 4373   2.661   5.895   0.895
 1472TIP3    H2 4374   2.583   5.886   1.025
 1473TIP3   OH2 4375   2.498   5.018   0.031
 1473TIP3    H1 4376   2.419   5.056  -0.007
 1473TIP3    H2 4377   2.476   4.927   0.048
 1474TIP3   OH2 4378   2.226   5.445   0.938
 1474TIP3    H1 4379   2.193   5.412   0.854
 1474TIP3    H2 4380   2.275   5.371   0.974
 1475TIP3   OH2 4381   3.922   6.084   0.664
 1475TIP3    H1 4382   3.966   6.041   0.737
 1475TIP3    H2 4383   3.831   6.093   0.694
 1476TIP3   OH2 4384   3.068   5.863   0.770
 1476TIP3    H1 4385   3.063   5.953   0.802
 1476TIP3    H2 4386   3.005   5.815   0.824
 1477TIP3   OH2 4387   2.284   5.804   0.134
 1477TIP3    H1 4388   2.338   5.800   0.212
 1477TIP3    H2 4389   2.226   5.729   0.141
 1478TIP3   OH2 4390   3.845   5.183   0.926
 1478TIP3    H1 4391   3.772   5.194   0.865
 1478TIP3    H2 4392   3.866   5.090   0.922
 1479TIP3   OH2 4393   2.464   5.622   0.973
 1479TIP3    H1 4394   2.532   5.587   1.031
 1479TIP3    H2 4395   2.410   5.546   0.951
 1480TIP3   OH2 4396   2.860   4.424   0.725
 1480TIP3    H1 4397   2.775   4.394   0.692
 1480TIP3    H2 4398   2.840   4.507   0.770
 1481TIP3   OH2 4399   3.403   4.543   0.921
 1481TIP3    H1 4400   3.474   4.519   0.981
 1481TIP3    H2 4401   3.323   4.524   0.970
 1482TIP3   OH2 4402   3.622   4.963   0.834
 1482TIP3    H1 4403   3.583   4.962   0.922
 1482TIP3    H2 4404   3.605   5.051   0.801
 1483TIP3   OH2 4405   0.087   0.446   6.618
 1483TIP3    H1 4406   0.094   0.453   6.713
 1483TIP3    H2 4407   0.177   0.440   6.587
 1484TIP3   OH2 4408   2.795   4.957   0.727
 1484TIP3    H1 4409   2.773   4.980   0.817
 1484TIP3    H2 4410   2.773   5.035   0.676
 1485TIP3   OH2 4411   2.679   4.841   0.260
 1485TIP3    H1 4412   2.592   4.811   0.286
 1485TIP3    H2 4413   2.692   4.807   0.172
 1486TIP3   OH2 4414   0.296   0.872   6.862
 1486TIP3    H1 4415   0.251   0.955   6.845
 1486TIP3    H2 4416   0.387   0.897   6.877
 1487TIP3   OH2 4417   3.352   5.184   1.062
 1487TIP3    H1 4418   3.324   5.114   1.120
 1487TIP3    H2 4419   3.445   5.196   1.080
 1488TIP3   OH2 4420   3.287   4.890   0.261
 1488TIP3    H1 4421   3.302   4.950   0.188
 1488TIP3    H2 4422   3.319   4.805   0.229
 1489TIP3   OH2 4423   2.610   4.971   0.957
 1489TIP3    H1 4424   2.686   5.013   0.998
 1489TIP3    H2 4425   2.602   4.887   1.001
 1490TIP3   OH2 4426   8.317   0.368   6.616
 1490TIP3    H1 4427   8.305   0.393   6.707
 1490TIP3    H2 4428   8.404   0.399   6.593
 1491TIP3   OH2 4429   2.220   4.502   0.536
 1491TIP3    H1 4430   2.295   4.533   0.587
 1491TIP3    H2 4431   2.258   4.471   0.454
 1492TIP3   OH2 4432   2.189   4.482   0.015
 1492TIP3    H1 4433   2.247   4.522  -0.050
 1492TIP3    H2 4434   2.129   4.552   0.039
 1493TIP3   OH2 4435   3.349   5.186   0.638
 1493TIP3    H1 4436   3.382   5.122   0.574
 1493TIP3    H2 4437   3.311   5.132   0.707
 1494TIP3   OH2 4438   3.039   4.626   0.305
 1494TIP3    H1 4439   2.963   4.635   0.363
 1494TIP3    H2 4440   3.114   4.628   0.364
 1495TIP3   OH2 4441   2.449   4.709   0.322
 1495TIP3    H1 4442   2.361   4.717   0.284
 1495TIP3    H2 4443   2.477   4.620   0.301
 1496TIP3   OH2 4444   8.355   0.706   6.958
 1496TIP3    H1 4445   8.450   0.712   6.947
 1496TIP3    H2 4446   8.320   0.727   6.872
 1497TIP3   OH2 4447   3.508   4.717   0.523
 1497TIP3    H1 4448   3.477   4.737   0.611
 1497TIP3    H2 4449   3.442   4.660   0.486
 1498TIP3   OH2 4450   8.204   0.731   6.729
 1498TIP3    H1 4451   8.117   0.694   6.739
 1498TIP3    H2 4452   8.218   0.734   6.635
 1499TIP3   OH2 4453   3.665   6.427   0.830
 1499TIP3    H1 4454   3.655   6.447   0.737
 1499TIP3    H2 4455   3.739   6.482   0.857
 1500TIP3   OH2 4456   2.637   5.535   1.166
 1500TIP3    H1 4457   2.721   5.554   1.207
 1500TIP3    H2 4458   2.574   5.534   1.239
 1501TIP3   OH2 4459   3.068   4.956   0.420
 1501TIP3    H1 4460   3.141   4.933   0.363
 1501TIP3    H2 4461   3.090   4.916   0.504
 1502TIP3   OH2 4462   2.594   4.469   0.290
 1502TIP3    H1 4463   2.565   4.394   0.342
 1502TIP3    H2 4464   2.625   4.431   0.208
 1503TIP3   OH2 4465   3.063   4.876   0.700
 1503TIP3    H1 4466   2.977   4.918   0.704
 1503TIP3    H2 4467   3.122   4.938   0.742
 1504TIP3   OH2 4468   8.490   1.276   6.738
 1504TIP3    H1 4469   8.419   1.217   6.712
 1504TIP3    H2 4470   8.463   1.311   6.822
 1505TIP3   OH2 4471   3.676   5.454   0.415
 1505TIP3    H1 4472   3.695   5.511   0.340
 1505TIP3    H2 4473   3.587   5.423   0.400
 1506TIP3   OH2 4474   3.179   5.576   0.795
 1506TIP3    H1 4475   3.262   5.569   0.841
 1506TIP3    H2 4476   3.152   5.667   0.808
 1507TIP3   OH2 4477   2.489   5.280   0.447
 1507TIP3    H1 4478   2.525   5.256   0.361
 1507TIP3    H2 4479   2.554   5.247   0.510
 1508TIP3   OH2 4480   2.358   5.259   1.098
 1508TIP3    H1 4481   2.402   5.239   1.180
 1508TIP3    H2 4482   2.308   5.180   1.078
 1509TIP3   OH2 4483   3.123   5.339   1.081
 1509TIP3    H1 4484   3.077   5.318   1.000
 1509TIP3    H2 4485   3.209   5.298   1.071
 1510TIP3   OH2 4486   3.334   5.861   0.708
 1510TIP3    H1 4487   3.238   5.859   0.710
 1510TIP3    H2 4488   3.359   5.897   0.794
 1511TIP3   OH2 4489   3.981   5.741   0.739
 1511TIP3    H1 4490   3.900   5.781   0.770
 1511TIP3    H2 4491   3.963   5.714   0.649
 1512TIP3   OH2 4492   3.424   5.372   0.319
 1512TIP3    H1 4493   3.339   5.361   0.277
 1512TIP3    H2 4494   3.476   5.297   0.291
 1513TIP3   OH2 4495   2.611   5.590   0.131
 1513TIP3    H1 4496   2.596   5.666   0.074
 1513TIP3    H2 4497   2.523   5.553   0.145
 1514TIP3   OH2 4498   7.831   0.887   6.759
 1514TIP3    H1 4499   7.877   0.967   6.782
 1514TIP3    H2 4500   7.743   0.898   6.796
 1515TIP3   OH2 4501   2.727   5.361   0.038
 1515TIP3    H1 4502   2.699   5.447   0.068
 1515TIP3    H2 4503   2.696   5.301   0.106
 1516TIP3   OH2 4504   2.891   5.933   0.564
 1516TIP3    H1 4505   2.927   6.008   0.517
 1516TIP3    H2 4506   2.964   5.901   0.617
 1517TIP3   OH2 4507   8.194   1.800   6.930
 1517TIP3    H1 4508   8.100   1.805   6.946
 1517TIP3    H2 4509   8.221   1.890   6.914
 1518TIP3   OH2 4510   3.247   5.584   0.521
 1518TIP3    H1 4511   3.233   5.568   0.614
 1518TIP3    H2 4512   3.302   5.511   0.492
 1519TIP3   OH2 4513   3.445   6.092   0.615
 1519TIP3    H1 4514   3.402   6.017   0.657
 1519TIP3    H2 4515   3.396   6.106   0.534
 1520TIP3   OH2 4516   2.582   4.716   1.079
 1520TIP3    H1 4517   2.487   4.723   1.084
 1520TIP3    H2 4518   2.606   4.660   1.153
 1521TIP3   OH2 4519   7.948   1.127   6.844
 1521TIP3    H1 4520   7.888   1.184   6.891
 1521TIP3    H2 4521   7.989   1.183   6.778
 1522TIP3   OH2 4522   3.422   4.781   0.779
 1522TIP3    H1 4523   3.503   4.823   0.806
 1522TIP3    H2 4524   3.417   4.701   0.832
 1523TIP3   OH2 4525   0.471   0.522   6.889
 1523TIP3    H1 4526   0.448   0.569   6.809
 1523TIP3    H2 4527   0.523   0.585   6.940
 1524TIP3   OH2 4528   2.963   4.706   0.045
 1524TIP3    H1 4529   3.023   4.767   0.001
 1524TIP3    H2 4530   2.996   4.701   0.135
 1525TIP3   OH2 4531   3.264   5.015   0.837
 1525TIP3    H1 4532   3.298   5.056   0.917
 1525TIP3    H2 4533   3.315   4.934   0.829
 1526TIP3   OH2 4534   3.136   4.422   0.141
 1526TIP3    H1 4535   3.112   4.498   0.194
 1526TIP3    H2 4536   3.200   4.455   0.078
 1527TIP3   OH2 4537   8.318   0.433   6.897
 1527TIP3    H1 4538   8.310   0.525   6.923
 1527TIP3    H2 4539   8.413   0.416   6.898
 1528TIP3   OH2 4540   3.891   4.920   0.836
 1528TIP3    H1 4541   3.795   4.915   0.836
 1528TIP3    H2 4542   3.915   4.903   0.745
 1529TIP3   OH2 4543   3.566   5.157   0.228
 1529TIP3    H1 4544   3.513   5.114   0.161
 1529TIP3    H2 4545   3.618   5.086   0.266
 1530TIP3   OH2 4546   7.933   0.634   6.734
 1530TIP3    H1 4547   7.896   0.722   6.737
 1530TIP3    H2 4548   7.883   0.589   6.666
 1531TIP3   OH2 4549   3.575   6.042   0.138
 1531TIP3    H1 4550   3.524   6.085   0.069
 1531TIP3    H2 4551   3.666   6.048   0.109
 1532TIP3   OH2 4552   2.595   4.344   0.689
 1532TIP3    H1 4553   2.572   4.312   0.601
 1532TIP3    H2 4554   2.586   4.267   0.745
 1533TIP3   OH2 4555   2.103   5.591   0.043
 1533TIP3    H1 4556   2.024   5.639   0.069
 1533TIP3    H2 4557   2.125   5.627  -0.043
 1534TIP3   OH2 4558   2.336   6.129   1.143
 1534TIP3    H1 4559   2.410   6.153   1.198
 1534TIP3    H2 4560   2.346   6.035   1.129
 1535TIP3   OH2 4561   2.780   6.047   1.190
 1535TIP3    H1 4562   2.873   6.027   1.200
 1535TIP3    H2 4563   2.752   5.993   1.116
 1536TIP3   OH2 4564   3.404   5.980   0.941
 1536TIP3    H1 4565   3.407   5.908   1.005
 1536TIP3    H2 4566   3.477   6.036   0.965
 1537TIP3   OH2 4567   2.436   5.521   1.357
 1537TIP3    H1 4568   2.467   5.432   1.369
 1537TIP3    H2 4569   2.346   5.512   1.325
 1538TIP3   OH2 4570   3.043   5.611   1.115
 1538TIP3    H1 4571   3.003   5.632   1.031
 1538TIP3    H2 4572   3.087   5.527   1.100
 1539TIP3   OH2 4573   3.464   5.624   0.765
 1539TIP3    H1 4574   3.548   5.643   0.724
 1539TIP3    H2 4575   3.406   5.694   0.737
 1540TIP3   OH2 4576   2.547   5.265   1.329
 1540TIP3    H1 4577   2.623   5.237   1.279
 1540TIP3    H2 4578   2.580   5.280   1.417
 1541TIP3   OH2 4579   8.296   1.071   6.724
 1541TIP3    H1 4580   8.260   1.050   6.811
 1541TIP3    H2 4581   8.355   0.998   6.705
 1542TIP3   OH2 4582   2.854   5.114   0.971
 1542TIP3    H1 4583   2.794   5.182   1.001
 1542TIP3    H2 4584   2.919   5.160   0.918
 1543TIP3   OH2 4585   3.406   5.527   1.106
 1543TIP3    H1 4586   3.471   5.490   1.046
 1543TIP3    H2 4587   3.406   5.468   1.181
 1544TIP3   OH2 4588   3.002   4.926   1.111
 1544TIP3    H1 4589   3.011   4.848   1.056
 1544TIP3    H2 4590   2.959   4.990   1.055
 1545TIP3   OH2 4591   3.012   4.716   0.922
 1545TIP3    H1 4592   3.043   4.755   0.841
 1545TIP3    H2 4593   2.922   4.690   0.904
 1546TIP3   OH2 4594   3.025   5.268   0.822
 1546TIP3    H1 4595   3.108   5.262   0.775
 1546TIP3    H2 4596   2.970   5.324   0.768
 1547TIP3   OH2 4597   3.619   5.208   1.159
 1547TIP3    H1 4598   3.655   5.120   1.165
 1547TIP3    H2 4599   3.689   5.261   1.120
 1548TIP3   OH2 4600   3.625   5.463   0.917
 1548TIP3    H1 4601   3.567   5.521   0.868
 1548TIP3    H2 4602   3.712   5.478   0.880
 1549TIP3   OH2 4603   2.884   5.017   1.349
 1549TIP3    H1 4604   2.819   4.950   1.368
 1549TIP3    H2 4605   2.918   4.994   1.262
 1550TIP3   OH2 4606   3.138   4.483   1.006
 1550TIP3    H1 4607   3.098   4.564   0.976
 1550TIP3    H2 4608   3.072   4.416   0.990
 1551TIP3   OH2 4609   3.263   4.969   1.207
 1551TIP3    H1 4610   3.254   4.956   1.301
 1551TIP3    H2 4611   3.176   4.950   1.172
 1552TIP3   OH2 4612   3.510   4.928   1.077
 1552TIP3    H1 4613   3.432   4.924   1.132
 1552TIP3    H2 4614   3.581   4.899   1.134
 1553TIP3   OH2 4615   3.739   4.880   1.228
 1553TIP3    H1 4616   3.755   4.786   1.235
 1553TIP3    H2 4617   3.737   4.911   1.318
 1554TIP3   OH2 4618   2.726   4.794   1.415
 1554TIP3    H1 4619   2.731   4.706   1.376
 1554TIP3    H2 4620   2.765   4.784   1.502
 1555TIP3   OH2 4621   3.207   4.472   1.270
 1555TIP3    H1 4622   3.278   4.408   1.265
 1555TIP3    H2 4623   3.176   4.480   1.180
 1556TIP3   OH2 4624   3.295   4.689   1.416
 1556TIP3    H1 4625   3.268   4.618   1.358
 1556TIP3    H2 4626   3.222   4.751   1.413
 1557TIP3   OH2 4627   7.728   1.296   6.682
 1557TIP3    H1 4628   7.780   1.317   6.605
 1557TIP3    H2 4629   7.676   1.220   6.656
 1558TIP3   OH2 4630   1.902   5.756   0.147
 1558TIP3    H1 4631   1.812   5.733   0.172
 1558TIP3    H2 4632   1.950   5.756   0.230
 1559TIP3   OH2 4633   2.072   5.762   0.363
 1559TIP3    H1 4634   2.098   5.687   0.417
 1559TIP3    H2 4635   2.126   5.834   0.396
 1560TIP3   OH2 4636   3.698   6.189   0.451
 1560TIP3    H1 4637   3.659   6.102   0.449
 1560TIP3    H2 4638   3.790   6.175   0.429
 1561TIP3   OH2 4639   3.852   5.876   0.977
 1561TIP3    H1 4640   3.787   5.876   1.047
 1561TIP3    H2 4641   3.900   5.958   0.989
 1562TIP3   OH2 4642   3.777   5.627   0.233
 1562TIP3    H1 4643   3.847   5.600   0.173
 1562TIP3    H2 4644   3.721   5.683   0.179
 1563TIP3   OH2 4645   3.595   5.928   0.442
 1563TIP3    H1 4646   3.523   5.946   0.503
 1563TIP3    H2 4647   3.556   5.874   0.374
 1564TIP3   OH2 4648   0.866   1.046   6.898
 1564TIP3    H1 4649   0.772   1.031   6.889
 1564TIP3    H2 4650   0.873   1.115   6.964
 1565TIP3   OH2 4651   2.236   5.211   0.711
 1565TIP3    H1 4652   2.227   5.163   0.628
 1565TIP3    H2 4653   2.328   5.201   0.734
 1566TIP3   OH2 4654   3.883   5.497   0.828
 1566TIP3    H1 4655   3.951   5.430   0.829
 1566TIP3    H2 4656   3.919   5.566   0.772
 1567TIP3   OH2 4657   4.076   5.308   0.860
 1567TIP3    H1 4658   4.000   5.256   0.885
 1567TIP3    H2 4659   4.150   5.247   0.863
 1568TIP3   OH2 4660   0.807   0.788   6.701
 1568TIP3    H1 4661   0.837   0.706   6.741
 1568TIP3    H2 4662   0.841   0.856   6.759
 1569TIP3   OH2 4663   3.751   4.979   0.353
 1569TIP3    H1 4664   3.838   4.997   0.318
 1569TIP3    H2 4665   3.756   5.010   0.444
 1570TIP3   OH2 4666   3.826   5.109   0.599
 1570TIP3    H1 4667   3.749   5.147   0.641
 1570TIP3    H2 4668   3.861   5.179   0.544
 1571TIP3   OH2 4669   2.461   4.848   1.362
 1571TIP3    H1 4670   2.555   4.843   1.376
 1571TIP3    H2 4671   2.428   4.765   1.399
 1572TIP3   OH2 4672   4.283   4.733   1.115
 1572TIP3    H1 4673   4.357   4.679   1.087
 1572TIP3    H2 4674   4.261   4.785   1.037
 1573TIP3   OH2 4675   0.882   0.552   6.826
 1573TIP3    H1 4676   0.935   0.540   6.905
 1573TIP3    H2 4677   0.818   0.481   6.829
 1574TIP3   OH2 4678   2.429   4.564   0.713
 1574TIP3    H1 4679   2.482   4.485   0.715
 1574TIP3    H2 4680   2.491   4.634   0.692
 1575TIP3   OH2 4681   2.220   4.836   0.769
 1575TIP3    H1 4682   2.263   4.827   0.684
 1575TIP3    H2 4683   2.286   4.878   0.824
 1576TIP3   OH2 4684   4.152   4.858   0.908
 1576TIP3    H1 4685   4.066   4.896   0.927
 1576TIP3    H2 4686   4.132   4.778   0.860
 1577TIP3   OH2 4687   2.237   4.370   0.282
 1577TIP3    H1 4688   2.148   4.359   0.315
 1577TIP3    H2 4689   2.226   4.415   0.198
 1578TIP3   OH2 4690   2.425   4.401   1.093
 1578TIP3    H1 4691   2.371   4.390   1.172
 1578TIP3    H2 4692   2.367   4.444   1.030
 1579TIP3   OH2 4693   2.424   5.857   1.136
 1579TIP3    H1 4694   2.428   5.773   1.090
 1579TIP3    H2 4695   2.459   5.838   1.223
 1580TIP3   OH2 4696   2.663   5.892   0.711
 1580TIP3    H1 4697   2.613   5.965   0.675
 1580TIP3    H2 4698   2.749   5.897   0.668
 1581TIP3   OH2 4699   3.066   6.126   0.855
 1581TIP3    H1 4700   3.107   6.119   0.941
 1581TIP3    H2 4701   3.126   6.181   0.804
 1582TIP3   OH2 4702   3.242   6.295   0.727
 1582TIP3    H1 4703   3.310   6.276   0.662
 1582TIP3    H2 4704   3.288   6.346   0.794
 1583TIP3   OH2 4705   4.056   4.616   0.806
 1583TIP3    H1 4706   3.970   4.616   0.764
 1583TIP3    H2 4707   4.086   4.525   0.799
 1584TIP3   OH2 4708   2.317   6.129   0.719
 1584TIP3    H1 4709   2.224   6.151   0.715
 1584TIP3    H2 4710   2.349   6.174   0.796
 1585TIP3   OH2 4711   2.558   6.116   0.592
 1585TIP3    H1 4712   2.473   6.127   0.635
 1585TIP3    H2 4713   2.545   6.148   0.503
 1586TIP3   OH2 4714   2.964   6.143   0.399
 1586TIP3    H1 4715   2.895   6.161   0.335
 1586TIP3    H2 4716   2.980   6.227   0.441
 1587TIP3   OH2 4717   3.214   6.053   0.451
 1587TIP3    H1 4718   3.125   6.086   0.437
 1587TIP3    H2 4719   3.270   6.111   0.399
 1588TIP3   OH2 4720   3.400   6.207   0.339
 1588TIP3    H1 4721   3.393   6.303   0.343
 1588TIP3    H2 4722   3.480   6.192   0.288
 1589TIP3   OH2 4723   2.247   5.949   0.497
 1589TIP3    H1 4724   2.286   5.993   0.573
 1589TIP3    H2 4725   2.320   5.902   0.457
 1590TIP3   OH2 4726   2.441   5.811   0.364
 1590TIP3    H1 4727   2.454   5.723   0.400
 1590TIP3    H2 4728   2.529   5.846   0.355
 1591TIP3   OH2 4729   2.712   5.889   0.358
 1591TIP3    H1 4730   2.728   5.796   0.343
 1591TIP3    H2 4731   2.766   5.911   0.433
 1592TIP3   OH2 4732   3.266   4.545   0.448
 1592TIP3    H1 4733   3.226   4.471   0.494
 1592TIP3    H2 4734   3.336   4.506   0.396
 1593TIP3   OH2 4735   3.770   4.448   0.342
 1593TIP3    H1 4736   3.811   4.496   0.270
 1593TIP3    H2 4737   3.680   4.481   0.345
 1594TIP3   OH2 4738   3.889   4.514   0.102
 1594TIP3    H1 4739   3.958   4.458   0.067
 1594TIP3    H2 4740   3.918   4.603   0.084
 1595TIP3   OH2 4741   2.526   4.249   0.438
 1595TIP3    H1 4742   2.436   4.217   0.452
 1595TIP3    H2 4743   2.579   4.169   0.435
 1596TIP3   OH2 4744   2.310   4.127   0.126
 1596TIP3    H1 4745   2.356   4.174   0.056
 1596TIP3    H2 4746   2.292   4.194   0.192
 1597TIP3   OH2 4747   2.982   4.285   0.337
 1597TIP3    H1 4748   3.031   4.332   0.269
 1597TIP3    H2 4749   3.023   4.313   0.419
 1598TIP3   OH2 4750   3.479   4.434   0.319
 1598TIP3    H1 4751   3.500   4.411   0.229
 1598TIP3    H2 4752   3.484   4.351   0.366
 1599TIP3   OH2 4753   0.697   0.353   6.853
 1599TIP3    H1 4754   0.613   0.400   6.857
 1599TIP3    H2 4755   0.678   0.267   6.891
 1600TIP3   OH2 4756   8.100   0.258   6.863
 1600TIP3    H1 4757   8.149   0.184   6.827
 1600TIP3    H2 4758   8.166   0.326   6.876
 1601TIP3   OH2 4759   0.095   0.447   6.894
 1601TIP3    H1 4760   0.156   0.398   6.949
 1601TIP3    H2 4761   0.106   0.538   6.920
 1602TIP3   OH2 4762   2.732   4.522   1.327
 1602TIP3    H1 4763   2.696   4.455   1.386
 1602TIP3    H2 4764   2.824   4.528   1.351
 1603TIP3   OH2 4765   2.983   4.526   1.444
 1603TIP3    H1 4766   3.061   4.506   1.393
 1603TIP3    H2 4767   2.978   4.454   1.508
 1604TIP3   OH2 4768   3.803   4.610   1.240
 1604TIP3    H1 4769   3.822   4.580   1.329
 1604TIP3    H2 4770   3.887   4.605   1.195
 1605TIP3   OH2 4771   3.681   6.146   0.774
 1605TIP3    H1 4772   3.604   6.125   0.721
 1605TIP3    H2 4773   3.674   6.240   0.791
 1606TIP3   OH2 4774   4.316   5.336   0.187
 1606TIP3    H1 4775   4.334   5.270   0.253
 1606TIP3    H2 4776   4.306   5.418   0.236
 1607TIP3   OH2 4777   4.076   5.037   0.035
 1607TIP3    H1 4778   4.170   5.052   0.024
 1607TIP3    H2 4779   4.035   5.107  -0.015
 1608TIP3   OH2 4780   4.561   4.827   0.417
 1608TIP3    H1 4781   4.506   4.859   0.345
 1608TIP3    H2 4782   4.521   4.862   0.496
 1609TIP3   OH2 4783   4.447   4.906   0.189
 1609TIP3    H1 4784   4.498   4.987   0.183
 1609TIP3    H2 4785   4.426   4.884   0.098
 1610TIP3   OH2 4786   4.873   4.603   0.109
 1610TIP3    H1 4787   4.885   4.509   0.098
 1610TIP3    H2 4788   4.780   4.613   0.131
 1611TIP3   OH2 4789   4.682   5.930   0.491
 1611TIP3    H1 4790   4.657   5.994   0.424
 1611TIP3    H2 4791   4.643   5.847   0.461
 1612TIP3   OH2 4792   4.443   5.520   0.573
 1612TIP3    H1 4793   4.414   5.611   0.566
 1612TIP3    H2 4794   4.405   5.488   0.655
 1613TIP3   OH2 4795   4.405   6.227   0.323
 1613TIP3    H1 4796   4.412   6.208   0.229
 1613TIP3    H2 4797   4.400   6.142   0.365
 1614TIP3   OH2 4798   4.089   5.720   0.335
 1614TIP3    H1 4799   4.081   5.747   0.243
 1614TIP3    H2 4800   4.153   5.648   0.333
 1615TIP3   OH2 4801   5.616   5.428   0.469
 1615TIP3    H1 4802   5.633   5.417   0.376
 1615TIP3    H2 4803   5.540   5.373   0.486
 1616TIP3   OH2 4804   4.620   4.663   0.202
 1616TIP3    H1 4805   4.533   4.629   0.179
 1616TIP3    H2 4806   4.603   4.723   0.275
 1617TIP3   OH2 4807   5.203   4.757   0.379
 1617TIP3    H1 4808   5.266   4.746   0.450
 1617TIP3    H2 4809   5.124   4.790   0.420
 1618TIP3   OH2 4810   5.379   5.259   0.332
 1618TIP3    H1 4811   5.355   5.207   0.409
 1618TIP3    H2 4812   5.341   5.211   0.259
 1619TIP3   OH2 4813   4.569   5.150   0.186
 1619TIP3    H1 4814   4.589   5.165   0.278
 1619TIP3    H2 4815   4.573   5.236   0.146
 1620TIP3   OH2 4816   5.140   5.368   0.489
 1620TIP3    H1 4817   5.106   5.324   0.567
 1620TIP3    H2 4818   5.231   5.387   0.510
 1621TIP3   OH2 4819   4.357   5.186   0.418
 1621TIP3    H1 4820   4.353   5.262   0.476
 1621TIP3    H2 4821   4.335   5.111   0.475
 1622TIP3   OH2 4822   4.003   4.751   0.041
 1622TIP3    H1 4823   4.068   4.771   0.109
 1622TIP3    H2 4824   3.989   4.835  -0.004
 1623TIP3   OH2 4825   4.825   5.028   0.106
 1623TIP3    H1 4826   4.789   5.116   0.109
 1623TIP3    H2 4827   4.920   5.041   0.102
 1624TIP3   OH2 4828   4.884   5.743   0.282
 1624TIP3    H1 4829   4.968   5.727   0.325
 1624TIP3    H2 4830   4.906   5.800   0.208
 1625TIP3   OH2 4831   4.144   5.460   0.633
 1625TIP3    H1 4832   4.161   5.434   0.724
 1625TIP3    H2 4833   4.059   5.422   0.612
 1626TIP3   OH2 4834   4.988   5.564   0.638
 1626TIP3    H1 4835   4.902   5.523   0.637
 1626TIP3    H2 4836   5.017   5.562   0.547
 1627TIP3   OH2 4837   4.366   4.961   0.589
 1627TIP3    H1 4838   4.270   4.963   0.595
 1627TIP3    H2 4839   4.394   4.925   0.673
 1628TIP3   OH2 4840   4.158   6.052   0.224
 1628TIP3    H1 4841   4.234   5.998   0.245
 1628TIP3    H2 4842   4.162   6.125   0.286
 1629TIP3   OH2 4843   5.280   5.016   0.233
 1629TIP3    H1 4844   5.367   4.984   0.258
 1629TIP3    H2 4845   5.221   4.944   0.252
 1630TIP3   OH2 4846   5.095   5.254   0.245
 1630TIP3    H1 4847   5.128   5.288   0.329
 1630TIP3    H2 4848   5.115   5.160   0.249
 1631TIP3   OH2 4849   4.360   4.586   0.196
 1631TIP3    H1 4850   4.334   4.557   0.109
 1631TIP3    H2 4851   4.363   4.505   0.248
 1632TIP3   OH2 4852   4.220   6.386   0.663
 1632TIP3    H1 4853   4.268   6.404   0.744
 1632TIP3    H2 4854   4.250   6.300   0.635
 1633TIP3   OH2 4855   4.509   6.317   0.669
 1633TIP3    H1 4856   4.597   6.285   0.647
 1633TIP3    H2 4857   4.450   6.246   0.644
 1634TIP3   OH2 4858   4.218   5.789   0.870
 1634TIP3    H1 4859   4.280   5.744   0.813
 1634TIP3    H2 4860   4.132   5.761   0.839
 1635TIP3   OH2 4861   4.942   5.845   0.544
 1635TIP3    H1 4862   4.848   5.848   0.530
 1635TIP3    H2 4863   4.955   5.779   0.612
 1636TIP3   OH2 4864   4.386   5.491   0.837
 1636TIP3    H1 4865   4.466   5.439   0.844
 1636TIP3    H2 4866   4.379   5.537   0.920
 1637TIP3   OH2 4867   4.591   5.375   0.387
 1637TIP3    H1 4868   4.554   5.439   0.447
 1637TIP3    H2 4869   4.669   5.417   0.352
 1638TIP3   OH2 4870   5.227   5.777   0.628
 1638TIP3    H1 4871   5.317   5.781   0.596
 1638TIP3    H2 4872   5.235   5.759   0.721
 1639TIP3   OH2 4873   4.756   5.147   0.724
 1639TIP3    H1 4874   4.793   5.059   0.717
 1639TIP3    H2 4875   4.700   5.156   0.647
 1640TIP3   OH2 4876   4.803   4.938   0.564
 1640TIP3    H1 4877   4.878   4.954   0.506
 1640TIP3    H2 4878   4.731   4.987   0.524
 1641TIP3   OH2 4879   4.811   5.485   0.272
 1641TIP3    H1 4880   4.903   5.487   0.248
 1641TIP3    H2 4881   4.777   5.572   0.248
 1642TIP3   OH2 4882   5.394   5.337   0.665
 1642TIP3    H1 4883   5.418   5.298   0.749
 1642TIP3    H2 4884   5.424   5.427   0.671
 1643TIP3   OH2 4885   4.611   5.325   0.869
 1643TIP3    H1 4886   4.555   5.290   0.939
 1643TIP3    H2 4887   4.648   5.248   0.826
 1644TIP3   OH2 4888   4.857   4.674   0.595
 1644TIP3    H1 4889   4.834   4.766   0.582
 1644TIP3    H2 4890   4.787   4.625   0.552
 1645TIP3   OH2 4891   5.059   5.214   0.700
 1645TIP3    H1 4892   5.078   5.210   0.794
 1645TIP3    H2 4893   4.966   5.195   0.693
 1646TIP3   OH2 4894   5.261   5.103   0.542
 1646TIP3    H1 4895   5.195   5.155   0.587
 1646TIP3    H2 4896   5.321   5.076   0.611
 1647TIP3   OH2 4897   5.672   5.121   0.873
 1647TIP3    H1 4898   5.639   5.040   0.836
 1647TIP3    H2 4899   5.593   5.170   0.898
 1648TIP3   OH2 4900   4.518   5.034   0.910
 1648TIP3    H1 4901   4.529   4.947   0.871
 1648TIP3    H2 4902   4.562   5.029   0.994
 1649TIP3   OH2 4903   5.008   4.704   0.816
 1649TIP3    H1 4904   5.076   4.637   0.808
 1649TIP3    H2 4905   4.951   4.690   0.741
 1650TIP3   OH2 4906   5.107   4.951   0.877
 1650TIP3    H1 4907   5.074   4.861   0.883
 1650TIP3    H2 4908   5.034   5.004   0.909
 1651TIP3   OH2 4909   4.027   5.361   0.220
 1651TIP3    H1 4910   4.020   5.356   0.125
 1651TIP3    H2 4911   4.118   5.386   0.237
 1652TIP3   OH2 4912   4.258   5.107   0.861
 1652TIP3    H1 4913   4.353   5.100   0.872
 1652TIP3    H2 4914   4.225   5.022   0.890
 1653TIP3   OH2 4915   6.101   4.995   0.665
 1653TIP3    H1 4916   6.191   4.976   0.635
 1653TIP3    H2 4917   6.079   5.078   0.622
 1654TIP3   OH2 4918   4.189   4.795   0.241
 1654TIP3    H1 4919   4.247   4.719   0.233
 1654TIP3    H2 4920   4.247   4.870   0.234
 1655TIP3   OH2 4921   4.007   5.066   0.299
 1655TIP3    H1 4922   4.032   5.043   0.210
 1655TIP3    H2 4923   4.015   5.162   0.302
 1656TIP3   OH2 4924   5.799   5.156   0.375
 1656TIP3    H1 4925   5.712   5.148   0.415
 1656TIP3    H2 4926   5.806   5.079   0.318
 1657TIP3   OH2 4927   4.215   4.651   0.577
 1657TIP3    H1 4928   4.167   4.646   0.660
 1657TIP3    H2 4929   4.158   4.702   0.520
 1658TIP3   OH2 4930   4.184   6.034   0.755
 1658TIP3    H1 4931   4.151   5.997   0.673
 1658TIP3    H2 4932   4.199   5.958   0.811
 1659TIP3   OH2 4933   5.838   4.924   0.240
 1659TIP3    H1 4934   5.774   4.885   0.181
 1659TIP3    H2 4935   5.923   4.893   0.209
 1660TIP3   OH2 4936   4.223   6.412   0.213
 1660TIP3    H1 4937   4.148   6.469   0.199
 1660TIP3    H2 4938   4.193   6.350   0.280
 1661TIP3   OH2 4939   1.466   0.478   6.894
 1661TIP3    H1 4940   1.375   0.449   6.892
 1661TIP3    H2 4941   1.516   0.400   6.870
 1662TIP3   OH2 4942   4.545   4.764   0.830
 1662TIP3    H1 4943   4.505   4.698   0.887
 1662TIP3    H2 4944   4.636   4.769   0.858
 1663TIP3   OH2 4945   4.786   4.758   0.981
 1663TIP3    H1 4946   4.865   4.735   0.933
 1663TIP3    H2 4947   4.775   4.688   1.045
 1664TIP3   OH2 4948   5.523   4.766   0.799
 1664TIP3    H1 4949   5.555   4.746   0.887
 1664TIP3    H2 4950   5.597   4.808   0.756
 1665TIP3   OH2 4951   0.360   6.028   1.799
 1665TIP3    H1 4952   0.398   5.952   1.754
 1665TIP3    H2 4953   0.266   6.008   1.803
 1666TIP3   OH2 4954   1.878   6.349   0.599
 1666TIP3    H1 4955   1.864   6.443   0.606
 1666TIP3    H2 4956   1.924   6.337   0.516
 1667TIP3   OH2 4957   1.959   6.585   0.757
 1667TIP3    H1 4958   1.932   6.642   0.686
 1667TIP3    H2 4959   1.988   6.644   0.826
 1668TIP3   OH2 4960   1.690   6.245   0.775
 1668TIP3    H1 4961   1.612   6.300   0.764
 1668TIP3    H2 4962   1.750   6.275   0.706
 1669TIP3   OH2 4963   1.696   6.760   1.098
 1669TIP3    H1 4964   1.620   6.771   1.041
 1669TIP3    H2 4965   1.728   6.672   1.078
 1670TIP3   OH2 4966   1.227   6.119   1.109
 1670TIP3    H1 4967   1.299   6.088   1.164
 1670TIP3    H2 4968   1.151   6.067   1.137
 1671TIP3   OH2 4969   1.508   6.437   0.978
 1671TIP3    H1 4970   1.467   6.440   1.065
 1671TIP3    H2 4971   1.468   6.510   0.931
 1672TIP3   OH2 4972   1.178   6.758   1.333
 1672TIP3    H1 4973   1.167   6.664   1.341
 1672TIP3    H2 4974   1.265   6.776   1.369
 1673TIP3   OH2 4975   1.366   6.222   0.892
 1673TIP3    H1 4976   1.433   6.277   0.933
 1673TIP3    H2 4977   1.318   6.184   0.965
 1674TIP3   OH2 4978   1.763   6.530   0.965
 1674TIP3    H1 4979   1.684   6.475   0.964
 1674TIP3    H2 4980   1.811   6.504   0.886
 1675TIP3   OH2 4981   1.189   7.170   1.433
 1675TIP3    H1 4982   1.236   7.105   1.380
 1675TIP3    H2 4983   1.116   7.122   1.471
 1676TIP3   OH2 4984   1.502   6.748   1.326
 1676TIP3    H1 4985   1.540   6.660   1.325
 1676TIP3    H2 4986   1.568   6.804   1.285
 1677TIP3   OH2 4987   1.548   7.101   1.007
 1677TIP3    H1 4988   1.529   7.193   1.027
 1677TIP3    H2 4989   1.637   7.102   0.971
 1678TIP3   OH2 4990   0.983   5.984   1.144
 1678TIP3    H1 4991   0.899   6.007   1.104
 1678TIP3    H2 4992   0.993   5.891   1.127
 1679TIP3   OH2 4993   1.170   6.489   1.374
 1679TIP3    H1 4994   1.192   6.480   1.467
 1679TIP3    H2 4995   1.075   6.489   1.371
 1680TIP3   OH2 4996   1.388   6.474   1.213
 1680TIP3    H1 4997   1.308   6.475   1.266
 1680TIP3    H2 4998   1.458   6.453   1.276
 1681TIP3   OH2 4999   1.603   6.438   1.382
 1681TIP3    H1 5000   1.611   6.343   1.391
 1681TIP3    H2 5001   1.589   6.470   1.472
 1682TIP3   OH2 5002   1.061   6.036   1.407
 1682TIP3    H1 5003   1.128   5.969   1.403
 1682TIP3    H2 5004   1.012   6.027   1.325
 1683TIP3   OH2 5005   1.143   6.237   1.573
 1683TIP3    H1 5006   1.117   6.170   1.511
 1683TIP3    H2 5007   1.069   6.298   1.575
 1684TIP3   OH2 5008   1.705   7.411   1.133
 1684TIP3    H1 5009   1.616   7.386   1.157
 1684TIP3    H2 5010   1.708   7.505   1.149
 1685TIP3   OH2 5011   1.809   7.097   0.919
 1685TIP3    H1 5012   1.841   7.009   0.940
 1685TIP3    H2 5013   1.868   7.129   0.852
 1686TIP3   OH2 5014   1.917   6.858   0.969
 1686TIP3    H1 5015   1.850   6.818   1.024
 1686TIP3    H2 5016   1.995   6.804   0.982
 1687TIP3   OH2 5017   2.149   6.289   1.269
 1687TIP3    H1 5018   2.212   6.231   1.227
 1687TIP3    H2 5019   2.115   6.344   1.198
 1688TIP3   OH2 5020   2.007   6.426   1.082
 1688TIP3    H1 5021   1.935   6.472   1.125
 1688TIP3    H2 5022   1.965   6.357   1.031
 1689TIP3   OH2 5023   1.889   6.202   0.970
 1689TIP3    H1 5024   1.811   6.208   0.916
 1689TIP3    H2 5025   1.917   6.111   0.963
 1690TIP3   OH2 5026   1.727   5.954   0.436
 1690TIP3    H1 5027   1.780   6.030   0.414
 1690TIP3    H2 5028   1.637   5.984   0.426
 1691TIP3   OH2 5029   1.248   6.844   1.087
 1691TIP3    H1 5030   1.205   6.790   1.154
 1691TIP3    H2 5031   1.291   6.914   1.137
 1692TIP3   OH2 5032   0.860   6.096   1.678
 1692TIP3    H1 5033   0.914   6.057   1.609
 1692TIP3    H2 5034   0.805   6.023   1.709
 1693TIP3   OH2 5035   1.654   6.162   1.386
 1693TIP3    H1 5036   1.668   6.133   1.476
 1693TIP3    H2 5037   1.740   6.156   1.346
 1694TIP3   OH2 5038   2.212   6.989   0.454
 1694TIP3    H1 5039   2.215   6.911   0.509
 1694TIP3    H2 5040   2.253   6.963   0.372
 1695TIP3   OH2 5041   2.414   6.470   0.086
 1695TIP3    H1 5042   2.373   6.535   0.030
 1695TIP3    H2 5043   2.404   6.387   0.038
 1696TIP3   OH2 5044   3.675   6.793   0.174
 1696TIP3    H1 5045   3.740   6.848   0.130
 1696TIP3    H2 5046   3.716   6.769   0.257
 1697TIP3   OH2 5047   2.394   6.440   0.521
 1697TIP3    H1 5048   2.339   6.473   0.450
 1697TIP3    H2 5049   2.342   6.454   0.600
 1698TIP3   OH2 5050   2.529   7.224   0.290
 1698TIP3    H1 5051   2.488   7.268   0.364
 1698TIP3    H2 5052   2.563   7.296   0.236
 1699TIP3   OH2 5053   2.268   6.551   0.304
 1699TIP3    H1 5054   2.320   6.627   0.330
 1699TIP3    H2 5055   2.317   6.511   0.231
 1700TIP3   OH2 5056   3.345   6.481   0.343
 1700TIP3    H1 5057   3.257   6.478   0.305
 1700TIP3    H2 5058   3.396   6.532   0.280
 1701TIP3   OH2 5059   2.730   6.141   0.235
 1701TIP3    H1 5060   2.726   6.053   0.270
 1701TIP3    H2 5061   2.655   6.186   0.274
 1702TIP3   OH2 5062   3.047   7.139   0.449
 1702TIP3    H1 5063   3.100   7.076   0.498
 1702TIP3    H2 5064   3.014   7.089   0.374
 1703TIP3   OH2 5065   2.395   6.993   0.216
 1703TIP3    H1 5066   2.410   6.969   0.124
 1703TIP3    H2 5067   2.458   7.062   0.233
 1704TIP3   OH2 5068   2.588   7.489   0.532
 1704TIP3    H1 5069   2.595   7.577   0.568
 1704TIP3    H2 5070   2.496   7.466   0.545
 1705TIP3   OH2 5071   2.333   7.099   0.706
 1705TIP3    H1 5072   2.333   7.186   0.746
 1705TIP3    H2 5073   2.265   7.104   0.639
 1706TIP3   OH2 5074   3.530   6.996   0.575
 1706TIP3    H1 5075   3.501   7.032   0.492
 1706TIP3    H2 5076   3.537   6.902   0.560
 1707TIP3   OH2 5077   2.161   7.343   0.599
 1707TIP3    H1 5078   2.194   7.328   0.688
 1707TIP3    H2 5079   2.069   7.319   0.604
 1708TIP3   OH2 5080   2.503   6.243   0.356
 1708TIP3    H1 5081   2.417   6.218   0.320
 1708TIP3    H2 5082   2.485   6.322   0.407
 1709TIP3   OH2 5083   3.028   6.352   0.563
 1709TIP3    H1 5084   3.101   6.340   0.623
 1709TIP3    H2 5085   2.950   6.331   0.615
 1710TIP3   OH2 5086   3.210   6.752   0.438
 1710TIP3    H1 5087   3.200   6.722   0.528
 1710TIP3    H2 5088   3.225   6.846   0.445
 1711TIP3   OH2 5089   2.428   6.766   0.373
 1711TIP3    H1 5090   2.439   6.810   0.457
 1711TIP3    H2 5091   2.415   6.838   0.310
 1712TIP3   OH2 5092   2.998   6.980   0.710
 1712TIP3    H1 5093   2.981   6.906   0.768
 1712TIP3    H2 5094   3.090   7.003   0.726
 1713TIP3   OH2 5095   2.247   6.774   0.628
 1713TIP3    H1 5096   2.332   6.807   0.655
 1713TIP3    H2 5097   2.244   6.685   0.663
 1714TIP3   OH2 5098   2.969   6.956   0.254
 1714TIP3    H1 5099   2.930   6.905   0.182
 1714TIP3    H2 5100   2.949   6.905   0.332
 1715TIP3   OH2 5101   2.692   6.515  -0.007
 1715TIP3    H1 5102   2.609   6.497   0.037
 1715TIP3    H2 5103   2.754   6.455   0.034
 1716TIP3   OH2 5104   3.103   6.490   0.191
 1716TIP3    H1 5105   3.060   6.543   0.257
 1716TIP3    H2 5106   3.032   6.442   0.148
 1717TIP3   OH2 5107   2.288   7.347   0.839
 1717TIP3    H1 5108   2.368   7.369   0.888
 1717TIP3    H2 5109   2.219   7.348   0.905
 1718TIP3   OH2 5110   2.823   6.758   0.116
 1718TIP3    H1 5111   2.794   6.702   0.044
 1718TIP3    H2 5112   2.785   6.717   0.194
 1719TIP3   OH2 5113   8.069   2.204   6.929
 1719TIP3    H1 5114   8.012   2.130   6.951
 1719TIP3    H2 5115   8.153   2.163   6.907
 1720TIP3   OH2 5116   2.693   6.684   0.354
 1720TIP3    H1 5117   2.604   6.720   0.353
 1720TIP3    H2 5118   2.745   6.750   0.400
 1721TIP3   OH2 5119   2.858   7.408   0.459
 1721TIP3    H1 5120   2.885   7.380   0.547
 1721TIP3    H2 5121   2.770   7.444   0.472
 1722TIP3   OH2 5122   2.020   7.071   0.743
 1722TIP3    H1 5123   2.080   7.052   0.815
 1722TIP3    H2 5124   2.006   6.986   0.701
 1723TIP3   OH2 5125   2.762   7.111   0.731
 1723TIP3    H1 5126   2.725   7.099   0.644
 1723TIP3    H2 5127   2.852   7.081   0.723
 1724TIP3   OH2 5128   2.233   6.508   0.735
 1724TIP3    H1 5129   2.138   6.514   0.745
 1724TIP3    H2 5130   2.263   6.459   0.812
 1725TIP3   OH2 5131   2.995   6.589   0.429
 1725TIP3    H1 5132   3.080   6.633   0.432
 1725TIP3    H2 5133   3.008   6.508   0.479
 1726TIP3   OH2 5134   2.887   6.839   0.490
 1726TIP3    H1 5135   2.928   6.881   0.565
 1726TIP3    H2 5136   2.926   6.752   0.487
 1727TIP3   OH2 5137   3.500   6.741   0.472
 1727TIP3    H1 5138   3.418   6.692   0.466
 1727TIP3    H2 5139   3.544   6.724   0.389
 1728TIP3   OH2 5140   2.237   6.166   0.320
 1728TIP3    H1 5141   2.221   6.129   0.234
 1728TIP3    H2 5142   2.231   6.091   0.380
 1729TIP3   OH2 5143   2.061   7.300   0.994
 1729TIP3    H1 5144   2.099   7.216   0.971
 1729TIP3    H2 5145   1.996   7.280   1.061
 1730TIP3   OH2 5146   2.646   7.357   0.771
 1730TIP3    H1 5147   2.660   7.403   0.688
 1730TIP3    H2 5148   2.704   7.281   0.766
 1731TIP3   OH2 5149   3.109   7.406   0.329
 1731TIP3    H1 5150   3.168   7.439   0.397
 1731TIP3    H2 5151   3.025   7.396   0.373
 1732TIP3   OH2 5152   2.198   7.061   0.962
 1732TIP3    H1 5153   2.277   7.039   0.914
 1732TIP3    H2 5154   2.228   7.084   1.050
 1733TIP3   OH2 5155   2.500   6.913   0.599
 1733TIP3    H1 5156   2.449   6.980   0.645
 1733TIP3    H2 5157   2.569   6.962   0.554
 1734TIP3   OH2 5158   2.978   7.341   0.774
 1734TIP3    H1 5159   3.058   7.339   0.722
 1734TIP3    H2 5160   2.998   7.290   0.852
 1735TIP3   OH2 5161   2.644   6.735   0.757
 1735TIP3    H1 5162   2.652   6.655   0.705
 1735TIP3    H2 5163   2.605   6.798   0.696
 1736TIP3   OH2 5164   2.649   6.522   0.573
 1736TIP3    H1 5165   2.681   6.562   0.492
 1736TIP3    H2 5166   2.559   6.497   0.553
 1737TIP3   OH2 5167   2.684   7.066   0.466
 1737TIP3    H1 5168   2.772   7.042   0.438
 1737TIP3    H2 5169   2.652   7.125   0.398
 1738TIP3   OH2 5170   3.255   7.032   0.842
 1738TIP3    H1 5171   3.323   6.979   0.884
 1738TIP3    H2 5172   3.288   7.122   0.847
 1739TIP3   OH2 5173   3.195   7.315   0.620
 1739TIP3    H1 5174   3.161   7.264   0.546
 1739TIP3    H2 5175   3.288   7.295   0.621
 1740TIP3   OH2 5176   2.518   6.836   0.986
 1740TIP3    H1 5177   2.455   6.768   1.006
 1740TIP3    H2 5178   2.556   6.809   0.902
 1741TIP3   OH2 5179   2.772   6.289   0.651
 1741TIP3    H1 5180   2.731   6.372   0.624
 1741TIP3    H2 5181   2.706   6.223   0.631
 1742TIP3   OH2 5182   2.912   6.761   0.846
 1742TIP3    H1 5183   2.909   6.757   0.941
 1742TIP3    H2 5184   2.822   6.750   0.818
 1743TIP3   OH2 5185   3.149   6.705   0.698
 1743TIP3    H1 5186   3.072   6.712   0.754
 1743TIP3    H2 5187   3.223   6.700   0.758
 1744TIP3   OH2 5188   3.361   6.690   0.875
 1744TIP3    H1 5189   3.369   6.596   0.888
 1744TIP3    H2 5190   3.351   6.725   0.964
 1745TIP3   OH2 5191   2.368   6.610   1.051
 1745TIP3    H1 5192   2.374   6.522   1.015
 1745TIP3    H2 5193   2.405   6.602   1.139
 1746TIP3   OH2 5194   2.842   6.286   0.914
 1746TIP3    H1 5195   2.914   6.223   0.911
 1746TIP3    H2 5196   2.812   6.291   0.823
 1747TIP3   OH2 5197   2.930   6.505   1.055
 1747TIP3    H1 5198   2.904   6.434   0.997
 1747TIP3    H2 5199   2.857   6.567   1.052
 1748TIP3   OH2 5200   3.389   7.764   0.636
 1748TIP3    H1 5201   3.361   7.721   0.717
 1748TIP3    H2 5202   3.416   7.852   0.664
 1749TIP3   OH2 5203   3.392   7.206   0.444
 1749TIP3    H1 5204   3.459   7.258   0.490
 1749TIP3    H2 5205   3.395   7.239   0.354
 1750TIP3   OH2 5206   3.714   7.225   0.471
 1750TIP3    H1 5207   3.707   7.130   0.461
 1750TIP3    H2 5208   3.808   7.243   0.462
 1751TIP3   OH2 5209   2.107   6.667   0.992
 1751TIP3    H1 5210   2.201   6.663   1.007
 1751TIP3    H2 5211   2.074   6.583   1.026
 1752TIP3   OH2 5212   3.901   6.569   0.854
 1752TIP3    H1 5213   3.927   6.478   0.838
 1752TIP3    H2 5214   3.940   6.618   0.781
 1753TIP3   OH2 5215   2.048   6.357   0.378
 1753TIP3    H1 5216   2.113   6.289   0.361
 1753TIP3    H2 5217   2.094   6.439   0.360
 1754TIP3   OH2 5218   3.771   6.669   0.400
 1754TIP3    H1 5219   3.750   6.711   0.483
 1754TIP3    H2 5220   3.765   6.575   0.418
 1755TIP3   OH2 5221   2.053   6.190   0.736
 1755TIP3    H1 5222   2.018   6.204   0.824
 1755TIP3    H2 5223   2.000   6.246   0.680
 1756TIP3   OH2 5224   3.623   6.424   0.332
 1756TIP3    H1 5225   3.550   6.446   0.391
 1756TIP3    H2 5226   3.665   6.349   0.373
 1757TIP3   OH2 5227   2.885   6.330   0.094
 1757TIP3    H1 5228   2.835   6.269   0.147
 1757TIP3    H2 5229   2.938   6.275   0.036
 1758TIP3   OH2 5230   2.186   6.051   0.077
 1758TIP3    H1 5231   2.091   6.042   0.077
 1758TIP3    H2 5232   2.219   5.961   0.083
 1759TIP3   OH2 5233   8.304   2.058   6.921
 1759TIP3    H1 5234   8.383   2.041   6.870
 1759TIP3    H2 5235   8.336   2.086   7.006
 1760TIP3   OH2 5236   2.367   6.339   0.956
 1760TIP3    H1 5237   2.334   6.272   1.015
 1760TIP3    H2 5238   2.460   6.346   0.977
 1761TIP3   OH2 5239   2.616   6.341   1.077
 1761TIP3    H1 5240   2.697   6.323   1.029
 1761TIP3    H2 5241   2.616   6.277   1.148
 1762TIP3   OH2 5242   3.406   6.422   0.909
 1762TIP3    H1 5243   3.423   6.392   0.999
 1762TIP3    H2 5244   3.491   6.421   0.867
 1763TIP3   OH2 5245   3.946   7.537   0.333
 1763TIP3    H1 5246   3.967   7.586   0.413
 1763TIP3    H2 5247   3.866   7.578   0.301
 1764TIP3   OH2 5248   3.986   7.296   0.527
 1764TIP3    H1 5249   4.014   7.216   0.483
 1764TIP3    H2 5250   4.064   7.352   0.525
 1765TIP3   OH2 5251   4.320   7.043   0.346
 1765TIP3    H1 5252   4.313   7.057   0.440
 1765TIP3    H2 5253   4.390   6.979   0.336
 1766TIP3   OH2 5254   4.174   6.879   0.551
 1766TIP3    H1 5255   4.233   6.835   0.490
 1766TIP3    H2 5256   4.229   6.900   0.627
 1767TIP3   OH2 5257   4.646   6.768   0.495
 1767TIP3    H1 5258   4.675   6.712   0.424
 1767TIP3    H2 5259   4.598   6.839   0.452
 1768TIP3   OH2 5260   3.995   6.808   0.341
 1768TIP3    H1 5261   4.066   6.793   0.403
 1768TIP3    H2 5262   3.932   6.738   0.359
 1769TIP3   OH2 5263   3.751   6.540   0.120
 1769TIP3    H1 5264   3.710   6.495   0.194
 1769TIP3    H2 5265   3.713   6.627   0.120
 1770TIP3   OH2 5266   4.133   6.570   0.450
 1770TIP3    H1 5267   4.162   6.485   0.484
 1770TIP3    H2 5268   4.213   6.609   0.415
 1771TIP3   OH2 5269   4.439   6.602   0.726
 1771TIP3    H1 5270   4.465   6.558   0.645
 1771TIP3    H2 5271   4.416   6.530   0.785
 1772TIP3   OH2 5272   1.292   0.042   3.971
 1772TIP3    H1 5273   1.311   0.007   4.058
 1772TIP3    H2 5274   1.377   0.072   3.938
 1773TIP3   OH2 5275   1.083   0.443   3.942
 1773TIP3    H1 5276   1.165   0.396   3.948
 1773TIP3    H2 5277   1.077   0.492   4.024
 1774TIP3   OH2 5278   7.808   7.559   4.499
 1774TIP3    H1 5279   7.772   7.631   4.448
 1774TIP3    H2 5280   7.840   7.600   4.580
 1775TIP3   OH2 5281   1.327   0.325   4.031
 1775TIP3    H1 5282   1.288   0.243   4.062
 1775TIP3    H2 5283   1.409   0.299   3.991
 1776TIP3   OH2 5284   1.789   0.144   4.493
 1776TIP3    H1 5285   1.721   0.083   4.464
 1776TIP3    H2 5286   1.760   0.229   4.461
 1777TIP3   OH2 5287   7.721   7.775   4.346
 1777TIP3    H1 5288   7.648   7.836   4.343
 1777TIP3    H2 5289   7.753   7.772   4.256
 1778TIP3   OH2 5290   1.169   0.178   4.207
 1778TIP3    H1 5291   1.121   0.260   4.218
 1778TIP3    H2 5292   1.224   0.172   4.285
 1779TIP3   OH2 5293   1.944   0.610   4.545
 1779TIP3    H1 5294   1.953   0.515   4.552
 1779TIP3    H2 5295   1.857   0.628   4.580
 1780TIP3   OH2 5296   1.029   0.297   4.652
 1780TIP3    H1 5297   1.100   0.348   4.691
 1780TIP3    H2 5298   0.980   0.262   4.726
 1781TIP3   OH2 5299   7.472   7.700   4.893
 1781TIP3    H1 5300   7.413   7.772   4.872
 1781TIP3    H2 5301   7.418   7.622   4.886
 1782TIP3   OH2 5302   1.631   0.931   4.628
 1782TIP3    H1 5303   1.632   0.937   4.533
 1782TIP3    H2 5304   1.713   0.971   4.656
 1783TIP3   OH2 5305   7.303   7.943   4.389
 1783TIP3    H1 5306   7.384   7.940   4.339
 1783TIP3    H2 5307   7.234   7.926   4.324
 1784TIP3   OH2 5308   1.421   0.384   4.613
 1784TIP3    H1 5309   1.335   0.350   4.640
 1784TIP3    H2 5310   1.458   0.423   4.692
 1785TIP3   OH2 5311   1.984   0.337   4.574
 1785TIP3    H1 5312   1.902   0.302   4.607
 1785TIP3    H2 5313   1.997   0.294   4.489
 1786TIP3   OH2 5314   7.127   7.856   4.151
 1786TIP3    H1 5315   7.070   7.856   4.229
 1786TIP3    H2 5316   7.079   7.803   4.087
 1787TIP3   OH2 5317   0.903   0.443   4.460
 1787TIP3    H1 5318   0.895   0.536   4.482
 1787TIP3    H2 5319   0.948   0.405   4.535
 1788TIP3   OH2 5320   1.290   0.162   4.450
 1788TIP3    H1 5321   1.274   0.101   4.522
 1788TIP3    H2 5322   1.384   0.175   4.449
 1789TIP3   OH2 5323   1.484   0.622   4.434
 1789TIP3    H1 5324   1.441   0.547   4.394
 1789TIP3    H2 5325   1.452   0.697   4.383
 1790TIP3   OH2 5326   1.527   0.680   4.067
 1790TIP3    H1 5327   1.480   0.661   3.986
 1790TIP3    H2 5328   1.618   0.688   4.040
 1791TIP3   OH2 5329   1.476   0.463   4.863
 1791TIP3    H1 5330   1.521   0.413   4.931
 1791TIP3    H2 5331   1.473   0.552   4.897
 1792TIP3   OH2 5332   1.556   0.158   4.692
 1792TIP3    H1 5333   1.631   0.135   4.636
 1792TIP3    H2 5334   1.523   0.240   4.656
 1793TIP3   OH2 5335   7.316   7.935   4.815
 1793TIP3    H1 5336   7.253   8.003   4.789
 1793TIP3    H2 5337   7.397   7.961   4.771
 1794TIP3   OH2 5338   1.788   0.644   4.025
 1794TIP3    H1 5339   1.816   0.681   4.109
 1794TIP3    H2 5340   1.850   0.679   3.961
 1795TIP3   OH2 5341   1.803   0.705   4.305
 1795TIP3    H1 5342   1.782   0.618   4.337
 1795TIP3    H2 5343   1.884   0.729   4.350
 1796TIP3   OH2 5344   1.798   0.362   4.871
 1796TIP3    H1 5345   1.722   0.365   4.930
 1796TIP3    H2 5346   1.835   0.450   4.877
 1797TIP3   OH2 5347   1.751   0.172   4.127
 1797TIP3    H1 5348   1.816   0.140   4.064
 1797TIP3    H2 5349   1.738   0.264   4.104
 1798TIP3   OH2 5350   1.701   0.448   4.387
 1798TIP3    H1 5351   1.638   0.511   4.422
 1798TIP3    H2 5352   1.682   0.444   4.293
 1799TIP3   OH2 5353   1.878   0.003   4.703
 1799TIP3    H1 5354   1.958  -0.049   4.697
 1799TIP3    H2 5355   1.872   0.047   4.618
 1800TIP3   OH2 5356   7.739   7.844   4.771
 1800TIP3    H1 5357   7.723   7.850   4.865
 1800TIP3    H2 5358   7.810   7.780   4.762
 1801TIP3   OH2 5359   7.318   7.453   4.273
 1801TIP3    H1 5360   7.347   7.403   4.197
 1801TIP3    H2 5361   7.375   7.530   4.273
 1802TIP3   OH2 5362   7.446   7.681   4.386
 1802TIP3    H1 5363   7.358   7.701   4.417
 1802TIP3    H2 5364   7.501   7.684   4.465
 1803TIP3   OH2 5365   1.260   0.547   3.612
 1803TIP3    H1 5366   1.321   0.493   3.562
 1803TIP3    H2 5367   1.308   0.571   3.691
 1804TIP3   OH2 5368   0.991   0.644   4.781
 1804TIP3    H1 5369   1.037   0.621   4.862
 1804TIP3    H2 5370   1.054   0.696   4.731
 1805TIP3   OH2 5371   1.221   0.753   4.667
 1805TIP3    H1 5372   1.290   0.729   4.606
 1805TIP3    H2 5373   1.257   0.828   4.716
 1806TIP3   OH2 5374   0.963   0.690   4.132
 1806TIP3    H1 5375   0.911   0.617   4.166
 1806TIP3    H2 5376   1.014   0.720   4.207
 1807TIP3   OH2 5377   1.233   0.592   4.131
 1807TIP3    H1 5378   1.155   0.572   4.182
 1807TIP3    H2 5379   1.270   0.669   4.173
 1808TIP3   OH2 5380   1.380   0.804   4.253
 1808TIP3    H1 5381   1.377   0.895   4.222
 1808TIP3    H2 5382   1.434   0.759   4.188
 1809TIP3   OH2 5383   1.688   0.657   4.625
 1809TIP3    H1 5384   1.605   0.630   4.586
 1809TIP3    H2 5385   1.669   0.742   4.665
 1810TIP3   OH2 5386   2.932   0.010   3.381
 1810TIP3    H1 5387   2.907   0.101   3.361
 1810TIP3    H2 5388   2.862  -0.042   3.341
 1811TIP3   OH2 5389   0.102   8.032   3.796
 1811TIP3    H1 5390   0.153   8.011   3.874
 1811TIP3    H2 5391   0.053   7.952   3.777
 1812TIP3   OH2 5392   7.924   7.972   4.160
 1812TIP3    H1 5393   7.964   7.915   4.226
 1812TIP3    H2 5394   7.995   8.030   4.134
 1813TIP3   OH2 5395   3.205   0.324   3.468
 1813TIP3    H1 5396   3.186   0.264   3.541
 1813TIP3    H2 5397   3.229   0.406   3.510
 1814TIP3   OH2 5398   2.220   0.298   3.854
 1814TIP3    H1 5399   2.204   0.204   3.859
 1814TIP3    H2 5400   2.314   0.306   3.836
 1815TIP3   OH2 5401   7.675   7.896   3.843
 1815TIP3    H1 5402   7.685   7.833   3.773
 1815TIP3    H2 5403   7.752   7.952   3.837
 1816TIP3   OH2 5404   2.859   0.768   3.480
 1816TIP3    H1 5405   2.892   0.697   3.426
 1816TIP3    H2 5406   2.819   0.725   3.556
 1817TIP3   OH2 5407   2.752   0.235   3.808
 1817TIP3    H1 5408   2.797   0.156   3.779
 1817TIP3    H2 5409   2.821   0.292   3.839
 1818TIP3   OH2 5410   0.343   7.724   3.863
 1818TIP3    H1 5411   0.414   7.660   3.857
 1818TIP3    H2 5412   0.296   7.716   3.780
 1819TIP3   OH2 5413   8.113   7.398   3.845
 1819TIP3    H1 5414   8.095   7.453   3.769
 1819TIP3    H2 5415   8.028   7.358   3.865
 1820TIP3   OH2 5416   0.291   7.535   3.490
 1820TIP3    H1 5417   0.365   7.476   3.499
 1820TIP3    H2 5418   0.283   7.550   3.396
 1821TIP3   OH2 5419   7.849   7.564   3.860
 1821TIP3    H1 5420   7.923   7.596   3.913
 1821TIP3    H2 5421   7.837   7.630   3.793
 1822TIP3   OH2 5422   8.219   7.801   3.735
 1822TIP3    H1 5423   8.313   7.789   3.749
 1822TIP3    H2 5424   8.187   7.714   3.710
 1823TIP3   OH2 5425   0.968   7.781   3.988
 1823TIP3    H1 5426   0.880   7.814   3.970
 1823TIP3    H2 5427   0.988   7.815   4.076
 1824TIP3   OH2 5428   2.848   0.233   3.234
 1824TIP3    H1 5429   2.805   0.210   3.151
 1824TIP3    H2 5430   2.796   0.306   3.268
 1825TIP3   OH2 5431   2.601   0.163   4.026
 1825TIP3    H1 5432   2.541   0.231   4.058
 1825TIP3    H2 5433   2.643   0.201   3.949
 1826TIP3   OH2 5434   8.075   7.619   3.999
 1826TIP3    H1 5435   8.147   7.657   4.049
 1826TIP3    H2 5436   8.114   7.545   3.953
 1827TIP3   OH2 5437   2.435   0.358   4.123
 1827TIP3    H1 5438   2.423   0.442   4.079
 1827TIP3    H2 5439   2.363   0.353   4.186
 1828TIP3   OH2 5440   3.256   0.567   3.605
 1828TIP3    H1 5441   3.172   0.556   3.651
 1828TIP3    H2 5442   3.249   0.653   3.563
 1829TIP3   OH2 5443   2.954   0.598   3.278
 1829TIP3    H1 5444   3.003   0.517   3.265
 1829TIP3    H2 5445   3.012   0.667   3.245
 1830TIP3   OH2 5446   3.093   0.365   3.217
 1830TIP3    H1 5447   3.016   0.307   3.220
 1830TIP3    H2 5448   3.142   0.345   3.297
 1831TIP3   OH2 5449   3.482   0.459   3.962
 1831TIP3    H1 5450   3.464   0.385   3.903
 1831TIP3    H2 5451   3.463   0.537   3.910
 1832TIP3   OH2 5452   8.432   7.879   3.213
 1832TIP3    H1 5453   8.351   7.924   3.190
 1832TIP3    H2 5454   8.476   7.863   3.130
 1833TIP3   OH2 5455   3.670   0.140   3.828
 1833TIP3    H1 5456   3.583   0.180   3.829
 1833TIP3    H2 5457   3.698   0.143   3.737
 1834TIP3   OH2 5458   0.292   7.978   3.193
 1834TIP3    H1 5459   0.228   7.998   3.262
 1834TIP3    H2 5460   0.376   7.976   3.239
 1835TIP3   OH2 5461   3.336   0.002   4.091
 1835TIP3    H1 5462   3.325   0.080   4.145
 1835TIP3    H2 5463   3.249  -0.015   4.054
 1836TIP3   OH2 5464   8.032   7.955   3.609
 1836TIP3    H1 5465   8.022   7.914   3.523
 1836TIP3    H2 5466   8.100   7.904   3.652
 1837TIP3   OH2 5467   2.476   0.305   3.754
 1837TIP3    H1 5468   2.457   0.327   3.662
 1837TIP3    H2 5469   2.571   0.293   3.756
 1838TIP3   OH2 5470   8.147   7.941   3.964
 1838TIP3    H1 5471   8.178   7.900   3.883
 1838TIP3    H2 5472   8.198   8.022   3.971
 1839TIP3   OH2 5473   3.029   0.548   3.749
 1839TIP3    H1 5474   3.006   0.632   3.790
 1839TIP3    H2 5475   3.003   0.482   3.813
 1840TIP3   OH2 5476   2.630   0.460   4.292
 1840TIP3    H1 5477   2.571   0.523   4.334
 1840TIP3    H2 5478   2.574   0.411   4.232
 1841TIP3   OH2 5479   0.144   7.812   3.027
 1841TIP3    H1 5480   0.196   7.877   3.074
 1841TIP3    H2 5481   0.168   7.824   2.935
 1842TIP3   OH2 5482   2.402   0.059   4.404
 1842TIP3    H1 5483   2.410   0.145   4.445
 1842TIP3    H2 5484   2.311   0.033   4.421
 1843TIP3   OH2 5485   2.710   0.458   3.293
 1843TIP3    H1 5486   2.777   0.527   3.296
 1843TIP3    H2 5487   2.628   0.504   3.313
 1844TIP3   OH2 5488   2.429   0.629   4.372
 1844TIP3    H1 5489   2.398   0.633   4.282
 1844TIP3    H2 5490   2.350   0.610   4.423
 1845TIP3   OH2 5491   3.271   0.419   2.618
 1845TIP3    H1 5492   3.275   0.513   2.598
 1845TIP3    H2 5493   3.362   0.390   2.611
 1846TIP3   OH2 5494   2.049   0.203   4.335
 1846TIP3    H1 5495   2.028   0.177   4.245
 1846TIP3    H2 5496   2.086   0.124   4.375
 1847TIP3   OH2 5497   1.877   0.375   3.944
 1847TIP3    H1 5498   1.972   0.379   3.955
 1847TIP3    H2 5499   1.844   0.452   3.989
 1848TIP3   OH2 5500   3.720   0.828   4.029
 1848TIP3    H1 5501   3.724   0.733   4.039
 1848TIP3    H2 5502   3.638   0.854   4.071
 1849TIP3   OH2 5503   2.827   0.598   4.162
 1849TIP3    H1 5504   2.820   0.691   4.187
 1849TIP3    H2 5505   2.755   0.555   4.207
 1850TIP3   OH2 5506   2.598   0.693   3.085
 1850TIP3    H1 5507   2.533   0.742   3.033
 1850TIP3    H2 5508   2.557   0.683   3.170
 1851TIP3   OH2 5509   2.012   0.591   3.508
 1851TIP3    H1 5510   2.087   0.578   3.567
 1851TIP3    H2 5511   1.984   0.503   3.486
 1852TIP3   OH2 5512   2.802   0.636   2.738
 1852TIP3    H1 5513   2.855   0.563   2.707
 1852TIP3    H2 5514   2.827   0.646   2.830
 1853TIP3   OH2 5515   2.853   0.674   3.005
 1853TIP3    H1 5516   2.763   0.680   3.038
 1853TIP3    H2 5517   2.904   0.643   3.080
 1854TIP3   OH2 5518   0.747   7.979   4.254
 1854TIP3    H1 5519   0.677   8.044   4.249
 1854TIP3    H2 5520   0.711   7.901   4.212
 1855TIP3   OH2 5521   2.237   0.397   4.307
 1855TIP3    H1 5522   2.284   0.393   4.390
 1855TIP3    H2 5523   2.164   0.337   4.319
 1856TIP3   OH2 5524   0.564   7.771   4.245
 1856TIP3    H1 5525   0.495   7.784   4.310
 1856TIP3    H2 5526   0.525   7.799   4.162
 1857TIP3   OH2 5527   0.227   7.840   2.764
 1857TIP3    H1 5528   0.168   7.860   2.691
 1857TIP3    H2 5529   0.304   7.894   2.748
 1858TIP3   OH2 5530   8.246   7.767   4.152
 1858TIP3    H1 5531   8.183   7.770   4.224
 1858TIP3    H2 5532   8.217   7.836   4.092
 1859TIP3   OH2 5533   8.103   7.570   3.623
 1859TIP3    H1 5534   8.023   7.566   3.571
 1859TIP3    H2 5535   8.173   7.549   3.561
 1860TIP3   OH2 5536   0.022   7.683   3.383
 1860TIP3    H1 5537  -0.017   7.753   3.330
 1860TIP3    H2 5538   0.104   7.663   3.338
 1861TIP3   OH2 5539   0.255   7.959   4.424
 1861TIP3    H1 5540   0.220   7.891   4.481
 1861TIP3    H2 5541   0.345   7.972   4.454
 1862TIP3   OH2 5542   0.190   7.744   3.625
 1862TIP3    H1 5543   0.131   7.783   3.561
 1862TIP3    H2 5544   0.221   7.663   3.582
 1863TIP3   OH2 5545   8.042   7.782   4.335
 1863TIP3    H1 5546   8.052   7.817   4.424
 1863TIP3    H2 5547   8.001   7.696   4.347
 1864TIP3   OH2 5548   0.250   7.932   4.010
 1864TIP3    H1 5549   0.286   7.863   3.954
 1864TIP3    H2 5550   0.211   7.885   4.084
 1865TIP3   OH2 5551   3.431   1.157   4.113
 1865TIP3    H1 5552   3.367   1.212   4.069
 1865TIP3    H2 5553   3.451   1.203   4.195
 1866TIP3   OH2 5554   2.382   0.296   4.541
 1866TIP3    H1 5555   2.463   0.313   4.588
 1866TIP3    H2 5556   2.314   0.290   4.608
 1867TIP3   OH2 5557  -0.018   7.769   3.806
 1867TIP3    H1 5558   0.057   7.738   3.755
 1867TIP3    H2 5559  -0.011   7.722   3.889
 1868TIP3   OH2 5560   8.480   7.660   4.062
 1868TIP3    H1 5561   8.402   7.700   4.099
 1868TIP3    H2 5562   8.552   7.698   4.112
 1869TIP3   OH2 5563   2.536   0.026   3.169
 1869TIP3    H1 5564   2.458   0.058   3.124
 1869TIP3    H2 5565   2.523   0.052   3.261
 1870TIP3   OH2 5566   3.425   0.258   3.782
 1870TIP3    H1 5567   3.455   0.308   3.707
 1870TIP3    H2 5568   3.340   0.222   3.756
 1871TIP3   OH2 5569   2.943   0.335   4.194
 1871TIP3    H1 5570   2.984   0.332   4.280
 1871TIP3    H2 5571   2.901   0.421   4.190
 1872TIP3   OH2 5572   0.254   7.649   3.231
 1872TIP3    H1 5573   0.337   7.696   3.233
 1872TIP3    H2 5574   0.210   7.681   3.153
 1873TIP3   OH2 5575   2.243   0.016   3.845
 1873TIP3    H1 5576   2.277   0.005   3.756
 1873TIP3    H2 5577   2.314  -0.015   3.901
 1874TIP3   OH2 5578   2.690   0.175   2.997
 1874TIP3    H1 5579   2.646   0.259   3.002
 1874TIP3    H2 5580   2.640   0.118   3.056
 1875TIP3   OH2 5581   7.812   8.000   4.490
 1875TIP3    H1 5582   7.856   7.987   4.574
 1875TIP3    H2 5583   7.783   7.913   4.464
 1876TIP3   OH2 5584   2.853   0.092   4.489
 1876TIP3    H1 5585   2.781   0.040   4.454
 1876TIP3    H2 5586   2.931   0.058   4.445
 1877TIP3   OH2 5587   3.094   0.606   4.079
 1877TIP3    H1 5588   2.999   0.599   4.086
 1877TIP3    H2 5589   3.121   0.655   4.157
 1878TIP3   OH2 5590   0.653   7.710   2.970
 1878TIP3    H1 5591   0.588   7.663   2.918
 1878TIP3    H2 5592   0.665   7.793   2.925
 1879TIP3   OH2 5593   3.730   0.542   4.047
 1879TIP3    H1 5594   3.634   0.534   4.042
 1879TIP3    H2 5595   3.761   0.509   3.963
 1880TIP3   OH2 5596   3.209   0.488   2.901
 1880TIP3    H1 5597   3.181   0.428   2.970
 1880TIP3    H2 5598   3.225   0.433   2.826
 1881TIP3   OH2 5599   3.180   0.146   3.693
 1881TIP3    H1 5600   3.090   0.127   3.719
 1881TIP3    H2 5601   3.210   0.065   3.651
 1882TIP3   OH2 5602   2.369   0.370   3.500
 1882TIP3    H1 5603   2.405   0.445   3.453
 1882TIP3    H2 5604   2.274   0.379   3.492
 1883TIP3   OH2 5605   2.458   0.121   3.416
 1883TIP3    H1 5606   2.440   0.214   3.428
 1883TIP3    H2 5607   2.436   0.081   3.499
 1884TIP3   OH2 5608   2.639   0.665   3.960
 1884TIP3    H1 5609   2.667   0.732   3.897
 1884TIP3    H2 5610   2.718   0.642   4.007
 1885TIP3   OH2 5611   2.989   0.331   3.921
 1885TIP3    H1 5612   2.974   0.328   4.016
 1885TIP3    H2 5613   3.077   0.295   3.909
 1886TIP3   OH2 5614   2.965   0.218   2.793
 1886TIP3    H1 5615   3.029   0.185   2.856
 1886TIP3    H2 5616   2.880   0.197   2.832
 1887TIP3   OH2 5617   3.241   0.837   3.948
 1887TIP3    H1 5618   3.163   0.782   3.955
 1887TIP3    H2 5619   3.220   0.901   3.880
 1888TIP3   OH2 5620   3.277   0.691   2.561
 1888TIP3    H1 5621   3.365   0.709   2.596
 1888TIP3    H2 5622   3.221   0.752   2.609
 1889TIP3   OH2 5623   3.149   0.118   2.963
 1889TIP3    H1 5624   3.133   0.075   3.047
 1889TIP3    H2 5625   3.243   0.138   2.964
 1890TIP3   OH2 5626   2.077   0.576   4.101
 1890TIP3    H1 5627   2.139   0.523   4.150
 1890TIP3    H2 5628   2.084   0.664   4.139
 1891TIP3   OH2 5629   2.324   0.191   3.085
 1891TIP3    H1 5630   2.262   0.174   3.156
 1891TIP3    H2 5631   2.313   0.285   3.067
 1892TIP3   OH2 5632   2.555   0.413   2.997
 1892TIP3    H1 5633   2.467   0.418   3.035
 1892TIP3    H2 5634   2.599   0.492   3.027
 1893TIP3   OH2 5635   8.322   7.508   3.463
 1893TIP3    H1 5636   8.386   7.573   3.433
 1893TIP3    H2 5637   8.374   7.430   3.482
 1894TIP3   OH2 5638   0.177   7.778   4.229
 1894TIP3    H1 5639   0.187   7.853   4.287
 1894TIP3    H2 5640   0.193   7.702   4.285
 1895TIP3   OH2 5641   2.303   0.475   3.091
 1895TIP3    H1 5642   2.272   0.544   3.032
 1895TIP3    H2 5643   2.327   0.520   3.171
 1896TIP3   OH2 5644   0.411   7.912   3.592
 1896TIP3    H1 5645   0.336   7.856   3.609
 1896TIP3    H2 5646   0.482   7.875   3.644
 1897TIP3   OH2 5647   3.268   0.835   3.525
 1897TIP3    H1 5648   3.227   0.884   3.454
 1897TIP3    H2 5649   3.362   0.850   3.513
 1898TIP3   OH2 5650   1.917   0.338   3.452
 1898TIP3    H1 5651   1.831   0.352   3.492
 1898TIP3    H2 5652   1.900   0.334   3.358
 1899TIP3   OH2 5653   2.047   0.870   4.523
 1899TIP3    H1 5654   2.130   0.872   4.569
 1899TIP3    H2 5655   2.016   0.780   4.533
 1900TIP3   OH2 5656   2.517   0.798   4.571
 1900TIP3    H1 5657   2.612   0.785   4.579
 1900TIP3    H2 5658   2.491   0.742   4.498
 1901TIP3   OH2 5659   2.509   0.387   2.722
 1901TIP3    H1 5660   2.516   0.381   2.817
 1901TIP3    H2 5661   2.539   0.302   2.690
 1902TIP3   OH2 5662   3.146   0.729   4.319
 1902TIP3    H1 5663   3.159   0.662   4.386
 1902TIP3    H2 5664   3.217   0.792   4.333
 1903TIP3   OH2 5665   2.958   0.436   2.629
 1903TIP3    H1 5666   2.962   0.368   2.696
 1903TIP3    H2 5667   3.049   0.447   2.602
 1904TIP3   OH2 5668   2.190   0.273   4.740
 1904TIP3    H1 5669   2.174   0.183   4.767
 1904TIP3    H2 5670   2.114   0.297   4.688
 1905TIP3   OH2 5671   2.784   0.363   4.497
 1905TIP3    H1 5672   2.736   0.382   4.416
 1905TIP3    H2 5673   2.816   0.274   4.485
 1906TIP3   OH2 5674   2.658   0.123   2.727
 1906TIP3    H1 5675   2.668   0.139   2.821
 1906TIP3    H2 5676   2.614   0.039   2.721
 1907TIP3   OH2 5677   3.254   0.380   4.101
 1907TIP3    H1 5678   3.332   0.415   4.057
 1907TIP3    H2 5679   3.189   0.449   4.094
 1908TIP3   OH2 5680   7.999   8.000   4.700
 1908TIP3    H1 5681   8.088   7.968   4.686
 1908TIP3    H2 5682   8.003   8.044   4.785
 1909TIP3   OH2 5683   8.316   7.952   4.384
 1909TIP3    H1 5684   8.231   7.996   4.383
 1909TIP3    H2 5685   8.352   7.968   4.297
 1910TIP3   OH2 5686   3.133   0.280   4.479
 1910TIP3    H1 5687   3.193   0.233   4.421
 1910TIP3    H2 5688   3.126   0.223   4.556
 1911TIP3   OH2 5689   0.445   7.958   2.640
 1911TIP3    H1 5690   0.417   7.910   2.562
 1911TIP3    H2 5691   0.413   8.047   2.627
 1912TIP3   OH2 5692   8.367   7.711   4.495
 1912TIP3    H1 5693   8.344   7.644   4.431
 1912TIP3    H2 5694   8.350   7.794   4.451
 1913TIP3   OH2 5695   2.788   0.017   4.161
 1913TIP3    H1 5696   2.872   0.052   4.131
 1913TIP3    H2 5697   2.723   0.069   4.116
 1914TIP3   OH2 5698   0.518   7.979   4.518
 1914TIP3    H1 5699   0.581   7.935   4.575
 1914TIP3    H2 5700   0.558   8.063   4.498
 1915TIP3   OH2 5701   3.383   0.217   4.273
 1915TIP3    H1 5702   3.323   0.274   4.225
 1915TIP3    H2 5703   3.470   0.242   4.242
 1916TIP3   OH2 5704   8.239   7.841   4.720
 1916TIP3    H1 5705   8.195   7.770   4.768
 1916TIP3    H2 5706   8.285   7.797   4.649
 1917TIP3   OH2 5707   0.139   7.746   4.550
 1917TIP3    H1 5708   0.145   7.721   4.642
 1917TIP3    H2 5709   0.047   7.732   4.527
 1918TIP3   OH2 5710   2.275   0.675   2.892
 1918TIP3    H1 5711   2.367   0.663   2.869
 1918TIP3    H2 5712   2.239   0.729   2.822
 1919TIP3   OH2 5713   1.645   0.643   3.518
 1919TIP3    H1 5714   1.655   0.583   3.444
 1919TIP3    H2 5715   1.688   0.598   3.591
 1920TIP3   OH2 5716   1.782   0.520   3.719
 1920TIP3    H1 5717   1.785   0.449   3.782
 1920TIP3    H2 5718   1.857   0.576   3.742
 1921TIP3   OH2 5719   3.538   0.894   3.521
 1921TIP3    H1 5720   3.547   0.912   3.615
 1921TIP3    H2 5721   3.573   0.971   3.478
 1922TIP3   OH2 5722   3.548   0.922   3.797
 1922TIP3    H1 5723   3.506   0.837   3.802
 1922TIP3    H2 5724   3.616   0.919   3.865
 1923TIP3   OH2 5725   3.609   0.616   4.367
 1923TIP3    H1 5726   3.534   0.626   4.426
 1923TIP3    H2 5727   3.651   0.702   4.367
 1924TIP3   OH2 5728   3.422   0.158   2.970
 1924TIP3    H1 5729   3.484   0.225   2.940
 1924TIP3    H2 5730   3.459   0.126   3.053
 1925TIP3   OH2 5731   3.540   0.043   3.186
 1925TIP3    H1 5732   3.476   0.017   3.252
 1925TIP3    H2 5733   3.611   0.083   3.236
 1926TIP3   OH2 5734   3.606   0.399   3.616
 1926TIP3    H1 5735   3.648   0.331   3.563
 1926TIP3    H2 5736   3.601   0.475   3.559
 1927TIP3   OH2 5737   3.417   0.675   3.808
 1927TIP3    H1 5738   3.349   0.723   3.857
 1927TIP3    H2 5739   3.370   0.637   3.734
 1928TIP3   OH2 5740   0.642   7.946   2.828
 1928TIP3    H1 5741   0.573   7.945   2.762
 1928TIP3    H2 5742   0.622   8.022   2.883
 1929TIP3   OH2 5743   0.473   7.611   2.778
 1929TIP3    H1 5744   0.509   7.668   2.710
 1929TIP3    H2 5745   0.381   7.637   2.784
 1930TIP3   OH2 5746   0.522   7.938   3.345
 1930TIP3    H1 5747   0.530   7.846   3.322
 1930TIP3    H2 5748   0.486   7.937   3.434
 1931TIP3   OH2 5749   2.006   0.054   4.072
 1931TIP3    H1 5750   1.980   0.008   3.992
 1931TIP3    H2 5751   2.097   0.029   4.085
 1932TIP3   OH2 5752   3.632   0.280   4.179
 1932TIP3    H1 5753   3.706   0.223   4.157
 1932TIP3    H2 5754   3.637   0.352   4.116
 1933TIP3   OH2 5755   3.817   0.075   4.172
 1933TIP3    H1 5756   3.731   0.039   4.196
 1933TIP3    H2 5757   3.879   0.008   4.199
 1934TIP3   OH2 5758   0.530   7.694   3.217
 1934TIP3    H1 5759   0.513   7.601   3.208
 1934TIP3    H2 5760   0.578   7.718   3.138
 1935TIP3   OH2 5761   0.635   7.837   3.723
 1935TIP3    H1 5762   0.713   7.853   3.671
 1935TIP3    H2 5763   0.660   7.860   3.813
 1936TIP3   OH2 5764   0.733   7.930   3.960
 1936TIP3    H1 5765   0.653   7.963   4.001
 1936TIP3    H2 5766   0.774   8.008   3.923
 1937TIP3   OH2 5767   7.902   7.623   4.755
 1937TIP3    H1 5768   7.961   7.658   4.822
 1937TIP3    H2 5769   7.882   7.534   4.784
 1938TIP3   OH2 5770   7.638   7.541   4.206
 1938TIP3    H1 5771   7.653   7.580   4.120
 1938TIP3    H2 5772   7.624   7.616   4.264
 1939TIP3   OH2 5773   3.100   0.790   3.159
 1939TIP3    H1 5774   3.157   0.784   3.082
 1939TIP3    H2 5775   3.138   0.859   3.212
 1940TIP3   OH2 5776   2.222   0.587   4.553
 1940TIP3    H1 5777   2.127   0.590   4.540
 1940TIP3    H2 5778   2.233   0.581   4.648
 1941TIP3   OH2 5779   2.401   0.633   4.088
 1941TIP3    H1 5780   2.352   0.709   4.056
 1941TIP3    H2 5781   2.487   0.640   4.045
 1942TIP3   OH2 5782   2.807   0.868   4.228
 1942TIP3    H1 5783   2.846   0.867   4.316
 1942TIP3    H2 5784   2.868   0.918   4.175
 1943TIP3   OH2 5785   2.991   1.015   4.088
 1943TIP3    H1 5786   3.062   0.970   4.042
 1943TIP3    H2 5787   3.035   1.074   4.149
 1944TIP3   OH2 5788   2.056   0.868   4.144
 1944TIP3    H1 5789   1.970   0.896   4.115
 1944TIP3    H2 5790   2.084   0.936   4.206
 1945TIP3   OH2 5791   2.290   0.865   3.993
 1945TIP3    H1 5792   2.206   0.868   4.038
 1945TIP3    H2 5793   2.272   0.896   3.905
 1946TIP3   OH2 5794   2.714   0.870   3.781
 1946TIP3    H1 5795   2.633   0.882   3.731
 1946TIP3    H2 5796   2.728   0.955   3.824
 1947TIP3   OH2 5797   2.981   0.810   3.826
 1947TIP3    H1 5798   2.888   0.828   3.809
 1947TIP3    H2 5799   3.028   0.881   3.782
 1948TIP3   OH2 5800   3.173   0.997   3.730
 1948TIP3    H1 5801   3.173   1.086   3.696
 1948TIP3    H2 5802   3.205   0.944   3.657
 1949TIP3   OH2 5803   2.003   0.663   3.847
 1949TIP3    H1 5804   2.033   0.636   3.933
 1949TIP3    H2 5805   2.068   0.629   3.786
 1950TIP3   OH2 5806   2.197   0.533   3.706
 1950TIP3    H1 5807   2.201   0.452   3.757
 1950TIP3    H2 5808   2.288   0.551   3.684
 1951TIP3   OH2 5809   1.704   0.478   3.297
 1951TIP3    H1 5810   1.642   0.433   3.240
 1951TIP3    H2 5811   1.726   0.558   3.248
 1952TIP3   OH2 5812   2.526   0.654   2.786
 1952TIP3    H1 5813   2.621   0.665   2.779
 1952TIP3    H2 5814   2.509   0.566   2.752
 1953TIP3   OH2 5815   3.252   0.758   2.927
 1953TIP3    H1 5816   3.245   0.662   2.924
 1953TIP3    H2 5817   3.216   0.787   2.844
 1954TIP3   OH2 5818   3.465   0.888   4.115
 1954TIP3    H1 5819   3.387   0.859   4.067
 1954TIP3    H2 5820   3.458   0.983   4.117
 1955TIP3   OH2 5821   4.731   0.260   2.886
 1955TIP3    H1 5822   4.714   0.353   2.873
 1955TIP3    H2 5823   4.661   0.216   2.838
 1956TIP3   OH2 5824   4.749   0.300   3.265
 1956TIP3    H1 5825   4.784   0.289   3.353
 1956TIP3    H2 5826   4.702   0.219   3.246
 1957TIP3   OH2 5827   4.029   0.175   3.626
 1957TIP3    H1 5828   4.068   0.122   3.695
 1957TIP3    H2 5829   4.104   0.217   3.583
 1958TIP3   OH2 5830   4.998   0.582   2.956
 1958TIP3    H1 5831   4.988   0.521   3.029
 1958TIP3    H2 5832   5.023   0.665   2.996
 1959TIP3   OH2 5833   4.025   0.566   3.329
 1959TIP3    H1 5834   4.006   0.472   3.330
 1959TIP3    H2 5835   4.120   0.571   3.317
 1960TIP3   OH2 5836   0.850   7.827   3.157
 1960TIP3    H1 5837   0.800   7.908   3.161
 1960TIP3    H2 5838   0.809   7.776   3.088
 1961TIP3   OH2 5839   3.777   0.124   3.301
 1961TIP3    H1 5840   3.842   0.059   3.325
 1961TIP3    H2 5841   3.828   0.201   3.276
 1962TIP3   OH2 5842   4.649   1.015   2.962
 1962TIP3    H1 5843   4.685   0.945   2.908
 1962TIP3    H2 5844   4.644   0.977   3.050
 1963TIP3   OH2 5845   4.541   0.501   3.293
 1963TIP3    H1 5846   4.584   0.425   3.254
 1963TIP3    H2 5847   4.612   0.555   3.326
 1964TIP3   OH2 5848   2.084   8.023   3.322
 1964TIP3    H1 5849   2.097   7.928   3.314
 1964TIP3    H2 5850   2.039   8.049   3.242
 1965TIP3   OH2 5851   1.528   7.578   3.240
 1965TIP3    H1 5852   1.503   7.631   3.315
 1965TIP3    H2 5853   1.445   7.561   3.194
 1966TIP3   OH2 5854   2.065   7.713   2.993
 1966TIP3    H1 5855   2.157   7.714   3.020
 1966TIP3    H2 5856   2.064   7.761   2.910
 1967TIP3   OH2 5857   1.142   7.983   3.396
 1967TIP3    H1 5858   1.172   7.961   3.485
 1967TIP3    H2 5859   1.187   7.920   3.340
 1968TIP3   OH2 5860   4.355   0.108   3.207
 1968TIP3    H1 5861   4.450   0.096   3.210
 1968TIP3    H2 5862   4.321   0.029   3.166
 1969TIP3   OH2 5863   5.624   0.062   3.544
 1969TIP3    H1 5864   5.546   0.101   3.505
 1969TIP3    H2 5865   5.598  -0.029   3.562
 1970TIP3   OH2 5866   4.642   0.487   2.728
 1970TIP3    H1 5867   4.607   0.461   2.643
 1970TIP3    H2 5868   4.589   0.562   2.753
 1971TIP3   OH2 5869   4.394   0.426   3.516
 1971TIP3    H1 5870   4.334   0.493   3.550
 1971TIP3    H2 5871   4.436   0.467   3.441
 1972TIP3   OH2 5872   1.287   7.827   3.580
 1972TIP3    H1 5873   1.363   7.885   3.578
 1972TIP3    H2 5874   1.292   7.778   3.498
 1973TIP3   OH2 5875   4.222   0.617   3.614
 1973TIP3    H1 5876   4.207   0.706   3.582
 1973TIP3    H2 5877   4.145   0.597   3.666
 1974TIP3   OH2 5878   3.611   0.329   2.856
 1974TIP3    H1 5879   3.570   0.343   2.771
 1974TIP3    H2 5880   3.631   0.417   2.887
 1975TIP3   OH2 5881   5.046   0.823   3.096
 1975TIP3    H1 5882   4.960   0.815   3.137
 1975TIP3    H2 5883   5.044   0.908   3.052
 1976TIP3   OH2 5884   4.753   0.850   2.763
 1976TIP3    H1 5885   4.805   0.771   2.747
 1976TIP3    H2 5886   4.807   0.922   2.732
 1977TIP3   OH2 5887   4.889   0.618   2.706
 1977TIP3    H1 5888   4.814   0.559   2.709
 1977TIP3    H2 5889   4.938   0.600   2.786
 1978TIP3   OH2 5890   5.273   0.720   3.449
 1978TIP3    H1 5891   5.258   0.646   3.390
 1978TIP3    H2 5892   5.256   0.797   3.396
 1979TIP3   OH2 5893   4.564   0.129   2.711
 1979TIP3    H1 5894   4.483   0.174   2.688
 1979TIP3    H2 5895   4.611   0.119   2.629
 1980TIP3   OH2 5896   1.672   7.992   2.379
 1980TIP3    H1 5897   1.741   8.050   2.411
 1980TIP3    H2 5898   1.700   7.904   2.403
 1981TIP3   OH2 5899   5.463   0.396   3.315
 1981TIP3    H1 5900   5.376   0.438   3.316
 1981TIP3    H2 5901   5.492   0.402   3.224
 1982TIP3   OH2 5902   4.909   0.216   2.676
 1982TIP3    H1 5903   4.853   0.235   2.752
 1982TIP3    H2 5904   4.998   0.216   2.712
 1983TIP3   OH2 5905   5.158   0.273   3.581
 1983TIP3    H1 5906   5.143   0.346   3.641
 1983TIP3    H2 5907   5.072   0.255   3.544
 1984TIP3   OH2 5908   4.134   0.208   3.069
 1984TIP3    H1 5909   4.100   0.138   3.014
 1984TIP3    H2 5910   4.212   0.170   3.110
 1985TIP3   OH2 5911   4.284   0.608   3.222
 1985TIP3    H1 5912   4.262   0.591   3.131
 1985TIP3    H2 5913   4.372   0.571   3.233
 1986TIP3   OH2 5914   4.250   0.207   3.442
 1986TIP3    H1 5915   4.286   0.176   3.358
 1986TIP3    H2 5916   4.301   0.286   3.462
 1987TIP3   OH2 5917   4.811   0.812   3.231
 1987TIP3    H1 5918   4.794   0.894   3.276
 1987TIP3    H2 5919   4.793   0.744   3.296
 1988TIP3   OH2 5920   4.421   0.719   3.777
 1988TIP3    H1 5921   4.364   0.780   3.823
 1988TIP3    H2 5922   4.362   0.668   3.721
 1989TIP3   OH2 5923   4.741   0.086   2.500
 1989TIP3    H1 5924   4.802   0.142   2.547
 1989TIP3    H2 5925   4.773   0.085   2.410
 1990TIP3   OH2 5926   4.179   0.300   3.888
 1990TIP3    H1 5927   4.185   0.388   3.925
 1990TIP3    H2 5928   4.088   0.274   3.901
 1991TIP3   OH2 5929   4.504   0.730   2.751
 1991TIP3    H1 5930   4.586   0.778   2.765
 1991TIP3    H2 5931   4.439   0.798   2.733
 1992TIP3   OH2 5932   4.217   0.881   3.864
 1992TIP3    H1 5933   4.189   0.892   3.773
 1992TIP3    H2 5934   4.137   0.860   3.912
 1993TIP3   OH2 5935   4.003   0.030   2.884
 1993TIP3    H1 5936   3.935   0.084   2.843
 1993TIP3    H2 5937   3.956  -0.047   2.916
 1994TIP3   OH2 5938   5.073   0.666   2.122
 1994TIP3    H1 5939   5.070   0.760   2.102
 1994TIP3    H2 5940   5.164   0.641   2.106
 1995TIP3   OH2 5941   3.804   0.427   3.811
 1995TIP3    H1 5942   3.731   0.423   3.748
 1995TIP3    H2 5943   3.836   0.337   3.816
 1996TIP3   OH2 5944   3.648   0.635   3.463
 1996TIP3    H1 5945   3.740   0.656   3.477
 1996TIP3    H2 5946   3.601   0.714   3.492
 1997TIP3   OH2 5947   5.508   1.079   3.512
 1997TIP3    H1 5948   5.511   0.984   3.526
 1997TIP3    H2 5949   5.427   1.107   3.555
 1998TIP3   OH2 5950   4.612   0.855   3.634
 1998TIP3    H1 5951   4.609   0.947   3.662
 1998TIP3    H2 5952   4.543   0.812   3.686
 1999TIP3   OH2 5953   4.387   0.966   2.585
 1999TIP3    H1 5954   4.346   0.960   2.499
 1999TIP3    H2 5955   4.356   1.049   2.621
 2000TIP3   OH2 5956   3.826   0.835   2.967
 2000TIP3    H1 5957   3.871   0.825   3.051
 2000TIP3    H2 5958   3.778   0.753   2.957
 2001TIP3   OH2 5959   4.596   0.896   2.220
 2001TIP3    H1 5960   4.650   0.826   2.185
 2001TIP3    H2 5961   4.628   0.908   2.310
 2002TIP3   OH2 5962   4.644   0.937   2.490
 2002TIP3    H1 5963   4.559   0.942   2.533
 2002TIP3    H2 5964   4.705   0.911   2.559
 2003TIP3   OH2 5965   5.403   0.225   3.749
 2003TIP3    H1 5966   5.335   0.288   3.726
 2003TIP3    H2 5967   5.379   0.145   3.702
 2004TIP3   OH2 5968   4.003   0.617   3.780
 2004TIP3    H1 5969   4.045   0.619   3.865
 2004TIP3    H2 5970   3.932   0.554   3.789
 2005TIP3   OH2 5971   2.465   7.989   3.693
 2005TIP3    H1 5972   2.398   7.972   3.760
 2005TIP3    H2 5973   2.419   7.978   3.610
 2006TIP3   OH2 5974   4.821   0.072   2.244
 2006TIP3    H1 5975   4.783   0.065   2.156
 2006TIP3    H2 5976   4.906   0.114   2.230
 2007TIP3   OH2 5977   4.308   0.009   3.616
 2007TIP3    H1 5978   4.268   0.034   3.700
 2007TIP3    H2 5979   4.281   0.078   3.556
 2008TIP3   OH2 5980   1.380   7.931   3.080
 2008TIP3    H1 5981   1.287   7.909   3.081
 2008TIP3    H2 5982   1.413   7.893   2.999
 2009TIP3   OH2 5983   1.838   7.944   2.864
 2009TIP3    H1 5984   1.785   8.016   2.829
 2009TIP3    H2 5985   1.892   7.916   2.791
 2010TIP3   OH2 5986   4.871   0.251   3.900
 2010TIP3    H1 5987   4.843   0.167   3.936
 2010TIP3    H2 5988   4.965   0.254   3.914
 2011TIP3   OH2 5989   4.832   0.059   3.055
 2011TIP3    H1 5990   4.792   0.133   3.010
 2011TIP3    H2 5991   4.765  -0.010   3.050
 2012TIP3   OH2 5992   4.131   0.005   3.835
 2012TIP3    H1 5993   4.085   0.074   3.883
 2012TIP3    H2 5994   4.073  -0.071   3.842
 2013TIP3   OH2 5995   0.980   7.701   2.918
 2013TIP3    H1 5996   0.977   7.662   2.831
 2013TIP3    H2 5997   0.950   7.631   2.977
 2014TIP3   OH2 5998   4.894   0.219   3.493
 2014TIP3    H1 5999   4.908   0.148   3.430
 2014TIP3    H2 6000   4.854   0.176   3.568
 2015TIP3   OH2 6001   1.129   7.817   3.112
 2015TIP3    H1 6002   1.040   7.843   3.135
 2015TIP3    H2 6003   1.118   7.755   3.041
 2016TIP3   OH2 6004   1.433   7.811   2.842
 2016TIP3    H1 6005   1.524   7.783   2.839
 2016TIP3    H2 6006   1.407   7.817   2.750
 2017TIP3   OH2 6007   1.319   7.794   2.596
 2017TIP3    H1 6008   1.231   7.767   2.567
 2017TIP3    H2 6009   1.371   7.795   2.516
 2018TIP3   OH2 6010   5.220   1.420   3.602
 2018TIP3    H1 6011   5.214   1.442   3.509
 2018TIP3    H2 6012   5.297   1.467   3.633
 2019TIP3   OH2 6013   4.166   0.540   4.022
 2019TIP3    H1 6014   4.245   0.561   4.071
 2019TIP3    H2 6015   4.095   0.548   4.086
 2020TIP3   OH2 6016   4.619   0.059   3.260
 2020TIP3    H1 6017   4.653  -0.027   3.235
 2020TIP3    H2 6018   4.604   0.053   3.354
 2021TIP3   OH2 6019   4.561   0.029   3.522
 2021TIP3    H1 6020   4.479   0.021   3.571
 2021TIP3    H2 6021   4.615   0.088   3.576
 2022TIP3   OH2 6022   4.335   0.266   2.641
 2022TIP3    H1 6023   4.268   0.199   2.632
 2022TIP3    H2 6024   4.316   0.308   2.725
 2023TIP3   OH2 6025   5.224   0.520   3.269
 2023TIP3    H1 6026   5.257   0.570   3.194
 2023TIP3    H2 6027   5.140   0.484   3.239
 2024TIP3   OH2 6028   1.808   7.771   2.448
 2024TIP3    H1 6029   1.765   7.694   2.486
 2024TIP3    H2 6030   1.891   7.777   2.495
 2025TIP3   OH2 6031   4.728   0.580   3.678
 2025TIP3    H1 6032   4.780   0.584   3.758
 2025TIP3    H2 6033   4.687   0.666   3.672
 2026TIP3   OH2 6034   1.997   7.881   2.657
 2026TIP3    H1 6035   2.075   7.910   2.705
 2026TIP3    H2 6036   1.981   7.951   2.594
 2027TIP3   OH2 6037   4.009   0.287   3.303
 2027TIP3    H1 6038   4.047   0.269   3.217
 2027TIP3    H2 6039   4.066   0.241   3.364
 2028TIP3   OH2 6040   4.506   0.425   2.484
 2028TIP3    H1 6041   4.452   0.503   2.472
 2028TIP3    H2 6042   4.448   0.364   2.530
 2029TIP3   OH2 6043   3.928   0.175   3.936
 2029TIP3    H1 6044   3.921   0.165   4.031
 2029TIP3    H2 6045   3.842   0.149   3.903
 2030TIP3   OH2 6046   4.625   0.354   3.966
 2030TIP3    H1 6047   4.563   0.285   3.940
 2030TIP3    H2 6048   4.709   0.325   3.930
 2031TIP3   OH2 6049   4.883   0.866   3.561
 2031TIP3    H1 6050   4.787   0.860   3.568
 2031TIP3    H2 6051   4.909   0.913   3.640
 2032TIP3   OH2 6052   2.399   7.977   2.432
 2032TIP3    H1 6053   2.331   7.940   2.376
 2032TIP3    H2 6054   2.415   8.064   2.397
 2033TIP3   OH2 6055   5.520   0.790   3.539
 2033TIP3    H1 6056   5.425   0.784   3.529
 2033TIP3    H2 6057   5.555   0.764   3.454
 2034TIP3   OH2 6058   5.001   0.742   2.386
 2034TIP3    H1 6059   4.980   0.673   2.449
 2034TIP3    H2 6060   5.024   0.695   2.306
 2035TIP3   OH2 6061   4.991   0.401   3.170
 2035TIP3    H1 6062   4.902   0.377   3.196
 2035TIP3    H2 6063   5.026   0.322   3.129
 2036TIP3   OH2 6064   4.144   0.607   2.969
 2036TIP3    H1 6065   4.137   0.683   2.912
 2036TIP3    H2 6066   4.055   0.591   2.999
 2037TIP3   OH2 6067   0.857   7.959   2.659
 2037TIP3    H1 6068   0.916   8.033   2.673
 2037TIP3    H2 6069   0.789   7.969   2.725
 2038TIP3   OH2 6070   4.254   0.370   2.878
 2038TIP3    H1 6071   4.229   0.459   2.901
 2038TIP3    H2 6072   4.214   0.316   2.946
 2039TIP3   OH2 6073   4.425   0.935   3.429
 2039TIP3    H1 6074   4.460   1.009   3.380
 2039TIP3    H2 6075   4.500   0.904   3.481
 2040TIP3   OH2 6076   4.060   0.827   2.813
 2040TIP3    H1 6077   3.973   0.838   2.853
 2040TIP3    H2 6078   4.098   0.915   2.817
 2041TIP3   OH2 6079   4.782   0.592   3.404
 2041TIP3    H1 6080   4.770   0.584   3.499
 2041TIP3    H2 6081   4.864   0.547   3.387
 2042TIP3   OH2 6082   4.736   0.465   2.290
 2042TIP3    H1 6083   4.807   0.439   2.349
 2042TIP3    H2 6084   4.657   0.458   2.343
 2043TIP3   OH2 6085   5.032   1.099   3.439
 2043TIP3    H1 6086   4.956   1.041   3.445
 2043TIP3    H2 6087   5.011   1.159   3.367
 2044TIP3   OH2 6088   5.090   0.941   2.085
 2044TIP3    H1 6089   5.125   1.006   2.024
 2044TIP3    H2 6090   5.016   0.985   2.127
 2045TIP3   OH2 6091   4.935   0.387   2.456
 2045TIP3    H1 6092   4.921   0.340   2.538
 2045TIP3    H2 6093   5.029   0.404   2.454
 2046TIP3   OH2 6094   3.855   0.818   3.588
 2046TIP3    H1 6095   3.908   0.759   3.642
 2046TIP3    H2 6096   3.861   0.903   3.633
 2047TIP3   OH2 6097   4.072   0.429   2.552
 2047TIP3    H1 6098   4.156   0.414   2.594
 2047TIP3    H2 6099   4.062   0.524   2.552
 2048TIP3   OH2 6100   3.817   0.179   2.749
 2048TIP3    H1 6101   3.748   0.225   2.796
 2048TIP3    H2 6102   3.862   0.248   2.699
 2049TIP3   OH2 6103   4.337   0.642   2.460
 2049TIP3    H1 6104   4.251   0.655   2.499
 2049TIP3    H2 6105   4.382   0.725   2.473
 2050TIP3   OH2 6106   1.693   7.718   2.832
 2050TIP3    H1 6107   1.736   7.801   2.854
 2050TIP3    H2 6108   1.683   7.674   2.917
 2051TIP3   OH2 6109   4.791   0.063   3.694
 2051TIP3    H1 6110   4.748   0.133   3.744
 2051TIP3    H2 6111   4.851   0.023   3.757
 2052TIP3   OH2 6112   4.090   0.712   2.559
 2052TIP3    H1 6113   4.065   0.783   2.500
 2052TIP3    H2 6114   4.075   0.748   2.647
 2053TIP3   OH2 6115   5.082   0.157   3.063
 2053TIP3    H1 6116   4.995   0.119   3.074
 2053TIP3    H2 6117   5.134   0.118   3.133
 2054TIP3   OH2 6118   0.734   7.704   2.666
 2054TIP3    H1 6119   0.770   7.792   2.679
 2054TIP3    H2 6120   0.771   7.675   2.582
 2055TIP3   OH2 6121   5.065   1.088   3.014
 2055TIP3    H1 6122   5.022   1.137   2.944
 2055TIP3    H2 6123   5.158   1.103   3.000
 2056TIP3   OH2 6124   3.661   0.598   2.929
 2056TIP3    H1 6125   3.606   0.631   3.001
 2056TIP3    H2 6126   3.627   0.644   2.851
 2057TIP3   OH2 6127   3.841   1.118   3.999
 2057TIP3    H1 6128   3.922   1.120   4.050
 2057TIP3    H2 6129   3.809   1.028   4.007
 2058TIP3   OH2 6130   4.312   1.049   4.063
 2058TIP3    H1 6131   4.407   1.038   4.066
 2058TIP3    H2 6132   4.284   0.993   3.991
 2059TIP3   OH2 6133   4.305   0.647   2.184
 2059TIP3    H1 6134   4.310   0.624   2.277
 2059TIP3    H2 6135   4.378   0.600   2.144
 2060TIP3   OH2 6136   4.944   0.984   3.801
 2060TIP3    H1 6137   4.953   0.918   3.869
 2060TIP3    H2 6138   5.016   1.045   3.816
 2061TIP3   OH2 6139   4.733   0.692   2.102
 2061TIP3    H1 6140   4.775   0.633   2.164
 2061TIP3    H2 6141   4.788   0.688   2.024
 2062TIP3   OH2 6142   3.957   0.526   4.207
 2062TIP3    H1 6143   3.971   0.432   4.218
 2062TIP3    H2 6144   3.872   0.534   4.164
 2063TIP3   OH2 6145   3.946   0.112   2.401
 2063TIP3    H1 6146   3.999   0.158   2.466
 2063TIP3    H2 6147   4.004   0.044   2.367
 2064TIP3   OH2 6148   4.573   0.623   3.983
 2064TIP3    H1 6149   4.526   0.645   3.903
 2064TIP3    H2 6150   4.600   0.532   3.972
 2065TIP3   OH2 6151   5.047   0.645   3.591
 2065TIP3    H1 6152   5.125   0.676   3.545
 2065TIP3    H2 6153   4.982   0.714   3.579
 2066TIP3   OH2 6154   4.113   0.265   4.195
 2066TIP3    H1 6155   4.195   0.260   4.147
 2066TIP3    H2 6156   4.136   0.304   4.279
 2067TIP3   OH2 6157   4.149   0.063   2.641
 2067TIP3    H1 6158   4.111   0.058   2.729
 2067TIP3    H2 6159   4.145  -0.027   2.608
 2068TIP3   OH2 6160   4.428   0.178   3.844
 2068TIP3    H1 6161   4.345   0.221   3.863
 2068TIP3    H2 6162   4.465   0.227   3.772
 2069TIP3   OH2 6163   4.928   0.547   3.953
 2069TIP3    H1 6164   4.985   0.499   3.893
 2069TIP3    H2 6165   4.922   0.490   4.030
 2070TIP3   OH2 6166   5.047   0.188   2.129
 2070TIP3    H1 6167   5.041   0.150   2.041
 2070TIP3    H2 6168   5.013   0.277   2.120
 2071TIP3   OH2 6169   1.704   7.942   3.889
 2071TIP3    H1 6170   1.650   7.880   3.840
 2071TIP3    H2 6171   1.664   8.028   3.871
 2072TIP3   OH2 6172   4.596   0.298   3.652
 2072TIP3    H1 6173   4.662   0.367   3.661
 2072TIP3    H2 6174   4.525   0.338   3.602
 2073TIP3   OH2 6175   5.136   0.211   3.967
 2073TIP3    H1 6176   5.132   0.193   4.061
 2073TIP3    H2 6177   5.192   0.289   3.960
 2074TIP3   OH2 6178   5.184   0.487   3.761
 2074TIP3    H1 6179   5.125   0.544   3.713
 2074TIP3    H2 6180   5.271   0.507   3.727
 2075TIP3   OH2 6181   4.406   0.143   4.183
 2075TIP3    H1 6182   4.336   0.094   4.228
 2075TIP3    H2 6183   4.466   0.075   4.152
 2076TIP3   OH2 6184   1.953   8.024   3.980
 2076TIP3    H1 6185   1.968   8.004   4.072
 2076TIP3    H2 6186   1.869   7.983   3.960
 2077TIP3   OH2 6187   4.069   0.917   2.374
 2077TIP3    H1 6188   4.163   0.924   2.354
 2077TIP3    H2 6189   4.027   0.974   2.310
 2078TIP3   OH2 6190   3.532   0.315   2.584
 2078TIP3    H1 6191   3.606   0.357   2.540
 2078TIP3    H2 6192   3.519   0.234   2.535
 2079TIP3   OH2 6193   3.460   0.914   3.021
 2079TIP3    H1 6194   3.398   0.856   2.977
 2079TIP3    H2 6195   3.503   0.858   3.085
 2080TIP3   OH2 6196   3.594   0.754   3.200
 2080TIP3    H1 6197   3.583   0.684   3.265
 2080TIP3    H2 6198   3.648   0.819   3.245
 2081TIP3   OH2 6199   5.335   1.146   3.001
 2081TIP3    H1 6200   5.352   1.179   3.090
 2081TIP3    H2 6201   5.386   1.203   2.944
 2082TIP3   OH2 6202   5.344   1.181   3.283
 2082TIP3    H1 6203   5.301   1.096   3.280
 2082TIP3    H2 6204   5.419   1.167   3.342
 2083TIP3   OH2 6205   5.402   0.868   3.859
 2083TIP3    H1 6206   5.329   0.879   3.919
 2083TIP3    H2 6207   5.447   0.953   3.859
 2084TIP3   OH2 6208   5.209   0.416   2.457
 2084TIP3    H1 6209   5.265   0.487   2.425
 2084TIP3    H2 6210   5.256   0.380   2.532
 2085TIP3   OH2 6211   5.357   0.302   2.653
 2085TIP3    H1 6212   5.287   0.284   2.716
 2085TIP3    H2 6213   5.426   0.342   2.706
 2086TIP3   OH2 6214   5.403   0.651   3.100
 2086TIP3    H1 6215   5.448   0.584   3.049
 2086TIP3    H2 6216   5.404   0.728   3.043
 2087TIP3   OH2 6217   5.208   0.936   3.295
 2087TIP3    H1 6218   5.141   0.983   3.343
 2087TIP3    H2 6219   5.162   0.897   3.221
 2088TIP3   OH2 6220   5.257   0.198   2.300
 2088TIP3    H1 6221   5.184   0.195   2.238
 2088TIP3    H2 6222   5.240   0.276   2.353
 2089TIP3   OH2 6223   2.232   7.881   2.241
 2089TIP3    H1 6224   2.228   7.937   2.164
 2089TIP3    H2 6225   2.228   7.792   2.206
 2090TIP3   OH2 6226   5.155   0.202   2.805
 2090TIP3    H1 6227   5.192   0.117   2.783
 2090TIP3    H2 6228   5.138   0.198   2.899
 2091TIP3   OH2 6229   3.765   0.158   3.573
 2091TIP3    H1 6230   3.754   0.147   3.478
 2091TIP3    H2 6231   3.859   0.173   3.584
 2092TIP3   OH2 6232   5.438   0.529   3.659
 2092TIP3    H1 6233   5.509   0.471   3.632
 2092TIP3    H2 6234   5.448   0.606   3.603
 2093TIP3   OH2 6235   5.645   0.337   3.660
 2093TIP3    H1 6236   5.571   0.285   3.692
 2093TIP3    H2 6237   5.694   0.360   3.738
 2094TIP3   OH2 6238   2.406   7.975   2.702
 2094TIP3    H1 6239   2.341   7.911   2.730
 2094TIP3    H2 6240   2.401   7.974   2.606
 2095TIP3   OH2 6241   5.260   0.059   3.242
 2095TIP3    H1 6242   5.329   0.068   3.176
 2095TIP3    H2 6243   5.298   0.093   3.322
 2096TIP3   OH2 6244   5.384   0.175   3.456
 2096TIP3    H1 6245   5.303   0.203   3.500
 2096TIP3    H2 6246   5.414   0.253   3.410
 2097TIP3   OH2 6247   1.062   7.831   4.249
 2097TIP3    H1 6248   1.114   7.761   4.210
 2097TIP3    H2 6249   1.016   7.789   4.322
 2098TIP3   OH2 6250   0.904   7.886   3.631
 2098TIP3    H1 6251   0.947   7.854   3.552
 2098TIP3    H2 6252   0.922   7.980   3.632
 2099TIP3   OH2 6253   4.889   1.048   2.644
 2099TIP3    H1 6254   4.948   1.042   2.568
 2099TIP3    H2 6255   4.926   1.118   2.698
 2100TIP3   OH2 6256   3.999   0.829   4.027
 2100TIP3    H1 6257   3.904   0.826   4.019
 2100TIP3    H2 6258   4.014   0.844   4.120
 2101TIP3   OH2 6259   4.197   0.892   3.579
 2101TIP3    H1 6260   4.142   0.964   3.547
 2101TIP3    H2 6261   4.281   0.905   3.534
 2102TIP3   OH2 6262   4.607   1.122   3.710
 2102TIP3    H1 6263   4.642   1.119   3.799
 2102TIP3    H2 6264   4.668   1.177   3.662
 2103TIP3   OH2 6265   4.795   1.282   3.586
 2103TIP3    H1 6266   4.862   1.234   3.538
 2103TIP3    H2 6267   4.844   1.341   3.643
 2104TIP3   OH2 6268   3.857   1.137   3.620
 2104TIP3    H1 6269   3.767   1.153   3.591
 2104TIP3    H2 6270   3.873   1.203   3.687
 2105TIP3   OH2 6271   4.088   1.121   3.472
 2105TIP3    H1 6272   4.006   1.129   3.521
 2105TIP3    H2 6273   4.065   1.150   3.383
 2106TIP3   OH2 6274   4.508   1.142   3.262
 2106TIP3    H1 6275   4.435   1.155   3.201
 2106TIP3    H2 6276   4.520   1.227   3.304
 2107TIP3   OH2 6277   4.772   1.074   3.310
 2107TIP3    H1 6278   4.680   1.097   3.294
 2107TIP3    H2 6279   4.822   1.144   3.268
 2108TIP3   OH2 6280   4.971   1.252   3.216
 2108TIP3    H1 6281   4.969   1.340   3.178
 2108TIP3    H2 6282   5.003   1.197   3.144
 2109TIP3   OH2 6283   3.775   0.923   3.338
 2109TIP3    H1 6284   3.790   0.898   3.429
 2109TIP3    H2 6285   3.848   0.885   3.290
 2110TIP3   OH2 6286   3.974   0.801   3.200
 2110TIP3    H1 6287   3.983   0.718   3.248
 2110TIP3    H2 6288   4.061   0.841   3.205
 2111TIP3   OH2 6289   4.241   0.886   3.224
 2111TIP3    H1 6290   4.259   0.793   3.212
 2111TIP3    H2 6291   4.293   0.912   3.300
 2112TIP3   OH2 6292   4.335   0.900   2.310
 2112TIP3    H1 6293   4.423   0.922   2.277
 2112TIP3    H2 6294   4.308   0.825   2.256
 2113TIP3   OH2 6295   5.044   1.010   2.416
 2113TIP3    H1 6296   5.033   0.916   2.408
 2113TIP3    H2 6297   5.000   1.046   2.338
 2114TIP3   OH2 6298   3.606   0.643   2.397
 2114TIP3    H1 6299   3.601   0.686   2.483
 2114TIP3    H2 6300   3.696   0.659   2.367
 2115TIP3   OH2 6301   5.256   1.147   3.604
 2115TIP3    H1 6302   5.180   1.118   3.553
 2115TIP3    H2 6303   5.245   1.241   3.612
 2116TIP3   OH2 6304   6.552   0.500   2.347
 2116TIP3    H1 6305   6.543   0.595   2.337
 2116TIP3    H2 6306   6.478   0.464   2.301
 2117TIP3   OH2 6307   6.539   0.553   2.744
 2117TIP3    H1 6308   6.575   0.543   2.833
 2117TIP3    H2 6309   6.497   0.470   2.726
 2118TIP3   OH2 6310   5.828   0.436   3.102
 2118TIP3    H1 6311   5.866   0.381   3.170
 2118TIP3    H2 6312   5.890   0.508   3.090
 2119TIP3   OH2 6313   6.795   0.843   2.434
 2119TIP3    H1 6314   6.780   0.783   2.507
 2119TIP3    H2 6315   6.819   0.926   2.476
 2120TIP3   OH2 6316   5.795   0.822   2.838
 2120TIP3    H1 6317   5.792   0.728   2.821
 2120TIP3    H2 6318   5.871   0.834   2.894
 2121TIP3   OH2 6319   5.486   0.069   2.597
 2121TIP3    H1 6320   5.445   0.155   2.599
 2121TIP3    H2 6321   5.424   0.011   2.641
 2122TIP3   OH2 6322   5.579   0.384   2.790
 2122TIP3    H1 6323   5.640   0.313   2.811
 2122TIP3    H2 6324   5.635   0.459   2.770
 2123TIP3   OH2 6325   6.446   1.279   2.450
 2123TIP3    H1 6326   6.479   1.198   2.411
 2123TIP3    H2 6327   6.430   1.255   2.542
 2124TIP3   OH2 6328   6.340   0.757   2.786
 2124TIP3    H1 6329   6.393   0.686   2.750
 2124TIP3    H2 6330   6.404   0.819   2.823
 2125TIP3   OH2 6331   6.705   0.271   2.795
 2125TIP3    H1 6332   6.742   0.183   2.802
 2125TIP3    H2 6333   6.715   0.294   2.703
 2126TIP3   OH2 6334   3.323   7.844   2.736
 2126TIP3    H1 6335   3.281   7.899   2.802
 2126TIP3    H2 6336   3.252   7.819   2.677
 2127TIP3   OH2 6337   0.673   2.513   1.995
 2127TIP3    H1 6338   0.765   2.527   2.016
 2127TIP3    H2 6339   0.644   2.596   1.958
 2128TIP3   OH2 6340   5.756   0.202   2.887
 2128TIP3    H1 6341   5.797   0.216   2.972
 2128TIP3    H2 6342   5.826   0.162   2.834
 2129TIP3   OH2 6343   6.168   0.345   2.677
 2129TIP3    H1 6344   6.262   0.331   2.678
 2129TIP3    H2 6345   6.132   0.269   2.632
 2130TIP3   OH2 6346   7.375   0.261   2.951
 2130TIP3    H1 6347   7.294   0.312   2.952
 2130TIP3    H2 6348   7.421   0.288   3.032
 2131TIP3   OH2 6349   6.449   0.752   2.213
 2131TIP3    H1 6350   6.397   0.719   2.140
 2131TIP3    H2 6351   6.397   0.824   2.249
 2132TIP3   OH2 6352   6.186   0.682   3.004
 2132TIP3    H1 6353   6.123   0.748   3.033
 2132TIP3    H2 6354   6.236   0.726   2.936
 2133TIP3   OH2 6355   5.928   0.062   3.068
 2133TIP3    H1 6356   5.998   0.127   3.058
 2133TIP3    H2 6357   5.929   0.013   2.986
 2134TIP3   OH2 6358   5.978   0.858   3.060
 2134TIP3    H1 6359   6.002   0.950   3.055
 2134TIP3    H2 6360   5.917   0.853   3.134
 2135TIP3   OH2 6361   5.394   0.591   2.355
 2135TIP3    H1 6362   5.363   0.610   2.266
 2135TIP3    H2 6363   5.420   0.676   2.390
 2136TIP3   OH2 6364   6.842   1.086   2.573
 2136TIP3    H1 6365   6.760   1.072   2.621
 2136TIP3    H2 6366   6.834   1.174   2.537
 2137TIP3   OH2 6367   6.554   1.101   2.249
 2137TIP3    H1 6368   6.609   1.024   2.236
 2137TIP3    H2 6369   6.609   1.175   2.224
 2138TIP3   OH2 6370   6.700   0.864   2.176
 2138TIP3    H1 6371   6.616   0.817   2.185
 2138TIP3    H2 6372   6.742   0.855   2.261
 2139TIP3   OH2 6373   7.071   0.968   2.919
 2139TIP3    H1 6374   7.055   0.898   2.857
 2139TIP3    H2 6375   7.047   1.048   2.872
 2140TIP3   OH2 6376   6.358   0.381   2.196
 2140TIP3    H1 6377   6.274   0.425   2.182
 2140TIP3    H2 6378   6.388   0.359   2.107
 2141TIP3   OH2 6379   7.253   0.641   2.793
 2141TIP3    H1 6380   7.166   0.681   2.797
 2141TIP3    H2 6381   7.288   0.670   2.709
 2142TIP3   OH2 6382   6.945   0.539   3.072
 2142TIP3    H1 6383   6.926   0.612   3.132
 2142TIP3    H2 6384   6.860   0.517   3.033
 2143TIP3   OH2 6385   5.937   0.459   2.566
 2143TIP3    H1 6386   5.900   0.395   2.505
 2143TIP3    H2 6387   6.017   0.417   2.598
 2144TIP3   OH2 6388   6.095   0.878   2.702
 2144TIP3    H1 6389   6.078   0.841   2.616
 2144TIP3    H2 6390   6.178   0.840   2.730
 2145TIP3   OH2 6391   6.056   0.465   2.902
 2145TIP3    H1 6392   6.100   0.436   2.822
 2145TIP3    H2 6393   6.104   0.543   2.929
 2146TIP3   OH2 6394   6.618   1.062   2.722
 2146TIP3    H1 6395   6.593   1.143   2.766
 2146TIP3    H2 6396   6.596   0.993   2.785
 2147TIP3   OH2 6397   6.580   0.310   2.015
 2147TIP3    H1 6398   6.627   0.379   2.062
 2147TIP3    H2 6399   6.575   0.341   1.925
 2148TIP3   OH2 6400   5.969   0.549   3.361
 2148TIP3    H1 6401   5.978   0.638   3.396
 2148TIP3    H2 6402   5.877   0.526   3.375
 2149TIP3   OH2 6403   6.303   0.985   2.256
 2149TIP3    H1 6404   6.383   1.039   2.263
 2149TIP3    H2 6405   6.238   1.044   2.219
 2150TIP3   OH2 6406   5.980   1.183   3.352
 2150TIP3    H1 6407   5.986   1.158   3.259
 2150TIP3    H2 6408   5.912   1.126   3.387
 2151TIP3   OH2 6409   5.794   0.298   2.375
 2151TIP3    H1 6410   5.724   0.352   2.339
 2151TIP3    H2 6411   5.753   0.212   2.388
 2152TIP3   OH2 6412   6.794   0.932   1.654
 2152TIP3    H1 6413   6.833   1.018   1.634
 2152TIP3    H2 6414   6.864   0.870   1.634
 2153TIP3   OH2 6415   5.597   0.688   3.300
 2153TIP3    H1 6416   5.529   0.676   3.234
 2153TIP3    H2 6417   5.635   0.600   3.311
 2154TIP3   OH2 6418   5.458   0.877   2.942
 2154TIP3    H1 6419   5.553   0.888   2.935
 2154TIP3    H2 6420   5.428   0.959   2.980
 2155TIP3   OH2 6421   7.299   1.332   3.001
 2155TIP3    H1 6422   7.300   1.236   3.006
 2155TIP3    H2 6423   7.219   1.358   3.047
 2156TIP3   OH2 6424   6.189   1.228   2.084
 2156TIP3    H1 6425   6.141   1.208   2.004
 2156TIP3    H2 6426   6.152   1.311   2.114
 2157TIP3   OH2 6427   5.623   1.076   2.458
 2157TIP3    H1 6428   5.670   1.068   2.541
 2157TIP3    H2 6429   5.575   0.994   2.449
 2158TIP3   OH2 6430   6.376   1.145   1.726
 2158TIP3    H1 6431   6.431   1.078   1.684
 2158TIP3    H2 6432   6.416   1.157   1.813
 2159TIP3   OH2 6433   6.442   1.192   1.990
 2159TIP3    H1 6434   6.355   1.199   2.030
 2159TIP3    H2 6435   6.499   1.163   2.062
 2160TIP3   OH2 6436   7.180   0.475   3.227
 2160TIP3    H1 6437   7.113   0.533   3.190
 2160TIP3    H2 6438   7.162   0.389   3.188
 2161TIP3   OH2 6439   5.796   0.877   3.265
 2161TIP3    H1 6440   5.834   0.889   3.352
 2161TIP3    H2 6441   5.724   0.815   3.279
 2162TIP3   OH2 6442   7.085   0.223   3.185
 2162TIP3    H1 6443   7.007   0.212   3.241
 2162TIP3    H2 6444   7.052   0.208   3.096
 2163TIP3   OH2 6445   6.115   0.263   3.072
 2163TIP3    H1 6446   6.076   0.281   3.158
 2163TIP3    H2 6447   6.085   0.335   3.016
 2164TIP3   OH2 6448   6.017   0.160   2.545
 2164TIP3    H1 6449   5.923   0.141   2.552
 2164TIP3    H2 6450   6.039   0.137   2.455
 2165TIP3   OH2 6451   6.541   0.182   2.270
 2165TIP3    H1 6452   6.470   0.244   2.283
 2165TIP3    H2 6453   6.571   0.197   2.180
 2166TIP3   OH2 6454   6.660   0.504   3.396
 2166TIP3    H1 6455   6.633   0.420   3.432
 2166TIP3    H2 6456   6.756   0.504   3.402
 2167TIP3   OH2 6457   6.663   0.302   2.525
 2167TIP3    H1 6458   6.615   0.364   2.470
 2167TIP3    H2 6459   6.613   0.221   2.520
 2168TIP3   OH2 6460   5.946   0.271   3.287
 2168TIP3    H1 6461   5.958   0.338   3.354
 2168TIP3    H2 6462   5.883   0.210   3.326
 2169TIP3   OH2 6463   2.784   7.976   2.379
 2169TIP3    H1 6464   2.727   7.907   2.343
 2169TIP3    H2 6465   2.732   8.016   2.448
 2170TIP3   OH2 6466   6.690   0.476   2.974
 2170TIP3    H1 6467   6.706   0.404   2.912
 2170TIP3    H2 6468   6.652   0.433   3.051
 2171TIP3   OH2 6469   5.762   0.047   2.603
 2171TIP3    H1 6470   5.671   0.074   2.612
 2171TIP3    H2 6471   5.759  -0.027   2.541
 2172TIP3   OH2 6472   6.050   0.071   2.284
 2172TIP3    H1 6473   6.121   0.008   2.276
 2172TIP3    H2 6474   5.981   0.037   2.228
 2173TIP3   OH2 6475   5.864   0.019   2.082
 2173TIP3    H1 6476   5.773  -0.010   2.080
 2173TIP3    H2 6477   5.882   0.047   1.992
 2174TIP3   OH2 6478   7.020   1.682   3.097
 2174TIP3    H1 6479   7.015   1.709   3.005
 2174TIP3    H2 6480   7.094   1.730   3.133
 2175TIP3   OH2 6481   5.960   0.774   3.517
 2175TIP3    H1 6482   6.040   0.810   3.554
 2175TIP3    H2 6483   5.890   0.807   3.574
 2176TIP3   OH2 6484   6.436   0.293   2.729
 2176TIP3    H1 6485   6.528   0.267   2.735
 2176TIP3    H2 6486   6.404   0.288   2.819
 2177TIP3   OH2 6487   6.367   0.309   2.991
 2177TIP3    H1 6488   6.286   0.295   3.039
 2177TIP3    H2 6489   6.409   0.383   3.035
 2178TIP3   OH2 6490   6.122   0.515   2.140
 2178TIP3    H1 6491   6.053   0.450   2.126
 2178TIP3    H2 6492   6.099   0.556   2.223
 2179TIP3   OH2 6493   7.026   0.778   2.729
 2179TIP3    H1 6494   7.066   0.787   2.643
 2179TIP3    H2 6495   6.938   0.745   2.711
 2180TIP3   OH2 6496   6.547   0.771   3.182
 2180TIP3    H1 6497   6.605   0.800   3.252
 2180TIP3    H2 6498   6.495   0.848   3.160
 2181TIP3   OH2 6499   5.808   0.543   2.794
 2181TIP3    H1 6500   5.845   0.528   2.707
 2181TIP3    H2 6501   5.874   0.510   2.855
 2182TIP3   OH2 6502   6.281   0.687   1.998
 2182TIP3    H1 6503   6.233   0.769   1.996
 2182TIP3    H2 6504   6.223   0.626   2.045
 2183TIP3   OH2 6505   5.715   0.449   3.415
 2183TIP3    H1 6506   5.723   0.426   3.508
 2183TIP3    H2 6507   5.631   0.413   3.388
 2184TIP3   OH2 6508   6.418   0.615   3.460
 2184TIP3    H1 6509   6.357   0.549   3.427
 2184TIP3    H2 6510   6.503   0.590   3.424
 2185TIP3   OH2 6511   6.686   1.131   3.044
 2185TIP3    H1 6512   6.594   1.104   3.049
 2185TIP3    H2 6513   6.703   1.172   3.130
 2186TIP3   OH2 6514   7.319   1.055   2.988
 2186TIP3    H1 6515   7.226   1.033   2.984
 2186TIP3    H2 6516   7.356   1.019   2.907
 2187TIP3   OH2 6517   6.788   1.000   1.939
 2187TIP3    H1 6518   6.751   0.952   2.012
 2187TIP3    H2 6519   6.765   0.949   1.862
 2188TIP3   OH2 6520   6.783   0.667   2.654
 2188TIP3    H1 6521   6.695   0.641   2.682
 2188TIP3    H2 6522   6.816   0.591   2.607
 2189TIP3   OH2 6523   5.928   0.865   2.442
 2189TIP3    H1 6524   5.923   0.944   2.389
 2189TIP3    H2 6525   5.852   0.870   2.500
 2190TIP3   OH2 6526   5.486   0.188   2.153
 2190TIP3    H1 6527   5.532   0.268   2.176
 2190TIP3    H2 6528   5.408   0.188   2.207
 2191TIP3   OH2 6529   6.036   0.626   2.369
 2191TIP3    H1 6530   6.010   0.716   2.389
 2191TIP3    H2 6531   6.006   0.575   2.444
 2192TIP3   OH2 6532   6.212   1.195   2.917
 2192TIP3    H1 6533   6.266   1.265   2.880
 2192TIP3    H2 6534   6.273   1.145   2.971
 2193TIP3   OH2 6535   5.850   1.097   2.302
 2193TIP3    H1 6536   5.765   1.103   2.346
 2193TIP3    H2 6537   5.886   1.185   2.310
 2194TIP3   OH2 6538   6.594   0.834   2.888
 2194TIP3    H1 6539   6.567   0.841   2.979
 2194TIP3    H2 6540   6.680   0.792   2.891
 2195TIP3   OH2 6541   6.539   0.691   1.835
 2195TIP3    H1 6542   6.490   0.729   1.908
 2195TIP3    H2 6543   6.472   0.664   1.772
 2196TIP3   OH2 6544   6.829   1.349   2.930
 2196TIP3    H1 6545   6.760   1.284   2.947
 2196TIP3    H2 6546   6.793   1.403   2.860
 2197TIP3   OH2 6547   6.879   1.184   1.583
 2197TIP3    H1 6548   6.875   1.219   1.494
 2197TIP3    H2 6549   6.815   1.237   1.631
 2198TIP3   OH2 6550   5.650   1.084   3.074
 2198TIP3    H1 6551   5.707   1.024   3.122
 2198TIP3    H2 6552   5.670   1.171   3.111
 2199TIP3   OH2 6553   5.954   0.695   1.775
 2199TIP3    H1 6554   5.932   0.606   1.746
 2199TIP3    H2 6555   5.922   0.700   1.865
 2200TIP3   OH2 6556   5.865   0.716   2.038
 2200TIP3    H1 6557   5.925   0.691   2.108
 2200TIP3    H2 6558   5.861   0.812   2.043
 2201TIP3   OH2 6559   5.590   0.428   2.248
 2201TIP3    H1 6560   5.526   0.473   2.303
 2201TIP3    H2 6561   5.606   0.489   2.176
 2202TIP3   OH2 6562   6.133   0.911   1.984
 2202TIP3    H1 6563   6.046   0.931   2.020
 2202TIP3    H2 6564   6.153   0.986   1.928
 2203TIP3   OH2 6565   3.562   7.974   2.341
 2203TIP3    H1 6566   3.621   8.047   2.326
 2203TIP3    H2 6567   3.524   7.991   2.427
 2204TIP3   OH2 6568   6.592   0.324   3.183
 2204TIP3    H1 6569   6.547   0.397   3.226
 2204TIP3    H2 6570   6.650   0.288   3.251
 2205TIP3   OH2 6571   5.877   0.987   2.054
 2205TIP3    H1 6572   5.851   1.056   1.992
 2205TIP3    H2 6573   5.865   1.027   2.140
 2206TIP3   OH2 6574   6.887   0.450   2.518
 2206TIP3    H1 6575   6.810   0.395   2.533
 2206TIP3    H2 6576   6.956   0.411   2.571
 2207TIP3   OH2 6577   5.608   0.601   2.030
 2207TIP3    H1 6578   5.677   0.667   2.035
 2207TIP3    H2 6579   5.645   0.532   1.975
 2208TIP3   OH2 6580   2.763   7.964   2.076
 2208TIP3    H1 6581   2.729   8.043   2.118
 2208TIP3    H2 6582   2.684   7.914   2.052
 2209TIP3   OH2 6583   6.874   1.357   2.499
 2209TIP3    H1 6584   6.822   1.403   2.433
 2209TIP3    H2 6585   6.965   1.375   2.476
 2210TIP3   OH2 6586   5.450   0.851   2.437
 2210TIP3    H1 6587   5.409   0.891   2.513
 2210TIP3    H2 6588   5.409   0.895   2.362
 2211TIP3   OH2 6589   5.641   1.384   3.496
 2211TIP3    H1 6590   5.723   1.386   3.544
 2211TIP3    H2 6591   5.620   1.291   3.488
 2212TIP3   OH2 6592   6.113   1.316   3.548
 2212TIP3    H1 6593   6.205   1.292   3.544
 2212TIP3    H2 6594   6.074   1.272   3.472
 2213TIP3   OH2 6595   6.073   0.921   1.672
 2213TIP3    H1 6596   6.036   0.842   1.712
 2213TIP3    H2 6597   6.152   0.890   1.628
 2214TIP3   OH2 6598   6.747   1.242   3.289
 2214TIP3    H1 6599   6.755   1.175   3.357
 2214TIP3    H2 6600   6.818   1.304   3.308
 2215TIP3   OH2 6601   6.533   0.974   1.575
 2215TIP3    H1 6602   6.618   0.945   1.608
 2215TIP3    H2 6603   6.554   1.038   1.507
 2216TIP3   OH2 6604   5.747   0.788   3.700
 2216TIP3    H1 6605   5.758   0.694   3.718
 2216TIP3    H2 6606   5.663   0.793   3.654
 2217TIP3   OH2 6607   5.746   0.396   1.909
 2217TIP3    H1 6608   5.803   0.368   1.981
 2217TIP3    H2 6609   5.806   0.410   1.836
 2218TIP3   OH2 6610   6.352   0.890   3.441
 2218TIP3    H1 6611   6.353   0.921   3.350
 2218TIP3    H2 6612   6.386   0.801   3.436
 2219TIP3   OH2 6613   6.280   0.623   1.729
 2219TIP3    H1 6614   6.276   0.643   1.823
 2219TIP3    H2 6615   6.191   0.597   1.706
 2220TIP3   OH2 6616   6.846   0.903   3.072
 2220TIP3    H1 6617   6.923   0.931   3.023
 2220TIP3    H2 6618   6.783   0.975   3.062
 2221TIP3   OH2 6619   5.918   0.505   3.660
 2221TIP3    H1 6620   5.966   0.563   3.603
 2221TIP3    H2 6621   5.929   0.542   3.748
 2222TIP3   OH2 6622   5.933   0.312   2.131
 2222TIP3    H1 6623   5.885   0.318   2.213
 2222TIP3    H2 6624   5.982   0.230   2.137
 2223TIP3   OH2 6625   6.226   0.443   3.324
 2223TIP3    H1 6626   6.143   0.490   3.333
 2223TIP3    H2 6627   6.270   0.486   3.251
 2224TIP3   OH2 6628   6.724   0.803   3.435
 2224TIP3    H1 6629   6.793   0.762   3.383
 2224TIP3    H2 6630   6.716   0.747   3.513
 2225TIP3   OH2 6631   6.301   0.198   3.422
 2225TIP3    H1 6632   6.255   0.135   3.368
 2225TIP3    H2 6633   6.273   0.284   3.389
 2226TIP3   OH2 6634   6.392   0.552   3.132
 2226TIP3    H1 6635   6.457   0.619   3.150
 2226TIP3    H2 6636   6.323   0.598   3.084
 2227TIP3   OH2 6637   6.931   0.463   3.442
 2227TIP3    H1 6638   6.928   0.454   3.537
 2227TIP3    H2 6639   6.994   0.533   3.426
 2228TIP3   OH2 6640   6.969   0.750   3.257
 2228TIP3    H1 6641   6.913   0.807   3.204
 2228TIP3    H2 6642   7.057   0.764   3.221
 2229TIP3   OH2 6643   6.201   0.353   3.663
 2229TIP3    H1 6644   6.153   0.310   3.734
 2229TIP3    H2 6645   6.266   0.288   3.636
 2230TIP3   OH2 6646   6.570   0.264   3.475
 2230TIP3    H1 6647   6.592   0.245   3.566
 2230TIP3    H2 6648   6.481   0.230   3.465
 2231TIP3   OH2 6649   5.855   1.190   1.868
 2231TIP3    H1 6650   5.949   1.184   1.853
 2231TIP3    H2 6651   5.822   1.238   1.792
 2232TIP3   OH2 6652   5.338   0.590   2.081
 2232TIP3    H1 6653   5.429   0.611   2.062
 2232TIP3    H2 6654   5.323   0.506   2.037
 2233TIP3   OH2 6655   5.252   1.162   2.509
 2233TIP3    H1 6656   5.186   1.109   2.464
 2233TIP3    H2 6657   5.295   1.101   2.570
 2234TIP3   OH2 6658   5.392   0.996   2.682
 2234TIP3    H1 6659   5.381   0.931   2.751
 2234TIP3    H2 6660   5.445   1.065   2.721
 2235TIP3   OH2 6661   7.156   1.434   2.495
 2235TIP3    H1 6662   7.149   1.426   2.590
 2235TIP3    H2 6663   7.150   1.528   2.479
 2236TIP3   OH2 6664   7.156   1.419   2.769
 2236TIP3    H1 6665   7.098   1.343   2.770
 2236TIP3    H2 6666   7.206   1.412   2.850
 2237TIP3   OH2 6667   7.195   1.128   3.334
 2237TIP3    H1 6668   7.122   1.137   3.395
 2237TIP3    H2 6669   7.237   1.214   3.334
 2238TIP3   OH2 6670   6.979   0.692   2.054
 2238TIP3    H1 6671   6.908   0.755   2.044
 2238TIP3    H2 6672   7.054   0.734   2.012
 2239TIP3   OH2 6673   7.160   0.482   2.226
 2239TIP3    H1 6674   7.159   0.400   2.276
 2239TIP3    H2 6675   7.247   0.519   2.241
 2240TIP3   OH2 6676   7.000   1.193   2.777
 2240TIP3    H1 6677   6.933   1.236   2.830
 2240TIP3    H2 6678   6.950   1.152   2.706
 2241TIP3   OH2 6679   6.881   0.400   2.248
 2241TIP3    H1 6680   6.879   0.304   2.247
 2241TIP3    H2 6681   6.873   0.423   2.341
 2242TIP3   OH2 6682   5.563   0.414   3.061
 2242TIP3    H1 6683   5.552   0.406   2.966
 2242TIP3    H2 6684   5.656   0.432   3.073
 2243TIP3   OH2 6685   7.217   0.787   3.143
 2243TIP3    H1 6686   7.289   0.725   3.133
 2243TIP3    H2 6687   7.225   0.845   3.067
 2244TIP3   OH2 6688   7.423   0.610   3.159
 2244TIP3    H1 6689   7.374   0.529   3.174
 2244TIP3    H2 6690   7.497   0.605   3.219
 2245TIP3   OH2 6691   7.072   0.346   2.684
 2245TIP3    H1 6692   7.153   0.380   2.646
 2245TIP3    H2 6693   7.083   0.357   2.778
 2246TIP3   OH2 6694   7.153   0.422   2.934
 2246TIP3    H1 6695   7.078   0.459   2.981
 2246TIP3    H2 6696   7.196   0.498   2.894
 2247TIP3   OH2 6697   5.767   0.103   3.818
 2247TIP3    H1 6698   5.827   0.122   3.889
 2247TIP3    H2 6699   5.697   0.051   3.858
 2248TIP3   OH2 6700   5.554   0.139   3.128
 2248TIP3    H1 6701   5.603   0.111   3.051
 2248TIP3    H2 6702   5.554   0.235   3.122
 2249TIP3   OH2 6703   6.696   1.301   2.143
 2249TIP3    H1 6704   6.753   1.300   2.066
 2249TIP3    H2 6705   6.727   1.375   2.195
 2250TIP3   OH2 6706   5.786   1.060   3.516
 2250TIP3    H1 6707   5.690   1.068   3.512
 2250TIP3    H2 6708   5.809   1.095   3.602
 2251TIP3   OH2 6709   5.990   1.139   3.072
 2251TIP3    H1 6710   5.944   1.215   3.036
 2251TIP3    H2 6711   6.079   1.148   3.038
 2252TIP3   OH2 6712   6.391   1.449   3.217
 2252TIP3    H1 6713   6.429   1.403   3.292
 2252TIP3    H2 6714   6.465   1.466   3.160
 2253TIP3   OH2 6715   6.605   1.534   3.063
 2253TIP3    H1 6716   6.670   1.470   3.036
 2253TIP3    H2 6717   6.652   1.594   3.121
 2254TIP3   OH2 6718   5.652   1.387   3.108
 2254TIP3    H1 6719   5.561   1.409   3.086
 2254TIP3    H2 6720   5.677   1.453   3.173
 2255TIP3   OH2 6721   5.884   1.372   2.958
 2255TIP3    H1 6722   5.801   1.379   3.005
 2255TIP3    H2 6723   5.863   1.400   2.869
 2256TIP3   OH2 6724   6.312   1.404   2.739
 2256TIP3    H1 6725   6.230   1.413   2.691
 2256TIP3    H2 6726   6.320   1.485   2.790
 2257TIP3   OH2 6727   6.575   1.333   2.780
 2257TIP3    H1 6728   6.481   1.352   2.772
 2257TIP3    H2 6729   6.618   1.413   2.750
 2258TIP3   OH2 6730   6.780   1.519   2.706
 2258TIP3    H1 6731   6.769   1.605   2.665
 2258TIP3    H2 6732   6.809   1.462   2.635
 2259TIP3   OH2 6733   5.568   1.172   2.823
 2259TIP3    H1 6734   5.590   1.150   2.913
 2259TIP3    H2 6735   5.642   1.139   2.771
 2260TIP3   OH2 6736   5.773   1.050   2.687
 2260TIP3    H1 6737   5.781   0.970   2.738
 2260TIP3    H2 6738   5.858   1.092   2.693
 2261TIP3   OH2 6739   6.034   1.147   2.711
 2261TIP3    H1 6740   6.058   1.055   2.698
 2261TIP3    H2 6741   6.084   1.174   2.788
 2262TIP3   OH2 6742   5.336   0.968   2.218
 2262TIP3    H1 6743   5.252   0.934   2.188
 2262TIP3    H2 6744   5.338   1.058   2.185
 2263TIP3   OH2 6745   6.121   1.143   1.821
 2263TIP3    H1 6746   6.208   1.166   1.787
 2263TIP3    H2 6747   6.090   1.074   1.762
 2264TIP3   OH2 6748   6.845   1.267   1.910
 2264TIP3    H1 6749   6.833   1.172   1.918
 2264TIP3    H2 6750   6.792   1.292   1.835
 2265TIP3   OH2 6751   5.435   0.979   1.865
 2265TIP3    H1 6752   5.437   0.995   1.959
 2265TIP3    H2 6753   5.515   0.930   1.847
 2266TIP3   OH2 6754   7.053   1.409   3.084
 2266TIP3    H1 6755   6.973   1.378   3.041
 2266TIP3    H2 6756   7.038   1.502   3.100
 2267TIP3   OH2 6757   7.586   1.081   2.345
 2267TIP3    H1 6758   7.511   1.027   2.369
 2267TIP3    H2 6759   7.662   1.027   2.366
 2268TIP3   OH2 6760   7.406   0.575   2.296
 2268TIP3    H1 6761   7.379   0.634   2.366
 2268TIP3    H2 6762   7.472   0.624   2.247
 2269TIP3   OH2 6763   7.175   0.840   1.925
 2269TIP3    H1 6764   7.234   0.818   1.852
 2269TIP3    H2 6765   7.192   0.933   1.942
 2270TIP3   OH2 6766   7.429   0.944   2.760
 2270TIP3    H1 6767   7.394   0.906   2.680
 2270TIP3    H2 6768   7.456   0.869   2.812
 2271TIP3   OH2 6769   7.266   1.156   2.413
 2271TIP3    H1 6770   7.261   1.064   2.439
 2271TIP3    H2 6771   7.196   1.199   2.464
 2272TIP3   OH2 6772   7.405   1.355   1.954
 2272TIP3    H1 6773   7.453   1.339   2.035
 2272TIP3    H2 6774   7.374   1.269   1.926
 2273TIP3   OH2 6775   7.619   1.135   2.794
 2273TIP3    H1 6776   7.682   1.100   2.857
 2273TIP3    H2 6777   7.562   1.061   2.773
 2274TIP3   OH2 6778   7.769   1.082   3.018
 2274TIP3    H1 6779   7.801   0.993   3.035
 2274TIP3    H2 6780   7.692   1.090   3.075
 2275TIP3   OH2 6781   7.476   0.733   2.922
 2275TIP3    H1 6782   7.481   0.693   3.009
 2275TIP3    H2 6783   7.407   0.684   2.878
 2276TIP3   OH2 6784   7.456   1.345   2.653
 2276TIP3    H1 6785   7.465   1.293   2.573
 2276TIP3    H2 6786   7.371   1.390   2.642
 2277TIP3   OH2 6787   7.239   1.116   1.927
 2277TIP3    H1 6788   7.203   1.169   1.998
 2277TIP3    H2 6789   7.200   1.152   1.848
 2278TIP3   OH2 6790   7.438   1.635   2.974
 2278TIP3    H1 6791   7.512   1.646   3.033
 2278TIP3    H2 6792   7.399   1.551   2.999
 2279TIP3   OH2 6793   7.536   1.052   3.165
 2279TIP3    H1 6794   7.570   0.963   3.165
 2279TIP3    H2 6795   7.452   1.046   3.118
 2280TIP3   OH2 6796   7.721   0.836   3.146
 2280TIP3    H1 6797   7.730   0.742   3.127
 2280TIP3    H2 6798   7.736   0.842   3.240
 2281TIP3   OH2 6799   7.040   1.434   1.994
 2281TIP3    H1 6800   6.976   1.378   1.950
 2281TIP3    H2 6801   7.086   1.375   2.054
 2282TIP3   OH2 6802   7.188   1.273   2.162
 2282TIP3    H1 6803   7.204   1.214   2.235
 2282TIP3    H2 6804   7.235   1.354   2.184
 2283TIP3   OH2 6805   7.485   0.327   3.218
 2283TIP3    H1 6806   7.554   0.270   3.183
 2283TIP3    H2 6807   7.455   0.283   3.297
 2284TIP3   OH2 6808   7.325   0.406   2.598
 2284TIP3    H1 6809   7.377   0.376   2.523
 2284TIP3    H2 6810   7.353   0.496   2.611
 2285TIP3   OH2 6811   7.568   1.353   2.999
 2285TIP3    H1 6812   7.478   1.346   3.030
 2285TIP3    H2 6813   7.622   1.345   3.077
 2286TIP3   OH2 6814   7.344   1.479   2.276
 2286TIP3    H1 6815   7.306   1.447   2.357
 2286TIP3    H2 6816   7.419   1.422   2.260
 2287TIP3   OH2 6817   7.550   1.308   2.193
 2287TIP3    H1 6818   7.550   1.228   2.245
 2287TIP3    H2 6819   7.638   1.313   2.157
 2288TIP3   OH2 6820   7.136   1.219   1.687
 2288TIP3    H1 6821   7.047   1.192   1.662
 2288TIP3    H2 6822   7.137   1.314   1.675
 2289TIP3   OH2 6823   7.227   1.188   1.404
 2289TIP3    H1 6824   7.210   1.198   1.497
 2289TIP3    H2 6825   7.314   1.148   1.401
 2290TIP3   OH2 6826   0.790   1.600   3.566
 2290TIP3    H1 6827   0.750   1.675   3.522
 2290TIP3    H2 6828   0.718   1.538   3.579
 2291TIP3   OH2 6829   0.784   1.583   3.952
 2291TIP3    H1 6830   0.835   1.563   4.030
 2291TIP3    H2 6831   0.746   1.499   3.926
 2292TIP3   OH2 6832   0.075   1.451   4.307
 2292TIP3    H1 6833   0.111   1.387   4.369
 2292TIP3    H2 6834   0.151   1.479   4.255
 2293TIP3   OH2 6835   1.043   1.882   3.618
 2293TIP3    H1 6836   1.027   1.812   3.681
 2293TIP3    H2 6837   1.067   1.957   3.671
 2294TIP3   OH2 6838   0.072   1.857   4.000
 2294TIP3    H1 6839   0.057   1.762   4.005
 2294TIP3    H2 6840   0.167   1.865   3.993
 2295TIP3   OH2 6841   0.699   2.314   3.632
 2295TIP3    H1 6842   0.728   2.248   3.569
 2295TIP3    H2 6843   0.700   2.269   3.716
 2296TIP3   OH2 6844   0.587   1.796   3.962
 2296TIP3    H1 6845   0.630   1.716   3.930
 2296TIP3    H2 6846   0.659   1.853   3.989
 2297TIP3   OH2 6847   1.625   1.121   3.955
 2297TIP3    H1 6848   1.641   1.207   3.994
 2297TIP3    H2 6849   1.657   1.129   3.865
 2298TIP3   OH2 6850   1.011   1.298   4.001
 2298TIP3    H1 6851   1.077   1.229   4.011
 2298TIP3    H2 6852   0.970   1.281   3.916
 2299TIP3   OH2 6853   1.052   1.070   3.603
 2299TIP3    H1 6854   1.123   1.071   3.667
 2299TIP3    H2 6855   1.092   1.099   3.521
 2300TIP3   OH2 6856   0.407   1.344   3.889
 2300TIP3    H1 6857   0.501   1.357   3.896
 2300TIP3    H2 6858   0.396   1.251   3.870
 2301TIP3   OH2 6859   1.676   1.333   4.140
 2301TIP3    H1 6860   1.587   1.367   4.129
 2301TIP3    H2 6861   1.703   1.364   4.226
 2302TIP3   OH2 6862   0.378   0.989   4.414
 2302TIP3    H1 6863   0.298   1.040   4.396
 2302TIP3    H2 6864   0.384   0.987   4.509
 2303TIP3   OH2 6865   0.652   1.787   3.416
 2303TIP3    H1 6866   0.651   1.775   3.321
 2303TIP3    H2 6867   0.600   1.866   3.431
 2304TIP3   OH2 6868   0.429   1.719   4.177
 2304TIP3    H1 6869   0.373   1.788   4.212
 2304TIP3    H2 6870   0.477   1.760   4.105
 2305TIP3   OH2 6871   1.220   1.089   3.813
 2305TIP3    H1 6872   1.277   1.019   3.844
 2305TIP3    H2 6873   1.269   1.169   3.831
 2306TIP3   OH2 6874   0.203   1.050   4.187
 2306TIP3    H1 6875   0.266   1.121   4.200
 2306TIP3    H2 6876   0.230   1.007   4.106
 2307TIP3   OH2 6877   0.264   1.916   4.285
 2307TIP3    H1 6878   0.251   2.005   4.251
 2307TIP3    H2 6879   0.184   1.898   4.334
 2308TIP3   OH2 6880   1.088   2.126   3.768
 2308TIP3    H1 6881   1.000   2.117   3.804
 2308TIP3    H2 6882   1.086   2.209   3.719
 2309TIP3   OH2 6883   1.435   1.050   4.148
 2309TIP3    H1 6884   1.344   1.067   4.122
 2309TIP3    H2 6885   1.486   1.064   4.069
 2310TIP3   OH2 6886   0.700   0.561   4.172
 2310TIP3    H1 6887   0.718   0.540   4.080
 2310TIP3    H2 6888   0.605   0.564   4.178
 2311TIP3   OH2 6889   0.789   2.153   3.424
 2311TIP3    H1 6890   0.839   2.072   3.412
 2311TIP3    H2 6891   0.849   2.222   3.395
 2312TIP3   OH2 6892   0.946   1.940   3.364
 2312TIP3    H1 6893   0.956   1.866   3.305
 2312TIP3    H2 6894   0.981   1.910   3.448
 2313TIP3   OH2 6895   1.322   2.017   4.109
 2313TIP3    H1 6896   1.305   1.942   4.051
 2313TIP3    H2 6897   1.307   2.093   4.053
 2314TIP3   OH2 6898   1.508   1.678   3.973
 2314TIP3    H1 6899   1.423   1.721   3.970
 2314TIP3    H2 6900   1.543   1.689   3.884
 2315TIP3   OH2 6901   0.961   1.552   3.352
 2315TIP3    H1 6902   0.912   1.563   3.433
 2315TIP3    H2 6903   1.039   1.503   3.377
 2316TIP3   OH2 6904   1.196   1.544   4.276
 2316TIP3    H1 6905   1.193   1.627   4.325
 2316TIP3    H2 6906   1.114   1.542   4.228
 2317TIP3   OH2 6907   0.199   1.485   3.773
 2317TIP3    H1 6908   0.179   1.439   3.692
 2317TIP3    H2 6909   0.275   1.440   3.809
 2318TIP3   OH2 6910   0.335   1.907   3.893
 2318TIP3    H1 6911   0.312   1.889   3.801
 2318TIP3    H2 6912   0.422   1.869   3.904
 2319TIP3   OH2 6913   0.299   1.485   4.114
 2319TIP3    H1 6914   0.338   1.450   4.035
 2319TIP3    H2 6915   0.349   1.565   4.133
 2320TIP3   OH2 6916   0.846   2.120   3.893
 2320TIP3    H1 6917   0.838   2.197   3.949
 2320TIP3    H2 6918   0.836   2.046   3.953
 2321TIP3   OH2 6919   0.467   2.023   4.441
 2321TIP3    H1 6920   0.408   2.084   4.486
 2321TIP3    H2 6921   0.409   1.971   4.386
 2322TIP3   OH2 6922   0.233   1.590   4.552
 2322TIP3    H1 6923   0.230   1.677   4.592
 2322TIP3    H2 6924   0.141   1.563   4.545
 2323TIP3   OH2 6925   0.531   2.049   3.405
 2323TIP3    H1 6926   0.621   2.076   3.424
 2323TIP3    H2 6927   0.485   2.130   3.384
 2324TIP3   OH2 6928   0.259   2.187   4.528
 2324TIP3    H1 6929   0.239   2.194   4.435
 2324TIP3    H2 6930   0.176   2.162   4.569
 2325TIP3   OH2 6931   1.136   1.977   2.780
 2325TIP3    H1 6932   1.133   2.071   2.764
 2325TIP3    H2 6933   1.223   1.951   2.749
 2326TIP3   OH2 6934   8.369   1.705   4.448
 2326TIP3    H1 6935   8.331   1.664   4.370
 2326TIP3    H2 6936   8.403   1.632   4.499
 2327TIP3   OH2 6937   8.240   1.892   4.044
 2327TIP3    H1 6938   8.335   1.895   4.054
 2327TIP3    H2 6939   8.206   1.938   4.121
 2328TIP3   OH2 6940   1.553   2.379   4.171
 2328TIP3    H1 6941   1.558   2.284   4.182
 2328TIP3    H2 6942   1.473   2.404   4.219
 2329TIP3   OH2 6943   0.660   2.160   4.300
 2329TIP3    H1 6944   0.654   2.251   4.328
 2329TIP3    H2 6945   0.591   2.115   4.349
 2330TIP3   OH2 6946   0.438   2.274   3.268
 2330TIP3    H1 6947   0.399   2.254   3.183
 2330TIP3    H2 6948   0.403   2.361   3.289
 2331TIP3   OH2 6949   8.363   2.121   3.637
 2331TIP3    H1 6950   8.432   2.109   3.701
 2331TIP3    H2 6951   8.285   2.082   3.677
 2332TIP3   OH2 6952   0.630   2.175   2.896
 2332TIP3    H1 6953   0.687   2.107   2.858
 2332TIP3    H2 6954   0.668   2.192   2.982
 2333TIP3   OH2 6955   0.690   2.240   3.159
 2333TIP3    H1 6956   0.606   2.243   3.204
 2333TIP3    H2 6957   0.749   2.198   3.222
 2334TIP3   OH2 6958   1.441   1.498   4.447
 2334TIP3    H1 6959   1.363   1.508   4.392
 2334TIP3    H2 6960   1.462   1.405   4.441
 2335TIP3   OH2 6961   0.047   1.915   4.465
 2335TIP3    H1 6962   0.105   1.886   4.535
 2335TIP3    H2 6963  -0.018   1.845   4.457
 2336TIP3   OH2 6964   0.389   0.785   4.237
 2336TIP3    H1 6965   0.339   0.710   4.267
 2336TIP3    H2 6966   0.381   0.849   4.307
 2337TIP3   OH2 6967   0.971   0.925   4.513
 2337TIP3    H1 6968   1.017   0.851   4.474
 2337TIP3    H2 6969   0.893   0.886   4.553
 2338TIP3   OH2 6970   1.206   1.286   4.375
 2338TIP3    H1 6971   1.165   1.287   4.461
 2338TIP3    H2 6972   1.190   1.374   4.340
 2339TIP3   OH2 6973   0.381   1.264   4.255
 2339TIP3    H1 6974   0.335   1.271   4.338
 2339TIP3    H2 6975   0.354   1.342   4.206
 2340TIP3   OH2 6976   0.787   1.283   3.494
 2340TIP3    H1 6977   0.710   1.268   3.440
 2340TIP3    H2 6978   0.859   1.289   3.431
 2341TIP3   OH2 6979   0.929   1.497   4.604
 2341TIP3    H1 6980   0.901   1.427   4.662
 2341TIP3    H2 6981   1.024   1.504   4.618
 2342TIP3   OH2 6982   0.905   1.242   3.749
 2342TIP3    H1 6983   0.845   1.284   3.687
 2342TIP3    H2 6984   0.952   1.178   3.697
 2343TIP3   OH2 6985   0.224   1.281   4.481
 2343TIP3    H1 6986   0.285   1.337   4.529
 2343TIP3    H2 6987   0.178   1.232   4.549
 2344TIP3   OH2 6988   0.935   1.493   4.171
 2344TIP3    H1 6989   0.963   1.425   4.110
 2344TIP3    H2 6990   0.896   1.445   4.244
 2345TIP3   OH2 6991   0.587   1.023   3.830
 2345TIP3    H1 6992   0.514   1.010   3.890
 2345TIP3    H2 6993   0.650   0.956   3.855
 2346TIP3   OH2 6994   1.161   1.065   4.110
 2346TIP3    H1 6995   1.104   1.086   4.184
 2346TIP3    H2 6996   1.104   1.021   4.047
 2347TIP3   OH2 6997   1.264   2.723   4.267
 2347TIP3    H1 6998   1.262   2.739   4.173
 2347TIP3    H2 6999   1.343   2.768   4.298
 2348TIP3   OH2 7000   0.208   1.834   4.685
 2348TIP3    H1 7001   0.293   1.852   4.726
 2348TIP3    H2 7002   0.146   1.837   4.758
 2349TIP3   OH2 7003   0.677   1.325   3.930
 2349TIP3    H1 7004   0.715   1.255   3.877
 2349TIP3    H2 7005   0.677   1.291   4.019
 2350TIP3   OH2 7006   0.656   1.254   4.194
 2350TIP3    H1 7007   0.563   1.256   4.216
 2350TIP3    H2 7008   0.699   1.305   4.263
 2351TIP3   OH2 7009   1.268   1.811   3.933
 2351TIP3    H1 7010   1.302   1.859   3.857
 2351TIP3    H2 7011   1.188   1.770   3.903
 2352TIP3   OH2 7012   0.782   1.893   4.331
 2352TIP3    H1 7013   0.833   1.884   4.412
 2352TIP3    H2 7014   0.743   1.980   4.335
 2353TIP3   OH2 7015   0.061   1.579   3.997
 2353TIP3    H1 7016   0.086   1.554   3.908
 2353TIP3    H2 7017   0.128   1.542   4.053
 2354TIP3   OH2 7018   0.564   1.742   3.148
 2354TIP3    H1 7019   0.503   1.815   3.141
 2354TIP3    H2 7020   0.513   1.672   3.187
 2355TIP3   OH2 7021   8.467   1.518   4.631
 2355TIP3    H1 7022   8.510   1.525   4.716
 2355TIP3    H2 7023   8.377   1.491   4.652
 2356TIP3   OH2 7024   0.692   1.640   4.626
 2356TIP3    H1 7025   0.629   1.585   4.579
 2356TIP3    H2 7026   0.777   1.603   4.604
 2357TIP3   OH2 7027   0.931   2.178   4.220
 2357TIP3    H1 7028   0.836   2.164   4.226
 2357TIP3    H2 7029   0.955   2.217   4.304
 2358TIP3   OH2 7030   1.404   1.210   3.028
 2358TIP3    H1 7031   1.316   1.182   3.055
 2358TIP3    H2 7032   1.394   1.304   3.010
 2359TIP3   OH2 7033   1.569   2.100   4.196
 2359TIP3    H1 7034   1.475   2.084   4.193
 2359TIP3    H2 7035   1.601   2.067   4.112
 2360TIP3   OH2 7036   1.062   2.039   3.047
 2360TIP3    H1 7037   1.031   1.967   3.103
 2360TIP3    H2 7038   1.074   1.999   2.961
 2361TIP3   OH2 7039   1.036   1.681   3.836
 2361TIP3    H1 7040   0.945   1.658   3.854
 2361TIP3    H2 7041   1.073   1.602   3.795
 2362TIP3   OH2 7042   0.192   1.910   3.649
 2362TIP3    H1 7043   0.193   1.981   3.585
 2362TIP3    H2 7044   0.110   1.922   3.697
 2363TIP3   OH2 7045   0.324   1.670   3.603
 2363TIP3    H1 7046   0.284   1.757   3.601
 2363TIP3    H2 7047   0.278   1.624   3.673
 2364TIP3   OH2 7048   0.473   2.236   4.094
 2364TIP3    H1 7049   0.509   2.309   4.043
 2364TIP3    H2 7050   0.547   2.201   4.142
 2365TIP3   OH2 7051   0.119   2.141   3.512
 2365TIP3    H1 7052   0.025   2.143   3.527
 2365TIP3    H2 7053   0.144   2.232   3.500
 2366TIP3   OH2 7054   0.830   1.896   4.058
 2366TIP3    H1 7055   0.820   1.887   4.153
 2366TIP3    H2 7056   0.896   1.831   4.035
 2367TIP3   OH2 7057   0.816   1.775   2.960
 2367TIP3    H1 7058   0.880   1.762   3.029
 2367TIP3    H2 7059   0.732   1.751   2.999
 2368TIP3   OH2 7060   1.082   2.401   4.107
 2368TIP3    H1 7061   1.010   2.338   4.118
 2368TIP3    H2 7062   1.054   2.457   4.035
 2369TIP3   OH2 7063   1.143   2.251   2.746
 2369TIP3    H1 7064   1.177   2.322   2.692
 2369TIP3    H2 7065   1.066   2.289   2.790
 2370TIP3   OH2 7066   0.999   1.745   3.164
 2370TIP3    H1 7067   0.973   1.673   3.221
 2370TIP3    H2 7068   1.091   1.727   3.144
 2371TIP3   OH2 7069   8.431   2.116   4.229
 2371TIP3    H1 7070   8.455   2.053   4.297
 2371TIP3    H2 7071   8.438   2.201   4.273
 2372TIP3   OH2 7072   0.996   1.116   4.326
 2372TIP3    H1 7073   1.075   1.162   4.353
 2372TIP3    H2 7074   0.981   1.051   4.394
 2373TIP3   OH2 7075   0.389   1.952   3.166
 2373TIP3    H1 7076   0.410   1.980   3.255
 2373TIP3    H2 7077   0.380   2.034   3.117
 2374TIP3   OH2 7078   0.842   1.344   4.381
 2374TIP3    H1 7079   0.875   1.383   4.462
 2374TIP3    H2 7080   0.887   1.260   4.375
 2375TIP3   OH2 7081   1.470   1.229   4.362
 2375TIP3    H1 7082   1.375   1.237   4.372
 2375TIP3    H2 7083   1.482   1.173   4.284
 2376TIP3   OH2 7084   1.130   1.431   3.741
 2376TIP3    H1 7085   1.057   1.369   3.751
 2376TIP3    H2 7086   1.202   1.392   3.790
 2377TIP3   OH2 7087   1.108   2.395   3.683
 2377TIP3    H1 7088   1.066   2.444   3.613
 2377TIP3    H2 7089   1.202   2.407   3.668
 2378TIP3   OH2 7090   8.413   2.374   4.685
 2378TIP3    H1 7091   8.479   2.425   4.731
 2378TIP3    H2 7092   8.457   2.292   4.664
 2379TIP3   OH2 7093   0.359   2.355   4.721
 2379TIP3    H1 7094   0.452   2.333   4.729
 2379TIP3    H2 7095   0.327   2.300   4.650
 2380TIP3   OH2 7096   0.984   2.285   4.469
 2380TIP3    H1 7097   0.994   2.214   4.532
 2380TIP3    H2 7098   1.059   2.341   4.483
 2381TIP3   OH2 7099   0.799   1.990   2.788
 2381TIP3    H1 7100   0.802   1.913   2.846
 2381TIP3    H2 7101   0.869   1.975   2.725
 2382TIP3   OH2 7102   8.470   1.816   4.848
 2382TIP3    H1 7103   8.500   1.726   4.837
 2382TIP3    H2 7104   8.406   1.829   4.778
 2383TIP3   OH2 7105   0.621   1.914   4.643
 2383TIP3    H1 7106   0.578   1.935   4.560
 2383TIP3    H2 7107   0.657   1.827   4.629
 2384TIP3   OH2 7108   1.101   1.953   4.264
 2384TIP3    H1 7109   1.178   1.979   4.214
 2384TIP3    H2 7110   1.034   2.018   4.242
 2385TIP3   OH2 7111   0.097   1.569   4.872
 2385TIP3    H1 7112   0.159   1.498   4.863
 2385TIP3    H2 7113   0.110   1.601   4.961
 2386TIP3   OH2 7114   0.463   1.450   4.518
 2386TIP3    H1 7115   0.390   1.511   4.527
 2386TIP3    H2 7116   0.509   1.480   4.439
 2387TIP3   OH2 7117   0.983   1.834   4.627
 2387TIP3    H1 7118   1.049   1.796   4.570
 2387TIP3    H2 7119   0.979   1.775   4.702
 2388TIP3   OH2 7120   0.597   1.240   4.628
 2388TIP3    H1 7121   0.620   1.183   4.555
 2388TIP3    H2 7122   0.553   1.314   4.588
 2389TIP3   OH2 7123   0.636   1.073   4.411
 2389TIP3    H1 7124   0.668   1.106   4.327
 2389TIP3    H2 7125   0.546   1.046   4.394
 2390TIP3   OH2 7126   0.606   1.559   4.316
 2390TIP3    H1 7127   0.695   1.579   4.287
 2390TIP3    H2 7128   0.550   1.620   4.267
 2391TIP3   OH2 7129   1.200   1.508   4.695
 2391TIP3    H1 7130   1.224   1.415   4.701
 2391TIP3    H2 7131   1.278   1.551   4.659
 2392TIP3   OH2 7132   1.223   1.780   4.434
 2392TIP3    H1 7133   1.170   1.841   4.382
 2392TIP3    H2 7134   1.312   1.792   4.402
 2393TIP3   OH2 7135   0.497   1.331   4.884
 2393TIP3    H1 7136   0.402   1.334   4.901
 2393TIP3    H2 7137   0.504   1.297   4.795
 2394TIP3   OH2 7138   0.699   0.859   4.573
 2394TIP3    H1 7139   0.678   0.933   4.516
 2394TIP3    H2 7140   0.711   0.785   4.513
 2395TIP3   OH2 7141   0.841   1.282   4.748
 2395TIP3    H1 7142   0.832   1.263   4.841
 2395TIP3    H2 7143   0.756   1.261   4.710
 2396TIP3   OH2 7144   1.083   1.243   4.609
 2396TIP3    H1 7145   1.003   1.231   4.661
 2396TIP3    H2 7146   1.153   1.205   4.662
 2397TIP3   OH2 7147   1.319   1.205   4.751
 2397TIP3    H1 7148   1.338   1.111   4.758
 2397TIP3    H2 7149   1.317   1.235   4.842
 2398TIP3   OH2 7150   0.769   0.796   4.825
 2398TIP3    H1 7151   0.840   0.734   4.807
 2398TIP3    H2 7152   0.731   0.815   4.740
 2399TIP3   OH2 7153   0.892   1.009   4.932
 2399TIP3    H1 7154   0.853   0.933   4.889
 2399TIP3    H2 7155   0.819   1.070   4.945
 2400TIP3   OH2 7156   8.164   2.051   3.811
 2400TIP3    H1 7157   8.177   1.971   3.863
 2400TIP3    H2 7158   8.143   2.118   3.875
 2401TIP3   OH2 7159   1.376   2.458   3.667
 2401TIP3    H1 7160   1.399   2.484   3.756
 2401TIP3    H2 7161   1.437   2.505   3.611
 2402TIP3   OH2 7162   1.399   2.480   3.949
 2402TIP3    H1 7163   1.350   2.398   3.942
 2402TIP3    H2 7164   1.468   2.461   4.013
 2403TIP3   OH2 7165   1.445   2.177   4.521
 2403TIP3    H1 7166   1.375   2.186   4.586
 2403TIP3    H2 7167   1.489   2.261   4.523
 2404TIP3   OH2 7168   1.268   1.696   3.123
 2404TIP3    H1 7169   1.335   1.760   3.099
 2404TIP3    H2 7170   1.307   1.648   3.196
 2405TIP3   OH2 7171   1.389   1.555   3.327
 2405TIP3    H1 7172   1.317   1.517   3.376
 2405TIP3    H2 7173   1.451   1.585   3.394
 2406TIP3   OH2 7174   1.443   1.948   3.763
 2406TIP3    H1 7175   1.495   1.877   3.725
 2406TIP3    H2 7176   1.441   2.016   3.696
 2407TIP3   OH2 7177   1.257   2.240   3.958
 2407TIP3    H1 7178   1.189   2.283   4.010
 2407TIP3    H2 7179   1.209   2.197   3.887
 2408TIP3   OH2 7180   1.291   1.461   2.973
 2408TIP3    H1 7181   1.222   1.400   3.000
 2408TIP3    H2 7182   1.268   1.544   3.017
 2409TIP3   OH2 7183   1.190   1.429   3.469
 2409TIP3    H1 7184   1.195   1.336   3.447
 2409TIP3    H2 7185   1.173   1.431   3.563
 2410TIP3   OH2 7186   8.327   1.520   4.202
 2410TIP3    H1 7187   8.365   1.550   4.120
 2410TIP3    H2 7188   8.400   1.482   4.251
 2411TIP3   OH2 7189   1.478   1.827   4.332
 2411TIP3    H1 7190   1.545   1.760   4.318
 2411TIP3    H2 7191   1.488   1.888   4.259
 2412TIP3   OH2 7192   1.657   1.620   4.328
 2412TIP3    H1 7193   1.583   1.576   4.370
 2412TIP3    H2 7194   1.733   1.566   4.349
 2413TIP3   OH2 7195   1.198   1.160   3.393
 2413TIP3    H1 7196   1.253   1.083   3.377
 2413TIP3    H2 7197   1.166   1.184   3.307
 2414TIP3   OH2 7198   1.349   1.319   3.875
 2414TIP3    H1 7199   1.432   1.334   3.829
 2414TIP3    H2 7200   1.366   1.352   3.964
 2415TIP3   OH2 7201   1.422   1.453   4.109
 2415TIP3    H1 7202   1.345   1.483   4.157
 2415TIP3    H2 7203   1.454   1.531   4.065
 2416TIP3   OH2 7204   1.885   1.054   4.645
 2416TIP3    H1 7205   1.945   0.992   4.603
 2416TIP3    H2 7206   1.849   1.106   4.573
 2417TIP3   OH2 7207   1.325   0.901   3.400
 2417TIP3    H1 7208   1.362   0.879   3.486
 2417TIP3    H2 7209   1.250   0.843   3.390
 2418TIP3   OH2 7210   1.735   1.176   4.452
 2418TIP3    H1 7211   1.652   1.213   4.482
 2418TIP3    H2 7212   1.710   1.102   4.397
 2419TIP3   OH2 7213   0.939   2.351   3.316
 2419TIP3    H1 7214   0.993   2.337   3.238
 2419TIP3    H2 7215   0.986   2.417   3.366
 2420TIP3   OH2 7216   0.028   2.125   4.680
 2420TIP3    H1 7217  -0.018   2.054   4.635
 2420TIP3    H2 7218   0.022   2.102   4.773
 2421TIP3   OH2 7219   0.250   2.190   4.248
 2421TIP3    H1 7220   0.190   2.256   4.213
 2421TIP3    H2 7221   0.332   2.205   4.201
 2422TIP3   OH2 7222   0.651   2.427   4.379
 2422TIP3    H1 7223   0.690   2.421   4.466
 2422TIP3    H2 7224   0.713   2.480   4.329
 2423TIP3   OH2 7225   0.839   2.582   4.248
 2423TIP3    H1 7226   0.901   2.528   4.200
 2423TIP3    H2 7227   0.893   2.639   4.303
 2424TIP3   OH2 7228   1.652   0.936   4.339
 2424TIP3    H1 7229   1.568   0.932   4.294
 2424TIP3    H2 7230   1.690   0.850   4.326
 2425TIP3   OH2 7231   8.447   2.389   4.303
 2425TIP3    H1 7232   8.361   2.400   4.264
 2425TIP3    H2 7233   8.455   2.461   4.365
 2426TIP3   OH2 7234   0.155   2.425   4.127
 2426TIP3    H1 7235   0.076   2.417   4.180
 2426TIP3    H2 7236   0.123   2.433   4.037
 2427TIP3   OH2 7237   0.555   2.442   3.927
 2427TIP3    H1 7238   0.485   2.452   3.862
 2427TIP3    H2 7239   0.565   2.529   3.965
 2428TIP3   OH2 7240   0.820   2.385   3.983
 2428TIP3    H1 7241   0.728   2.400   3.961
 2428TIP3    H2 7242   0.868   2.450   3.932
 2429TIP3   OH2 7243   1.023   2.563   3.884
 2429TIP3    H1 7244   1.016   2.648   3.841
 2429TIP3    H2 7245   1.052   2.504   3.814
 2430TIP3   OH2 7246   8.352   2.223   3.985
 2430TIP3    H1 7247   8.359   2.187   4.073
 2430TIP3    H2 7248   8.407   2.165   3.931
 2431TIP3   OH2 7249   0.037   2.076   3.843
 2431TIP3    H1 7250   0.043   2.001   3.903
 2431TIP3    H2 7251   0.120   2.122   3.853
 2432TIP3   OH2 7252   0.294   2.185   3.884
 2432TIP3    H1 7253   0.316   2.093   3.872
 2432TIP3    H2 7254   0.342   2.211   3.963
 2433TIP3   OH2 7255   0.755   0.806   3.892
 2433TIP3    H1 7256   0.818   0.862   3.937
 2433TIP3    H2 7257   0.783   0.808   3.800
 2434TIP3   OH2 7258   1.345   0.849   3.868
 2434TIP3    H1 7259   1.392   0.846   3.785
 2434TIP3    H2 7260   1.254   0.831   3.845
 2435TIP3   OH2 7261   1.469   0.827   3.628
 2435TIP3    H1 7262   1.528   0.762   3.590
 2435TIP3    H2 7263   1.514   0.910   3.614
 2436TIP3   OH2 7264   1.090   0.768   3.835
 2436TIP3    H1 7265   1.029   0.767   3.761
 2436TIP3    H2 7266   1.055   0.703   3.896
 2437TIP3   OH2 7267   0.379   2.190   3.010
 2437TIP3    H1 7268   0.465   2.188   2.967
 2437TIP3    H2 7269   0.316   2.177   2.938
 2438TIP3   OH2 7270   1.089   2.308   3.084
 2438TIP3    H1 7271   1.084   2.213   3.077
 2438TIP3    H2 7272   1.043   2.340   3.006
 2439TIP3   OH2 7273   1.397   0.944   4.772
 2439TIP3    H1 7274   1.407   0.886   4.848
 2439TIP3    H2 7275   1.481   0.938   4.726
 2440TIP3   OH2 7276   1.304   2.449   4.272
 2440TIP3    H1 7277   1.229   2.419   4.220
 2440TIP3    H2 7278   1.291   2.544   4.280
 2441TIP3   OH2 7279   2.582   1.838   3.012
 2441TIP3    H1 7280   2.549   1.924   2.986
 2441TIP3    H2 7281   2.509   1.778   2.994
 2442TIP3   OH2 7282   2.571   1.824   3.437
 2442TIP3    H1 7283   2.625   1.810   3.515
 2442TIP3    H2 7284   2.532   1.739   3.418
 2443TIP3   OH2 7285   1.878   1.700   3.783
 2443TIP3    H1 7286   1.911   1.644   3.853
 2443TIP3    H2 7287   1.956   1.723   3.733
 2444TIP3   OH2 7288   2.837   2.136   3.111
 2444TIP3    H1 7289   2.830   2.069   3.179
 2444TIP3    H2 7290   2.864   2.215   3.159
 2445TIP3   OH2 7291   1.865   2.127   3.483
 2445TIP3    H1 7292   1.850   2.033   3.484
 2445TIP3    H2 7293   1.960   2.136   3.484
 2446TIP3   OH2 7294   1.550   1.330   3.265
 2446TIP3    H1 7295   1.496   1.408   3.283
 2446TIP3    H2 7296   1.490   1.269   3.222
 2447TIP3   OH2 7297   1.618   1.620   3.477
 2447TIP3    H1 7298   1.665   1.540   3.502
 2447TIP3    H2 7299   1.679   1.667   3.420
 2448TIP3   OH2 7300   2.489   2.572   3.116
 2448TIP3    H1 7301   2.524   2.503   3.060
 2448TIP3    H2 7302   2.493   2.536   3.204
 2449TIP3   OH2 7303   2.386   2.050   3.446
 2449TIP3    H1 7304   2.426   1.967   3.420
 2449TIP3    H2 7305   2.459   2.105   3.474
 2450TIP3   OH2 7306   3.406   1.370   3.452
 2450TIP3    H1 7307   3.425   1.446   3.505
 2450TIP3    H2 7308   3.426   1.397   3.362
 2451TIP3   OH2 7309   2.796   1.547   3.477
 2451TIP3    H1 7310   2.832   1.462   3.504
 2451TIP3    H2 7311   2.750   1.529   3.395
 2452TIP3   OH2 7312   2.137   1.203   3.442
 2452TIP3    H1 7313   2.116   1.276   3.383
 2452TIP3    H2 7314   2.087   1.130   3.407
 2453TIP3   OH2 7315   2.848   1.305   3.081
 2453TIP3    H1 7316   2.912   1.295   3.152
 2453TIP3    H2 7317   2.899   1.339   3.008
 2454TIP3   OH2 7318   1.768   1.405   3.560
 2454TIP3    H1 7319   1.852   1.386   3.604
 2454TIP3    H2 7320   1.771   1.353   3.480
 2455TIP3   OH2 7321   2.194   1.613   3.378
 2455TIP3    H1 7322   2.288   1.595   3.387
 2455TIP3    H2 7323   2.156   1.531   3.347
 2456TIP3   OH2 7324   3.463   1.584   3.615
 2456TIP3    H1 7325   3.385   1.633   3.593
 2456TIP3    H2 7326   3.453   1.563   3.708
 2457TIP3   OH2 7327   2.121   1.213   3.898
 2457TIP3    H1 7328   2.070   1.246   3.824
 2457TIP3    H2 7329   2.065   1.228   3.974
 2458TIP3   OH2 7330   2.474   2.052   2.868
 2458TIP3    H1 7331   2.436   2.022   2.785
 2458TIP3    H2 7332   2.419   2.126   2.894
 2459TIP3   OH2 7333   2.230   1.974   3.663
 2459TIP3    H1 7334   2.174   2.044   3.696
 2459TIP3    H2 7335   2.279   2.014   3.591
 2460TIP3   OH2 7336   3.020   1.311   3.290
 2460TIP3    H1 7337   2.973   1.294   3.372
 2460TIP3    H2 7338   3.071   1.390   3.308
 2461TIP3   OH2 7339   2.012   1.310   3.662
 2461TIP3    H1 7340   2.069   1.383   3.685
 2461TIP3    H2 7341   2.058   1.265   3.591
 2462TIP3   OH2 7342   2.065   2.176   3.762
 2462TIP3    H1 7343   2.049   2.265   3.733
 2462TIP3    H2 7344   1.989   2.152   3.814
 2463TIP3   OH2 7345   1.451   1.882   3.014
 2463TIP3    H1 7346   1.399   1.907   2.938
 2463TIP3    H2 7347   1.476   1.966   3.053
 2464TIP3   OH2 7348   2.879   2.387   3.247
 2464TIP3    H1 7349   2.792   2.377   3.286
 2464TIP3    H2 7350   2.878   2.472   3.205
 2465TIP3   OH2 7351   3.203   1.260   3.625
 2465TIP3    H1 7352   3.118   1.289   3.590
 2465TIP3    H2 7353   3.267   1.291   3.560
 2466TIP3   OH2 7354   2.586   2.412   2.908
 2466TIP3    H1 7355   2.640   2.333   2.900
 2466TIP3    H2 7356   2.645   2.483   2.882
 2467TIP3   OH2 7357   2.727   2.185   2.864
 2467TIP3    H1 7358   2.661   2.116   2.857
 2467TIP3    H2 7359   2.777   2.162   2.942
 2468TIP3   OH2 7360   3.106   2.280   3.588
 2468TIP3    H1 7361   3.094   2.203   3.532
 2468TIP3    H2 7362   3.097   2.355   3.529
 2469TIP3   OH2 7363   2.405   1.677   2.864
 2469TIP3    H1 7364   2.323   1.722   2.843
 2469TIP3    H2 7365   2.454   1.678   2.782
 2470TIP3   OH2 7366   2.370   1.485   2.571
 2470TIP3    H1 7367   2.436   1.531   2.624
 2470TIP3    H2 7368   2.420   1.424   2.518
 2471TIP3   OH2 7369   3.301   1.931   3.450
 2471TIP3    H1 7370   3.218   1.980   3.450
 2471TIP3    H2 7371   3.340   1.950   3.365
 2472TIP3   OH2 7372   2.767   1.760   2.829
 2472TIP3    H1 7373   2.713   1.790   2.902
 2472TIP3    H2 7374   2.851   1.736   2.869
 2473TIP3   OH2 7375   3.002   1.792   3.770
 2473TIP3    H1 7376   3.000   1.874   3.817
 2473TIP3    H2 7377   2.919   1.788   3.723
 2474TIP3   OH2 7378   1.996   1.747   3.233
 2474TIP3    H1 7379   1.957   1.685   3.171
 2474TIP3    H2 7380   2.067   1.698   3.275
 2475TIP3   OH2 7381   2.134   2.172   3.376
 2475TIP3    H1 7382   2.110   2.140   3.289
 2475TIP3    H2 7383   2.219   2.132   3.394
 2476TIP3   OH2 7384   2.099   1.738   3.608
 2476TIP3    H1 7385   2.137   1.703   3.528
 2476TIP3    H2 7386   2.149   1.818   3.626
 2477TIP3   OH2 7387   2.640   2.374   3.377
 2477TIP3    H1 7388   2.635   2.452   3.433
 2477TIP3    H2 7389   2.632   2.301   3.439
 2478TIP3   OH2 7390   2.266   2.279   3.925
 2478TIP3    H1 7391   2.206   2.336   3.973
 2478TIP3    H2 7392   2.209   2.226   3.870
 2479TIP3   OH2 7393   2.601   1.616   2.666
 2479TIP3    H1 7394   2.660   1.673   2.716
 2479TIP3    H2 7395   2.628   1.627   2.575
 2480TIP3   OH2 7396   2.020   1.836   4.059
 2480TIP3    H1 7397   2.020   1.928   4.083
 2480TIP3    H2 7398   1.927   1.812   4.054
 2481TIP3   OH2 7399   2.333   2.302   2.881
 2481TIP3    H1 7400   2.421   2.334   2.901
 2481TIP3    H2 7401   2.277   2.380   2.887
 2482TIP3   OH2 7402   2.054   2.437   4.010
 2482TIP3    H1 7403   2.028   2.444   3.918
 2482TIP3    H2 7404   1.972   2.421   4.057
 2483TIP3   OH2 7405   3.118   0.874   2.703
 2483TIP3    H1 7406   3.036   0.870   2.753
 2483TIP3    H2 7407   3.150   0.963   2.719
 2484TIP3   OH2 7408   1.866   1.590   3.034
 2484TIP3    H1 7409   1.787   1.634   3.002
 2484TIP3    H2 7410   1.836   1.503   3.059
 2485TIP3   OH2 7411   2.929   2.228   2.269
 2485TIP3    H1 7412   2.924   2.321   2.246
 2485TIP3    H2 7413   3.019   2.203   2.248
 2486TIP3   OH2 7414   1.643   1.989   3.959
 2486TIP3    H1 7415   1.575   1.970   3.895
 2486TIP3    H2 7416   1.679   1.904   3.983
 2487TIP3   OH2 7417   1.501   2.173   3.595
 2487TIP3    H1 7418   1.597   2.173   3.594
 2487TIP3    H2 7419   1.478   2.249   3.649
 2488TIP3   OH2 7420   3.345   2.620   3.657
 2488TIP3    H1 7421   3.353   2.527   3.677
 2488TIP3    H2 7422   3.269   2.649   3.706
 2489TIP3   OH2 7423   2.452   2.423   3.782
 2489TIP3    H1 7424   2.448   2.512   3.815
 2489TIP3    H2 7425   2.388   2.375   3.834
 2490TIP3   OH2 7426   2.213   2.526   2.738
 2490TIP3    H1 7427   2.180   2.514   2.649
 2490TIP3    H2 7428   2.184   2.613   2.763
 2491TIP3   OH2 7429   1.665   2.376   3.126
 2491TIP3    H1 7430   1.708   2.369   3.211
 2491TIP3    H2 7431   1.613   2.296   3.118
 2492TIP3   OH2 7432   2.423   2.439   2.389
 2492TIP3    H1 7433   2.478   2.372   2.347
 2492TIP3    H2 7434   2.463   2.454   2.474
 2493TIP3   OH2 7435   2.477   2.497   2.652
 2493TIP3    H1 7436   2.391   2.498   2.695
 2493TIP3    H2 7437   2.536   2.462   2.719
 2494TIP3   OH2 7438   3.234   1.750   3.939
 2494TIP3    H1 7439   3.155   1.765   3.887
 2494TIP3    H2 7440   3.252   1.656   3.928
 2495TIP3   OH2 7441   1.846   2.173   3.930
 2495TIP3    H1 7442   1.896   2.163   4.011
 2495TIP3    H2 7443   1.775   2.110   3.937
 2496TIP3   OH2 7444   2.221   0.992   3.765
 2496TIP3    H1 7445   2.142   0.961   3.721
 2496TIP3    H2 7446   2.193   1.073   3.809
 2497TIP3   OH2 7447   2.774   1.094   3.932
 2497TIP3    H1 7448   2.844   1.072   3.993
 2497TIP3    H2 7449   2.694   1.082   3.983
 2498TIP3   OH2 7450   2.967   1.518   3.839
 2498TIP3    H1 7451   2.965   1.517   3.935
 2498TIP3    H2 7452   2.990   1.608   3.817
 2499TIP3   OH2 7453   2.682   1.623   2.406
 2499TIP3    H1 7454   2.637   1.619   2.322
 2499TIP3    H2 7455   2.764   1.670   2.388
 2500TIP3   OH2 7456   2.392   1.031   2.700
 2500TIP3    H1 7457   2.368   1.043   2.792
 2500TIP3    H2 7458   2.365   0.941   2.680
 2501TIP3   OH2 7459   2.172   1.515   3.754
 2501TIP3    H1 7460   2.126   1.523   3.837
 2501TIP3    H2 7461   2.151   1.596   3.708
 2502TIP3   OH2 7462   2.044   1.403   3.277
 2502TIP3    H1 7463   1.956   1.373   3.301
 2502TIP3    H2 7464   2.060   1.365   3.191
 2503TIP3   OH2 7465   2.540   1.476   2.996
 2503TIP3    H1 7466   2.490   1.547   2.955
 2503TIP3    H2 7467   2.595   1.442   2.925
 2504TIP3   OH2 7468   2.722   1.740   4.074
 2504TIP3    H1 7469   2.698   1.668   4.133
 2504TIP3    H2 7470   2.814   1.757   4.094
 2505TIP3   OH2 7471   2.701   1.492   3.226
 2505TIP3    H1 7472   2.632   1.513   3.163
 2505TIP3    H2 7473   2.747   1.418   3.187
 2506TIP3   OH2 7474   2.001   1.529   3.971
 2506TIP3    H1 7475   2.043   1.586   4.036
 2506TIP3    H2 7476   1.981   1.449   4.019
 2507TIP3   OH2 7477   2.036   0.996   2.674
 2507TIP3    H1 7478   2.043   1.000   2.770
 2507TIP3    H2 7479   1.953   1.040   2.654
 2508TIP3   OH2 7480   1.598   1.055   3.565
 2508TIP3    H1 7481   1.674   1.093   3.609
 2508TIP3    H2 7482   1.629   1.033   3.478
 2509TIP3   OH2 7483   1.618   1.054   3.085
 2509TIP3    H1 7484   1.656   1.025   3.002
 2509TIP3    H2 7485   1.544   1.109   3.060
 2510TIP3   OH2 7486   2.735   1.744   3.653
 2510TIP3    H1 7487   2.764   1.678   3.590
 2510TIP3    H2 7488   2.699   1.694   3.725
 2511TIP3   OH2 7489   2.400   1.246   3.336
 2511TIP3    H1 7490   2.325   1.221   3.390
 2511TIP3    H2 7491   2.473   1.194   3.371
 2512TIP3   OH2 7492   1.811   1.267   3.327
 2512TIP3    H1 7493   1.721   1.274   3.295
 2512TIP3    H2 7494   1.837   1.178   3.306
 2513TIP3   OH2 7495   2.075   1.276   3.038
 2513TIP3    H1 7496   2.169   1.290   3.028
 2513TIP3    H2 7497   2.038   1.299   2.953
 2514TIP3   OH2 7498   2.867   1.278   3.519
 2514TIP3    H1 7499   2.842   1.291   3.610
 2514TIP3    H2 7500   2.804   1.213   3.486
 2515TIP3   OH2 7501   1.952   1.310   2.797
 2515TIP3    H1 7502   1.885   1.257   2.754
 2515TIP3    H2 7503   2.003   1.347   2.725
 2516TIP3   OH2 7504   3.057   2.983   3.756
 2516TIP3    H1 7505   3.060   2.985   3.660
 2516TIP3    H2 7506   3.138   3.026   3.783
 2517TIP3   OH2 7507   2.002   2.096   4.165
 2517TIP3    H1 7508   2.084   2.114   4.212
 2517TIP3    H2 7509   1.934   2.099   4.232
 2518TIP3   OH2 7510   2.463   1.556   3.434
 2518TIP3    H1 7511   2.507   1.489   3.381
 2518TIP3    H2 7512   2.460   1.519   3.522
 2519TIP3   OH2 7513   1.967   1.022   3.314
 2519TIP3    H1 7514   1.928   0.954   3.368
 2519TIP3    H2 7515   2.005   0.975   3.240
 2520TIP3   OH2 7516   2.439   1.463   3.697
 2520TIP3    H1 7517   2.352   1.490   3.725
 2520TIP3    H2 7518   2.498   1.512   3.755
 2521TIP3   OH2 7519   2.168   1.818   2.807
 2521TIP3    H1 7520   2.100   1.752   2.792
 2521TIP3    H2 7521   2.148   1.854   2.894
 2522TIP3   OH2 7522   3.063   2.070   3.414
 2522TIP3    H1 7523   3.098   2.117   3.338
 2522TIP3    H2 7524   2.983   2.028   3.382
 2523TIP3   OH2 7525   2.615   1.166   2.605
 2523TIP3    H1 7526   2.540   1.121   2.644
 2523TIP3    H2 7527   2.641   1.230   2.672
 2524TIP3   OH2 7528   2.579   2.151   3.818
 2524TIP3    H1 7529   2.631   2.132   3.896
 2524TIP3    H2 7530   2.540   2.237   3.835
 2525TIP3   OH2 7531   2.700   1.374   2.778
 2525TIP3    H1 7532   2.793   1.381   2.800
 2525TIP3    H2 7533   2.680   1.456   2.733
 2526TIP3   OH2 7534   1.878   1.850   3.463
 2526TIP3    H1 7535   1.912   1.822   3.378
 2526TIP3    H2 7536   1.933   1.807   3.527
 2527TIP3   OH2 7537   2.308   1.984   2.647
 2527TIP3    H1 7538   2.251   2.061   2.647
 2527TIP3    H2 7539   2.261   1.919   2.699
 2528TIP3   OH2 7540   1.747   1.767   4.096
 2528TIP3    H1 7541   1.758   1.743   4.189
 2528TIP3    H2 7542   1.676   1.711   4.065
 2529TIP3   OH2 7543   2.492   1.894   4.111
 2529TIP3    H1 7544   2.427   1.838   4.067
 2529TIP3    H2 7545   2.576   1.856   4.089
 2530TIP3   OH2 7546   2.723   2.439   3.700
 2530TIP3    H1 7547   2.629   2.423   3.710
 2530TIP3    H2 7548   2.751   2.475   3.784
 2531TIP3   OH2 7549   3.113   1.489   2.631
 2531TIP3    H1 7550   3.151   1.426   2.570
 2531TIP3    H2 7551   3.104   1.569   2.580
 2532TIP3   OH2 7552   3.354   2.333   3.688
 2532TIP3    H1 7553   3.259   2.326   3.676
 2532TIP3    H2 7554   3.392   2.309   3.604
 2533TIP3   OH2 7555   2.848   2.298   2.532
 2533TIP3    H1 7556   2.823   2.226   2.590
 2533TIP3    H2 7557   2.867   2.255   2.449
 2534TIP3   OH2 7558   2.829   1.936   3.316
 2534TIP3    H1 7559   2.740   1.912   3.342
 2534TIP3    H2 7560   2.867   1.855   3.282
 2535TIP3   OH2 7561   1.974   2.162   3.121
 2535TIP3    H1 7562   1.962   2.241   3.068
 2535TIP3    H2 7563   1.887   2.146   3.159
 2536TIP3   OH2 7564   1.536   1.460   2.851
 2536TIP3    H1 7565   1.578   1.542   2.877
 2536TIP3    H2 7566   1.449   1.463   2.890
 2537TIP3   OH2 7567   2.085   1.925   3.039
 2537TIP3    H1 7568   2.055   2.012   3.066
 2537TIP3    H2 7569   2.059   1.867   3.111
 2538TIP3   OH2 7570   2.265   2.493   3.580
 2538TIP3    H1 7571   2.305   2.562   3.527
 2538TIP3    H2 7572   2.336   2.459   3.633
 2539TIP3   OH2 7573   1.891   2.392   2.974
 2539TIP3    H1 7574   1.808   2.398   3.022
 2539TIP3    H2 7575   1.928   2.480   2.980
 2540TIP3   OH2 7576   2.627   2.150   3.547
 2540TIP3    H1 7577   2.611   2.147   3.642
 2540TIP3    H2 7578   2.705   2.096   3.534
 2541TIP3   OH2 7579   2.613   2.032   2.424
 2541TIP3    H1 7580   2.663   2.001   2.499
 2541TIP3    H2 7581   2.529   1.986   2.430
 2542TIP3   OH2 7582   2.875   2.657   3.596
 2542TIP3    H1 7583   2.808   2.590   3.609
 2542TIP3    H2 7584   2.843   2.710   3.523
 2543TIP3   OH2 7585   2.931   2.501   2.225
 2543TIP3    H1 7586   2.953   2.564   2.157
 2543TIP3    H2 7587   2.858   2.541   2.272
 2544TIP3   OH2 7588   1.950   1.283   4.104
 2544TIP3    H1 7589   1.855   1.291   4.108
 2544TIP3    H2 7590   1.973   1.224   4.176
 2545TIP3   OH2 7591   2.785   1.944   2.619
 2545TIP3    H1 7592   2.773   1.889   2.696
 2545TIP3    H2 7593   2.880   1.952   2.611
 2546TIP3   OH2 7594   1.691   2.372   3.744
 2546TIP3    H1 7595   1.741   2.304   3.790
 2546TIP3    H2 7596   1.708   2.452   3.794
 2547TIP3   OH2 7597   1.984   1.993   2.440
 2547TIP3    H1 7598   1.986   1.903   2.407
 2547TIP3    H2 7599   1.956   1.984   2.531
 2548TIP3   OH2 7600   1.930   2.015   2.711
 2548TIP3    H1 7601   1.974   1.952   2.768
 2548TIP3    H2 7602   1.982   2.095   2.721
 2549TIP3   OH2 7603   1.643   1.708   2.918
 2549TIP3    H1 7604   1.577   1.755   2.970
 2549TIP3    H2 7605   1.659   1.766   2.843
 2550TIP3   OH2 7606   2.791   1.323   3.775
 2550TIP3    H1 7607   2.863   1.379   3.806
 2550TIP3    H2 7608   2.791   1.249   3.837
 2551TIP3   OH2 7609   2.716   1.098   2.963
 2551TIP3    H1 7610   2.660   1.146   2.901
 2551TIP3    H2 7611   2.760   1.167   3.013
 2552TIP3   OH2 7612   2.156   2.221   2.680
 2552TIP3    H1 7613   2.217   2.244   2.751
 2552TIP3    H2 7614   2.183   2.277   2.607
 2553TIP3   OH2 7615   2.350   1.290   3.068
 2553TIP3    H1 7616   2.416   1.357   3.046
 2553TIP3    H2 7617   2.366   1.271   3.161
 2554TIP3   OH2 7618   2.642   1.579   3.853
 2554TIP3    H1 7619   2.670   1.625   3.933
 2554TIP3    H2 7620   2.695   1.499   3.851
 2555TIP3   OH2 7621   2.522   1.000   3.137
 2555TIP3    H1 7622   2.541   1.028   3.226
 2555TIP3    H2 7623   2.600   1.023   3.087
 2556TIP3   OH2 7624   1.893   2.315   2.713
 2556TIP3    H1 7625   1.988   2.310   2.713
 2556TIP3    H2 7626   1.869   2.337   2.803
 2557TIP3   OH2 7627   2.041   1.011   2.956
 2557TIP3    H1 7628   2.029   1.096   2.996
 2557TIP3    H2 7629   2.135   0.993   2.964
 2558TIP3   OH2 7630   3.273   1.494   3.812
 2558TIP3    H1 7631   3.259   1.463   3.901
 2558TIP3    H2 7632   3.222   1.434   3.757
 2559TIP3   OH2 7633   2.923   1.682   3.229
 2559TIP3    H1 7634   2.846   1.627   3.245
 2559TIP3    H2 7635   2.992   1.641   3.281
 2560TIP3   OH2 7636   1.668   1.896   2.708
 2560TIP3    H1 7637   1.742   1.955   2.720
 2560TIP3    H2 7638   1.699   1.832   2.645
 2561TIP3   OH2 7639   1.592   1.197   2.786
 2561TIP3    H1 7640   1.593   1.286   2.819
 2561TIP3    H2 7641   1.517   1.156   2.829
 2562TIP3   OH2 7642   2.901   2.658   3.171
 2562TIP3    H1 7643   2.860   2.708   3.101
 2562TIP3    H2 7644   2.995   2.674   3.160
 2563TIP3   OH2 7645   1.964   0.904   3.706
 2563TIP3    H1 7646   1.934   0.875   3.620
 2563TIP3    H2 7647   1.970   0.824   3.757
 2564TIP3   OH2 7648   1.500   2.151   3.099
 2564TIP3    H1 7649   1.448   2.180   3.174
 2564TIP3    H2 7650   1.458   2.192   3.024
 2565TIP3   OH2 7651   1.689   2.689   4.161
 2565TIP3    H1 7652   1.771   2.694   4.210
 2565TIP3    H2 7653   1.674   2.595   4.152
 2566TIP3   OH2 7654   2.155   2.609   4.202
 2566TIP3    H1 7655   2.247   2.586   4.214
 2566TIP3    H2 7656   2.125   2.552   4.131
 2567TIP3   OH2 7657   2.116   2.204   2.336
 2567TIP3    H1 7658   2.074   2.125   2.371
 2567TIP3    H2 7659   2.193   2.172   2.291
 2568TIP3   OH2 7660   2.785   2.541   3.946
 2568TIP3    H1 7661   2.786   2.470   4.010
 2568TIP3    H2 7662   2.862   2.594   3.967
 2569TIP3   OH2 7663   2.564   2.245   2.260
 2569TIP3    H1 7664   2.596   2.176   2.319
 2569TIP3    H2 7665   2.623   2.240   2.184
 2570TIP3   OH2 7666   1.798   2.084   4.355
 2570TIP3    H1 7667   1.819   1.991   4.362
 2570TIP3    H2 7668   1.712   2.087   4.312
 2571TIP3   OH2 7669   1.798   1.707   2.563
 2571TIP3    H1 7670   1.849   1.674   2.637
 2571TIP3    H2 7671   1.860   1.711   2.491
 2572TIP3   OH2 7672   2.415   2.169   4.132
 2572TIP3    H1 7673   2.374   2.189   4.048
 2572TIP3    H2 7674   2.454   2.082   4.119
 2573TIP3   OH2 7675   2.354   1.920   2.382
 2573TIP3    H1 7676   2.327   1.931   2.473
 2573TIP3    H2 7677   2.338   1.827   2.364
 2574TIP3   OH2 7678   2.891   2.208   3.744
 2574TIP3    H1 7679   2.969   2.236   3.697
 2574TIP3    H2 7680   2.826   2.275   3.726
 2575TIP3   OH2 7681   1.917   1.830   4.354
 2575TIP3    H1 7682   1.994   1.806   4.301
 2575TIP3    H2 7683   1.953   1.849   4.440
 2576TIP3   OH2 7684   1.970   1.633   2.773
 2576TIP3    H1 7685   1.941   1.604   2.859
 2576TIP3    H2 7686   2.009   1.555   2.733
 2577TIP3   OH2 7687   2.254   1.696   4.011
 2577TIP3    H1 7688   2.179   1.755   4.023
 2577TIP3    H2 7689   2.298   1.731   3.933
 2578TIP3   OH2 7690   2.097   1.443   2.609
 2578TIP3    H1 7691   2.069   1.452   2.518
 2578TIP3    H2 7692   2.192   1.454   2.606
 2579TIP3   OH2 7693   2.778   2.089   4.111
 2579TIP3    H1 7694   2.854   2.059   4.062
 2579TIP3    H2 7695   2.775   2.034   4.189
 2580TIP3   OH2 7696   2.902   1.746   2.281
 2580TIP3    H1 7697   2.881   1.703   2.198
 2580TIP3    H2 7698   2.873   1.837   2.268
 2581TIP3   OH2 7699   2.378   1.483   4.130
 2581TIP3    H1 7700   2.385   1.410   4.069
 2581TIP3    H2 7701   2.339   1.554   4.079
 2582TIP3   OH2 7702   2.386   1.282   3.928
 2582TIP3    H1 7703   2.415   1.315   3.843
 2582TIP3    H2 7704   2.294   1.259   3.916
 2583TIP3   OH2 7705   2.396   1.810   3.811
 2583TIP3    H1 7706   2.487   1.823   3.783
 2583TIP3    H2 7707   2.346   1.873   3.760
 2584TIP3   OH2 7708   2.988   1.766   4.175
 2584TIP3    H1 7709   3.002   1.672   4.166
 2584TIP3    H2 7710   3.073   1.805   4.154
 2585TIP3   OH2 7711   3.024   2.036   3.911
 2585TIP3    H1 7712   2.969   2.096   3.860
 2585TIP3    H2 7713   3.113   2.053   3.881
 2586TIP3   OH2 7714   2.258   1.578   4.367
 2586TIP3    H1 7715   2.193   1.510   4.386
 2586TIP3    H2 7716   2.291   1.554   4.280
 2587TIP3   OH2 7717   2.509   1.046   4.019
 2587TIP3    H1 7718   2.467   1.126   3.988
 2587TIP3    H2 7719   2.443   0.978   4.008
 2588TIP3   OH2 7720   2.643   1.524   4.221
 2588TIP3    H1 7721   2.647   1.514   4.316
 2588TIP3    H2 7722   2.553   1.502   4.197
 2589TIP3   OH2 7723   2.917   1.496   4.108
 2589TIP3    H1 7724   2.841   1.477   4.163
 2589TIP3    H2 7725   2.986   1.440   4.143
 2590TIP3   OH2 7726   2.100   1.353   4.431
 2590TIP3    H1 7727   2.105   1.265   4.392
 2590TIP3    H2 7728   2.140   1.343   4.518
 2591TIP3   OH2 7729   2.579   1.029   4.284
 2591TIP3    H1 7730   2.649   0.964   4.278
 2591TIP3    H2 7731   2.548   1.038   4.194
 2592TIP3   OH2 7732   2.665   1.244   4.432
 2592TIP3    H1 7733   2.639   1.173   4.373
 2592TIP3    H2 7734   2.592   1.306   4.429
 2593TIP3   OH2 7735   1.889   2.451   2.452
 2593TIP3    H1 7736   1.984   2.462   2.462
 2593TIP3    H2 7737   1.864   2.518   2.389
 2594TIP3   OH2 7738   1.389   1.894   2.696
 2594TIP3    H1 7739   1.484   1.901   2.706
 2594TIP3    H2 7740   1.374   1.804   2.669
 2595TIP3   OH2 7741   1.293   2.468   3.174
 2595TIP3    H1 7742   1.229   2.412   3.129
 2595TIP3    H2 7743   1.338   2.409   3.234
 2596TIP3   OH2 7744   1.434   2.306   3.348
 2596TIP3    H1 7745   1.423   2.236   3.413
 2596TIP3    H2 7746   1.485   2.373   3.394
 2597TIP3   OH2 7747   3.163   2.739   3.154
 2597TIP3    H1 7748   3.197   2.748   3.242
 2597TIP3    H2 7749   3.238   2.757   3.097
 2598TIP3   OH2 7750   3.205   2.735   3.436
 2598TIP3    H1 7751   3.153   2.655   3.426
 2598TIP3    H2 7752   3.271   2.712   3.502
 2599TIP3   OH2 7753   3.233   2.439   4.007
 2599TIP3    H1 7754   3.168   2.445   4.077
 2599TIP3    H2 7755   3.282   2.521   4.012
 2600TIP3   OH2 7756   3.066   1.943   2.614
 2600TIP3    H1 7757   3.124   2.013   2.586
 2600TIP3    H2 7758   3.109   1.906   2.691
 2601TIP3   OH2 7759   3.192   1.807   2.820
 2601TIP3    H1 7760   3.128   1.768   2.878
 2601TIP3    H2 7761   3.259   1.844   2.878
 2602TIP3   OH2 7762   3.233   2.204   3.243
 2602TIP3    H1 7763   3.291   2.136   3.208
 2602TIP3    H2 7764   3.242   2.277   3.181
 2603TIP3   OH2 7765   3.051   2.504   3.434
 2603TIP3    H1 7766   2.984   2.543   3.491
 2603TIP3    H2 7767   3.001   2.460   3.366
 2604TIP3   OH2 7768   3.101   1.714   2.465
 2604TIP3    H1 7769   3.029   1.719   2.401
 2604TIP3    H2 7770   3.089   1.791   2.520
 2605TIP3   OH2 7771   2.994   1.668   2.963
 2605TIP3    H1 7772   3.003   1.573   2.955
 2605TIP3    H2 7773   2.973   1.683   3.055
 2606TIP3   OH2 7774   1.615   1.735   3.725
 2606TIP3    H1 7775   1.604   1.697   3.638
 2606TIP3    H2 7776   1.709   1.732   3.741
 2607TIP3   OH2 7777   3.282   2.087   3.823
 2607TIP3    H1 7778   3.344   2.016   3.806
 2607TIP3    H2 7779   3.312   2.159   3.766
 2608TIP3   OH2 7780   3.445   1.865   3.805
 2608TIP3    H1 7781   3.373   1.826   3.855
 2608TIP3    H2 7782   3.520   1.810   3.824
 2609TIP3   OH2 7783   2.983   1.379   2.849
 2609TIP3    H1 7784   3.029   1.296   2.855
 2609TIP3    H2 7785   3.026   1.426   2.778
 2610TIP3   OH2 7786   3.139   1.552   3.353
 2610TIP3    H1 7787   3.222   1.569   3.308
 2610TIP3    H2 7788   3.150   1.593   3.439
 2611TIP3   OH2 7789   3.209   1.704   3.572
 2611TIP3    H1 7790   3.148   1.730   3.641
 2611TIP3    H2 7791   3.242   1.787   3.538
 2612TIP3   OH2 7792   1.838   1.422   4.385
 2612TIP3    H1 7793   1.933   1.413   4.394
 2612TIP3    H2 7794   1.803   1.340   4.420
 2613TIP3   OH2 7795   3.709   1.316   4.138
 2613TIP3    H1 7796   3.751   1.247   4.085
 2613TIP3    H2 7797   3.645   1.355   4.079
 2614TIP3   OH2 7798   3.097   1.122   2.880
 2614TIP3    H1 7799   3.144   1.115   2.963
 2614TIP3    H2 7800   3.029   1.055   2.885
 2615TIP3   OH2 7801   1.807   1.129   3.731
 2615TIP3    H1 7802   1.858   1.048   3.733
 2615TIP3    H2 7803   1.871   1.197   3.711
 2616TIP3   OH2 7804   1.598   1.393   3.785
 2616TIP3    H1 7805   1.642   1.376   3.701
 2616TIP3    H2 7806   1.635   1.475   3.816
 2617TIP3   OH2 7807   3.530   1.419   3.958
 2617TIP3    H1 7808   3.451   1.435   4.009
 2617TIP3    H2 7809   3.505   1.349   3.897
 2618TIP3   OH2 7810   3.115   1.086   2.449
 2618TIP3    H1 7811   3.183   1.024   2.422
 2618TIP3    H2 7812   3.163   1.161   2.483
 2619TIP3   OH2 7813   1.596   0.919   3.316
 2619TIP3    H1 7814   1.502   0.914   3.334
 2619TIP3    H2 7815   1.602   0.971   3.237
 2620TIP3   OH2 7816   2.733   2.612   2.801
 2620TIP3    H1 7817   2.787   2.597   2.723
 2620TIP3    H2 7818   2.782   2.675   2.853
 2621TIP3   OH2 7819   1.805   0.968   4.100
 2621TIP3    H1 7820   1.755   0.971   4.181
 2621TIP3    H2 7821   1.749   1.011   4.035
 2622TIP3   OH2 7822   1.829   2.408   4.173
 2622TIP3    H1 7823   1.735   2.387   4.166
 2622TIP3    H2 7824   1.850   2.393   4.265
 2623TIP3   OH2 7825   2.035   2.450   3.727
 2623TIP3    H1 7826   1.983   2.524   3.695
 2623TIP3    H2 7827   2.120   2.460   3.685
 2624TIP3   OH2 7828   2.446   2.689   3.865
 2624TIP3    H1 7829   2.484   2.678   3.953
 2624TIP3    H2 7830   2.512   2.739   3.817
 2625TIP3   OH2 7831   2.637   2.838   3.731
 2625TIP3    H1 7832   2.702   2.778   3.693
 2625TIP3    H2 7833   2.688   2.894   3.789
 2626TIP3   OH2 7834   3.447   1.199   3.795
 2626TIP3    H1 7835   3.355   1.203   3.769
 2626TIP3    H2 7836   3.462   1.107   3.817
 2627TIP3   OH2 7837   1.699   2.707   3.769
 2627TIP3    H1 7838   1.607   2.723   3.749
 2627TIP3    H2 7839   1.720   2.768   3.839
 2628TIP3   OH2 7840   1.928   2.681   3.620
 2628TIP3    H1 7841   1.846   2.690   3.669
 2628TIP3    H2 7842   1.906   2.706   3.530
 2629TIP3   OH2 7843   2.350   2.695   3.406
 2629TIP3    H1 7844   2.275   2.708   3.348
 2629TIP3    H2 7845   2.359   2.778   3.453
 2630TIP3   OH2 7846   2.618   2.643   3.456
 2630TIP3    H1 7847   2.525   2.658   3.438
 2630TIP3    H2 7848   2.663   2.717   3.415
 2631TIP3   OH2 7849   2.826   2.831   3.374
 2631TIP3    H1 7850   2.813   2.915   3.329
 2631TIP3    H2 7851   2.854   2.772   3.304
 2632TIP3   OH2 7852   1.612   2.477   3.497
 2632TIP3    H1 7853   1.634   2.448   3.586
 2632TIP3    H2 7854   1.684   2.444   3.443
 2633TIP3   OH2 7855   1.814   2.362   3.356
 2633TIP3    H1 7856   1.824   2.279   3.402
 2633TIP3    H2 7857   1.902   2.402   3.359
 2634TIP3   OH2 7858   2.083   2.446   3.373
 2634TIP3    H1 7859   2.102   2.354   3.359
 2634TIP3    H2 7860   2.133   2.471   3.450
 2635TIP3   OH2 7861   2.616   1.073   3.398
 2635TIP3    H1 7862   2.585   0.995   3.445
 2635TIP3    H2 7863   2.705   1.050   3.371
 2636TIP3   OH2 7864   3.154   0.998   3.335
 2636TIP3    H1 7865   3.189   1.055   3.266
 2636TIP3    H2 7866   3.063   1.027   3.345
 2637TIP3   OH2 7867   3.262   1.092   3.097
 2637TIP3    H1 7868   3.332   1.029   3.081
 2637TIP3    H2 7869   3.304   1.177   3.086
 2638TIP3   OH2 7870   1.868   0.815   3.464
 2638TIP3    H1 7871   1.778   0.781   3.465
 2638TIP3    H2 7872   1.923   0.737   3.465
 2639TIP3   OH2 7873   1.723   0.721   3.169
 2639TIP3    H1 7874   1.737   0.775   3.091
 2639TIP3    H2 7875   1.687   0.781   3.234
 2640TIP3   OH2 7876   2.866   0.986   3.322
 2640TIP3    H1 7877   2.878   0.944   3.237
 2640TIP3    H2 7878   2.868   0.915   3.385
 2641TIP3   OH2 7879   2.912   0.917   2.887
 2641TIP3    H1 7880   2.834   0.968   2.909
 2641TIP3    H2 7881   2.900   0.833   2.932
 2642TIP3   OH2 7882   1.384   2.275   2.886
 2642TIP3    H1 7883   1.302   2.238   2.854
 2642TIP3    H2 7884   1.388   2.363   2.848
 2643TIP3   OH2 7885   1.805   0.867   2.937
 2643TIP3    H1 7886   1.844   0.783   2.910
 2643TIP3    H2 7887   1.881   0.925   2.948
 2644TIP3   OH2 7888   2.316   1.039   2.964
 2644TIP3    H1 7889   2.374   0.991   3.023
 2644TIP3    H2 7890   2.321   1.130   2.995
 2645TIP3   OH2 7891   2.164   2.430   2.475
 2645TIP3    H1 7892   2.250   2.458   2.445
 2645TIP3    H2 7893   2.141   2.356   2.419
 2646TIP3   OH2 7894   2.884   2.566   2.572
 2646TIP3    H1 7895   2.878   2.470   2.563
 2646TIP3    H2 7896   2.842   2.600   2.492
 2647TIP3   OH2 7897   2.104   1.077   4.344
 2647TIP3    H1 7898   2.069   1.010   4.403
 2647TIP3    H2 7899   2.196   1.085   4.368
 2648TIP3   OH2 7900   2.353   1.084   4.464
 2648TIP3    H1 7901   2.432   1.063   4.415
 2648TIP3    H2 7902   2.347   1.014   4.530
 2649TIP3   OH2 7903   3.136   1.171   4.256
 2649TIP3    H1 7904   3.175   1.160   4.342
 2649TIP3    H2 7905   3.174   1.252   4.222
 2650TIP3   OH2 7906   3.101   2.707   3.757
 2650TIP3    H1 7907   3.025   2.677   3.707
 2650TIP3    H2 7908   3.085   2.800   3.772
 2651TIP3   OH2 7909   4.376   2.090   2.500
 2651TIP3    H1 7910   4.348   2.178   2.478
 2651TIP3    H2 7911   4.303   2.034   2.476
 2652TIP3   OH2 7912   4.366   2.079   2.920
 2652TIP3    H1 7913   4.417   2.068   3.000
 2652TIP3    H2 7914   4.324   1.994   2.906
 2653TIP3   OH2 7915   3.666   1.958   3.277
 2653TIP3    H1 7916   3.698   1.895   3.342
 2653TIP3    H2 7917   3.741   2.015   3.260
 2654TIP3   OH2 7918   4.630   2.394   2.596
 2654TIP3    H1 7919   4.621   2.328   2.664
 2654TIP3    H2 7920   4.656   2.473   2.643
 2655TIP3   OH2 7921   3.651   2.371   2.963
 2655TIP3    H1 7922   3.640   2.276   2.969
 2655TIP3    H2 7923   3.746   2.383   2.959
 2656TIP3   OH2 7924   3.351   1.579   2.751
 2656TIP3    H1 7925   3.317   1.666   2.772
 2656TIP3    H2 7926   3.276   1.531   2.716
 2657TIP3   OH2 7927   3.428   1.887   2.953
 2657TIP3    H1 7928   3.476   1.811   2.984
 2657TIP3    H2 7929   3.496   1.951   2.930
 2658TIP3   OH2 7930   4.298   2.831   2.612
 2658TIP3    H1 7931   4.324   2.759   2.555
 2658TIP3    H2 7932   4.321   2.803   2.700
 2659TIP3   OH2 7933   4.176   2.308   2.933
 2659TIP3    H1 7934   4.218   2.228   2.903
 2659TIP3    H2 7935   4.249   2.364   2.961
 2660TIP3   OH2 7936   5.208   1.626   2.943
 2660TIP3    H1 7937   5.226   1.710   2.986
 2660TIP3    H2 7938   5.234   1.640   2.852
 2661TIP3   OH2 7939   4.589   1.797   2.966
 2661TIP3    H1 7940   4.626   1.713   2.993
 2661TIP3    H2 7941   4.551   1.780   2.880
 2662TIP3   OH2 7942   3.940   1.455   2.925
 2662TIP3    H1 7943   3.921   1.532   2.871
 2662TIP3    H2 7944   3.885   1.386   2.889
 2663TIP3   OH2 7945   4.638   1.554   2.559
 2663TIP3    H1 7946   4.703   1.548   2.629
 2663TIP3    H2 7947   4.687   1.589   2.484
 2664TIP3   OH2 7948   3.567   1.670   3.053
 2664TIP3    H1 7949   3.650   1.656   3.099
 2664TIP3    H2 7950   3.575   1.619   2.973
 2665TIP3   OH2 7951   3.999   1.876   2.856
 2665TIP3    H1 7952   4.092   1.855   2.867
 2665TIP3    H2 7953   3.960   1.793   2.828
 2666TIP3   OH2 7954   5.267   1.840   3.116
 2666TIP3    H1 7955   5.184   1.885   3.103
 2666TIP3    H2 7956   5.304   1.879   3.196
 2667TIP3   OH2 7957   3.920   1.455   3.380
 2667TIP3    H1 7958   3.870   1.494   3.308
 2667TIP3    H2 7959   3.866   1.471   3.457
 2668TIP3   OH2 7960   4.274   2.309   2.359
 2668TIP3    H1 7961   4.234   2.283   2.276
 2668TIP3    H2 7962   4.221   2.384   2.389
 2669TIP3   OH2 7963   4.022   2.233   3.151
 2669TIP3    H1 7964   3.968   2.303   3.187
 2669TIP3    H2 7965   4.071   2.275   3.079
 2670TIP3   OH2 7966   4.807   1.575   2.773
 2670TIP3    H1 7967   4.765   1.555   2.856
 2670TIP3    H2 7968   4.863   1.650   2.791
 2671TIP3   OH2 7969   3.812   1.564   3.148
 2671TIP3    H1 7970   3.865   1.640   3.172
 2671TIP3    H2 7971   3.859   1.523   3.077
 2672TIP3   OH2 7972   3.860   2.432   3.254
 2672TIP3    H1 7973   3.846   2.522   3.224
 2672TIP3    H2 7974   3.782   2.413   3.306
 2673TIP3   OH2 7975   3.241   2.133   2.499
 2673TIP3    H1 7976   3.205   2.153   2.413
 2673TIP3    H2 7977   3.267   2.218   2.535
 2674TIP3   OH2 7978   4.685   2.635   2.742
 2674TIP3    H1 7979   4.598   2.629   2.780
 2674TIP3    H2 7980   4.688   2.723   2.703
 2675TIP3   OH2 7981   5.006   1.508   3.106
 2675TIP3    H1 7982   4.921   1.540   3.077
 2675TIP3    H2 7983   5.067   1.542   3.040
 2676TIP3   OH2 7984   4.265   1.150   3.103
 2676TIP3    H1 7985   4.255   1.058   3.128
 2676TIP3    H2 7986   4.190   1.194   3.143
 2677TIP3   OH2 7987   4.384   2.670   2.395
 2677TIP3    H1 7988   4.437   2.591   2.385
 2677TIP3    H2 7989   4.440   2.741   2.366
 2678TIP3   OH2 7990   4.525   2.441   2.344
 2678TIP3    H1 7991   4.453   2.378   2.343
 2678TIP3    H2 7992   4.573   2.420   2.424
 2679TIP3   OH2 7993   4.202   1.931   2.349
 2679TIP3    H1 7994   4.120   1.977   2.329
 2679TIP3    H2 7995   4.251   1.933   2.267
 2680TIP3   OH2 7996   4.171   1.737   2.054
 2680TIP3    H1 7997   4.235   1.788   2.103
 2680TIP3    H2 7998   4.223   1.670   2.010
 2681TIP3   OH2 7999   5.101   2.173   2.956
 2681TIP3    H1 8000   5.020   2.224   2.953
 2681TIP3    H2 8001   5.138   2.181   2.868
 2682TIP3   OH2 8002   4.560   2.017   2.312
 2682TIP3    H1 8003   4.506   2.047   2.385
 2682TIP3    H2 8004   4.643   1.992   2.353
 2683TIP3   OH2 8005   4.787   2.059   3.256
 2683TIP3    H1 8006   4.784   2.146   3.296
 2683TIP3    H2 8007   4.705   2.054   3.207
 2684TIP3   OH2 8008   3.791   2.007   2.723
 2684TIP3    H1 8009   3.755   1.947   2.657
 2684TIP3    H2 8010   3.866   1.961   2.759
 2685TIP3   OH2 8011   3.919   2.424   2.863
 2685TIP3    H1 8012   3.902   2.404   2.771
 2685TIP3    H2 8013   4.006   2.389   2.881
 2686TIP3   OH2 8014   3.899   1.998   3.085
 2686TIP3    H1 8015   3.940   1.966   3.004
 2686TIP3    H2 8016   3.947   2.078   3.105
 2687TIP3   OH2 8017   4.439   2.625   2.858
 2687TIP3    H1 8018   4.435   2.710   2.902
 2687TIP3    H2 8019   4.427   2.562   2.928
 2688TIP3   OH2 8020   4.058   2.531   3.427
 2688TIP3    H1 8021   3.998   2.591   3.472
 2688TIP3    H2 8022   4.001   2.480   3.369
 2689TIP3   OH2 8023   4.393   1.881   2.144
 2689TIP3    H1 8024   4.453   1.938   2.192
 2689TIP3    H2 8025   4.420   1.890   2.052
 2690TIP3   OH2 8026   3.823   2.093   3.522
 2690TIP3    H1 8027   3.830   2.182   3.556
 2690TIP3    H2 8028   3.731   2.070   3.534
 2691TIP3   OH2 8029   4.136   2.549   2.400
 2691TIP3    H1 8030   4.218   2.596   2.411
 2691TIP3    H2 8031   4.078   2.612   2.357
 2692TIP3   OH2 8032   3.846   2.695   3.500
 2692TIP3    H1 8033   3.818   2.700   3.408
 2692TIP3    H2 8034   3.765   2.679   3.549
 2693TIP3   OH2 8035   4.902   1.109   2.198
 2693TIP3    H1 8036   4.825   1.130   2.251
 2693TIP3    H2 8037   4.916   1.187   2.144
 2694TIP3   OH2 8038   3.667   1.851   2.518
 2694TIP3    H1 8039   3.585   1.889   2.487
 2694TIP3    H2 8040   3.647   1.759   2.532
 2695TIP3   OH2 8041   4.720   2.483   1.749
 2695TIP3    H1 8042   4.719   2.577   1.734
 2695TIP3    H2 8043   4.810   2.456   1.729
 2696TIP3   OH2 8044   3.440   2.236   3.448
 2696TIP3    H1 8045   3.373   2.210   3.386
 2696TIP3    H2 8046   3.477   2.153   3.479
 2697TIP3   OH2 8047   3.322   2.423   3.080
 2697TIP3    H1 8048   3.411   2.403   3.053
 2697TIP3    H2 8049   3.331   2.492   3.146
 2698TIP3   OH2 8050   5.175   2.894   3.160
 2698TIP3    H1 8051   5.155   2.801   3.152
 2698TIP3    H2 8052   5.096   2.933   3.199
 2699TIP3   OH2 8053   4.248   2.668   3.279
 2699TIP3    H1 8054   4.251   2.759   3.306
 2699TIP3    H2 8055   4.182   2.628   3.336
 2700TIP3   OH2 8056   4.025   2.774   2.228
 2700TIP3    H1 8057   3.980   2.758   2.145
 2700TIP3    H2 8058   3.994   2.860   2.255
 2701TIP3   OH2 8059   3.462   2.635   2.610
 2701TIP3    H1 8060   3.507   2.626   2.694
 2701TIP3    H2 8061   3.414   2.552   2.600
 2702TIP3   OH2 8062   4.228   2.703   1.857
 2702TIP3    H1 8063   4.280   2.631   1.822
 2702TIP3    H2 8064   4.263   2.717   1.945
 2703TIP3   OH2 8065   4.280   2.749   2.126
 2703TIP3    H1 8066   4.194   2.751   2.170
 2703TIP3    H2 8067   4.340   2.717   2.193
 2704TIP3   OH2 8068   5.047   2.022   3.414
 2704TIP3    H1 8069   4.964   2.036   3.368
 2704TIP3    H2 8070   5.061   1.927   3.409
 2705TIP3   OH2 8071   3.634   2.429   3.415
 2705TIP3    H1 8072   3.687   2.419   3.494
 2705TIP3    H2 8073   3.565   2.364   3.425
 2706TIP3   OH2 8074   4.028   1.243   3.230
 2706TIP3    H1 8075   3.944   1.212   3.196
 2706TIP3    H2 8076   4.006   1.323   3.279
 2707TIP3   OH2 8077   4.572   1.356   3.426
 2707TIP3    H1 8078   4.641   1.336   3.490
 2707TIP3    H2 8079   4.490   1.343   3.474
 2708TIP3   OH2 8080   4.796   1.791   3.342
 2708TIP3    H1 8081   4.752   1.784   3.427
 2708TIP3    H2 8082   4.779   1.881   3.314
 2709TIP3   OH2 8083   4.470   1.869   1.879
 2709TIP3    H1 8084   4.430   1.868   1.792
 2709TIP3    H2 8085   4.550   1.919   1.869
 2710TIP3   OH2 8086   4.179   1.287   2.177
 2710TIP3    H1 8087   4.151   1.297   2.268
 2710TIP3    H2 8088   4.143   1.202   2.150
 2711TIP3   OH2 8089   3.964   1.776   3.237
 2711TIP3    H1 8090   3.918   1.786   3.321
 2711TIP3    H2 8091   3.942   1.856   3.189
 2712TIP3   OH2 8092   3.850   1.661   2.769
 2712TIP3    H1 8093   3.760   1.635   2.791
 2712TIP3    H2 8094   3.861   1.635   2.678
 2713TIP3   OH2 8095   4.333   1.730   2.486
 2713TIP3    H1 8096   4.284   1.802   2.445
 2713TIP3    H2 8097   4.390   1.699   2.416
 2714TIP3   OH2 8098   4.515   1.996   3.560
 2714TIP3    H1 8099   4.489   1.929   3.624
 2714TIP3    H2 8100   4.607   2.014   3.581
 2715TIP3   OH2 8101   4.494   1.741   2.715
 2715TIP3    H1 8102   4.429   1.769   2.652
 2715TIP3    H2 8103   4.539   1.668   2.673
 2716TIP3   OH2 8104   3.797   1.787   3.457
 2716TIP3    H1 8105   3.815   1.849   3.527
 2716TIP3    H2 8106   3.777   1.705   3.503
 2717TIP3   OH2 8107   3.841   1.261   2.185
 2717TIP3    H1 8108   3.838   1.262   2.280
 2717TIP3    H2 8109   3.762   1.307   2.157
 2718TIP3   OH2 8110   3.410   1.304   3.019
 2718TIP3    H1 8111   3.463   1.338   3.091
 2718TIP3    H2 8112   3.448   1.344   2.941
 2719TIP3   OH2 8113   3.311   1.269   2.533
 2719TIP3    H1 8114   3.389   1.216   2.515
 2719TIP3    H2 8115   3.321   1.346   2.477
 2720TIP3   OH2 8116   4.530   1.998   3.139
 2720TIP3    H1 8117   4.557   1.931   3.075
 2720TIP3    H2 8118   4.489   1.948   3.209
 2721TIP3   OH2 8119   4.207   1.445   2.813
 2721TIP3    H1 8120   4.129   1.448   2.868
 2721TIP3    H2 8121   4.280   1.440   2.874
 2722TIP3   OH2 8122   3.612   1.529   2.823
 2722TIP3    H1 8123   3.525   1.536   2.783
 2722TIP3    H2 8124   3.644   1.443   2.796
 2723TIP3   OH2 8125   3.867   1.563   2.519
 2723TIP3    H1 8126   3.960   1.549   2.502
 2723TIP3    H2 8127   3.825   1.552   2.433
 2724TIP3   OH2 8128   4.668   1.533   3.012
 2724TIP3    H1 8129   4.651   1.549   3.105
 2724TIP3    H2 8130   4.596   1.475   2.985
 2725TIP3   OH2 8131   3.741   1.553   2.273
 2725TIP3    H1 8132   3.679   1.504   2.219
 2725TIP3    H2 8133   3.798   1.598   2.210
 2726TIP3   OH2 8134   4.854   3.241   3.244
 2726TIP3    H1 8135   4.851   3.248   3.148
 2726TIP3    H2 8136   4.934   3.287   3.269
 2727TIP3   OH2 8137   3.791   2.349   3.639
 2727TIP3    H1 8138   3.870   2.376   3.687
 2727TIP3    H2 8139   3.723   2.346   3.706
 2728TIP3   OH2 8140   4.263   1.806   2.919
 2728TIP3    H1 8141   4.333   1.760   2.873
 2728TIP3    H2 8142   4.262   1.767   3.007
 2729TIP3   OH2 8143   3.753   1.286   2.786
 2729TIP3    H1 8144   3.724   1.200   2.817
 2729TIP3    H2 8145   3.776   1.272   2.694
 2730TIP3   OH2 8146   4.233   1.715   3.189
 2730TIP3    H1 8147   4.146   1.750   3.208
 2730TIP3    H2 8148   4.292   1.770   3.241
 2731TIP3   OH2 8149   3.968   2.074   2.290
 2731TIP3    H1 8150   3.895   2.016   2.270
 2731TIP3    H2 8151   3.946   2.113   2.374
 2732TIP3   OH2 8152   4.862   2.296   2.909
 2732TIP3    H1 8153   4.860   2.390   2.889
 2732TIP3    H2 8154   4.778   2.263   2.877
 2733TIP3   OH2 8155   4.433   1.390   2.185
 2733TIP3    H1 8156   4.339   1.371   2.183
 2733TIP3    H2 8157   4.438   1.484   2.204
 2734TIP3   OH2 8158   4.383   2.417   3.306
 2734TIP3    H1 8159   4.419   2.414   3.395
 2734TIP3    H2 8160   4.340   2.502   3.301
 2735TIP3   OH2 8161   4.495   1.649   2.267
 2735TIP3    H1 8162   4.589   1.654   2.281
 2735TIP3    H2 8163   4.474   1.729   2.219
 2736TIP3   OH2 8164   3.658   2.082   2.955
 2736TIP3    H1 8165   3.699   2.067   2.870
 2736TIP3    H2 8166   3.721   2.049   3.018
 2737TIP3   OH2 8167   4.122   2.233   2.129
 2737TIP3    H1 8168   4.074   2.316   2.129
 2737TIP3    H2 8169   4.069   2.174   2.183
 2738TIP3   OH2 8170   3.564   2.032   3.604
 2738TIP3    H1 8171   3.602   2.042   3.691
 2738TIP3    H2 8172   3.501   1.961   3.614
 2739TIP3   OH2 8173   4.277   2.146   3.601
 2739TIP3    H1 8174   4.209   2.086   3.569
 2739TIP3    H2 8175   4.359   2.109   3.570
 2740TIP3   OH2 8176   4.552   2.700   3.149
 2740TIP3    H1 8177   4.485   2.695   3.218
 2740TIP3    H2 8178   4.630   2.661   3.188
 2741TIP3   OH2 8179   4.915   1.741   2.094
 2741TIP3    H1 8180   4.861   1.694   2.030
 2741TIP3    H2 8181   4.919   1.831   2.061
 2742TIP3   OH2 8182   5.118   2.627   3.158
 2742TIP3    H1 8183   5.026   2.624   3.186
 2742TIP3    H2 8184   5.122   2.571   3.081
 2743TIP3   OH2 8185   4.641   2.556   2.019
 2743TIP3    H1 8186   4.618   2.490   2.084
 2743TIP3    H2 8187   4.660   2.506   1.940
 2744TIP3   OH2 8188   4.620   2.190   2.806
 2744TIP3    H1 8189   4.530   2.167   2.829
 2744TIP3    H2 8190   4.656   2.109   2.768
 2745TIP3   OH2 8191   3.779   2.424   2.605
 2745TIP3    H1 8192   3.777   2.502   2.550
 2745TIP3    H2 8193   3.688   2.410   2.631
 2746TIP3   OH2 8194   3.319   1.729   2.293
 2746TIP3    H1 8195   3.371   1.804   2.321
 2746TIP3    H2 8196   3.248   1.724   2.358
 2747TIP3   OH2 8197   3.878   2.180   2.521
 2747TIP3    H1 8198   3.858   2.270   2.548
 2747TIP3    H2 8199   3.852   2.126   2.596
 2748TIP3   OH2 8200   4.065   2.750   3.068
 2748TIP3    H1 8201   4.105   2.821   3.018
 2748TIP3    H2 8202   4.137   2.713   3.120
 2749TIP3   OH2 8203   3.692   2.655   2.457
 2749TIP3    H1 8204   3.607   2.658   2.501
 2749TIP3    H2 8205   3.724   2.745   2.461
 2750TIP3   OH2 8206   4.417   2.403   3.033
 2750TIP3    H1 8207   4.410   2.407   3.129
 2750TIP3    H2 8208   4.504   2.366   3.018
 2751TIP3   OH2 8209   4.403   2.289   1.916
 2751TIP3    H1 8210   4.462   2.262   1.987
 2751TIP3    H2 8211   4.317   2.258   1.943
 2752TIP3   OH2 8212   4.652   2.956   3.114
 2752TIP3    H1 8213   4.620   2.865   3.118
 2752TIP3    H2 8214   4.654   2.976   3.021
 2753TIP3   OH2 8215   4.733   2.759   1.721
 2753TIP3    H1 8216   4.773   2.831   1.673
 2753TIP3    H2 8217   4.655   2.798   1.761
 2754TIP3   OH2 8218   3.744   1.540   3.585
 2754TIP3    H1 8219   3.650   1.556   3.594
 2754TIP3    H2 8220   3.770   1.498   3.667
 2755TIP3   OH2 8221   4.580   2.199   2.102
 2755TIP3    H1 8222   4.567   2.148   2.181
 2755TIP3    H2 8223   4.675   2.210   2.095
 2756TIP3   OH2 8224   3.478   2.622   3.237
 2756TIP3    H1 8225   3.531   2.556   3.282
 2756TIP3    H2 8226   3.495   2.703   3.286
 2757TIP3   OH2 8227   3.757   2.262   1.920
 2757TIP3    H1 8228   3.770   2.171   1.893
 2757TIP3    H2 8229   3.744   2.257   2.015
 2758TIP3   OH2 8230   3.706   2.273   2.193
 2758TIP3    H1 8231   3.776   2.245   2.253
 2758TIP3    H2 8232   3.707   2.369   2.200
 2759TIP3   OH2 8233   3.437   1.960   2.399
 2759TIP3    H1 8234   3.374   2.007   2.454
 2759TIP3    H2 8235   3.460   2.023   2.330
 2760TIP3   OH2 8236   4.615   1.585   3.274
 2760TIP3    H1 8237   4.685   1.637   3.313
 2760TIP3    H2 8238   4.602   1.512   3.334
 2761TIP3   OH2 8239   4.490   1.338   2.460
 2761TIP3    H1 8240   4.468   1.360   2.370
 2761TIP3    H2 8241   4.532   1.417   2.494
 2762TIP3   OH2 8242   3.973   2.459   2.129
 2762TIP3    H1 8243   3.889   2.483   2.168
 2762TIP3    H2 8244   4.000   2.535   2.078
 2763TIP3   OH2 8245   4.151   1.535   2.555
 2763TIP3    H1 8246   4.212   1.605   2.533
 2763TIP3    H2 8247   4.168   1.517   2.648
 2764TIP3   OH2 8248   4.439   1.833   3.341
 2764TIP3    H1 8249   4.461   1.885   3.418
 2764TIP3    H2 8250   4.491   1.753   3.350
 2765TIP3   OH2 8251   4.306   1.237   2.648
 2765TIP3    H1 8252   4.281   1.314   2.699
 2765TIP3    H2 8253   4.371   1.270   2.586
 2766TIP3   OH2 8254   3.722   2.546   2.206
 2766TIP3    H1 8255   3.700   2.616   2.145
 2766TIP3    H2 8256   3.711   2.585   2.293
 2767TIP3   OH2 8257   5.064   1.749   3.337
 2767TIP3    H1 8258   4.968   1.748   3.344
 2767TIP3    H2 8259   5.081   1.723   3.246
 2768TIP3   OH2 8260   4.720   1.934   2.716
 2768TIP3    H1 8261   4.644   1.878   2.733
 2768TIP3    H2 8262   4.790   1.897   2.770
 2769TIP3   OH2 8263   3.458   2.148   2.189
 2769TIP3    H1 8264   3.529   2.212   2.200
 2769TIP3    H2 8265   3.492   2.084   2.127
 2770TIP3   OH2 8266   3.346   1.456   2.343
 2770TIP3    H1 8267   3.356   1.551   2.332
 2770TIP3    H2 8268   3.382   1.418   2.263
 2771TIP3   OH2 8269   4.699   2.903   2.651
 2771TIP3    H1 8270   4.652   2.952   2.583
 2771TIP3    H2 8271   4.790   2.929   2.640
 2772TIP3   OH2 8272   3.768   1.151   3.180
 2772TIP3    H1 8273   3.743   1.107   3.099
 2772TIP3    H2 8274   3.762   1.083   3.248
 2773TIP3   OH2 8275   3.294   2.406   2.578
 2773TIP3    H1 8276   3.243   2.438   2.653
 2773TIP3    H2 8277   3.252   2.447   2.502
 2774TIP3   OH2 8278   3.492   2.945   3.657
 2774TIP3    H1 8279   3.572   2.955   3.708
 2774TIP3    H2 8280   3.483   2.850   3.646
 2775TIP3   OH2 8281   3.954   2.877   3.675
 2775TIP3    H1 8282   4.044   2.848   3.693
 2775TIP3    H2 8283   3.921   2.815   3.611
 2776TIP3   OH2 8284   3.920   2.457   1.811
 2776TIP3    H1 8285   3.872   2.388   1.857
 2776TIP3    H2 8286   3.996   2.411   1.774
 2777TIP3   OH2 8287   4.556   2.809   3.450
 2777TIP3    H1 8288   4.571   2.732   3.505
 2777TIP3    H2 8289   4.643   2.848   3.439
 2778TIP3   OH2 8290   4.361   2.495   1.737
 2778TIP3    H1 8291   4.391   2.431   1.801
 2778TIP3    H2 8292   4.425   2.489   1.666
 2779TIP3   OH2 8293   3.594   2.350   3.832
 2779TIP3    H1 8294   3.612   2.280   3.895
 2779TIP3    H2 8295   3.504   2.334   3.804
 2780TIP3   OH2 8296   3.587   1.958   2.044
 2780TIP3    H1 8297   3.639   1.932   2.120
 2780TIP3    H2 8298   3.651   1.971   1.975
 2781TIP3   OH2 8299   4.214   2.425   3.631
 2781TIP3    H1 8300   4.166   2.446   3.551
 2781TIP3    H2 8301   4.246   2.336   3.616
 2782TIP3   OH2 8302   4.115   2.179   1.859
 2782TIP3    H1 8303   4.108   2.191   1.953
 2782TIP3    H2 8304   4.111   2.084   1.847
 2783TIP3   OH2 8305   3.732   2.066   3.840
 2783TIP3    H1 8306   3.815   2.025   3.817
 2783TIP3    H2 8307   3.753   2.124   3.914
 2784TIP3   OH2 8308   3.761   1.892   2.252
 2784TIP3    H1 8309   3.742   1.867   2.343
 2784TIP3    H2 8310   3.808   1.817   2.216
 2785TIP3   OH2 8311   4.069   1.965   3.494
 2785TIP3    H1 8312   3.987   2.013   3.501
 2785TIP3    H2 8313   4.107   1.994   3.411
 2786TIP3   OH2 8314   3.899   1.701   2.104
 2786TIP3    H1 8315   3.872   1.714   2.013
 2786TIP3    H2 8316   3.994   1.707   2.102
 2787TIP3   OH2 8317   4.565   2.343   3.597
 2787TIP3    H1 8318   4.632   2.307   3.539
 2787TIP3    H2 8319   4.565   2.285   3.673
 2788TIP3   OH2 8320   4.691   2.000   1.774
 2788TIP3    H1 8321   4.678   1.960   1.689
 2788TIP3    H2 8322   4.665   2.092   1.762
 2789TIP3   OH2 8323   4.179   1.740   3.607
 2789TIP3    H1 8324   4.180   1.668   3.544
 2789TIP3    H2 8325   4.141   1.813   3.558
 2790TIP3   OH2 8326   4.183   1.534   3.409
 2790TIP3    H1 8327   4.207   1.577   3.327
 2790TIP3    H2 8328   4.091   1.511   3.398
 2791TIP3   OH2 8329   4.199   2.066   3.278
 2791TIP3    H1 8330   4.286   2.103   3.266
 2791TIP3    H2 8331   4.140   2.128   3.235
 2792TIP3   OH2 8332   4.785   2.032   3.659
 2792TIP3    H1 8333   4.836   1.952   3.667
 2792TIP3    H2 8334   4.850   2.101   3.644
 2793TIP3   OH2 8335   4.813   2.313   3.391
 2793TIP3    H1 8336   4.781   2.397   3.357
 2793TIP3    H2 8337   4.905   2.311   3.366
 2794TIP3   OH2 8338   4.055   1.827   3.846
 2794TIP3    H1 8339   3.987   1.764   3.868
 2794TIP3    H2 8340   4.086   1.801   3.759
 2795TIP3   OH2 8341   4.306   1.302   3.506
 2795TIP3    H1 8342   4.265   1.383   3.475
 2795TIP3    H2 8343   4.238   1.235   3.495
 2796TIP3   OH2 8344   4.433   1.782   3.711
 2796TIP3    H1 8345   4.420   1.773   3.806
 2796TIP3    H2 8346   4.348   1.762   3.673
 2797TIP3   OH2 8347   4.674   1.731   3.576
 2797TIP3    H1 8348   4.596   1.736   3.631
 2797TIP3    H2 8349   4.746   1.712   3.636
 2798TIP3   OH2 8350   4.912   1.699   3.727
 2798TIP3    H1 8351   4.925   1.605   3.736
 2798TIP3    H2 8352   4.906   1.731   3.818
 2799TIP3   OH2 8353   3.893   1.608   3.918
 2799TIP3    H1 8354   3.892   1.518   3.884
 2799TIP3    H2 8355   3.931   1.600   4.005
 2800TIP3   OH2 8356   4.380   1.286   3.770
 2800TIP3    H1 8357   4.450   1.221   3.761
 2800TIP3    H2 8358   4.346   1.297   3.682
 2801TIP3   OH2 8359   4.463   1.505   3.918
 2801TIP3    H1 8360   4.434   1.435   3.860
 2801TIP3    H2 8361   4.391   1.568   3.917
 2802TIP3   OH2 8362   3.713   2.753   2.020
 2802TIP3    H1 8363   3.804   2.733   1.997
 2802TIP3    H2 8364   3.679   2.799   1.943
 2803TIP3   OH2 8365   3.185   2.141   2.211
 2803TIP3    H1 8366   3.280   2.154   2.207
 2803TIP3    H2 8367   3.172   2.054   2.173
 2804TIP3   OH2 8368   3.087   2.726   2.665
 2804TIP3    H1 8369   3.024   2.669   2.620
 2804TIP3    H2 8370   3.133   2.667   2.725
 2805TIP3   OH2 8371   3.229   2.562   2.838
 2805TIP3    H1 8372   3.221   2.492   2.903
 2805TIP3    H2 8373   3.282   2.628   2.882
 2806TIP3   OH2 8374   4.951   3.005   2.626
 2806TIP3    H1 8375   4.980   3.003   2.717
 2806TIP3    H2 8376   5.031   3.016   2.575
 2807TIP3   OH2 8377   4.981   2.991   2.910
 2807TIP3    H1 8378   4.926   2.915   2.923
 2807TIP3    H2 8379   5.068   2.964   2.940
 2808TIP3   OH2 8380   5.069   2.672   3.460
 2808TIP3    H1 8381   4.986   2.665   3.414
 2808TIP3    H2 8382   5.075   2.764   3.487
 2809TIP3   OH2 8383   4.857   2.207   2.094
 2809TIP3    H1 8384   4.919   2.275   2.069
 2809TIP3    H2 8385   4.896   2.166   2.171
 2810TIP3   OH2 8386   4.971   2.057   2.292
 2810TIP3    H1 8387   4.911   2.020   2.356
 2810TIP3    H2 8388   5.045   2.088   2.344
 2811TIP3   OH2 8389   4.841   2.758   2.954
 2811TIP3    H1 8390   4.825   2.710   3.036
 2811TIP3    H2 8391   4.796   2.708   2.887
 2812TIP3   OH2 8392   4.902   1.977   1.949
 2812TIP3    H1 8393   4.829   1.977   1.887
 2812TIP3    H2 8394   4.888   2.055   2.003
 2813TIP3   OH2 8395   4.767   1.629   1.891
 2813TIP3    H1 8396   4.717   1.669   1.820
 2813TIP3    H2 8397   4.755   1.534   1.879
 2814TIP3   OH2 8398   4.783   1.921   2.448
 2814TIP3    H1 8399   4.793   1.826   2.441
 2814TIP3    H2 8400   4.767   1.936   2.541
 2815TIP3   OH2 8401   3.408   1.997   3.204
 2815TIP3    H1 8402   3.401   1.960   3.116
 2815TIP3    H2 8403   3.500   1.991   3.226
 2816TIP3   OH2 8404   5.075   2.339   3.305
 2816TIP3    H1 8405   5.143   2.285   3.264
 2816TIP3    H2 8406   5.052   2.403   3.238
 2817TIP3   OH2 8407   5.275   2.136   3.307
 2817TIP3    H1 8408   5.194   2.107   3.348
 2817TIP3    H2 8409   5.338   2.066   3.326
 2818TIP3   OH2 8410   4.720   1.357   1.862
 2818TIP3    H1 8411   4.784   1.334   1.929
 2818TIP3    H2 8412   4.638   1.317   1.892
 2819TIP3   OH2 8413   4.781   1.641   2.329
 2819TIP3    H1 8414   4.827   1.558   2.341
 2819TIP3    H2 8415   4.827   1.684   2.257
 2820TIP3   OH2 8416   4.940   1.811   2.848
 2820TIP3    H1 8417   5.017   1.839   2.798
 2820TIP3    H2 8418   4.953   1.849   2.935
 2821TIP3   OH2 8419   5.008   1.952   3.084
 2821TIP3    H1 8420   4.932   1.985   3.133
 2821TIP3    H2 8421   5.041   2.029   3.037
 2822TIP3   OH2 8422   3.625   1.668   3.876
 2822TIP3    H1 8423   3.719   1.664   3.894
 2822TIP3    H2 8424   3.591   1.587   3.912
 2823TIP3   OH2 8425   5.470   1.558   3.621
 2823TIP3    H1 8426   5.533   1.500   3.577
 2823TIP3    H2 8427   5.431   1.608   3.550
 2824TIP3   OH2 8428   4.898   1.392   2.378
 2824TIP3    H1 8429   4.944   1.378   2.461
 2824TIP3    H2 8430   4.834   1.321   2.373
 2825TIP3   OH2 8431   3.602   1.377   3.202
 2825TIP3    H1 8432   3.658   1.299   3.208
 2825TIP3    H2 8433   3.663   1.449   3.192
 2826TIP3   OH2 8434   3.387   1.635   3.266
 2826TIP3    H1 8435   3.442   1.641   3.188
 2826TIP3    H2 8436   3.413   1.709   3.319
 2827TIP3   OH2 8437   5.320   1.674   3.426
 2827TIP3    H1 8438   5.238   1.718   3.448
 2827TIP3    H2 8439   5.294   1.601   3.370
 2828TIP3   OH2 8440   4.948   1.313   2.018
 2828TIP3    H1 8441   4.996   1.252   1.963
 2828TIP3    H2 8442   5.004   1.391   2.022
 2829TIP3   OH2 8443   3.384   1.096   2.751
 2829TIP3    H1 8444   3.332   1.112   2.830
 2829TIP3    H2 8445   3.358   1.166   2.691
 2830TIP3   OH2 8446   4.523   2.869   2.280
 2830TIP3    H1 8447   4.584   2.859   2.206
 2830TIP3    H2 8448   4.567   2.932   2.338
 2831TIP3   OH2 8449   3.594   1.194   3.561
 2831TIP3    H1 8450   3.554   1.199   3.649
 2831TIP3    H2 8451   3.539   1.251   3.507
 2832TIP3   OH2 8452   3.619   2.671   3.664
 2832TIP3    H1 8453   3.529   2.639   3.658
 2832TIP3    H2 8454   3.645   2.653   3.755
 2833TIP3   OH2 8455   3.832   2.706   3.212
 2833TIP3    H1 8456   3.783   2.782   3.180
 2833TIP3    H2 8457   3.919   2.715   3.173
 2834TIP3   OH2 8458   4.246   2.941   3.352
 2834TIP3    H1 8459   4.282   2.934   3.440
 2834TIP3    H2 8460   4.313   2.986   3.302
 2835TIP3   OH2 8461   4.435   3.095   3.218
 2835TIP3    H1 8462   4.502   3.040   3.179
 2835TIP3    H2 8463   4.482   3.152   3.279
 2836TIP3   OH2 8464   5.229   1.436   3.310
 2836TIP3    H1 8465   5.144   1.438   3.265
 2836TIP3    H2 8466   5.259   1.346   3.302
 2837TIP3   OH2 8467   3.490   2.964   3.253
 2837TIP3    H1 8468   3.398   2.986   3.237
 2837TIP3    H2 8469   3.516   3.019   3.326
 2838TIP3   OH2 8470   3.724   2.939   3.108
 2838TIP3    H1 8471   3.641   2.946   3.155
 2838TIP3    H2 8472   3.703   2.962   3.018
 2839TIP3   OH2 8473   4.139   2.965   2.902
 2839TIP3    H1 8474   4.066   2.979   2.842
 2839TIP3    H2 8475   4.148   3.049   2.948
 2840TIP3   OH2 8476   4.408   2.894   2.907
 2840TIP3    H1 8477   4.318   2.928   2.908
 2840TIP3    H2 8478   4.463   2.972   2.900
 2841TIP3   OH2 8479   4.623   3.080   2.854
 2841TIP3    H1 8480   4.620   3.162   2.805
 2841TIP3    H2 8481   4.650   3.015   2.789
 2842TIP3   OH2 8482   3.407   2.731   2.989
 2842TIP3    H1 8483   3.431   2.703   3.077
 2842TIP3    H2 8484   3.477   2.699   2.933
 2843TIP3   OH2 8485   3.608   2.616   2.844
 2843TIP3    H1 8486   3.619   2.531   2.887
 2843TIP3    H2 8487   3.695   2.655   2.848
 2844TIP3   OH2 8488   3.877   2.703   2.864
 2844TIP3    H1 8489   3.897   2.610   2.850
 2844TIP3    H2 8490   3.932   2.728   2.938
 2845TIP3   OH2 8491   4.439   1.359   2.948
 2845TIP3    H1 8492   4.400   1.287   2.998
 2845TIP3    H2 8493   4.507   1.318   2.895
 2846TIP3   OH2 8494   4.943   1.251   2.830
 2846TIP3    H1 8495   4.983   1.303   2.760
 2846TIP3    H2 8496   4.854   1.286   2.838
 2847TIP3   OH2 8497   5.058   1.339   2.598
 2847TIP3    H1 8498   5.128   1.280   2.569
 2847TIP3    H2 8499   5.095   1.427   2.586
 2848TIP3   OH2 8500   3.654   1.029   2.857
 2848TIP3    H1 8501   3.582   1.007   2.916
 2848TIP3    H2 8502   3.723   0.965   2.877
 2849TIP3   OH2 8503   4.161   1.083   2.838
 2849TIP3    H1 8504   4.203   1.138   2.772
 2849TIP3    H2 8505   4.194   1.117   2.922
 2850TIP3   OH2 8506   4.652   1.244   2.815
 2850TIP3    H1 8507   4.664   1.211   2.726
 2850TIP3    H2 8508   4.654   1.165   2.870
 2851TIP3   OH2 8509   4.709   1.184   2.382
 2851TIP3    H1 8510   4.630   1.232   2.404
 2851TIP3    H2 8511   4.697   1.098   2.422
 2852TIP3   OH2 8512   3.175   2.526   2.361
 2852TIP3    H1 8513   3.091   2.493   2.329
 2852TIP3    H2 8514   3.178   2.617   2.331
 2853TIP3   OH2 8515   4.112   1.291   2.440
 2853TIP3    H1 8516   4.150   1.236   2.507
 2853TIP3    H2 8517   4.119   1.380   2.475
 2854TIP3   OH2 8518   3.972   2.684   1.956
 2854TIP3    H1 8519   4.056   2.710   1.920
 2854TIP3    H2 8520   3.944   2.610   1.901
 2855TIP3   OH2 8521   4.681   2.824   2.053
 2855TIP3    H1 8522   4.672   2.729   2.046
 2855TIP3    H2 8523   4.637   2.858   1.975
 2856TIP3   OH2 8524   3.897   1.335   3.828
 2856TIP3    H1 8525   3.859   1.268   3.885
 2856TIP3    H2 8526   3.989   1.341   3.855
 2857TIP3   OH2 8527   4.148   1.338   3.948
 2857TIP3    H1 8528   4.229   1.314   3.903
 2857TIP3    H2 8529   4.136   1.268   4.013
 2858TIP3   OH2 8530   3.275   2.523   2.013
 2858TIP3    H1 8531   3.277   2.533   2.109
 2858TIP3    H2 8532   3.357   2.479   1.992
 2859TIP3   OH2 8533   4.976   1.427   3.742
 2859TIP3    H1 8534   4.992   1.400   3.832
 2859TIP3    H2 8535   5.062   1.423   3.699
 2860TIP3   OH2 8536   4.922   2.971   3.244
 2860TIP3    H1 8537   4.849   2.924   3.204
 2860TIP3    H2 8538   4.891   3.061   3.253
 2861TIP3   OH2 8539   6.173   2.349   1.986
 2861TIP3    H1 8540   6.145   2.437   1.962
 2861TIP3    H2 8541   6.100   2.293   1.963
 2862TIP3   OH2 8542   6.172   2.332   2.403
 2862TIP3    H1 8543   6.220   2.317   2.485
 2862TIP3    H2 8544   6.128   2.249   2.387
 2863TIP3   OH2 8545   5.483   2.203   2.752
 2863TIP3    H1 8546   5.519   2.144   2.818
 2863TIP3    H2 8547   5.559   2.250   2.717
 2864TIP3   OH2 8548   6.433   2.634   2.075
 2864TIP3    H1 8549   6.420   2.569   2.145
 2864TIP3    H2 8550   6.456   2.715   2.121
 2865TIP3   OH2 8551   5.436   2.632   2.433
 2865TIP3    H1 8552   5.383   2.632   2.513
 2865TIP3    H2 8553   5.463   2.541   2.422
 2866TIP3   OH2 8554   5.152   1.829   2.234
 2866TIP3    H1 8555   5.129   1.917   2.263
 2866TIP3    H2 8556   5.071   1.793   2.197
 2867TIP3   OH2 8557   5.214   2.114   2.404
 2867TIP3    H1 8558   5.260   2.055   2.464
 2867TIP3    H2 8559   5.263   2.196   2.409
 2868TIP3   OH2 8560   6.087   3.101   2.092
 2868TIP3    H1 8561   6.118   3.025   2.042
 2868TIP3    H2 8562   6.105   3.078   2.183
 2869TIP3   OH2 8563   5.983   2.553   2.422
 2869TIP3    H1 8564   6.024   2.472   2.391
 2869TIP3    H2 8565   6.056   2.608   2.451
 2870TIP3   OH2 8566   6.987   1.905   2.432
 2870TIP3    H1 8567   7.015   1.975   2.491
 2870TIP3    H2 8568   6.979   1.947   2.346
 2871TIP3   OH2 8569   6.390   2.055   2.452
 2871TIP3    H1 8570   6.424   1.969   2.479
 2871TIP3    H2 8571   6.350   2.038   2.366
 2872TIP3   OH2 8572   5.739   1.713   2.411
 2872TIP3    H1 8573   5.718   1.787   2.353
 2872TIP3    H2 8574   5.684   1.641   2.379
 2873TIP3   OH2 8575   6.430   1.809   2.050
 2873TIP3    H1 8576   6.495   1.800   2.119
 2873TIP3    H2 8577   6.478   1.846   1.976
 2874TIP3   OH2 8578   5.363   1.918   2.539
 2874TIP3    H1 8579   5.447   1.907   2.583
 2874TIP3    H2 8580   5.374   1.871   2.456
 2875TIP3   OH2 8581   5.796   2.121   2.341
 2875TIP3    H1 8582   5.889   2.102   2.351
 2875TIP3    H2 8583   5.758   2.039   2.309
 2876TIP3   OH2 8584   7.058   2.107   2.599
 2876TIP3    H1 8585   6.972   2.148   2.598
 2876TIP3    H2 8586   7.102   2.145   2.675
 2877TIP3   OH2 8587   5.717   1.710   2.864
 2877TIP3    H1 8588   5.667   1.745   2.791
 2877TIP3    H2 8589   5.663   1.727   2.941
 2878TIP3   OH2 8590   6.075   2.567   1.843
 2878TIP3    H1 8591   6.032   2.539   1.762
 2878TIP3    H2 8592   6.022   2.641   1.873
 2879TIP3   OH2 8593   5.813   2.498   2.638
 2879TIP3    H1 8594   5.746   2.561   2.662
 2879TIP3    H2 8595   5.858   2.537   2.563
 2880TIP3   OH2 8596   6.602   1.825   2.261
 2880TIP3    H1 8597   6.557   1.802   2.343
 2880TIP3    H2 8598   6.652   1.904   2.282
 2881TIP3   OH2 8599   5.609   1.818   2.634
 2881TIP3    H1 8600   5.664   1.892   2.658
 2881TIP3    H2 8601   5.655   1.776   2.562
 2882TIP3   OH2 8602   5.609   2.677   2.748
 2882TIP3    H1 8603   5.605   2.768   2.717
 2882TIP3    H2 8604   5.528   2.638   2.717
 2883TIP3   OH2 8605   5.039   2.390   1.984
 2883TIP3    H1 8606   5.001   2.414   1.899
 2883TIP3    H2 8607   5.065   2.474   2.023
 2884TIP3   OH2 8608   6.479   2.869   2.220
 2884TIP3    H1 8609   6.395   2.873   2.265
 2884TIP3    H2 8610   6.483   2.949   2.168
 2885TIP3   OH2 8611   6.788   1.775   2.590
 2885TIP3    H1 8612   6.701   1.800   2.560
 2885TIP3    H2 8613   6.847   1.811   2.524
 2886TIP3   OH2 8614   6.060   1.406   2.589
 2886TIP3    H1 8615   6.054   1.315   2.617
 2886TIP3    H2 8616   5.986   1.449   2.631
 2887TIP3   OH2 8617   6.187   2.924   1.895
 2887TIP3    H1 8618   6.239   2.845   1.879
 2887TIP3    H2 8619   6.241   2.996   1.862
 2888TIP3   OH2 8620   6.324   2.693   1.827
 2888TIP3    H1 8621   6.246   2.638   1.828
 2888TIP3    H2 8622   6.372   2.668   1.906
 2889TIP3   OH2 8623   6.703   2.793   2.565
 2889TIP3    H1 8624   6.692   2.716   2.509
 2889TIP3    H2 8625   6.687   2.868   2.507
 2890TIP3   OH2 8626   6.000   2.187   1.837
 2890TIP3    H1 8627   5.917   2.233   1.820
 2890TIP3    H2 8628   6.046   2.188   1.753
 2891TIP3   OH2 8629   5.967   1.990   1.534
 2891TIP3    H1 8630   6.031   2.039   1.584
 2891TIP3    H2 8631   6.018   1.924   1.487
 2892TIP3   OH2 8632   6.878   2.413   2.400
 2892TIP3    H1 8633   6.802   2.471   2.410
 2892TIP3    H2 8634   6.925   2.448   2.325
 2893TIP3   OH2 8635   6.356   2.274   1.800
 2893TIP3    H1 8636   6.301   2.305   1.872
 2893TIP3    H2 8637   6.439   2.250   1.842
 2894TIP3   OH2 8638   6.586   2.307   2.740
 2894TIP3    H1 8639   6.588   2.391   2.787
 2894TIP3    H2 8640   6.502   2.308   2.694
 2895TIP3   OH2 8641   5.594   2.254   2.200
 2895TIP3    H1 8642   5.554   2.194   2.137
 2895TIP3    H2 8643   5.667   2.204   2.238
 2896TIP3   OH2 8644   5.764   2.710   2.322
 2896TIP3    H1 8645   5.722   2.667   2.248
 2896TIP3    H2 8646   5.838   2.654   2.345
 2897TIP3   OH2 8647   5.715   2.246   2.579
 2897TIP3    H1 8648   5.748   2.216   2.495
 2897TIP3    H2 8649   5.756   2.331   2.593
 2898TIP3   OH2 8650   6.248   2.883   2.365
 2898TIP3    H1 8651   6.221   2.954   2.423
 2898TIP3    H2 8652   6.232   2.804   2.415
 2899TIP3   OH2 8653   5.835   2.790   2.883
 2899TIP3    H1 8654   5.781   2.866   2.905
 2899TIP3    H2 8655   5.776   2.731   2.836
 2900TIP3   OH2 8656   6.190   2.135   1.631
 2900TIP3    H1 8657   6.248   2.192   1.682
 2900TIP3    H2 8658   6.220   2.145   1.540
 2901TIP3   OH2 8659   5.611   2.317   3.027
 2901TIP3    H1 8660   5.618   2.411   3.044
 2901TIP3    H2 8661   5.517   2.299   3.024
 2902TIP3   OH2 8662   5.939   2.803   1.888
 2902TIP3    H1 8663   6.019   2.855   1.902
 2902TIP3    H2 8664   5.876   2.866   1.852
 2903TIP3   OH2 8665   6.695   1.354   1.696
 2903TIP3    H1 8666   6.616   1.377   1.745
 2903TIP3    H2 8667   6.717   1.434   1.647
 2904TIP3   OH2 8668   5.458   2.100   2.001
 2904TIP3    H1 8669   5.383   2.150   1.969
 2904TIP3    H2 8670   5.421   2.019   2.035
 2905TIP3   OH2 8671   6.489   2.749   1.235
 2905TIP3    H1 8672   6.491   2.844   1.222
 2905TIP3    H2 8673   6.580   2.721   1.226
 2906TIP3   OH2 8674   5.180   2.465   2.955
 2906TIP3    H1 8675   5.195   2.501   2.868
 2906TIP3    H2 8676   5.245   2.395   2.964
 2907TIP3   OH2 8677   6.936   3.146   2.632
 2907TIP3    H1 8678   6.941   3.051   2.643
 2907TIP3    H2 8679   6.853   3.170   2.673
 2908TIP3   OH2 8680   6.050   2.922   2.764
 2908TIP3    H1 8681   6.042   3.013   2.792
 2908TIP3    H2 8682   5.976   2.877   2.804
 2909TIP3   OH2 8683   5.824   3.030   1.711
 2909TIP3    H1 8684   5.776   3.014   1.630
 2909TIP3    H2 8685   5.792   3.116   1.741
 2910TIP3   OH2 8686   5.259   2.891   2.095
 2910TIP3    H1 8687   5.306   2.887   2.179
 2910TIP3    H2 8688   5.215   2.806   2.089
 2911TIP3   OH2 8689   6.023   2.965   1.345
 2911TIP3    H1 8690   6.073   2.891   1.311
 2911TIP3    H2 8691   6.056   2.978   1.434
 2912TIP3   OH2 8692   6.080   3.007   1.613
 2912TIP3    H1 8693   5.994   3.007   1.656
 2912TIP3    H2 8694   6.141   2.984   1.683
 2913TIP3   OH2 8695   6.840   2.255   2.912
 2913TIP3    H1 8696   6.760   2.267   2.861
 2913TIP3    H2 8697   6.859   2.161   2.906
 2914TIP3   OH2 8698   5.417   2.685   2.974
 2914TIP3    H1 8699   5.496   2.686   2.921
 2914TIP3    H2 8700   5.348   2.658   2.914
 2915TIP3   OH2 8701   5.825   1.498   2.718
 2915TIP3    H1 8702   5.741   1.467   2.685
 2915TIP3    H2 8703   5.804   1.577   2.767
 2916TIP3   OH2 8704   6.372   1.610   2.916
 2916TIP3    H1 8705   6.443   1.585   2.974
 2916TIP3    H2 8706   6.293   1.592   2.966
 2917TIP3   OH2 8707   6.589   2.043   2.827
 2917TIP3    H1 8708   6.547   2.040   2.913
 2917TIP3    H2 8709   6.575   2.132   2.797
 2918TIP3   OH2 8710   6.278   2.143   1.372
 2918TIP3    H1 8711   6.220   2.145   1.296
 2918TIP3    H2 8712   6.349   2.203   1.348
 2919TIP3   OH2 8713   5.974   1.541   1.683
 2919TIP3    H1 8714   5.939   1.545   1.772
 2919TIP3    H2 8715   5.936   1.460   1.647
 2920TIP3   OH2 8716   5.771   2.021   2.728
 2920TIP3    H1 8717   5.722   2.030   2.810
 2920TIP3    H2 8718   5.752   2.102   2.680
 2921TIP3   OH2 8719   5.649   1.908   2.241
 2921TIP3    H1 8720   5.560   1.886   2.268
 2921TIP3    H2 8721   5.657   1.872   2.153
 2922TIP3   OH2 8722   6.127   1.985   1.973
 2922TIP3    H1 8723   6.079   2.058   1.934
 2922TIP3    H2 8724   6.184   1.953   1.903
 2923TIP3   OH2 8725   6.311   2.255   3.050
 2923TIP3    H1 8726   6.284   2.186   3.111
 2923TIP3    H2 8727   6.404   2.269   3.069
 2924TIP3   OH2 8728   6.291   2.000   2.201
 2924TIP3    H1 8729   6.223   2.026   2.139
 2924TIP3    H2 8730   6.334   1.925   2.161
 2925TIP3   OH2 8731   5.603   2.035   2.943
 2925TIP3    H1 8732   5.603   2.105   3.009
 2925TIP3    H2 8733   5.581   1.956   2.992
 2926TIP3   OH2 8734   5.640   1.525   1.657
 2926TIP3    H1 8735   5.630   1.528   1.752
 2926TIP3    H2 8736   5.563   1.572   1.624
 2927TIP3   OH2 8737   5.189   1.563   2.527
 2927TIP3    H1 8738   5.256   1.602   2.583
 2927TIP3    H2 8739   5.228   1.561   2.440
 2928TIP3   OH2 8740   5.107   1.545   2.032
 2928TIP3    H1 8741   5.152   1.580   1.956
 2928TIP3    H2 8742   5.048   1.615   2.060
 2929TIP3   OH2 8743   6.327   2.253   2.626
 2929TIP3    H1 8744   6.356   2.186   2.564
 2929TIP3    H2 8745   6.286   2.204   2.697
 2930TIP3   OH2 8746   6.003   1.703   2.297
 2930TIP3    H1 8747   5.925   1.705   2.352
 2930TIP3    H2 8748   6.076   1.695   2.359
 2931TIP3   OH2 8749   5.414   1.782   2.305
 2931TIP3    H1 8750   5.324   1.786   2.271
 2931TIP3    H2 8751   5.442   1.692   2.288
 2932TIP3   OH2 8752   5.662   1.780   1.999
 2932TIP3    H1 8753   5.756   1.795   1.985
 2932TIP3    H2 8754   5.622   1.801   1.914
 2933TIP3   OH2 8755   6.461   1.788   2.500
 2933TIP3    H1 8756   6.445   1.804   2.593
 2933TIP3    H2 8757   6.390   1.730   2.472
 2934TIP3   OH2 8758   5.539   1.808   1.755
 2934TIP3    H1 8759   5.473   1.762   1.703
 2934TIP3    H2 8760   5.593   1.854   1.691
 2935TIP3   OH2 8761   6.651   3.490   2.722
 2935TIP3    H1 8762   6.636   3.500   2.628
 2935TIP3    H2 8763   6.726   3.545   2.741
 2936TIP3   OH2 8764   5.593   2.641   3.204
 2936TIP3    H1 8765   5.683   2.668   3.225
 2936TIP3    H2 8766   5.583   2.555   3.245
 2937TIP3   OH2 8767   6.062   2.062   2.405
 2937TIP3    H1 8768   6.129   2.011   2.360
 2937TIP3    H2 8769   6.058   2.025   2.493
 2938TIP3   OH2 8770   5.556   1.535   2.290
 2938TIP3    H1 8771   5.526   1.460   2.342
 2938TIP3    H2 8772   5.585   1.497   2.207
 2939TIP3   OH2 8773   6.037   1.971   2.671
 2939TIP3    H1 8774   5.949   2.000   2.694
 2939TIP3    H2 8775   6.095   2.024   2.726
 2940TIP3   OH2 8776   5.766   2.326   1.780
 2940TIP3    H1 8777   5.691   2.271   1.759
 2940TIP3    H2 8778   5.743   2.368   1.863
 2941TIP3   OH2 8779   6.657   2.583   2.390
 2941TIP3    H1 8780   6.691   2.634   2.316
 2941TIP3    H2 8781   6.575   2.546   2.357
 2942TIP3   OH2 8782   6.225   1.645   1.683
 2942TIP3    H1 8783   6.131   1.626   1.682
 2942TIP3    H2 8784   6.230   1.740   1.696
 2943TIP3   OH2 8785   6.173   2.661   2.795
 2943TIP3    H1 8786   6.223   2.654   2.876
 2943TIP3    H2 8787   6.136   2.749   2.797
 2944TIP3   OH2 8788   6.288   1.905   1.756
 2944TIP3    H1 8789   6.383   1.911   1.768
 2944TIP3    H2 8790   6.265   1.983   1.704
 2945TIP3   OH2 8791   5.489   2.359   2.432
 2945TIP3    H1 8792   5.522   2.327   2.348
 2945TIP3    H2 8793   5.541   2.311   2.497
 2946TIP3   OH2 8794   5.917   2.489   1.620
 2946TIP3    H1 8795   5.869   2.572   1.620
 2946TIP3    H2 8796   5.864   2.431   1.674
 2947TIP3   OH2 8797   5.346   2.247   3.066
 2947TIP3    H1 8798   5.336   2.218   3.157
 2947TIP3    H2 8799   5.271   2.211   3.020
 2948TIP3   OH2 8800   6.075   2.406   3.088
 2948TIP3    H1 8801   6.008   2.345   3.058
 2948TIP3    H2 8802   6.157   2.368   3.059
 2949TIP3   OH2 8803   6.318   2.953   2.687
 2949TIP3    H1 8804   6.224   2.937   2.695
 2949TIP3    H2 8805   6.343   2.993   2.771
 2950TIP3   OH2 8806   6.708   1.992   1.601
 2950TIP3    H1 8807   6.650   1.945   1.541
 2950TIP3    H2 8808   6.699   2.084   1.577
 2951TIP3   OH2 8809   6.950   2.864   2.656
 2951TIP3    H1 8810   6.856   2.849   2.646
 2951TIP3    H2 8811   6.989   2.832   2.575
 2952TIP3   OH2 8812   6.448   2.814   1.515
 2952TIP3    H1 8813   6.413   2.755   1.581
 2952TIP3    H2 8814   6.444   2.764   1.433
 2953TIP3   OH2 8815   6.424   2.445   2.292
 2953TIP3    H1 8816   6.334   2.422   2.317
 2953TIP3    H2 8817   6.460   2.364   2.256
 2954TIP3   OH2 8818   5.570   2.676   2.090
 2954TIP3    H1 8819   5.560   2.754   2.035
 2954TIP3    H2 8820   5.495   2.680   2.150
 2955TIP3   OH2 8821   5.135   1.969   1.803
 2955TIP3    H1 8822   5.181   2.050   1.824
 2955TIP3    H2 8823   5.057   1.970   1.857
 2956TIP3   OH2 8824   5.676   2.437   2.008
 2956TIP3    H1 8825   5.648   2.525   2.033
 2956TIP3    H2 8826   5.650   2.381   2.082
 2957TIP3   OH2 8827   5.858   3.010   2.559
 2957TIP3    H1 8828   5.893   3.082   2.506
 2957TIP3    H2 8829   5.934   2.972   2.602
 2958TIP3   OH2 8830   5.487   2.908   1.941
 2958TIP3    H1 8831   5.402   2.912   1.985
 2958TIP3    H2 8832   5.520   2.998   1.944
 2959TIP3   OH2 8833   6.223   2.654   2.524
 2959TIP3    H1 8834   6.208   2.652   2.618
 2959TIP3    H2 8835   6.305   2.606   2.511
 2960TIP3   OH2 8836   6.192   2.548   1.406
 2960TIP3    H1 8837   6.246   2.517   1.478
 2960TIP3    H2 8838   6.105   2.513   1.425
 2961TIP3   OH2 8839   6.461   3.155   2.546
 2961TIP3    H1 8840   6.402   3.095   2.590
 2961TIP3    H2 8841   6.404   3.216   2.499
 2962TIP3   OH2 8842   6.526   3.020   1.209
 2962TIP3    H1 8843   6.563   3.089   1.154
 2962TIP3    H2 8844   6.451   3.061   1.252
 2963TIP3   OH2 8845   5.546   1.787   3.072
 2963TIP3    H1 8846   5.451   1.794   3.078
 2963TIP3    H2 8847   5.572   1.736   3.149
 2964TIP3   OH2 8848   6.373   2.447   1.583
 2964TIP3    H1 8849   6.358   2.398   1.664
 2964TIP3    H2 8850   6.466   2.471   1.587
 2965TIP3   OH2 8851   5.248   2.902   2.709
 2965TIP3    H1 8852   5.243   2.807   2.705
 2965TIP3    H2 8853   5.327   2.920   2.761
 2966TIP3   OH2 8854   5.557   2.513   1.406
 2966TIP3    H1 8855   5.569   2.422   1.381
 2966TIP3    H2 8856   5.541   2.511   1.500
 2967TIP3   OH2 8857   5.500   2.529   1.678
 2967TIP3    H1 8858   5.562   2.501   1.745
 2967TIP3    H2 8859   5.499   2.625   1.684
 2968TIP3   OH2 8860   5.234   2.218   1.884
 2968TIP3    H1 8861   5.170   2.264   1.939
 2968TIP3    H2 8862   5.252   2.280   1.813
 2969TIP3   OH2 8863   6.408   1.839   2.762
 2969TIP3    H1 8864   6.479   1.889   2.801
 2969TIP3    H2 8865   6.396   1.765   2.821
 2970TIP3   OH2 8866   6.286   1.593   1.950
 2970TIP3    H1 8867   6.264   1.613   1.859
 2970TIP3    H2 8868   6.327   1.673   1.983
 2971TIP3   OH2 8869   5.769   2.715   1.615
 2971TIP3    H1 8870   5.685   2.738   1.654
 2971TIP3    H2 8871   5.796   2.794   1.568
 2972TIP3   OH2 8872   5.943   1.791   2.040
 2972TIP3    H1 8873   6.004   1.861   2.016
 2972TIP3    H2 8874   5.961   1.774   2.132
 2973TIP3   OH2 8875   6.238   2.089   2.829
 2973TIP3    H1 8876   6.259   2.140   2.908
 2973TIP3    H2 8877   6.288   2.008   2.838
 2974TIP3   OH2 8878   6.102   1.496   2.134
 2974TIP3    H1 8879   6.078   1.573   2.186
 2974TIP3    H2 8880   6.169   1.527   2.073
 2975TIP3   OH2 8881   5.518   2.801   1.691
 2975TIP3    H1 8882   5.495   2.872   1.630
 2975TIP3    H2 8883   5.506   2.839   1.778
 2976TIP3   OH2 8884   5.616   1.509   1.935
 2976TIP3    H1 8885   5.605   1.599   1.965
 2976TIP3    H2 8886   5.710   1.493   1.941
 2977TIP3   OH2 8887   6.853   1.980   2.814
 2977TIP3    H1 8888   6.758   1.992   2.826
 2977TIP3    H2 8889   6.861   1.935   2.730
 2978TIP3   OH2 8890   6.514   2.188   2.199
 2978TIP3    H1 8891   6.435   2.136   2.212
 2978TIP3    H2 8892   6.579   2.148   2.257
 2979TIP3   OH2 8893   5.250   2.403   1.672
 2979TIP3    H1 8894   5.320   2.468   1.684
 2979TIP3    H2 8895   5.285   2.340   1.610
 2980TIP3   OH2 8896   5.168   1.691   1.807
 2980TIP3    H1 8897   5.182   1.786   1.815
 2980TIP3    H2 8898   5.094   1.683   1.747
 2981TIP3   OH2 8899   6.508   3.114   2.106
 2981TIP3    H1 8900   6.454   3.183   2.067
 2981TIP3    H2 8901   6.596   3.153   2.112
 2982TIP3   OH2 8902   5.563   1.414   2.675
 2982TIP3    H1 8903   5.534   1.383   2.590
 2982TIP3    H2 8904   5.555   1.338   2.733
 2983TIP3   OH2 8905   5.090   2.658   2.069
 2983TIP3    H1 8906   5.049   2.698   2.145
 2983TIP3    H2 8907   5.051   2.703   1.994
 2984TIP3   OH2 8908   5.273   3.188   3.134
 2984TIP3    H1 8909   5.357   3.190   3.181
 2984TIP3    H2 8910   5.246   3.097   3.137
 2985TIP3   OH2 8911   5.762   3.134   3.161
 2985TIP3    H1 8912   5.838   3.078   3.177
 2985TIP3    H2 8913   5.786   3.185   3.083
 2986TIP3   OH2 8914   5.717   2.711   1.297
 2986TIP3    H1 8915   5.668   2.643   1.344
 2986TIP3    H2 8916   5.792   2.665   1.261
 2987TIP3   OH2 8917   6.374   3.052   2.937
 2987TIP3    H1 8918   6.389   2.983   3.001
 2987TIP3    H2 8919   6.447   3.113   2.949
 2988TIP3   OH2 8920   6.152   2.754   1.229
 2988TIP3    H1 8921   6.182   2.689   1.292
 2988TIP3    H2 8922   6.215   2.748   1.157
 2989TIP3   OH2 8923   5.336   2.621   3.329
 2989TIP3    H1 8924   5.357   2.533   3.361
 2989TIP3    H2 8925   5.240   2.624   3.330
 2990TIP3   OH2 8926   5.381   2.212   1.528
 2990TIP3    H1 8927   5.432   2.189   1.605
 2990TIP3    H2 8928   5.447   2.225   1.459
 2991TIP3   OH2 8929   6.002   2.684   3.090
 2991TIP3    H1 8930   5.956   2.701   3.008
 2991TIP3    H2 8931   6.039   2.596   3.080
 2992TIP3   OH2 8932   5.923   2.434   1.351
 2992TIP3    H1 8933   5.907   2.447   1.445
 2992TIP3    H2 8934   5.912   2.340   1.338
 2993TIP3   OH2 8935   6.486   2.723   2.721
 2993TIP3    H1 8936   6.564   2.751   2.672
 2993TIP3    H2 8937   6.422   2.793   2.705
 2994TIP3   OH2 8938   5.549   2.400   3.318
 2994TIP3    H1 8939   5.582   2.316   3.286
 2994TIP3    H2 8940   5.566   2.398   3.412
 2995TIP3   OH2 8941   5.557   2.148   1.737
 2995TIP3    H1 8942   5.534   2.119   1.825
 2995TIP3    H2 8943   5.602   2.073   1.698
 2996TIP3   OH2 8944   5.876   2.227   2.986
 2996TIP3    H1 8945   5.786   2.259   2.990
 2996TIP3    H2 8946   5.908   2.256   2.900
 2997TIP3   OH2 8947   5.692   1.957   1.582
 2997TIP3    H1 8948   5.663   1.962   1.491
 2997TIP3    H2 8949   5.787   1.964   1.577
 2998TIP3   OH2 8950   6.368   2.603   3.087
 2998TIP3    H1 8951   6.437   2.566   3.033
 2998TIP3    H2 8952   6.364   2.546   3.164
 2999TIP3   OH2 8953   6.510   2.270   1.251
 2999TIP3    H1 8954   6.474   2.222   1.177
 2999TIP3    H2 8955   6.471   2.357   1.244
 3000TIP3   OH2 8956   5.971   1.997   3.101
 3000TIP3    H1 8957   5.973   1.924   3.038
 3000TIP3    H2 8958   5.939   2.071   3.050
 3001TIP3   OH2 8959   5.977   1.795   2.899
 3001TIP3    H1 8960   6.005   1.832   2.815
 3001TIP3    H2 8961   5.885   1.771   2.885
 3002TIP3   OH2 8962   5.993   2.330   2.764
 3002TIP3    H1 8963   6.081   2.363   2.745
 3002TIP3    H2 8964   5.935   2.394   2.722
 3003TIP3   OH2 8965   6.580   2.280   3.151
 3003TIP3    H1 8966   6.618   2.194   3.169
 3003TIP3    H2 8967   6.654   2.335   3.125
 3004TIP3   OH2 8968   6.616   2.549   2.886
 3004TIP3    H1 8969   6.561   2.609   2.835
 3004TIP3    H2 8970   6.705   2.566   2.855
 3005TIP3   OH2 8971   5.852   2.089   3.340
 3005TIP3    H1 8972   5.785   2.025   3.361
 3005TIP3    H2 8973   5.883   2.064   3.253
 3006TIP3   OH2 8974   6.101   1.558   2.987
 3006TIP3    H1 8975   6.056   1.637   2.956
 3006TIP3    H2 8976   6.036   1.488   2.977
 3007TIP3   OH2 8977   6.228   2.041   3.199
 3007TIP3    H1 8978   6.219   2.030   3.294
 3007TIP3    H2 8979   6.142   2.018   3.163
 3008TIP3   OH2 8980   6.470   1.992   3.063
 3008TIP3    H1 8981   6.392   1.992   3.119
 3008TIP3    H2 8982   6.541   1.965   3.120
 3009TIP3   OH2 8983   6.706   1.952   3.211
 3009TIP3    H1 8984   6.719   1.858   3.223
 3009TIP3    H2 8985   6.700   1.987   3.300
 3010TIP3   OH2 8986   5.694   1.863   3.405
 3010TIP3    H1 8987   5.701   1.775   3.367
 3010TIP3    H2 8988   5.734   1.855   3.492
 3011TIP3   OH2 8989   6.151   1.566   3.257
 3011TIP3    H1 8990   6.231   1.514   3.258
 3011TIP3    H2 8991   6.124   1.566   3.165
 3012TIP3   OH2 8992   6.261   1.769   3.408
 3012TIP3    H1 8993   6.230   1.700   3.349
 3012TIP3    H2 8994   6.190   1.833   3.409
 3013TIP3   OH2 8995   5.505   3.005   1.502
 3013TIP3    H1 8996   5.597   2.987   1.480
 3013TIP3    H2 8997   5.472   3.055   1.428
 3014TIP3   OH2 8998   4.977   2.392   1.689
 3014TIP3    H1 8999   5.071   2.406   1.688
 3014TIP3    H2 9000   4.965   2.304   1.654
 3015TIP3   OH2 9001   4.885   2.981   2.147
 3015TIP3    H1 9002   4.820   2.925   2.104
 3015TIP3    H2 9003   4.932   2.922   2.206
 3016TIP3   OH2 9004   5.028   2.812   2.313
 3016TIP3    H1 9005   5.003   2.747   2.379
 3016TIP3    H2 9006   5.082   2.875   2.360
 3017TIP3   OH2 9007   6.764   3.221   2.129
 3017TIP3    H1 9008   6.774   3.244   2.221
 3017TIP3    H2 9009   6.798   3.297   2.082
 3018TIP3   OH2 9010   6.778   3.248   2.406
 3018TIP3    H1 9011   6.728   3.167   2.401
 3018TIP3    H2 9012   6.848   3.230   2.469
 3019TIP3   OH2 9013   6.834   2.949   2.979
 3019TIP3    H1 9014   6.764   2.954   3.044
 3019TIP3    H2 9015   6.878   3.034   2.985
 3020TIP3   OH2 9016   6.649   2.473   1.601
 3020TIP3    H1 9017   6.707   2.543   1.571
 3020TIP3    H2 9018   6.693   2.438   1.679
 3021TIP3   OH2 9019   6.773   2.329   1.802
 3021TIP3    H1 9020   6.707   2.286   1.856
 3021TIP3    H2 9021   6.836   2.364   1.865
 3022TIP3   OH2 9022   6.836   2.718   2.222
 3022TIP3    H1 9023   6.889   2.653   2.175
 3022TIP3    H2 9024   6.834   2.794   2.163
 3023TIP3   OH2 9025   6.641   3.007   2.403
 3023TIP3    H1 9026   6.570   3.055   2.447
 3023TIP3    H2 9027   6.598   2.961   2.332
 3024TIP3   OH2 9028   6.650   2.229   1.482
 3024TIP3    H1 9029   6.588   2.236   1.409
 3024TIP3    H2 9030   6.639   2.311   1.531
 3025TIP3   OH2 9031   6.539   1.916   1.399
 3025TIP3    H1 9032   6.463   1.948   1.351
 3025TIP3    H2 9033   6.527   1.821   1.402
 3026TIP3   OH2 9034   6.583   2.175   1.933
 3026TIP3    H1 9035   6.582   2.080   1.921
 3026TIP3    H2 9036   6.562   2.188   2.025
 3027TIP3   OH2 9037   5.215   2.207   2.712
 3027TIP3    H1 9038   5.194   2.289   2.667
 3027TIP3    H2 9039   5.311   2.207   2.719
 3028TIP3   OH2 9040   6.871   2.606   2.792
 3028TIP3    H1 9041   6.929   2.534   2.768
 3028TIP3    H2 9042   6.901   2.680   2.740
 3029TIP3   OH2 9043   7.025   2.386   2.750
 3029TIP3    H1 9044   6.977   2.333   2.814
 3029TIP3    H2 9045   7.115   2.388   2.783
 3030TIP3   OH2 9046   6.481   1.650   1.395
 3030TIP3    H1 9047   6.549   1.595   1.356
 3030TIP3    H2 9048   6.407   1.592   1.409
 3031TIP3   OH2 9049   6.574   1.899   1.827
 3031TIP3    H1 9050   6.614   1.813   1.838
 3031TIP3    H2 9051   6.622   1.938   1.754
 3032TIP3   OH2 9052   6.723   2.062   2.340
 3032TIP3    H1 9053   6.804   2.085   2.295
 3032TIP3    H2 9054   6.732   2.100   2.427
 3033TIP3   OH2 9055   6.795   2.210   2.565
 3033TIP3    H1 9056   6.726   2.244   2.622
 3033TIP3    H2 9057   6.826   2.286   2.517
 3034TIP3   OH2 9058   5.429   1.916   3.348
 3034TIP3    H1 9059   5.524   1.913   3.365
 3034TIP3    H2 9060   5.396   1.835   3.387
 3035TIP3   OH2 9061   7.283   1.820   3.105
 3035TIP3    H1 9062   7.340   1.762   3.054
 3035TIP3    H2 9063   7.234   1.869   3.039
 3036TIP3   OH2 9064   6.684   1.648   1.870
 3036TIP3    H1 9065   6.730   1.635   1.954
 3036TIP3    H2 9066   6.623   1.575   1.865
 3037TIP3   OH2 9067   5.394   1.636   2.700
 3037TIP3    H1 9068   5.451   1.559   2.702
 3037TIP3    H2 9069   5.453   1.709   2.682
 3038TIP3   OH2 9070   5.168   1.923   2.738
 3038TIP3    H1 9071   5.230   1.898   2.670
 3038TIP3    H2 9072   5.169   2.019   2.738
 3039TIP3   OH2 9073   7.116   1.932   2.925
 3039TIP3    H1 9074   7.046   1.977   2.972
 3039TIP3    H2 9075   7.071   1.876   2.862
 3040TIP3   OH2 9076   6.769   1.555   1.530
 3040TIP3    H1 9077   6.797   1.485   1.471
 3040TIP3    H2 9078   6.753   1.630   1.472
 3041TIP3   OH2 9079   5.165   1.393   2.251
 3041TIP3    H1 9080   5.081   1.390   2.295
 3041TIP3    H2 9081   5.153   1.455   2.180
 3042TIP3   OH2 9082   6.321   3.120   1.768
 3042TIP3    H1 9083   6.384   3.115   1.697
 3042TIP3    H2 9084   6.360   3.182   1.830
 3043TIP3   OH2 9085   5.390   1.464   3.076
 3043TIP3    H1 9086   5.343   1.465   3.159
 3043TIP3    H2 9087   5.335   1.514   3.016
 3044TIP3   OH2 9088   5.629   2.950   2.700
 3044TIP3    H1 9089   5.576   3.025   2.675
 3044TIP3    H2 9090   5.713   2.962   2.655
 3045TIP3   OH2 9091   6.036   3.188   2.846
 3045TIP3    H1 9092   6.078   3.186   2.931
 3045TIP3    H2 9093   6.096   3.236   2.790
 3046TIP3   OH2 9094   6.234   3.325   2.720
 3046TIP3    H1 9095   6.245   3.337   2.625
 3046TIP3    H2 9096   6.288   3.393   2.759
 3047TIP3   OH2 9097   7.027   1.684   2.801
 3047TIP3    H1 9098   6.936   1.675   2.774
 3047TIP3    H2 9099   7.063   1.595   2.794
 3048TIP3   OH2 9100   5.289   3.245   2.721
 3048TIP3    H1 9101   5.196   3.263   2.705
 3048TIP3    H2 9102   5.303   3.272   2.812
 3049TIP3   OH2 9103   5.522   3.184   2.593
 3049TIP3    H1 9104   5.439   3.203   2.636
 3049TIP3    H2 9105   5.508   3.207   2.501
 3050TIP3   OH2 9106   5.970   3.198   2.394
 3050TIP3    H1 9107   5.919   3.243   2.327
 3050TIP3    H2 9108   6.055   3.240   2.392
 3051TIP3   OH2 9109   5.197   2.990   2.458
 3051TIP3    H1 9110   5.215   2.970   2.550
 3051TIP3    H2 9111   5.274   2.958   2.410
 3052TIP3   OH2 9112   5.412   2.881   2.325
 3052TIP3    H1 9113   5.424   2.795   2.365
 3052TIP3    H2 9114   5.499   2.921   2.330
 3053TIP3   OH2 9115   5.678   2.971   2.344
 3053TIP3    H1 9116   5.707   2.882   2.324
 3053TIP3    H2 9117   5.726   2.994   2.424
 3054TIP3   OH2 9118   6.233   1.613   2.433
 3054TIP3    H1 9119   6.196   1.542   2.487
 3054TIP3    H2 9120   6.303   1.571   2.383
 3055TIP3   OH2 9121   6.738   1.513   2.319
 3055TIP3    H1 9122   6.774   1.568   2.250
 3055TIP3    H2 9123   6.647   1.539   2.327
 3056TIP3   OH2 9124   6.850   1.610   2.089
 3056TIP3    H1 9125   6.916   1.548   2.059
 3056TIP3    H2 9126   6.892   1.696   2.080
 3057TIP3   OH2 9127   5.477   1.311   2.433
 3057TIP3    H1 9128   5.387   1.279   2.441
 3057TIP3    H2 9129   5.530   1.231   2.428
 3058TIP3   OH2 9130   5.285   1.203   2.080
 3058TIP3    H1 9131   5.314   1.256   2.006
 3058TIP3    H2 9132   5.249   1.266   2.143
 3059TIP3   OH2 9133   5.950   1.351   2.328
 3059TIP3    H1 9134   5.998   1.402   2.263
 3059TIP3    H2 9135   5.988   1.378   2.412
 3060TIP3   OH2 9136   6.452   1.503   2.301
 3060TIP3    H1 9137   6.453   1.470   2.212
 3060TIP3    H2 9138   6.453   1.425   2.356
 3061TIP3   OH2 9139   6.503   1.436   1.875
 3061TIP3    H1 9140   6.422   1.484   1.894
 3061TIP3    H2 9141   6.490   1.351   1.918
 3062TIP3   OH2 9142   4.978   2.783   1.851
 3062TIP3    H1 9143   4.893   2.748   1.825
 3062TIP3    H2 9144   4.977   2.874   1.821
 3063TIP3   OH2 9145   5.399   1.346   1.851
 3063TIP3    H1 9146   5.444   1.287   1.790
 3063TIP3    H2 9147   5.468   1.402   1.886
 3064TIP3   OH2 9148   5.892   1.538   1.948
 3064TIP3    H1 9149   5.951   1.489   2.005
 3064TIP3    H2 9150   5.904   1.630   1.973
 3065TIP3   OH2 9151   5.765   2.940   1.441
 3065TIP3    H1 9152   5.850   2.967   1.405
 3065TIP3    H2 9153   5.739   2.865   1.387
 3066TIP3   OH2 9154   6.482   3.084   1.541
 3066TIP3    H1 9155   6.475   2.989   1.536
 3066TIP3    H2 9156   6.433   3.116   1.465
 3067TIP3   OH2 9157   5.697   1.590   3.314
 3067TIP3    H1 9158   5.661   1.523   3.373
 3067TIP3    H2 9159   5.789   1.596   3.339
 3068TIP3   OH2 9160   5.945   1.598   3.438
 3068TIP3    H1 9161   6.019   1.590   3.378
 3068TIP3    H2 9162   5.951   1.522   3.496
 3069TIP3   OH2 9163   5.070   2.783   1.502
 3069TIP3    H1 9164   5.072   2.792   1.598
 3069TIP3    H2 9165   5.152   2.739   1.481
 3070TIP3   OH2 9166   6.773   1.681   3.232
 3070TIP3    H1 9167   6.786   1.654   3.323
 3070TIP3    H2 9168   6.860   1.677   3.193
 3071TIP3   OH2 9169   6.680   3.214   2.720
 3071TIP3    H1 9170   6.610   3.183   2.664
 3071TIP3    H2 9171   6.666   3.309   2.727
 3072TIP3   OH2 9172   7.267   2.477   2.246
 3072TIP3    H1 9173   7.279   2.403   2.306
 3072TIP3    H2 9174   7.316   2.549   2.287
 3073TIP3   OH2 9175   7.246   2.889   1.942
 3073TIP3    H1 9176   7.230   2.796   1.957
 3073TIP3    H2 9177   7.340   2.896   1.930
 3074TIP3   OH2 9178   6.938   2.117   1.733
 3074TIP3    H1 9179   6.887   2.197   1.750
 3074TIP3    H2 9180   6.873   2.054   1.703
 3075TIP3   OH2 9181   7.031   2.391   1.916
 3075TIP3    H1 9182   7.078   2.315   1.880
 3075TIP3    H2 9183   7.088   2.465   1.897
 3076TIP3   OH2 9184   7.891   3.324   1.550
 3076TIP3    H1 9185   7.954   3.255   1.527
 3076TIP3    H2 9186   7.906   3.339   1.643
 3077TIP3   OH2 9187   7.744   2.830   1.903
 3077TIP3    H1 9188   7.780   2.778   1.831
 3077TIP3    H2 9189   7.819   2.882   1.933
 3078TIP3   OH2 9190   7.461   1.945   1.977
 3078TIP3    H1 9191   7.475   2.032   1.940
 3078TIP3    H2 9192   7.435   1.891   1.902
 3079TIP3   OH2 9193   7.593   2.389   1.808
 3079TIP3    H1 9194   7.676   2.365   1.766
 3079TIP3    H2 9195   7.546   2.306   1.816
 3080TIP3   OH2 9196   7.461   2.003   2.305
 3080TIP3    H1 9197   7.478   2.094   2.281
 3080TIP3    H2 9198   7.420   2.008   2.391
 3081TIP3   OH2 9199   7.608   2.733   2.128
 3081TIP3    H1 9200   7.551   2.800   2.167
 3081TIP3    H2 9201   7.649   2.777   2.054
 3082TIP3   OH2 9202   7.454   2.939   2.232
 3082TIP3    H1 9203   7.437   3.026   2.198
 3082TIP3    H2 9204   7.377   2.918   2.285
 3083TIP3   OH2 9205   6.824   2.657   1.482
 3083TIP3    H1 9206   6.777   2.682   1.402
 3083TIP3    H2 9207   6.852   2.740   1.521
 3084TIP3   OH2 9208   7.372   2.528   1.714
 3084TIP3    H1 9209   7.322   2.471   1.655
 3084TIP3    H2 9210   7.449   2.476   1.737
 3085TIP3   OH2 9211   7.498   2.944   1.834
 3085TIP3    H1 9212   7.479   2.923   1.742
 3085TIP3    H2 9213   7.583   2.902   1.850
 3086TIP3   OH2 9214   7.522   2.479   2.059
 3086TIP3    H1 9215   7.554   2.465   1.970
 3086TIP3    H2 9216   7.551   2.568   2.081
 3087TIP3   OH2 9217   7.641   3.042   2.410
 3087TIP3    H1 9218   7.579   3.104   2.448
 3087TIP3    H2 9219   7.588   2.988   2.351
 3088TIP3   OH2 9220   7.396   2.624   2.452
 3088TIP3    H1 9221   7.412   2.705   2.500
 3088TIP3    H2 9222   7.314   2.590   2.489
 3089TIP3   OH2 9223   7.761   3.133   1.388
 3089TIP3    H1 9224   7.775   3.202   1.453
 3089TIP3    H2 9225   7.688   3.165   1.336
 3090TIP3   OH2 9226   7.434   3.214   2.471
 3090TIP3    H1 9227   7.411   3.215   2.378
 3090TIP3    H2 9228   7.353   3.190   2.516
 3091TIP3   OH2 9229   7.216   2.373   1.539
 3091TIP3    H1 9230   7.134   2.402   1.498
 3091TIP3    H2 9231   7.201   2.281   1.559
 3092TIP3   OH2 9232   7.032   2.756   2.420
 3092TIP3    H1 9233   6.962   2.739   2.357
 3092TIP3    H2 9234   7.064   2.669   2.444
 3093TIP3   OH2 9235   6.871   2.964   2.074
 3093TIP3    H1 9236   6.960   2.989   2.097
 3093TIP3    H2 9237   6.817   3.038   2.100
 3094TIP3   OH2 9238   7.820   3.168   2.241
 3094TIP3    H1 9239   7.831   3.259   2.269
 3094TIP3    H2 9240   7.757   3.131   2.303
 3095TIP3   OH2 9241   7.611   3.301   1.216
 3095TIP3    H1 9242   7.579   3.290   1.126
 3095TIP3    H2 9243   7.581   3.388   1.242
 3096TIP3   OH2 9244   7.052   3.146   1.580
 3096TIP3    H1 9245   7.097   3.140   1.664
 3096TIP3    H2 9246   7.002   3.065   1.574
 3097TIP3   OH2 9247   7.866   3.243   1.123
 3097TIP3    H1 9248   7.784   3.271   1.163
 3097TIP3    H2 9249   7.896   3.171   1.178
 3098TIP3   OH2 9250   7.237   2.938   2.400
 3098TIP3    H1 9251   7.285   2.923   2.482
 3098TIP3    H2 9252   7.163   2.877   2.404
 3099TIP3   OH2 9253   7.615   1.770   2.201
 3099TIP3    H1 9254   7.631   1.678   2.179
 3099TIP3    H2 9255   7.690   1.795   2.256
 3100TIP3   OH2 9256   7.526   2.258   2.220
 3100TIP3    H1 9257   7.474   2.286   2.296
 3100TIP3    H2 9258   7.517   2.331   2.158
 3101TIP3   OH2 9259   7.436   2.165   1.803
 3101TIP3    H1 9260   7.347   2.137   1.823
 3101TIP3    H2 9261   7.445   2.153   1.708
 3102TIP3   OH2 9262   7.365   2.288   2.439
 3102TIP3    H1 9263   7.401   2.347   2.505
 3102TIP3    H2 9264   7.344   2.208   2.488
 3103TIP3   OH2 9265   7.478   1.671   1.243
 3103TIP3    H1 9266   7.465   1.737   1.312
 3103TIP3    H2 9267   7.496   1.723   1.165
 3104TIP3   OH2 9268   7.018   1.803   1.997
 3104TIP3    H1 9269   7.112   1.816   2.007
 3104TIP3    H2 9270   7.008   1.760   1.912
 3105TIP3   OH2 9271   6.947   1.852   1.565
 3105TIP3    H1 9272   6.996   1.916   1.514
 3105TIP3    H2 9273   6.859   1.891   1.575
 3106TIP3   OH2 9274   7.192   2.047   1.812
 3106TIP3    H1 9275   7.101   2.063   1.786
 3106TIP3    H2 9276   7.211   1.958   1.781
 3107TIP3   OH2 9277   7.430   2.124   1.539
 3107TIP3    H1 9278   7.513   2.089   1.508
 3107TIP3    H2 9279   7.383   2.149   1.458
 3108TIP3   OH2 9280   7.315   2.166   1.301
 3108TIP3    H1 9281   7.226   2.186   1.273
 3108TIP3    H2 9282   7.371   2.206   1.235
 3109TIP3   OH2 9283   7.403   2.853   2.621
 3109TIP3    H1 9284   7.475   2.887   2.674
 3109TIP3    H2 9285   7.363   2.786   2.676
 3110TIP3   OH2 9286   7.363   1.787   1.768
 3110TIP3    H1 9287   7.322   1.717   1.819
 3110TIP3    H2 9288   7.409   1.741   1.698
 3111TIP3   OH2 9289   7.798   2.216   2.226
 3111TIP3    H1 9290   7.704   2.230   2.212
 3111TIP3    H2 9291   7.836   2.304   2.222
 3112TIP3   OH2 9292   7.546   2.660   1.274
 3112TIP3    H1 9293   7.487   2.585   1.285
 3112TIP3    H2 9294   7.566   2.688   1.363
 3113TIP3   OH2 9295   7.934   2.902   2.300
 3113TIP3    H1 9296   7.997   2.932   2.366
 3113TIP3    H2 9297   7.899   2.982   2.261
 3114TIP3   OH2 9298   7.247   2.598   1.952
 3114TIP3    H1 9299   7.298   2.582   1.872
 3114TIP3    H2 9300   7.298   2.557   2.022
 3115TIP3   OH2 9301   7.685   2.771   1.058
 3115TIP3    H1 9302   7.656   2.861   1.074
 3115TIP3    H2 9303   7.655   2.722   1.134
 3116TIP3   OH2 9304   7.138   2.529   2.532
 3116TIP3    H1 9305   7.180   2.554   2.615
 3116TIP3    H2 9306   7.077   2.460   2.557
 3117TIP3   OH2 9307   7.860   2.662   2.575
 3117TIP3    H1 9308   7.781   2.614   2.550
 3117TIP3    H2 9309   7.927   2.632   2.514
 3118TIP3   OH2 9310   7.365   2.936   1.583
 3118TIP3    H1 9311   7.361   3.012   1.525
 3118TIP3    H2 9312   7.276   2.928   1.617
 3119TIP3   OH2 9313   6.844   2.275   1.298
 3119TIP3    H1 9314   6.902   2.344   1.327
 3119TIP3    H2 9315   6.778   2.268   1.368
 3120TIP3   OH2 9316   7.509   2.706   1.544
 3120TIP3    H1 9317   7.462   2.789   1.550
 3120TIP3    H2 9318   7.461   2.647   1.603
 3121TIP3   OH2 9319   7.644   3.259   2.040
 3121TIP3    H1 9320   7.680   3.335   1.994
 3121TIP3    H2 9321   7.717   3.225   2.092
 3122TIP3   OH2 9322   7.284   3.162   1.434
 3122TIP3    H1 9323   7.198   3.167   1.475
 3122TIP3    H2 9324   7.316   3.252   1.435
 3123TIP3   OH2 9325   7.346   2.030   2.561
 3123TIP3    H1 9326   7.255   2.042   2.586
 3123TIP3    H2 9327   7.387   1.986   2.635
 3124TIP3   OH2 9328   7.082   3.137   2.194
 3124TIP3    H1 9329   7.135   3.075   2.244
 3124TIP3    H2 9330   7.089   3.219   2.242
 3125TIP3   OH2 9331   7.364   2.833   0.910
 3125TIP3    H1 9332   7.431   2.775   0.874
 3125TIP3    H2 9333   7.365   2.815   1.004
 3126TIP3   OH2 9334   7.314   2.775   1.175
 3126TIP3    H1 9335   7.396   2.753   1.218
 3126TIP3    H2 9336   7.303   2.869   1.188
 3127TIP3   OH2 9337   7.008   2.477   1.386
 3127TIP3    H1 9338   6.950   2.539   1.431
 3127TIP3    H2 9339   7.044   2.527   1.313
 3128TIP3   OH2 9340   7.563   3.005   1.114
 3128TIP3    H1 9341   7.476   3.020   1.151
 3128TIP3    H2 9342   7.592   3.091   1.085
 3129TIP3   OH2 9343   7.302   3.049   1.186
 3129TIP3    H1 9344   7.275   3.115   1.122
 3129TIP3    H2 9345   7.292   3.093   1.270
 3130TIP3   OH2 9346   7.427   1.821   1.472
 3130TIP3    H1 9347   7.362   1.871   1.522
 3130TIP3    H2 9348   7.500   1.881   1.460
 3131TIP3   OH2 9349   7.006   2.724   1.198
 3131TIP3    H1 9350   7.055   2.805   1.211
 3131TIP3    H2 9351   7.068   2.665   1.155
 3132TIP3   OH2 9352   7.059   2.008   1.378
 3132TIP3    H1 9353   7.085   2.097   1.354
 3132TIP3    H2 9354   7.012   1.976   1.301
 3133TIP3   OH2 9355   7.327   1.729   2.147
 3133TIP3    H1 9356   7.301   1.686   2.065
 3133TIP3    H2 9357   7.320   1.660   2.213
 3134TIP3   OH2 9358   6.883   2.920   1.561
 3134TIP3    H1 9359   6.840   2.958   1.637
 3134TIP3    H2 9360   6.842   2.962   1.486
 3135TIP3   OH2 9361   7.085   3.442   2.626
 3135TIP3    H1 9362   7.162   3.445   2.683
 3135TIP3    H2 9363   7.070   3.349   2.610
 3136TIP3   OH2 9364   7.523   3.401   2.649
 3136TIP3    H1 9365   7.610   3.372   2.674
 3136TIP3    H2 9366   7.494   3.338   2.583
 3137TIP3   OH2 9367   7.531   3.023   0.799
 3137TIP3    H1 9368   7.472   2.964   0.847
 3137TIP3    H2 9369   7.595   2.964   0.760
 3138TIP3   OH2 9370   7.163   2.888   2.838
 3138TIP3    H1 9371   7.205   2.802   2.841
 3138TIP3    H2 9372   7.083   2.874   2.786
 3139TIP3   OH2 9373   7.176   2.533   1.108
 3139TIP3    H1 9374   7.247   2.582   1.152
 3139TIP3    H2 9375   7.178   2.565   1.018
 3140TIP3   OH2 9376   7.818   2.941   2.591
 3140TIP3    H1 9377   7.762   2.964   2.517
 3140TIP3    H2 9378   7.834   2.847   2.580
 3141TIP3   OH2 9379   7.850   2.685   0.842
 3141TIP3    H1 9380   7.816   2.742   0.910
 3141TIP3    H2 9381   7.850   2.598   0.881
 3142TIP3   OH2 9382   7.374   2.460   1.328
 3142TIP3    H1 9383   7.321   2.438   1.405
 3142TIP3    H2 9384   7.337   2.406   1.258
 3143TIP3   OH2 9385   7.620   2.460   2.471
 3143TIP3    H1 9386   7.542   2.515   2.473
 3143TIP3    H2 9387   7.669   2.491   2.395
 3144TIP3   OH2 9388   7.628   2.218   1.067
 3144TIP3    H1 9389   7.545   2.185   1.032
 3144TIP3    H2 9390   7.676   2.140   1.093
 3145TIP3   OH2 9391   7.765   2.262   2.602
 3145TIP3    H1 9392   7.775   2.182   2.550
 3145TIP3    H2 9393   7.715   2.321   2.545
 3146TIP3   OH2 9394   7.758   2.035   2.426
 3146TIP3    H1 9395   7.792   2.087   2.353
 3146TIP3    H2 9396   7.667   2.016   2.401
 3147TIP3   OH2 9397   7.780   2.585   2.285
 3147TIP3    H1 9398   7.858   2.637   2.268
 3147TIP3    H2 9399   7.710   2.629   2.237
 3148TIP3   OH2 9400   7.664   2.348   2.842
 3148TIP3    H1 9401   7.578   2.308   2.846
 3148TIP3    H2 9402   7.695   2.331   2.753
 3149TIP3   OH2 9403   7.473   2.146   2.898
 3149TIP3    H1 9404   7.472   2.060   2.857
 3149TIP3    H2 9405   7.517   2.132   2.982
 3150TIP3   OH2 9406   7.296   3.258   0.997
 3150TIP3    H1 9407   7.391   3.259   0.984
 3150TIP3    H2 9408   7.261   3.309   0.924
 3151TIP3   OH2 9409   6.745   2.664   1.199
 3151TIP3    H1 9410   6.838   2.686   1.202
 3151TIP3    H2 9411   6.743   2.574   1.165
 3152TIP3   OH2 9412   6.685   3.240   1.636
 3152TIP3    H1 9413   6.618   3.187   1.592
 3152TIP3    H2 9414   6.728   3.180   1.697
 3153TIP3   OH2 9415   6.826   3.072   1.805
 3153TIP3    H1 9416   6.812   3.007   1.873
 3153TIP3    H2 9417   6.877   3.141   1.847
 3154TIP3   OH2 9418   7.005   2.498   2.170
 3154TIP3    H1 9419   7.005   2.462   2.081
 3154TIP3    H2 9420   7.098   2.502   2.194
 3155TIP3   OH2 9421   7.212   2.168   2.816
 3155TIP3    H1 9422   7.301   2.188   2.846
 3155TIP3    H2 9423   7.186   2.090   2.866
 3156TIP3   OH2 9424   6.971   2.146   2.255
 3156TIP3    H1 9425   7.000   2.175   2.168
 3156TIP3    H2 9426   6.982   2.223   2.311
 3157TIP3   OH2 9427   6.952   1.665   1.762
 3157TIP3    H1 9428   6.860   1.645   1.780
 3157TIP3    H2 9429   6.949   1.729   1.691
 3158TIP3   OH2 9430   7.145   1.703   2.535
 3158TIP3    H1 9431   7.126   1.721   2.627
 3158TIP3    H2 9432   7.098   1.771   2.486
 3159TIP3   OH2 9433   7.215   3.160   2.635
 3159TIP3    H1 9434   7.121   3.147   2.629
 3159TIP3    H2 9435   7.244   3.095   2.699
 3160TIP3   OH2 9436   7.419   3.213   2.191
 3160TIP3    H1 9437   7.363   3.281   2.155
 3160TIP3    H2 9438   7.503   3.225   2.145
 3161TIP3   OH2 9439   7.839   3.442   2.313
 3161TIP3    H1 9440   7.874   3.440   2.402
 3161TIP3    H2 9441   7.900   3.497   2.264
 3162TIP3   OH2 9442   8.006   3.627   2.179
 3162TIP3    H1 9443   8.040   3.666   2.098
 3162TIP3    H2 9444   8.038   3.686   2.248
 3163TIP3   OH2 9445   7.083   3.466   2.237
 3163TIP3    H1 9446   6.991   3.481   2.214
 3163TIP3    H2 9447   7.103   3.533   2.302
 3164TIP3   OH2 9448   7.302   3.435   2.077
 3164TIP3    H1 9449   7.221   3.445   2.127
 3164TIP3    H2 9450   7.281   3.467   1.990
 3165TIP3   OH2 9451   7.710   3.476   1.879
 3165TIP3    H1 9452   7.636   3.488   1.820
 3165TIP3    H2 9453   7.718   3.560   1.924
 3166TIP3   OH2 9454   7.952   3.370   1.811
 3166TIP3    H1 9455   7.867   3.405   1.840
 3166TIP3    H2 9456   8.016   3.411   1.870
 3167TIP3   OH2 9457   7.001   3.249   1.945
 3167TIP3    H1 9458   7.014   3.220   2.035
 3167TIP3    H2 9459   7.074   3.211   1.896
 3168TIP3   OH2 9460   7.200   3.124   1.810
 3168TIP3    H1 9461   7.208   3.043   1.860
 3168TIP3    H2 9462   7.286   3.165   1.816
 3169TIP3   OH2 9463   7.463   3.219   1.832
 3169TIP3    H1 9464   7.480   3.125   1.821
 3169TIP3    H2 9465   7.514   3.243   1.909
 3170TIP3   OH2 9466   7.260   1.586   1.922
 3170TIP3    H1 9467   7.172   1.548   1.930
 3170TIP3    H2 9468   7.319   1.511   1.925
 3171TIP3   OH2 9469   7.115   1.483   1.624
 3171TIP3    H1 9470   7.106   1.515   1.534
 3171TIP3    H2 9471   7.056   1.539   1.675
 3172TIP3   OH2 9472   6.772   3.038   1.340
 3172TIP3    H1 9473   6.687   3.005   1.313
 3172TIP3    H2 9474   6.772   3.130   1.313
 3173TIP3   OH2 9475   7.269   1.558   1.368
 3173TIP3    H1 9476   7.253   1.473   1.328
 3173TIP3    H2 9477   7.341   1.596   1.317
 3174TIP3   OH2 9478   7.571   3.242   0.951
 3174TIP3    H1 9479   7.652   3.281   0.918
 3174TIP3    H2 9480   7.555   3.168   0.893
 3175TIP3   OH2 9481   7.473   1.884   2.800
 3175TIP3    H1 9482   7.431   1.802   2.828
 3175TIP3    H2 9483   7.561   1.878   2.835
 3176TIP3   OH2 9484   7.706   1.859   2.950
 3176TIP3    H1 9485   7.798   1.872   2.930
 3176TIP3    H2 9486   7.705   1.792   3.019
 3177TIP3   OH2 9487   6.857   3.062   1.008
 3177TIP3    H1 9488   6.842   3.087   1.100
 3177TIP3    H2 9489   6.944   3.023   1.008
 3178TIP3   OH2 9490   0.410   3.373   3.158
 3178TIP3    H1 9491   0.376   3.461   3.139
 3178TIP3    H2 9492   0.345   3.314   3.119
 3179TIP3   OH2 9493   0.436   3.369   3.576
 3179TIP3    H1 9494   0.483   3.349   3.658
 3179TIP3    H2 9495   0.396   3.286   3.550
 3180TIP3   OH2 9496   8.247   3.297   4.015
 3180TIP3    H1 9497   8.179   3.235   4.041
 3180TIP3    H2 9498   8.241   3.299   3.919
 3181TIP3   OH2 9499   0.680   3.690   3.256
 3181TIP3    H1 9500   0.667   3.624   3.323
 3181TIP3    H2 9501   0.706   3.769   3.304
 3182TIP3   OH2 9502   8.170   3.713   3.525
 3182TIP3    H1 9503   8.144   3.625   3.499
 3182TIP3    H2 9504   8.210   3.701   3.611
 3183TIP3   OH2 9505   7.984   3.146   3.609
 3183TIP3    H1 9506   8.042   3.074   3.634
 3183TIP3    H2 9507   7.968   3.133   3.515
 3184TIP3   OH2 9508   0.333   4.128   3.277
 3184TIP3    H1 9509   0.366   4.068   3.210
 3184TIP3    H2 9510   0.326   4.075   3.356
 3185TIP3   OH2 9511   0.293   3.597   3.620
 3185TIP3    H1 9512   0.331   3.516   3.587
 3185TIP3    H2 9513   0.368   3.648   3.653
 3186TIP3   OH2 9514   1.248   2.930   3.606
 3186TIP3    H1 9515   1.271   3.012   3.649
 3186TIP3    H2 9516   1.269   2.944   3.514
 3187TIP3   OH2 9517   0.641   3.100   3.631
 3187TIP3    H1 9518   0.679   3.015   3.656
 3187TIP3    H2 9519   0.605   3.085   3.544
 3188TIP3   OH2 9520   8.490   2.763   3.578
 3188TIP3    H1 9521   8.474   2.831   3.512
 3188TIP3    H2 9522   8.445   2.685   3.544
 3189TIP3   OH2 9523   0.682   2.857   3.219
 3189TIP3    H1 9524   0.748   2.848   3.289
 3189TIP3    H2 9525   0.731   2.891   3.144
 3190TIP3   OH2 9526   8.183   2.974   3.670
 3190TIP3    H1 9527   8.246   2.931   3.727
 3190TIP3    H2 9528   8.184   2.922   3.590
 3191TIP3   OH2 9529   0.089   3.171   3.471
 3191TIP3    H1 9530   0.180   3.148   3.494
 3191TIP3    H2 9531   0.051   3.089   3.442
 3192TIP3   OH2 9532   1.317   3.147   3.772
 3192TIP3    H1 9533   1.228   3.180   3.769
 3192TIP3    H2 9534   1.352   3.180   3.855
 3193TIP3   OH2 9535   8.527   2.746   4.023
 3193TIP3    H1 9536   8.468   2.783   3.957
 3193TIP3    H2 9537   8.481   2.761   4.106
 3194TIP3   OH2 9538   0.288   3.588   3.042
 3194TIP3    H1 9539   0.269   3.559   2.953
 3194TIP3    H2 9540   0.258   3.679   3.045
 3195TIP3   OH2 9541   0.075   3.528   3.766
 3195TIP3    H1 9542   0.057   3.596   3.831
 3195TIP3    H2 9543   0.156   3.557   3.723
 3196TIP3   OH2 9544   0.849   2.877   3.435
 3196TIP3    H1 9545   0.814   2.852   3.520
 3196TIP3    H2 9546   0.907   2.951   3.453
 3197TIP3   OH2 9547   8.388   2.855   3.811
 3197TIP3    H1 9548   8.443   2.931   3.830
 3197TIP3    H2 9549   8.431   2.813   3.736
 3198TIP3   OH2 9550   8.474   3.714   3.943
 3198TIP3    H1 9551   8.440   3.742   3.857
 3198TIP3    H2 9552   8.401   3.665   3.982
 3199TIP3   OH2 9553   0.722   3.936   3.401
 3199TIP3    H1 9554   0.633   3.926   3.435
 3199TIP3    H2 9555   0.720   4.020   3.354
 3200TIP3   OH2 9556   1.045   2.825   3.775
 3200TIP3    H1 9557   0.959   2.846   3.739
 3200TIP3    H2 9558   1.107   2.851   3.706
 3201TIP3   OH2 9559   0.322   2.442   3.756
 3201TIP3    H1 9560   0.318   2.350   3.779
 3201TIP3    H2 9561   0.244   2.481   3.795
 3202TIP3   OH2 9562   0.435   3.977   3.067
 3202TIP3    H1 9563   0.484   3.895   3.055
 3202TIP3    H2 9564   0.492   4.045   3.031
 3203TIP3   OH2 9565   0.577   3.755   3.006
 3203TIP3    H1 9566   0.583   3.681   2.945
 3203TIP3    H2 9567   0.615   3.722   3.087
 3204TIP3   OH2 9568   0.953   3.835   3.742
 3204TIP3    H1 9569   0.943   3.760   3.684
 3204TIP3    H2 9570   0.940   3.911   3.685
 3205TIP3   OH2 9571   0.251   3.212   2.988
 3205TIP3    H1 9572   0.170   3.236   2.944
 3205TIP3    H2 9573   0.315   3.203   2.918
 3206TIP3   OH2 9574   1.146   3.488   3.608
 3206TIP3    H1 9575   1.062   3.534   3.608
 3206TIP3    H2 9576   1.181   3.502   3.521
 3207TIP3   OH2 9577   0.618   3.349   2.980
 3207TIP3    H1 9578   0.554   3.360   3.051
 3207TIP3    H2 9579   0.695   3.311   3.023
 3208TIP3   OH2 9580   0.837   3.347   3.915
 3208TIP3    H1 9581   0.842   3.429   3.963
 3208TIP3    H2 9582   0.753   3.349   3.870
 3209TIP3   OH2 9583   8.334   3.259   3.422
 3209TIP3    H1 9584   8.287   3.176   3.408
 3209TIP3    H2 9585   8.424   3.232   3.441
 3210TIP3   OH2 9586   0.054   3.680   3.509
 3210TIP3    H1 9587   0.012   3.604   3.550
 3210TIP3    H2 9588   0.148   3.665   3.524
 3211TIP3   OH2 9589  -0.005   3.276   3.700
 3211TIP3    H1 9590   0.038   3.252   3.618
 3211TIP3    H2 9591   0.024   3.365   3.717
 3212TIP3   OH2 9592   0.483   3.917   3.533
 3212TIP3    H1 9593   0.482   4.001   3.580
 3212TIP3    H2 9594   0.491   3.852   3.602
 3213TIP3   OH2 9595   0.128   3.868   4.113
 3213TIP3    H1 9596   0.095   3.956   4.093
 3213TIP3    H2 9597   0.073   3.809   4.061
 3214TIP3   OH2 9598   0.467   3.183   2.819
 3214TIP3    H1 9599   0.523   3.250   2.857
 3214TIP3    H2 9600   0.478   3.193   2.724
 3215TIP3   OH2 9601   8.399   3.395   4.214
 3215TIP3    H1 9602   8.375   3.487   4.225
 3215TIP3    H2 9603   8.340   3.362   4.147
 3216TIP3   OH2 9604   0.197   3.848   3.028
 3216TIP3    H1 9605   0.277   3.894   3.052
 3216TIP3    H2 9606   0.128   3.890   3.080
 3217TIP3   OH2 9607   8.355   4.129   4.169
 3217TIP3    H1 9608   8.400   4.105   4.088
 3217TIP3    H2 9609   8.351   4.048   4.220
 3218TIP3   OH2 9610   0.951   2.411   2.865
 3218TIP3    H1 9611   0.871   2.429   2.914
 3218TIP3    H2 9612   0.965   2.489   2.811
 3219TIP3   OH2 9613   0.769   3.785   2.415
 3219TIP3    H1 9614   0.770   3.877   2.391
 3219TIP3    H2 9615   0.858   3.754   2.395
 3220TIP3   OH2 9616   1.189   4.188   3.803
 3220TIP3    H1 9617   1.198   4.095   3.822
 3220TIP3    H2 9618   1.112   4.215   3.854
 3221TIP3   OH2 9619   0.315   3.948   3.928
 3221TIP3    H1 9620   0.325   4.039   3.953
 3221TIP3    H2 9621   0.253   3.912   3.992
 3222TIP3   OH2 9622   0.053   4.069   2.869
 3222TIP3    H1 9623   0.021   4.061   2.779
 3222TIP3    H2 9624   0.038   4.161   2.892
 3223TIP3   OH2 9625   0.290   4.007   2.525
 3223TIP3    H1 9626   0.338   3.933   2.489
 3223TIP3    H2 9627   0.319   4.013   2.616
 3224TIP3   OH2 9628   0.321   4.042   2.800
 3224TIP3    H1 9629   0.232   4.042   2.836
 3224TIP3    H2 9630   0.374   4.002   2.869
 3225TIP3   OH2 9631   1.083   3.305   4.079
 3225TIP3    H1 9632   0.999   3.313   4.034
 3225TIP3    H2 9633   1.103   3.211   4.078
 3226TIP3   OH2 9634   0.088   2.526   3.874
 3226TIP3    H1 9635  -0.000   2.496   3.850
 3226TIP3    H2 9636   0.073   2.604   3.927
 3227TIP3   OH2 9637   0.622   2.662   4.087
 3227TIP3    H1 9638   0.693   2.637   4.145
 3227TIP3    H2 9639   0.542   2.641   4.136
 3228TIP3   OH2 9640   0.837   3.083   4.000
 3228TIP3    H1 9641   0.799   3.080   4.088
 3228TIP3    H2 9642   0.826   3.174   3.972
 3229TIP3   OH2 9643   0.519   3.208   2.553
 3229TIP3    H1 9644   0.473   3.188   2.471
 3229TIP3    H2 9645   0.603   3.243   2.525
 3230TIP3   OH2 9646   0.221   2.631   2.857
 3230TIP3    H1 9647   0.193   2.613   2.947
 3230TIP3    H2 9648   0.175   2.565   2.805
 3231TIP3   OH2 9649   0.046   3.064   3.868
 3231TIP3    H1 9650   0.023   3.089   3.958
 3231TIP3    H2 9651   0.035   3.145   3.818
 3232TIP3   OH2 9652   8.419   2.972   3.395
 3232TIP3    H1 9653   8.335   2.931   3.417
 3232TIP3    H2 9654   8.440   2.939   3.308
 3233TIP3   OH2 9655   0.385   3.032   3.149
 3233TIP3    H1 9656   0.333   3.097   3.101
 3233TIP3    H2 9657   0.445   2.997   3.083
 3234TIP3   OH2 9658   0.569   3.300   4.227
 3234TIP3    H1 9659   0.543   3.231   4.288
 3234TIP3    H2 9660   0.661   3.316   4.247
 3235TIP3   OH2 9661   0.547   3.047   3.376
 3235TIP3    H1 9662   0.482   3.072   3.311
 3235TIP3    H2 9663   0.592   2.972   3.338
 3236TIP3   OH2 9664   8.448   3.098   4.119
 3236TIP3    H1 9665   8.390   3.146   4.178
 3236TIP3    H2 9666   8.446   3.008   4.151
 3237TIP3   OH2 9667   7.919   2.688   3.738
 3237TIP3    H1 9668   8.009   2.664   3.761
 3237TIP3    H2 9669   7.894   2.626   3.669
 3238TIP3   OH2 9670   0.572   3.293   3.807
 3238TIP3    H1 9671   0.604   3.227   3.746
 3238TIP3    H2 9672   0.538   3.242   3.881
 3239TIP3   OH2 9673   0.260   2.761   3.478
 3239TIP3    H1 9674   0.181   2.755   3.532
 3239TIP3    H2 9675   0.332   2.741   3.538
 3240TIP3   OH2 9676   8.211   2.817   3.448
 3240TIP3    H1 9677   8.116   2.813   3.439
 3240TIP3    H2 9678   8.239   2.725   3.447
 3241TIP3   OH2 9679   8.440   2.842   3.160
 3241TIP3    H1 9680   8.534   2.843   3.146
 3241TIP3    H2 9681   8.402   2.855   3.073
 3242TIP3   OH2 9682   0.716   2.836   3.684
 3242TIP3    H1 9683   0.689   2.853   3.775
 3242TIP3    H2 9684   0.653   2.771   3.652
 3243TIP3   OH2 9685   8.282   2.879   2.941
 3243TIP3    H1 9686   8.194   2.883   2.979
 3243TIP3    H2 9687   8.280   2.943   2.870
 3244TIP3   OH2 9688   0.904   4.542   3.902
 3244TIP3    H1 9689   0.899   4.557   3.808
 3244TIP3    H2 9690   0.983   4.587   3.930
 3245TIP3   OH2 9691   8.349   3.667   4.302
 3245TIP3    H1 9692   8.422   3.626   4.347
 3245TIP3    H2 9693   8.275   3.659   4.363
 3246TIP3   OH2 9694   0.333   3.101   3.570
 3246TIP3    H1 9695   0.397   3.051   3.518
 3246TIP3    H2 9696   0.333   3.057   3.655
 3247TIP3   OH2 9697   8.327   2.570   3.462
 3247TIP3    H1 9698   8.296   2.490   3.503
 3247TIP3    H2 9699   8.347   2.545   3.371
 3248TIP3   OH2 9700   0.311   3.003   3.831
 3248TIP3    H1 9701   0.220   3.025   3.849
 3248TIP3    H2 9702   0.362   3.054   3.893
 3249TIP3   OH2 9703   0.906   3.627   3.567
 3249TIP3    H1 9704   0.943   3.673   3.493
 3249TIP3    H2 9705   0.828   3.583   3.533
 3250TIP3   OH2 9706   0.485   2.699   2.848
 3250TIP3    H1 9707   0.390   2.688   2.845
 3250TIP3    H2 9708   0.497   2.793   2.865
 3251TIP3   OH2 9709   0.398   3.705   4.072
 3251TIP3    H1 9710   0.383   3.626   4.020
 3251TIP3    H2 9711   0.397   3.776   4.008
 3252TIP3   OH2 9712   0.551   2.952   2.938
 3252TIP3    H1 9713   0.646   2.960   2.944
 3252TIP3    H2 9714   0.524   3.028   2.886
 3253TIP3   OH2 9715   8.281   3.470   3.589
 3253TIP3    H1 9716   8.299   3.405   3.520
 3253TIP3    H2 9717   8.235   3.420   3.657
 3254TIP3   OH2 9718   0.190   3.529   2.789
 3254TIP3    H1 9719   0.138   3.609   2.787
 3254TIP3    H2 9720   0.127   3.459   2.808
 3255TIP3   OH2 9721   0.375   3.487   4.272
 3255TIP3    H1 9722   0.300   3.431   4.256
 3255TIP3    H2 9723   0.451   3.433   4.250
 3256TIP3   OH2 9724   0.585   3.991   3.876
 3256TIP3    H1 9725   0.490   3.978   3.880
 3256TIP3    H2 9726   0.607   4.027   3.962
 3257TIP3   OH2 9727   0.963   3.042   2.757
 3257TIP3    H1 9728   0.904   2.996   2.697
 3257TIP3    H2 9729   0.965   3.132   2.724
 3258TIP3   OH2 9730   1.202   3.904   3.835
 3258TIP3    H1 9731   1.107   3.894   3.831
 3258TIP3    H2 9732   1.232   3.877   3.748
 3259TIP3   OH2 9733   0.696   3.851   2.678
 3259TIP3    H1 9734   0.666   3.777   2.731
 3259TIP3    H2 9735   0.713   3.814   2.592
 3260TIP3   OH2 9736   0.672   3.492   3.472
 3260TIP3    H1 9737   0.584   3.460   3.492
 3260TIP3    H2 9738   0.716   3.416   3.433
 3261TIP3   OH2 9739   8.298   3.636   3.223
 3261TIP3    H1 9740   8.331   3.661   3.137
 3261TIP3    H2 9741   8.314   3.712   3.279
 3262TIP3   OH2 9742   7.499   1.354   1.391
 3262TIP3    H1 9743   7.592   1.374   1.385
 3262TIP3    H2 9744   7.468   1.408   1.465
 3263TIP3   OH2 9745   8.379   3.381   3.184
 3263TIP3    H1 9746   8.368   3.474   3.203
 3263TIP3    H2 9747   8.374   3.338   3.270
 3264TIP3   OH2 9748   0.129   4.038   3.731
 3264TIP3    H1 9749   0.168   4.115   3.690
 3264TIP3    H2 9750   0.202   3.995   3.775
 3265TIP3   OH2 9751   8.234   3.973   3.086
 3265TIP3    H1 9752   8.140   3.965   3.105
 3265TIP3    H2 9753   8.257   4.060   3.118
 3266TIP3   OH2 9754   0.539   3.691   3.697
 3266TIP3    H1 9755   0.597   3.704   3.772
 3266TIP3    H2 9756   0.588   3.635   3.637
 3267TIP3   OH2 9757   0.458   3.591   2.582
 3267TIP3    H1 9758   0.504   3.576   2.664
 3267TIP3    H2 9759   0.376   3.543   2.591
 3268TIP3   OH2 9760   0.719   4.230   3.748
 3268TIP3    H1 9761   0.647   4.168   3.751
 3268TIP3    H2 9762   0.702   4.282   3.669
 3269TIP3   OH2 9763   0.783   4.057   2.376
 3269TIP3    H1 9764   0.815   4.124   2.317
 3269TIP3    H2 9765   0.708   4.097   2.420
 3270TIP3   OH2 9766   8.388   2.853   4.238
 3270TIP3    H1 9767   8.310   2.816   4.197
 3270TIP3    H2 9768   8.400   2.801   4.318
 3271TIP3   OH2 9769   0.634   3.556   2.801
 3271TIP3    H1 9770   0.616   3.484   2.860
 3271TIP3    H2 9771   0.727   3.547   2.780
 3272TIP3   OH2 9772   8.331   3.555   2.529
 3272TIP3    H1 9773   8.353   3.465   2.504
 3272TIP3    H2 9774   8.303   3.548   2.621
 3273TIP3   OH2 9775   8.237   3.605   2.783
 3273TIP3    H1 9776   8.292   3.579   2.856
 3273TIP3    H2 9777   8.239   3.701   2.783
 3274TIP3   OH2 9778   7.973   3.277   3.136
 3274TIP3    H1 9779   7.968   3.362   3.181
 3274TIP3    H2 9780   8.044   3.288   3.073
 3275TIP3   OH2 9781   0.638   2.898   3.945
 3275TIP3    H1 9782   0.718   2.941   3.973
 3275TIP3    H2 9783   0.633   2.819   3.998
 3276TIP3   OH2 9784   0.533   2.643   3.119
 3276TIP3    H1 9785   0.516   2.661   3.027
 3276TIP3    H2 9786   0.577   2.721   3.151
 3277TIP3   OH2 9787   0.064   3.771   2.789
 3277TIP3    H1 9788   0.110   3.829   2.850
 3277TIP3    H2 9789   0.049   3.825   2.711
 3278TIP3   OH2 9790   0.211   2.831   3.216
 3278TIP3    H1 9791   0.273   2.900   3.192
 3278TIP3    H2 9792   0.228   2.816   3.309
 3279TIP3   OH2 9793   0.481   3.133   4.010
 3279TIP3    H1 9794   0.510   3.179   4.089
 3279TIP3    H2 9795   0.533   3.052   4.010
 3280TIP3   OH2 9796   0.360   2.543   3.310
 3280TIP3    H1 9797   0.342   2.621   3.363
 3280TIP3    H2 9798   0.424   2.572   3.245
 3281TIP3   OH2 9799   8.222   3.872   2.825
 3281TIP3    H1 9800   8.227   3.927   2.747
 3281TIP3    H2 9801   8.216   3.934   2.898
 3282TIP3   OH2 9802   8.377   2.570   3.190
 3282TIP3    H1 9803   8.377   2.665   3.182
 3282TIP3    H2 9804   8.462   2.543   3.155
 3283TIP3   OH2 9805   1.102   3.030   3.987
 3283TIP3    H1 9806   1.007   3.038   3.997
 3283TIP3    H2 9807   1.113   2.969   3.914
 3284TIP3   OH2 9808   0.768   3.239   3.379
 3284TIP3    H1 9809   0.692   3.181   3.387
 3284TIP3    H2 9810   0.837   3.196   3.431
 3285TIP3   OH2 9811   7.941   3.482   2.899
 3285TIP3    H1 9812   7.944   3.572   2.933
 3285TIP3    H2 9813   7.866   3.482   2.839
 3286TIP3   OH2 9814   0.745   4.204   3.317
 3286TIP3    H1 9815   0.704   4.255   3.248
 3286TIP3    H2 9816   0.839   4.218   3.304
 3287TIP3   OH2 9817   8.326   2.448   3.838
 3287TIP3    H1 9818   8.302   2.409   3.754
 3287TIP3    H2 9819   8.326   2.375   3.900
 3288TIP3   OH2 9820   0.092   4.243   4.281
 3288TIP3    H1 9821   0.082   4.237   4.376
 3288TIP3    H2 9822   0.019   4.191   4.246
 3289TIP3   OH2 9823  -0.005   3.766   2.481
 3289TIP3    H1 9824  -0.058   3.690   2.508
 3289TIP3    H2 9825   0.068   3.728   2.432
 3290TIP3   OH2 9826   0.664   4.068   4.131
 3290TIP3    H1 9827   0.704   4.001   4.186
 3290TIP3    H2 9828   0.727   4.141   4.132
 3291TIP3   OH2 9829   0.413   3.797   2.403
 3291TIP3    H1 9830   0.446   3.730   2.464
 3291TIP3    H2 9831   0.471   3.789   2.327
 3292TIP3   OH2 9832   8.163   3.318   2.660
 3292TIP3    H1 9833   8.143   3.225   2.672
 3292TIP3    H2 9834   8.241   3.318   2.604
 3293TIP3   OH2 9835   0.196   3.462   2.524
 3293TIP3    H1 9836   0.183   3.478   2.617
 3293TIP3    H2 9837   0.176   3.369   2.512
 3294TIP3   OH2 9838   0.732   3.760   3.886
 3294TIP3    H1 9839   0.815   3.784   3.844
 3294TIP3    H2 9840   0.683   3.842   3.890
 3295TIP3   OH2 9841   8.387   3.314   4.539
 3295TIP3    H1 9842   8.327   3.330   4.466
 3295TIP3    H2 9843   8.381   3.393   4.593
 3296TIP3   OH2 9844   0.182   3.302   4.209
 3296TIP3    H1 9845   0.087   3.312   4.216
 3296TIP3    H2 9846   0.201   3.321   4.117
 3297TIP3   OH2 9847   0.747   3.306   2.429
 3297TIP3    H1 9848   0.731   3.261   2.346
 3297TIP3    H2 9849   0.717   3.395   2.414
 3298TIP3   OH2 9850   0.241   3.037   4.276
 3298TIP3    H1 9851   0.250   2.970   4.208
 3298TIP3    H2 9852   0.221   3.117   4.227
 3299TIP3   OH2 9853   0.272   2.848   4.071
 3299TIP3    H1 9854   0.309   2.872   3.986
 3299TIP3    H2 9855   0.186   2.811   4.051
 3300TIP3   OH2 9856   0.301   3.448   3.963
 3300TIP3    H1 9857   0.357   3.392   3.909
 3300TIP3    H2 9858   0.212   3.419   3.943
 3301TIP3   OH2 9859   0.829   3.330   4.328
 3301TIP3    H1 9860   0.880   3.250   4.340
 3301TIP3    H2 9861   0.895   3.398   4.313
 3302TIP3   OH2 9862   0.875   3.587   4.047
 3302TIP3    H1 9863   0.816   3.648   4.003
 3302TIP3    H2 9864   0.962   3.612   4.017
 3303TIP3   OH2 9865   0.124   3.115   4.513
 3303TIP3    H1 9866   0.076   3.033   4.524
 3303TIP3    H2 9867   0.157   3.112   4.423
 3304TIP3   OH2 9868   0.364   2.602   4.174
 3304TIP3    H1 9869   0.326   2.684   4.142
 3304TIP3    H2 9870   0.297   2.536   4.156
 3305TIP3   OH2 9871   0.491   3.088   4.381
 3305TIP3    H1 9872   0.488   3.075   4.476
 3305TIP3    H2 9873   0.405   3.060   4.351
 3306TIP3   OH2 9874   0.726   3.038   4.240
 3306TIP3    H1 9875   0.650   3.041   4.298
 3306TIP3    H2 9876   0.799   3.015   4.298
 3307TIP3   OH2 9877   0.958   3.000   4.392
 3307TIP3    H1 9878   0.972   2.905   4.400
 3307TIP3    H2 9879   0.953   3.031   4.482
 3308TIP3   OH2 9880  -0.002   2.883   4.566
 3308TIP3    H1 9881  -0.015   2.801   4.518
 3308TIP3    H2 9882   0.026   2.855   4.654
 3309TIP3   OH2 9883   0.425   2.585   4.439
 3309TIP3    H1 9884   0.495   2.519   4.434
 3309TIP3    H2 9885   0.394   2.594   4.349
 3310TIP3   OH2 9886   0.523   2.801   4.578
 3310TIP3    H1 9887   0.492   2.730   4.522
 3310TIP3    H2 9888   0.450   2.863   4.580
 3311TIP3   OH2 9889   8.257   4.060   2.628
 3311TIP3    H1 9890   8.351   4.046   2.617
 3311TIP3    H2 9891   8.230   4.108   2.549
 3312TIP3   OH2 9892   1.011   4.271   3.304
 3312TIP3    H1 9893   1.036   4.297   3.392
 3312TIP3    H2 9894   1.074   4.316   3.247
 3313TIP3   OH2 9895   1.036   4.292   3.586
 3313TIP3    H1 9896   0.986   4.211   3.578
 3313TIP3    H2 9897   1.104   4.273   3.650
 3314TIP3   OH2 9898   1.069   3.995   4.144
 3314TIP3    H1 9899   1.020   3.994   4.226
 3314TIP3    H2 9900   1.123   4.074   4.149
 3315TIP3   OH2 9901   0.909   3.516   2.768
 3315TIP3    H1 9902   0.978   3.575   2.738
 3315TIP3    H2 9903   0.948   3.471   2.843
 3316TIP3   OH2 9904   1.024   3.365   2.970
 3316TIP3    H1 9905   0.958   3.321   3.024
 3316TIP3    H2 9906   1.089   3.396   3.033
 3317TIP3   OH2 9907   1.077   3.761   3.397
 3317TIP3    H1 9908   1.132   3.692   3.360
 3317TIP3    H2 9909   1.080   3.831   3.332
 3318TIP3   OH2 9910   0.888   4.057   3.591
 3318TIP3    H1 9911   0.820   4.097   3.645
 3318TIP3    H2 9912   0.840   4.013   3.520
 3319TIP3   OH2 9913   0.940   3.283   2.623
 3319TIP3    H1 9914   0.873   3.281   2.555
 3319TIP3    H2 9915   0.921   3.363   2.673
 3320TIP3   OH2 9916   0.804   2.934   2.565
 3320TIP3    H1 9917   0.758   2.967   2.488
 3320TIP3    H2 9918   0.804   2.839   2.555
 3321TIP3   OH2 9919   0.831   3.221   3.109
 3321TIP3    H1 9920   0.836   3.127   3.094
 3321TIP3    H2 9921   0.815   3.229   3.203
 3322TIP3   OH2 9922   1.128   3.652   3.962
 3322TIP3    H1 9923   1.191   3.580   3.952
 3322TIP3    H2 9924   1.161   3.721   3.904
 3323TIP3   OH2 9925   1.293   3.433   3.962
 3323TIP3    H1 9926   1.220   3.390   4.006
 3323TIP3    H2 9927   1.368   3.377   3.980
 3324TIP3   OH2 9928   0.792   2.662   2.531
 3324TIP3    H1 9929   0.852   2.637   2.602
 3324TIP3    H2 9930   0.707   2.628   2.559
 3325TIP3   OH2 9931   0.835   2.948   2.995
 3325TIP3    H1 9932   0.877   2.863   3.009
 3325TIP3    H2 9933   0.879   2.986   2.919
 3326TIP3   OH2 9934   0.982   3.111   3.510
 3326TIP3    H1 9935   1.063   3.129   3.463
 3326TIP3    H2 9936   0.996   3.148   3.597
 3327TIP3   OH2 9937   1.057   3.258   3.738
 3327TIP3    H1 9938   0.986   3.287   3.795
 3327TIP3    H2 9939   1.090   3.339   3.697
 3328TIP3   OH2 9940   8.058   3.052   4.519
 3328TIP3    H1 9941   8.141   3.071   4.562
 3328TIP3    H2 9942   8.034   2.965   4.551
 3329TIP3   OH2 9943   1.511   2.860   4.281
 3329TIP3    H1 9944   1.576   2.800   4.244
 3329TIP3    H2 9945   1.478   2.909   4.206
 3330TIP3   OH2 9946   0.940   2.695   3.043
 3330TIP3    H1 9947   0.986   2.678   3.125
 3330TIP3    H2 9948   0.877   2.622   3.035
 3331TIP3   OH2 9949   8.183   2.670   3.775
 3331TIP3    H1 9950   8.222   2.584   3.795
 3331TIP3    H2 9951   8.258   2.730   3.776
 3332TIP3   OH2 9952   1.367   2.979   4.082
 3332TIP3    H1 9953   1.287   3.019   4.115
 3332TIP3    H2 9954   1.338   2.905   4.029
 3333TIP3   OH2 9955   1.013   2.612   2.685
 3333TIP3    H1 9956   1.058   2.550   2.628
 3333TIP3    H2 9957   1.068   2.690   2.684
 3334TIP3   OH2 9958   0.576   4.172   2.946
 3334TIP3    H1 9959   0.630   4.155   2.868
 3334TIP3    H2 9960   0.625   4.237   2.996
 3335TIP3   OH2 9961   8.034   2.561   4.371
 3335TIP3    H1 9962   7.946   2.526   4.386
 3335TIP3    H2 9963   8.067   2.512   4.295
 3336TIP3   OH2 9964   8.354   3.981   3.926
 3336TIP3    H1 9965   8.326   4.040   3.856
 3336TIP3    H2 9966   8.426   3.931   3.887
 3337TIP3   OH2 9967   0.372   4.202   3.998
 3337TIP3    H1 9968   0.388   4.211   4.092
 3337TIP3    H2 9969   0.426   4.269   3.957
 3338TIP3   OH2 9970   0.517   4.397   3.870
 3338TIP3    H1 9971   0.592   4.351   3.833
 3338TIP3    H2 9972   0.554   4.456   3.935
 3339TIP3   OH2 9973   1.277   2.729   3.978
 3339TIP3    H1 9974   1.188   2.716   3.944
 3339TIP3    H2 9975   1.318   2.643   3.972
 3340TIP3   OH2 9976   8.325   4.156   3.687
 3340TIP3    H1 9977   8.257   4.184   3.748
 3340TIP3    H2 9978   8.277   4.117   3.614
 3341TIP3   OH2 9979   0.224   4.254   3.579
 3341TIP3    H1 9980   0.217   4.278   3.487
 3341TIP3    H2 9981   0.230   4.338   3.625
 3342TIP3   OH2 9982   0.481   4.179   3.613
 3342TIP3    H1 9983   0.388   4.201   3.610
 3342TIP3    H2 9984   0.524   4.252   3.569
 3343TIP3   OH2 9985   0.665   4.375   3.517
 3343TIP3    H1 9986   0.656   4.461   3.476
 3343TIP3    H2 9987   0.692   4.317   3.446
 3344TIP3   OH2 9988   8.155   3.996   3.475
 3344TIP3    H1 9989   8.086   3.931   3.469
 3344TIP3    H2 9990   8.229   3.957   3.429
 3345TIP3   OH2 9991   0.010   4.055   3.480
 3345TIP3    H1 9992  -0.024   3.969   3.454
 3345TIP3    H2 9993   0.042   4.043   3.569
 3346TIP3   OH2 9994   0.479   2.648   3.608
 3346TIP3    H1 9995   0.442   2.574   3.657
 3346TIP3    H2 9996   0.550   2.609   3.557
 3347TIP3   OH2 9997   0.989   2.563   3.502
 3347TIP3    H1 9998   1.024   2.611   3.427
 3347TIP3    H2 9999   0.895   2.581   3.499
 3348TIP3   OH210000   1.099   2.644   3.264
 3348TIP3    H110001   1.168   2.584   3.236
 3348TIP3    H210002   1.136   2.731   3.250
 3349TIP3   OH210003   8.224   2.353   3.600
 3349TIP3    H110004   8.137   2.332   3.634
 3349TIP3    H210005   8.270   2.269   3.597
 3350TIP3   OH210006   0.195   2.409   3.500
 3350TIP3    H110007   0.250   2.451   3.433
 3350TIP3    H210008   0.240   2.424   3.582
 3351TIP3   OH210009   0.702   2.540   3.481
 3351TIP3    H110010   0.714   2.505   3.393
 3351TIP3    H210011   0.704   2.464   3.538
 3352TIP3   OH210012   0.754   2.484   3.046
 3352TIP3    H110013   0.672   2.529   3.066
 3352TIP3    H210014   0.744   2.397   3.086
 3353TIP3   OH210015   0.151   2.581   3.120
 3353TIP3    H110016   0.208   2.527   3.176
 3353TIP3    H210017   0.168   2.671   3.148
 3354TIP3   OH210018   0.025   4.004   2.600
 3354TIP3    H110019   0.113   4.028   2.572
 3354TIP3    H210020   0.002   3.928   2.548
 3355TIP3   OH210021   0.728   4.120   2.718
 3355TIP3    H110022   0.723   4.025   2.711
 3355TIP3    H210023   0.688   4.153   2.638
 3356TIP3   OH210024   8.484   2.618   4.467
 3356TIP3    H110025   8.423   2.610   4.540
 3356TIP3    H210026   8.571   2.615   4.508
 3357TIP3   OH210027   0.215   2.643   4.623
 3357TIP3    H110028   0.291   2.620   4.569
 3357TIP3    H210029   0.206   2.569   4.683
 3358TIP3   OH210030   1.021   2.728   4.404
 3358TIP3    H110031   1.037   2.698   4.494
 3358TIP3    H210032   1.106   2.723   4.362
 3359TIP3   OH210033   0.945   4.268   3.904
 3359TIP3    H110034   0.869   4.238   3.854
 3359TIP3    H210035   0.932   4.362   3.915
 3360TIP3   OH210036   2.214   3.656   2.655
 3360TIP3    H110037   2.182   3.741   2.628
 3360TIP3    H210038   2.149   3.594   2.621
 3361TIP3   OH210039   2.225   3.631   3.048
 3361TIP3    H110040   2.230   3.561   3.113
 3361TIP3    H210041   2.184   3.589   2.972
 3362TIP3   OH210042   1.510   3.514   3.427
 3362TIP3    H110043   1.542   3.451   3.492
 3362TIP3    H210044   1.588   3.562   3.401
 3363TIP3   OH210045   2.469   3.953   2.743
 3363TIP3    H110046   2.464   3.885   2.811
 3363TIP3    H210047   2.499   4.031   2.789
 3364TIP3   OH210048   1.499   3.939   3.119
 3364TIP3    H110049   1.485   3.845   3.124
 3364TIP3    H210050   1.594   3.950   3.112
 3365TIP3   OH210051   1.190   3.144   2.897
 3365TIP3    H110052   1.146   3.226   2.919
 3365TIP3    H210053   1.122   3.090   2.856
 3366TIP3   OH210054   1.256   3.433   3.110
 3366TIP3    H110055   1.305   3.357   3.139
 3366TIP3    H210056   1.319   3.485   3.059
 3367TIP3   OH210057   2.131   4.382   2.746
 3367TIP3    H110058   2.168   4.312   2.692
 3367TIP3    H210059   2.127   4.345   2.834
 3368TIP3   OH210060   2.011   3.869   3.077
 3368TIP3    H110061   2.050   3.789   3.040
 3368TIP3    H210062   2.086   3.919   3.109
 3369TIP3   OH210063   3.031   3.183   3.086
 3369TIP3    H110064   3.068   3.258   3.133
 3369TIP3    H210065   3.068   3.189   2.998
 3370TIP3   OH210066   2.433   3.386   3.130
 3370TIP3    H110067   2.472   3.303   3.158
 3370TIP3    H210068   2.396   3.367   3.043
 3371TIP3   OH210069   1.783   3.016   3.074
 3371TIP3    H110070   1.761   3.088   3.015
 3371TIP3    H210071   1.729   2.943   3.043
 3372TIP3   OH210072   2.473   3.115   2.703
 3372TIP3    H110073   2.541   3.104   2.770
 3372TIP3    H210074   2.521   3.146   2.626
 3373TIP3   OH210075   1.407   3.222   3.201
 3373TIP3    H110076   1.489   3.204   3.246
 3373TIP3    H210077   1.412   3.171   3.120
 3374TIP3   OH210078   1.836   3.423   3.006
 3374TIP3    H110079   1.928   3.401   3.018
 3374TIP3    H210080   1.796   3.343   2.973
 3375TIP3   OH210081   3.124   3.378   3.263
 3375TIP3    H110082   3.079   3.463   3.256
 3375TIP3    H210083   3.098   3.344   3.348
 3376TIP3   OH210084   1.764   3.011   3.526
 3376TIP3    H110085   1.711   3.045   3.454
 3376TIP3    H210086   1.710   3.024   3.604
 3377TIP3   OH210087   2.112   3.876   2.513
 3377TIP3    H110088   2.076   3.842   2.431
 3377TIP3    H210089   2.053   3.948   2.537
 3378TIP3   OH210090   1.862   3.791   3.297
 3378TIP3    H110091   1.803   3.858   3.333
 3378TIP3    H210092   1.905   3.834   3.223
 3379TIP3   OH210093   2.649   3.128   2.910
 3379TIP3    H110094   2.621   3.104   2.999
 3379TIP3    H210095   2.707   3.203   2.922
 3380TIP3   OH210096   1.652   3.121   3.297
 3380TIP3    H110097   1.707   3.194   3.322
 3380TIP3    H210098   1.698   3.079   3.225
 3381TIP3   OH210099   1.699   3.989   3.401
 3381TIP3    H110100   1.682   4.078   3.371
 3381TIP3    H210101   1.623   3.967   3.455
 3382TIP3   OH210102   1.103   3.689   2.644
 3382TIP3    H110103   1.052   3.704   2.564
 3382TIP3    H210104   1.117   3.777   2.680
 3383TIP3   OH210105   2.522   4.195   2.886
 3383TIP3    H110106   2.435   4.188   2.924
 3383TIP3    H210107   2.522   4.280   2.842
 3384TIP3   OH210108   2.820   3.094   3.259
 3384TIP3    H110109   2.734   3.102   3.217
 3384TIP3    H210110   2.883   3.111   3.188
 3385TIP3   OH210111   2.104   2.705   3.250
 3385TIP3    H110112   2.098   2.613   3.277
 3385TIP3    H210113   2.029   2.748   3.290
 3386TIP3   OH210114   2.235   4.212   2.546
 3386TIP3    H110115   2.288   4.134   2.532
 3386TIP3    H210116   2.290   4.285   2.518
 3387TIP3   OH210117   2.369   3.970   2.488
 3387TIP3    H110118   2.283   3.930   2.502
 3387TIP3    H210119   2.414   3.960   2.571
 3388TIP3   OH210120   2.739   4.081   3.239
 3388TIP3    H110121   2.743   4.010   3.174
 3388TIP3    H210122   2.730   4.160   3.186
 3389TIP3   OH210123   2.050   3.494   2.503
 3389TIP3    H110124   1.966   3.536   2.485
 3389TIP3    H210125   2.089   3.479   2.417
 3390TIP3   OH210126   2.014   3.276   2.209
 3390TIP3    H110127   2.079   3.334   2.247
 3390TIP3    H210128   2.064   3.215   2.154
 3391TIP3   OH210129   2.967   3.731   3.090
 3391TIP3    H110130   2.877   3.763   3.097
 3391TIP3    H210131   2.994   3.753   3.001
 3392TIP3   OH210132   2.396   3.579   2.459
 3392TIP3    H110133   2.345   3.606   2.535
 3392TIP3    H210134   2.478   3.545   2.496
 3393TIP3   OH210135   1.628   3.560   2.875
 3393TIP3    H110136   1.585   3.498   2.815
 3393TIP3    H210137   1.702   3.511   2.910
 3394TIP3   OH210138   1.761   3.988   3.011
 3394TIP3    H110139   1.737   3.963   2.921
 3394TIP3    H210140   1.847   3.948   3.025
 3395TIP3   OH210141   1.743   3.549   3.239
 3395TIP3    H110142   1.780   3.515   3.157
 3395TIP3    H210143   1.791   3.631   3.254
 3396TIP3   OH210144   2.282   4.188   3.013
 3396TIP3    H110145   2.269   4.270   3.061
 3396TIP3    H210146   2.260   4.119   3.076
 3397TIP3   OH210147   1.900   4.089   3.564
 3397TIP3    H110148   1.843   4.147   3.613
 3397TIP3    H210149   1.840   4.037   3.509
 3398TIP3   OH210150   2.229   3.436   2.294
 3398TIP3    H110151   2.288   3.492   2.344
 3398TIP3    H210152   2.256   3.448   2.203
 3399TIP3   OH210153   1.660   3.652   3.678
 3399TIP3    H110154   1.665   3.740   3.714
 3399TIP3    H210155   1.567   3.629   3.683
 3400TIP3   OH210156   1.973   4.120   2.532
 3400TIP3    H110157   2.061   4.153   2.550
 3400TIP3    H210158   1.922   4.199   2.511
 3401TIP3   OH210159   1.691   4.249   3.650
 3401TIP3    H110160   1.661   4.256   3.560
 3401TIP3    H210161   1.610   4.235   3.700
 3402TIP3   OH210162   2.748   2.666   2.353
 3402TIP3    H110163   2.668   2.685   2.402
 3402TIP3    H210164   2.759   2.741   2.294
 3403TIP3   OH210165   1.490   3.389   2.696
 3403TIP3    H110166   1.421   3.434   2.647
 3403TIP3    H210167   1.454   3.302   2.715
 3404TIP3   OH210168   2.576   4.038   1.912
 3404TIP3    H110169   2.577   4.130   1.886
 3404TIP3    H210170   2.667   4.010   1.907
 3405TIP3   OH210171   1.280   3.801   3.595
 3405TIP3    H110172   1.212   3.779   3.531
 3405TIP3    H210173   1.316   3.716   3.622
 3406TIP3   OH210174   1.140   3.986   3.233
 3406TIP3    H110175   1.236   3.986   3.229
 3406TIP3    H210176   1.119   4.063   3.287
 3407TIP3   OH210177   2.986   4.443   3.300
 3407TIP3    H110178   2.990   4.349   3.315
 3407TIP3    H210179   2.906   4.471   3.345
 3408TIP3   OH210180   2.091   4.226   3.421
 3408TIP3    H110181   2.088   4.317   3.450
 3408TIP3    H210182   2.023   4.182   3.473
 3409TIP3   OH210183   1.860   4.330   2.379
 3409TIP3    H110184   1.825   4.316   2.291
 3409TIP3    H210185   1.826   4.416   2.404
 3410TIP3   OH210186   1.306   4.190   2.757
 3410TIP3    H110187   1.348   4.184   2.843
 3410TIP3    H210188   1.253   4.110   2.750
 3411TIP3   OH210189   2.072   4.264   2.008
 3411TIP3    H110190   2.122   4.192   1.971
 3411TIP3    H210191   2.108   4.276   2.096
 3412TIP3   OH210192   2.120   4.310   2.280
 3412TIP3    H110193   2.035   4.308   2.323
 3412TIP3    H210194   2.182   4.280   2.347
 3413TIP3   OH210195   1.483   3.986   3.572
 3413TIP3    H110196   1.533   3.974   3.653
 3413TIP3    H210197   1.411   3.923   3.579
 3414TIP3   OH210198   1.870   2.800   3.376
 3414TIP3    H110199   1.786   2.766   3.345
 3414TIP3    H210200   1.848   2.879   3.426
 3415TIP3   OH210201   2.411   2.908   3.571
 3415TIP3    H110202   2.483   2.886   3.631
 3415TIP3    H210203   2.332   2.892   3.622
 3416TIP3   OH210204   2.320   3.461   2.041
 3416TIP3    H110205   2.269   3.447   1.961
 3416TIP3    H210206   2.403   3.496   2.010
 3417TIP3   OH210207   2.013   2.847   2.345
 3417TIP3    H110208   1.984   2.846   2.436
 3417TIP3    H210209   1.973   2.770   2.306
 3418TIP3   OH210210   1.809   3.329   3.392
 3418TIP3    H110211   1.760   3.336   3.474
 3418TIP3    H210212   1.786   3.408   3.343
 3419TIP3   OH210213   1.691   3.210   2.904
 3419TIP3    H110214   1.602   3.185   2.928
 3419TIP3    H210215   1.700   3.180   2.813
 3420TIP3   OH210216   2.177   3.291   2.642
 3420TIP3    H110217   2.128   3.361   2.599
 3420TIP3    H210218   2.233   3.255   2.574
 3421TIP3   OH210219   2.361   3.560   3.711
 3421TIP3    H110220   2.334   3.489   3.769
 3421TIP3    H210221   2.453   3.576   3.734
 3422TIP3   OH210222   2.346   3.309   2.868
 3422TIP3    H110223   2.277   3.329   2.805
 3422TIP3    H210224   2.390   3.232   2.832
 3423TIP3   OH210225   1.638   3.340   3.609
 3423TIP3    H110226   1.660   3.399   3.681
 3423TIP3    H210227   1.621   3.256   3.651
 3424TIP3   OH210228   1.634   2.815   2.303
 3424TIP3    H110229   1.615   2.895   2.352
 3424TIP3    H210230   1.594   2.831   2.217
 3425TIP3   OH210231   1.228   2.867   3.184
 3425TIP3    H110232   1.303   2.899   3.235
 3425TIP3    H210233   1.266   2.840   3.100
 3426TIP3   OH210234   1.158   2.852   2.687
 3426TIP3    H110235   1.205   2.888   2.612
 3426TIP3    H210236   1.094   2.920   2.710
 3427TIP3   OH210237   2.440   3.591   3.336
 3427TIP3    H110238   2.454   3.540   3.256
 3427TIP3    H210239   2.390   3.534   3.394
 3428TIP3   OH210240   2.048   3.007   2.959
 3428TIP3    H110241   1.969   3.007   3.014
 3428TIP3    H210242   2.119   2.992   3.021
 3429TIP3   OH210243   1.452   3.087   2.966
 3429TIP3    H110244   1.362   3.091   2.933
 3429TIP3    H210245   1.478   2.996   2.952
 3430TIP3   OH210246   1.707   3.095   2.653
 3430TIP3    H110247   1.801   3.105   2.641
 3430TIP3    H210248   1.670   3.098   2.565
 3431TIP3   OH210249   2.531   3.116   3.185
 3431TIP3    H110250   2.513   3.130   3.278
 3431TIP3    H210251   2.465   3.052   3.157
 3432TIP3   OH210252   1.579   3.077   2.406
 3432TIP3    H110253   1.487   3.096   2.387
 3432TIP3    H210254   1.628   3.136   2.348
 3433TIP3   OH210255   2.697   4.793   3.390
 3433TIP3    H110256   2.694   4.812   3.296
 3433TIP3    H210257   2.775   4.837   3.422
 3434TIP3   OH210258   1.646   3.906   3.801
 3434TIP3    H110259   1.725   3.927   3.850
 3434TIP3    H210260   1.576   3.904   3.866
 3435TIP3   OH210261   2.100   3.353   3.069
 3435TIP3    H110262   2.163   3.297   3.023
 3435TIP3    H210263   2.097   3.318   3.158
 3436TIP3   OH210264   1.601   2.839   2.952
 3436TIP3    H110265   1.572   2.761   3.000
 3436TIP3    H210266   1.621   2.806   2.865
 3437TIP3   OH210267   2.077   3.276   3.338
 3437TIP3    H110268   1.989   3.304   3.361
 3437TIP3    H210269   2.135   3.332   3.391
 3438TIP3   OH210270   1.816   3.646   2.456
 3438TIP3    H110271   1.756   3.571   2.447
 3438TIP3    H210272   1.796   3.682   2.542
 3439TIP3   OH210273   2.716   3.870   3.061
 3439TIP3    H110274   2.755   3.915   2.987
 3439TIP3    H210275   2.636   3.830   3.026
 3440TIP3   OH210276   2.269   2.945   2.350
 3440TIP3    H110277   2.175   2.926   2.343
 3440TIP3    H210278   2.273   3.040   2.360
 3441TIP3   OH210279   2.230   3.962   3.461
 3441TIP3    H110280   2.245   3.945   3.555
 3441TIP3    H210281   2.178   4.043   3.459
 3442TIP3   OH210282   2.333   3.208   2.422
 3442TIP3    H110283   2.428   3.211   2.425
 3442TIP3    H210284   2.309   3.282   2.365
 3443TIP3   OH210285   1.513   3.660   3.108
 3443TIP3    H110286   1.546   3.633   3.022
 3443TIP3    H210287   1.568   3.613   3.170
 3444TIP3   OH210288   1.957   3.802   2.289
 3444TIP3    H110289   1.901   3.879   2.288
 3444TIP3    H210290   1.910   3.738   2.343
 3445TIP3   OH210291   1.393   3.586   3.737
 3445TIP3    H110292   1.415   3.573   3.829
 3445TIP3    H210293   1.323   3.523   3.720
 3446TIP3   OH210294   2.122   3.707   3.743
 3446TIP3    H110295   2.054   3.644   3.721
 3446TIP3    H210296   2.204   3.662   3.721
 3447TIP3   OH210297   2.365   4.219   3.349
 3447TIP3    H110298   2.270   4.221   3.355
 3447TIP3    H210299   2.396   4.271   3.423
 3448TIP3   OH210300   2.762   3.304   2.238
 3448TIP3    H110301   2.705   3.257   2.177
 3448TIP3    H210302   2.768   3.393   2.202
 3449TIP3   OH210303   2.996   4.158   3.329
 3449TIP3    H110304   2.901   4.143   3.328
 3449TIP3    H210305   3.025   4.134   3.241
 3450TIP3   OH210306   2.483   4.113   2.165
 3450TIP3    H110307   2.444   4.041   2.213
 3450TIP3    H210308   2.505   4.076   2.079
 3451TIP3   OH210309   2.478   3.743   2.969
 3451TIP3    H110310   2.389   3.717   2.994
 3451TIP3    H210311   2.513   3.666   2.924
 3452TIP3   OH210312   1.612   3.982   2.759
 3452TIP3    H110313   1.606   4.056   2.699
 3452TIP3    H210314   1.522   3.969   2.790
 3453TIP3   OH210315   1.183   3.255   2.496
 3453TIP3    H110316   1.224   3.342   2.500
 3453TIP3    H210317   1.099   3.266   2.540
 3454TIP3   OH210318   1.735   3.744   2.694
 3454TIP3    H110319   1.697   3.829   2.716
 3454TIP3    H210320   1.698   3.684   2.759
 3455TIP3   OH210321   1.902   4.308   3.218
 3455TIP3    H110322   1.939   4.381   3.168
 3455TIP3    H210323   1.975   4.274   3.269
 3456TIP3   OH210324   1.529   4.206   2.597
 3456TIP3    H110325   1.447   4.212   2.646
 3456TIP3    H210326   1.568   4.293   2.605
 3457TIP3   OH210327   2.247   3.965   3.182
 3457TIP3    H110328   2.243   3.961   3.277
 3457TIP3    H210329   2.332   3.926   3.160
 3458TIP3   OH210330   2.252   3.845   2.052
 3458TIP3    H110331   2.295   3.818   2.133
 3458TIP3    H210332   2.167   3.800   2.054
 3459TIP3   OH210333   2.510   4.471   3.226
 3459TIP3    H110334   2.434   4.414   3.229
 3459TIP3    H210335   2.492   4.532   3.155
 3460TIP3   OH210336   2.578   4.312   1.872
 3460TIP3    H110337   2.610   4.377   1.810
 3460TIP3    H210338   2.502   4.353   1.912
 3461TIP3   OH210339   1.594   3.089   3.734
 3461TIP3    H110340   1.499   3.095   3.740
 3461TIP3    H210341   1.621   3.039   3.811
 3462TIP3   OH210342   2.403   3.790   2.279
 3462TIP3    H110343   2.405   3.708   2.328
 3462TIP3    H210344   2.404   3.858   2.347
 3463TIP3   OH210345   1.326   4.188   3.382
 3463TIP3    H110346   1.375   4.121   3.429
 3463TIP3    H210347   1.343   4.269   3.430
 3464TIP3   OH210348   1.629   3.813   2.062
 3464TIP3    H110349   1.629   3.728   2.018
 3464TIP3    H210350   1.629   3.792   2.156
 3465TIP3   OH210351   1.557   3.821   2.337
 3465TIP3    H110352   1.547   3.726   2.347
 3465TIP3    H210353   1.643   3.840   2.376
 3466TIP3   OH210354   1.296   3.509   2.541
 3466TIP3    H110355   1.234   3.572   2.578
 3466TIP3    H210356   1.331   3.553   2.464
 3467TIP3   OH210357   2.460   3.153   3.453
 3467TIP3    H110358   2.492   3.197   3.531
 3467TIP3    H210359   2.436   3.065   3.483
 3468TIP3   OH210360   2.330   2.893   2.614
 3468TIP3    H110361   2.309   2.910   2.523
 3468TIP3    H210362   2.372   2.973   2.645
 3469TIP3   OH210363   1.784   4.015   2.300
 3469TIP3    H110364   1.810   4.069   2.374
 3469TIP3    H210365   1.793   4.074   2.224
 3470TIP3   OH210366   1.988   3.095   2.701
 3470TIP3    H110367   2.051   3.164   2.679
 3470TIP3    H210368   2.005   3.076   2.793
 3471TIP3   OH210369   2.294   3.401   3.482
 3471TIP3    H110370   2.310   3.436   3.570
 3471TIP3    H210371   2.338   3.316   3.482
 3472TIP3   OH210372   2.147   2.795   2.796
 3472TIP3    H110373   2.126   2.872   2.850
 3472TIP3    H210374   2.216   2.825   2.737
 3473TIP3   OH210375   1.468   4.126   2.339
 3473TIP3    H110376   1.490   4.202   2.285
 3473TIP3    H210377   1.489   4.154   2.429
 3474TIP3   OH210378   1.662   2.815   2.652
 3474TIP3    H110379   1.652   2.911   2.655
 3474TIP3    H210380   1.753   2.801   2.626
 3475TIP3   OH210381   2.878   3.316   3.430
 3475TIP3    H110382   2.831   3.304   3.512
 3475TIP3    H210383   2.857   3.238   3.379
 3476TIP3   OH210384   2.563   3.495   2.857
 3476TIP3    H110385   2.489   3.435   2.865
 3476TIP3    H210386   2.633   3.452   2.906
 3477TIP3   OH210387   1.247   2.992   2.466
 3477TIP3    H110388   1.228   3.086   2.476
 3477TIP3    H210389   1.230   2.974   2.373
 3478TIP3   OH210390   2.541   4.461   2.803
 3478TIP3    H110391   2.500   4.510   2.732
 3478TIP3    H210392   2.635   4.475   2.790
 3479TIP3   OH210393   1.609   2.712   3.340
 3479TIP3    H110394   1.579   2.678   3.255
 3479TIP3    H210395   1.600   2.638   3.400
 3480TIP3   OH210396   1.136   3.963   2.733
 3480TIP3    H110397   1.088   3.994   2.810
 3480TIP3    H210398   1.093   4.005   2.659
 3481TIP3   OH210399   1.326   4.503   3.806
 3481TIP3    H110400   1.409   4.507   3.854
 3481TIP3    H210401   1.308   4.410   3.796
 3482TIP3   OH210402   1.794   4.428   3.833
 3482TIP3    H110403   1.884   4.401   3.849
 3482TIP3    H210404   1.762   4.368   3.766
 3483TIP3   OH210405   1.774   4.020   1.970
 3483TIP3    H110406   1.729   3.943   2.004
 3483TIP3    H210407   1.847   3.984   1.919
 3484TIP3   OH210408   2.422   4.358   3.580
 3484TIP3    H110409   2.423   4.288   3.645
 3484TIP3    H210410   2.496   4.414   3.602
 3485TIP3   OH210411   2.202   4.057   1.885
 3485TIP3    H110412   2.235   3.989   1.943
 3485TIP3    H210413   2.256   4.050   1.806
 3486TIP3   OH210414   1.438   3.890   3.982
 3486TIP3    H110415   1.455   3.797   4.000
 3486TIP3    H210416   1.349   3.892   3.946
 3487TIP3   OH210417   1.452   3.571   2.231
 3487TIP3    H110418   1.419   3.481   2.232
 3487TIP3    H210419   1.505   3.576   2.151
 3488TIP3   OH210420   2.062   3.983   3.761
 3488TIP3    H110421   2.008   4.001   3.684
 3488TIP3    H210422   2.085   3.890   3.752
 3489TIP3   OH210423   1.995   3.738   2.023
 3489TIP3    H110424   1.973   3.749   2.116
 3489TIP3    H210425   1.985   3.644   2.007
 3490TIP3   OH210426   2.504   3.961   3.336
 3490TIP3    H110427   2.582   4.005   3.301
 3490TIP3    H210428   2.442   4.031   3.354
 3491TIP3   OH210429   1.557   3.628   3.991
 3491TIP3    H110430   1.640   3.590   3.964
 3491TIP3    H210431   1.571   3.655   4.082
 3492TIP3   OH210432   1.650   3.437   2.455
 3492TIP3    H110433   1.600   3.395   2.525
 3492TIP3    H210434   1.664   3.368   2.390
 3493TIP3   OH210435   1.906   3.525   3.654
 3493TIP3    H110436   1.822   3.571   3.661
 3493TIP3    H210437   1.941   3.552   3.568
 3494TIP3   OH210438   1.740   3.250   2.268
 3494TIP3    H110439   1.704   3.272   2.182
 3494TIP3    H210440   1.835   3.254   2.255
 3495TIP3   OH210441   2.441   3.906   3.764
 3495TIP3    H110442   2.536   3.909   3.776
 3495TIP3    H210443   2.410   3.848   3.834
 3496TIP3   OH210444   2.550   3.561   1.918
 3496TIP3    H110445   2.533   3.514   1.837
 3496TIP3    H210446   2.521   3.651   1.901
 3497TIP3   OH210447   2.021   3.299   3.760
 3497TIP3    H110448   2.020   3.226   3.699
 3497TIP3    H210449   1.979   3.371   3.712
 3498TIP3   OH210450   2.023   3.096   3.562
 3498TIP3    H110451   2.049   3.132   3.477
 3498TIP3    H210452   1.932   3.068   3.550
 3499TIP3   OH210453   2.027   3.619   3.431
 3499TIP3    H110454   2.116   3.645   3.407
 3499TIP3    H210455   1.970   3.683   3.387
 3500TIP3   OH210456   2.619   3.591   3.826
 3500TIP3    H110457   2.641   3.518   3.884
 3500TIP3    H210458   2.702   3.639   3.816
 3501TIP3   OH210459   2.668   3.816   3.497
 3501TIP3    H110460   2.645   3.909   3.500
 3501TIP3    H210461   2.762   3.814   3.482
 3502TIP3   OH210462   1.893   3.392   3.996
 3502TIP3    H110463   1.828   3.326   4.021
 3502TIP3    H210464   1.928   3.360   3.913
 3503TIP3   OH210465   2.146   2.859   3.655
 3503TIP3    H110466   2.103   2.940   3.626
 3503TIP3    H210467   2.079   2.791   3.645
 3504TIP3   OH210468   2.281   3.343   3.854
 3504TIP3    H110469   2.276   3.331   3.949
 3504TIP3    H210470   2.193   3.320   3.823
 3505TIP3   OH210471   2.511   3.274   3.692
 3505TIP3    H110472   2.444   3.284   3.760
 3505TIP3    H210473   2.593   3.266   3.740
 3506TIP3   OH210474   2.760   3.247   3.829
 3506TIP3    H110475   2.770   3.156   3.857
 3506TIP3    H210476   2.739   3.294   3.910
 3507TIP3   OH210477   1.734   3.168   4.064
 3507TIP3    H110478   1.739   3.078   4.031
 3507TIP3    H210479   1.772   3.163   4.152
 3508TIP3   OH210480   2.221   2.851   3.920
 3508TIP3    H110481   2.291   2.785   3.917
 3508TIP3    H210482   2.188   2.855   3.831
 3509TIP3   OH210483   2.309   3.069   4.064
 3509TIP3    H110484   2.281   2.996   4.009
 3509TIP3    H210485   2.236   3.130   4.063
 3510TIP3   OH210486   1.553   4.314   2.162
 3510TIP3    H110487   1.646   4.298   2.143
 3510TIP3    H210488   1.522   4.363   2.086
 3511TIP3   OH210489   1.022   3.675   2.372
 3511TIP3    H110490   1.110   3.690   2.338
 3511TIP3    H210491   0.996   3.591   2.336
 3512TIP3   OH210492   0.931   4.280   2.811
 3512TIP3    H110493   0.868   4.225   2.766
 3512TIP3    H210494   0.976   4.221   2.871
 3513TIP3   OH210495   1.073   4.116   2.984
 3513TIP3    H110496   1.062   4.047   3.049
 3513TIP3    H210497   1.123   4.184   3.029
 3514TIP3   OH210498   2.810   4.519   2.790
 3514TIP3    H110499   2.832   4.550   2.878
 3514TIP3    H210500   2.867   4.570   2.732
 3515TIP3   OH210501   2.827   4.551   3.074
 3515TIP3    H110502   2.783   4.466   3.069
 3515TIP3    H210503   2.900   4.536   3.134
 3516TIP3   OH210504   2.871   4.248   3.642
 3516TIP3    H110505   2.802   4.256   3.708
 3516TIP3    H210506   2.919   4.330   3.647
 3517TIP3   OH210507   2.882   4.005   2.883
 3517TIP3    H110508   2.939   3.940   2.842
 3517TIP3    H210509   2.882   4.079   2.823
 3518TIP3   OH210510   2.689   4.306   3.084
 3518TIP3    H110511   2.621   4.352   3.134
 3518TIP3    H210512   2.642   4.266   3.011
 3519TIP3   OH210513   2.745   3.556   2.111
 3519TIP3    H110514   2.683   3.547   2.039
 3519TIP3    H210515   2.698   3.607   2.177
 3520TIP3   OH210516   2.604   3.200   2.042
 3520TIP3    H110517   2.563   3.230   1.961
 3520TIP3    H210518   2.591   3.105   2.042
 3521TIP3   OH210519   2.615   3.468   2.581
 3521TIP3    H110520   2.626   3.373   2.573
 3521TIP3    H210521   2.609   3.483   2.675
 3522TIP3   OH210522   1.249   3.550   3.359
 3522TIP3    H110523   1.240   3.512   3.271
 3522TIP3    H210524   1.343   3.545   3.378
 3523TIP3   OH210525   2.929   3.886   3.460
 3523TIP3    H110526   2.985   3.808   3.461
 3523TIP3    H210527   2.968   3.943   3.393
 3524TIP3   OH210528   3.058   3.650   3.493
 3524TIP3    H110529   3.005   3.570   3.501
 3524TIP3    H210530   3.148   3.620   3.502
 3525TIP3   OH210531   2.558   2.933   2.033
 3525TIP3    H110532   2.626   2.894   2.087
 3525TIP3    H210533   2.479   2.882   2.053
 3526TIP3   OH210534   2.624   3.197   2.475
 3526TIP3    H110535   2.666   3.113   2.490
 3526TIP3    H210536   2.669   3.233   2.398
 3527TIP3   OH210537   2.776   3.365   2.983
 3527TIP3    H110538   2.857   3.394   2.942
 3527TIP3    H210539   2.796   3.364   3.077
 3528TIP3   OH210540   1.469   3.225   4.006
 3528TIP3    H110541   1.563   3.225   4.025
 3528TIP3    H210542   1.437   3.144   4.045
 3529TIP3   OH210543   3.301   3.122   3.750
 3529TIP3    H110544   3.368   3.056   3.734
 3529TIP3    H210545   3.293   3.169   3.667
 3530TIP3   OH210546   2.734   2.949   2.531
 3530TIP3    H110547   2.780   2.934   2.614
 3530TIP3    H210548   2.674   2.875   2.523
 3531TIP3   OH210549   1.441   2.934   3.351
 3531TIP3    H110550   1.495   2.855   3.360
 3531TIP3    H210551   1.505   3.004   3.338
 3532TIP3   OH210552   1.227   3.197   3.418
 3532TIP3    H110553   1.278   3.191   3.337
 3532TIP3    H210554   1.263   3.274   3.463
 3533TIP3   OH210555   3.154   3.261   3.546
 3533TIP3    H110556   3.097   3.289   3.618
 3533TIP3    H210557   3.118   3.176   3.520
 3534TIP3   OH210558   2.795   2.867   2.171
 3534TIP3    H110559   2.834   2.806   2.108
 3534TIP3    H210560   2.854   2.942   2.171
 3535TIP3   OH210561   1.217   2.718   2.921
 3535TIP3    H110562   1.129   2.702   2.956
 3535TIP3    H210563   1.202   2.772   2.843
 3536TIP3   OH210564   2.370   4.416   2.435
 3536TIP3    H110565   2.427   4.411   2.359
 3536TIP3    H210566   2.407   4.486   2.488
 3537TIP3   OH210567   1.435   2.777   3.745
 3537TIP3    H110568   1.384   2.767   3.826
 3537TIP3    H210569   1.375   2.820   3.684
 3538TIP3   OH210570   1.464   4.228   3.811
 3538TIP3    H110571   1.372   4.203   3.797
 3538TIP3    H210572   1.480   4.209   3.903
 3539TIP3   OH210573   1.671   4.263   3.365
 3539TIP3    H110574   1.620   4.338   3.333
 3539TIP3    H210575   1.757   4.274   3.323
 3540TIP3   OH210576   2.086   4.495   3.499
 3540TIP3    H110577   2.121   4.488   3.588
 3540TIP3    H210578   2.149   4.549   3.452
 3541TIP3   OH210579   2.275   4.653   3.373
 3541TIP3    H110580   2.341   4.600   3.330
 3541TIP3    H210581   2.324   4.712   3.430
 3542TIP3   OH210582   3.072   2.977   3.473
 3542TIP3    H110583   2.984   2.949   3.448
 3542TIP3    H210584   3.125   2.898   3.467
 3543TIP3   OH210585   1.338   4.516   3.409
 3543TIP3    H110586   1.247   4.535   3.387
 3543TIP3    H210587   1.359   4.578   3.479
 3544TIP3   OH210588   1.567   4.496   3.258
 3544TIP3    H110589   1.484   4.503   3.306
 3544TIP3    H210590   1.545   4.521   3.168
 3545TIP3   OH210591   1.987   4.515   3.050
 3545TIP3    H110592   1.914   4.527   2.989
 3545TIP3    H210593   1.998   4.600   3.092
 3546TIP3   OH210594   2.251   4.449   3.100
 3546TIP3    H110595   2.160   4.470   3.083
 3546TIP3    H210596   2.301   4.519   3.057
 3547TIP3   OH210597   2.451   4.628   3.004
 3547TIP3    H110598   2.448   4.715   2.964
 3547TIP3    H210599   2.482   4.571   2.934
 3548TIP3   OH210600   1.247   4.290   3.134
 3548TIP3    H110601   1.271   4.262   3.222
 3548TIP3    H210602   1.318   4.258   3.079
 3549TIP3   OH210603   1.449   4.176   2.992
 3549TIP3    H110604   1.460   4.093   3.038
 3549TIP3    H210605   1.536   4.216   2.995
 3550TIP3   OH210606   1.718   4.263   3.011
 3550TIP3    H110607   1.736   4.170   2.998
 3550TIP3    H210608   1.769   4.287   3.088
 3551TIP3   OH210609   2.271   2.908   3.093
 3551TIP3    H110610   2.237   2.835   3.144
 3551TIP3    H210611   2.346   2.871   3.046
 3552TIP3   OH210612   2.783   2.824   2.988
 3552TIP3    H110613   2.821   2.872   2.913
 3552TIP3    H210614   2.689   2.840   2.982
 3553TIP3   OH210615   2.896   2.907   2.751
 3553TIP3    H110616   2.966   2.847   2.725
 3553TIP3    H210617   2.932   2.994   2.736
 3554TIP3   OH210618   1.521   2.611   3.096
 3554TIP3    H110619   1.431   2.580   3.104
 3554TIP3    H210620   1.574   2.531   3.092
 3555TIP3   OH210621   1.334   2.515   2.751
 3555TIP3    H110622   1.367   2.567   2.677
 3555TIP3    H210623   1.301   2.581   2.812
 3556TIP3   OH210624   1.997   2.645   2.989
 3556TIP3    H110625   2.044   2.698   2.924
 3556TIP3    H210626   2.031   2.675   3.073
 3557TIP3   OH210627   2.499   2.800   2.967
 3557TIP3    H110628   2.511   2.765   2.879
 3557TIP3    H210629   2.499   2.723   3.024
 3558TIP3   OH210630   2.549   2.738   2.533
 3558TIP3    H110631   2.469   2.785   2.555
 3558TIP3    H210632   2.538   2.652   2.575
 3559TIP3   OH210633   1.021   4.085   2.520
 3559TIP3    H110634   0.939   4.049   2.485
 3559TIP3    H210635   1.026   4.173   2.482
 3560TIP3   OH210636   1.464   2.662   2.528
 3560TIP3    H110637   1.512   2.648   2.446
 3560TIP3    H210638   1.520   2.719   2.580
 3561TIP3   OH210639   1.940   2.840   2.611
 3561TIP3    H110640   2.000   2.796   2.671
 3561TIP3    H210641   1.949   2.933   2.632
 3562TIP3   OH210642   1.815   4.245   2.111
 3562TIP3    H110643   1.900   4.275   2.077
 3562TIP3    H210644   1.790   4.174   2.052
 3563TIP3   OH210645   2.524   4.381   2.206
 3563TIP3    H110646   2.516   4.286   2.196
 3563TIP3    H210647   2.482   4.416   2.127
 3564TIP3   OH210648   1.743   2.895   3.981
 3564TIP3    H110649   1.707   2.829   4.040
 3564TIP3    H210650   1.835   2.901   4.005
 3565TIP3   OH210651   1.993   2.897   4.099
 3565TIP3    H110652   2.074   2.877   4.052
 3565TIP3    H210653   1.986   2.829   4.166
 3566TIP3   OH210654   2.815   2.983   3.892
 3566TIP3    H110655   2.829   2.954   3.982
 3566TIP3    H210656   2.902   2.978   3.851
 3567TIP3   OH210657   2.735   4.518   3.394
 3567TIP3    H110658   2.659   4.489   3.343
 3567TIP3    H210659   2.724   4.613   3.402
 3568TIP3   OH210660   4.010   3.902   2.138
 3568TIP3    H110661   3.974   3.989   2.121
 3568TIP3    H210662   3.940   3.842   2.112
 3569TIP3   OH210663   4.003   3.897   2.561
 3569TIP3    H110664   4.057   3.881   2.638
 3569TIP3    H210665   3.966   3.812   2.539
 3570TIP3   OH210666   3.317   3.778   2.921
 3570TIP3    H110667   3.348   3.716   2.988
 3570TIP3    H210668   3.395   3.799   2.870
 3571TIP3   OH210669   4.271   4.203   2.231
 3571TIP3    H110670   4.262   4.137   2.300
 3571TIP3    H210671   4.297   4.283   2.278
 3572TIP3   OH210672   3.298   4.196   2.600
 3572TIP3    H110673   3.282   4.102   2.611
 3572TIP3    H210674   3.393   4.203   2.591
 3573TIP3   OH210675   2.976   3.401   2.405
 3573TIP3    H110676   2.936   3.418   2.490
 3573TIP3    H210677   2.906   3.360   2.353
 3574TIP3   OH210678   3.929   4.640   2.242
 3574TIP3    H110679   3.957   4.576   2.177
 3574TIP3    H210680   3.935   4.594   2.326
 3575TIP3   OH210681   3.815   4.119   2.572
 3575TIP3    H110682   3.859   4.039   2.543
 3575TIP3    H210683   3.886   4.177   2.598
 3576TIP3   OH210684   4.836   3.444   2.569
 3576TIP3    H110685   4.860   3.526   2.613
 3576TIP3    H210686   4.873   3.452   2.481
 3577TIP3   OH210687   4.225   3.612   2.601
 3577TIP3    H110688   4.269   3.531   2.627
 3577TIP3    H210689   4.187   3.593   2.516
 3578TIP3   OH210690   3.565   3.281   2.567
 3578TIP3    H110691   3.552   3.351   2.503
 3578TIP3    H210692   3.515   3.207   2.532
 3579TIP3   OH210693   4.274   3.369   2.192
 3579TIP3    H110694   4.339   3.362   2.263
 3579TIP3    H210695   4.324   3.403   2.117
 3580TIP3   OH210696   3.195   3.482   2.693
 3580TIP3    H110697   3.278   3.461   2.736
 3580TIP3    H210698   3.200   3.441   2.607
 3581TIP3   OH210699   3.631   3.683   2.507
 3581TIP3    H110700   3.725   3.667   2.515
 3581TIP3    H210701   3.596   3.602   2.469
 3582TIP3   OH210702   4.903   3.657   2.742
 3582TIP3    H110703   4.814   3.692   2.738
 3582TIP3    H210704   4.935   3.683   2.828
 3583TIP3   OH210705   3.562   3.268   3.011
 3583TIP3    H110706   3.506   3.302   2.941
 3583TIP3    H210707   3.512   3.281   3.091
 3584TIP3   OH210708   3.862   4.108   2.027
 3584TIP3    H110709   3.856   4.101   1.932
 3584TIP3    H210710   3.827   4.195   2.047
 3585TIP3   OH210711   3.664   4.042   2.792
 3585TIP3    H110712   3.609   4.113   2.824
 3585TIP3    H210713   3.713   4.080   2.719
 3586TIP3   OH210714   4.442   3.393   2.406
 3586TIP3    H110715   4.409   3.373   2.494
 3586TIP3    H210716   4.503   3.466   2.419
 3587TIP3   OH210717   3.436   3.378   2.789
 3587TIP3    H110718   3.492   3.451   2.814
 3587TIP3    H210719   3.483   3.336   2.717
 3588TIP3   OH210720   3.500   4.246   2.888
 3588TIP3    H110721   3.484   4.334   2.855
 3588TIP3    H210722   3.422   4.225   2.940
 3589TIP3   OH210723   2.925   3.926   2.195
 3589TIP3    H110724   2.851   3.920   2.136
 3589TIP3    H210725   2.928   4.017   2.223
 3590TIP3   OH210726   4.316   4.451   2.375
 3590TIP3    H110727   4.228   4.444   2.411
 3590TIP3    H210728   4.316   4.534   2.329
 3591TIP3   OH210729   4.638   3.344   2.744
 3591TIP3    H110730   4.552   3.366   2.708
 3591TIP3    H210731   4.699   3.369   2.675
 3592TIP3   OH210732   3.898   2.962   2.733
 3592TIP3    H110733   3.897   2.870   2.762
 3592TIP3    H210734   3.822   3.001   2.776
 3593TIP3   OH210735   4.020   4.482   2.031
 3593TIP3    H110736   4.069   4.400   2.019
 3593TIP3    H210737   4.080   4.550   2.002
 3594TIP3   OH210738   4.164   4.258   1.980
 3594TIP3    H110739   4.181   4.185   1.921
 3594TIP3    H210740   4.204   4.230   2.063
 3595TIP3   OH210741   4.552   4.344   2.720
 3595TIP3    H110742   4.536   4.270   2.662
 3595TIP3    H210743   4.537   4.421   2.664
 3596TIP3   OH210744   3.836   3.744   1.984
 3596TIP3    H110745   3.759   3.797   1.963
 3596TIP3    H210746   3.888   3.744   1.903
 3597TIP3   OH210747   3.812   3.546   1.684
 3597TIP3    H110748   3.877   3.595   1.734
 3597TIP3    H210749   3.863   3.480   1.637
 3598TIP3   OH210750   4.737   4.002   2.581
 3598TIP3    H110751   4.653   4.048   2.580
 3598TIP3    H210752   4.773   4.014   2.493
 3599TIP3   OH210753   4.196   3.835   1.949
 3599TIP3    H110754   4.142   3.862   2.023
 3599TIP3    H210755   4.279   3.807   1.989
 3600TIP3   OH210756   4.425   3.868   2.889
 3600TIP3    H110757   4.423   3.949   2.939
 3600TIP3    H210758   4.342   3.867   2.841
 3601TIP3   OH210759   3.432   3.820   2.377
 3601TIP3    H110760   3.389   3.742   2.341
 3601TIP3    H210761   3.511   3.787   2.419
 3602TIP3   OH210762   3.561   4.237   2.499
 3602TIP3    H110763   3.545   4.220   2.406
 3602TIP3    H210764   3.648   4.199   2.515
 3603TIP3   OH210765   3.530   3.810   2.734
 3603TIP3    H110766   3.569   3.775   2.654
 3603TIP3    H210767   3.580   3.890   2.752
 3604TIP3   OH210768   4.074   4.446   2.502
 3604TIP3    H110769   4.066   4.524   2.556
 3604TIP3    H210770   4.064   4.373   2.564
 3605TIP3   OH210771   3.700   4.349   3.052
 3605TIP3    H110772   3.640   4.408   3.098
 3605TIP3    H210773   3.643   4.296   2.995
 3606TIP3   OH210774   4.028   3.696   1.782
 3606TIP3    H110775   4.089   3.752   1.830
 3606TIP3    H210776   4.055   3.705   1.691
 3607TIP3   OH210777   3.459   3.919   3.181
 3607TIP3    H110778   3.459   4.010   3.210
 3607TIP3    H210779   3.366   3.898   3.168
 3608TIP3   OH210780   3.767   4.372   2.042
 3608TIP3    H110781   3.854   4.411   2.047
 3608TIP3    H210782   3.715   4.435   1.992
 3609TIP3   OH210783   3.489   4.510   3.132
 3609TIP3    H110784   3.465   4.518   3.040
 3609TIP3    H210785   3.407   4.495   3.178
 3610TIP3   OH210786   4.539   2.923   1.834
 3610TIP3    H110787   4.462   2.942   1.888
 3610TIP3    H210788   4.552   3.001   1.781
 3611TIP3   OH210789   3.207   3.665   2.220
 3611TIP3    H110790   3.267   3.649   2.147
 3611TIP3    H210791   3.209   3.584   2.271
 3612TIP3   OH210792   4.356   4.305   1.387
 3612TIP3    H110793   4.365   4.399   1.369
 3612TIP3    H210794   4.444   4.270   1.374
 3613TIP3   OH210795   3.071   4.065   3.085
 3613TIP3    H110796   3.008   4.038   3.018
 3613TIP3    H210797   3.110   3.982   3.115
 3614TIP3   OH210798   2.931   4.245   2.726
 3614TIP3    H110799   3.026   4.254   2.731
 3614TIP3    H210800   2.897   4.323   2.770
 3615TIP3   OH210801   4.782   4.708   2.781
 3615TIP3    H110802   4.788   4.613   2.791
 3615TIP3    H210803   4.702   4.732   2.827
 3616TIP3   OH210804   3.887   4.489   2.908
 3616TIP3    H110805   3.882   4.580   2.937
 3616TIP3    H210806   3.821   4.444   2.960
 3617TIP3   OH210807   3.663   4.589   1.868
 3617TIP3    H110808   3.623   4.572   1.783
 3617TIP3    H210809   3.630   4.675   1.894
 3618TIP3   OH210810   3.096   4.454   2.249
 3618TIP3    H110811   3.147   4.448   2.330
 3618TIP3    H210812   3.046   4.372   2.247
 3619TIP3   OH210813   3.866   4.517   1.494
 3619TIP3    H110814   3.918   4.445   1.458
 3619TIP3    H210815   3.903   4.532   1.581
 3620TIP3   OH210816   3.918   4.567   1.763
 3620TIP3    H110817   3.834   4.568   1.809
 3620TIP3    H210818   3.980   4.533   1.828
 3621TIP3   OH210819   4.668   3.823   3.054
 3621TIP3    H110820   4.589   3.828   3.000
 3621TIP3    H210821   4.690   3.730   3.056
 3622TIP3   OH210822   3.279   4.245   3.054
 3622TIP3    H110823   3.327   4.237   3.136
 3622TIP3    H210824   3.206   4.184   3.063
 3623TIP3   OH210825   3.664   3.054   2.862
 3623TIP3    H110826   3.578   3.021   2.834
 3623TIP3    H210827   3.644   3.133   2.912
 3624TIP3   OH210828   4.213   3.177   3.067
 3624TIP3    H110829   4.287   3.149   3.121
 3624TIP3    H210830   4.135   3.155   3.119
 3625TIP3   OH210831   4.431   3.602   2.974
 3625TIP3    H110832   4.391   3.598   3.061
 3625TIP3    H210833   4.415   3.692   2.945
 3626TIP3   OH210834   4.106   3.696   1.520
 3626TIP3    H110835   4.065   3.689   1.434
 3626TIP3    H210836   4.189   3.740   1.504
 3627TIP3   OH210837   3.814   3.103   1.837
 3627TIP3    H110838   3.783   3.106   1.927
 3627TIP3    H210839   3.780   3.021   1.802
 3628TIP3   OH210840   3.601   3.582   2.871
 3628TIP3    H110841   3.564   3.594   2.959
 3628TIP3    H210842   3.581   3.663   2.825
 3629TIP3   OH210843   3.475   3.479   2.387
 3629TIP3    H110844   3.392   3.441   2.416
 3629TIP3    H210845   3.493   3.436   2.303
 3630TIP3   OH210846   3.967   3.542   2.120
 3630TIP3    H110847   3.919   3.613   2.077
 3630TIP3    H210848   4.027   3.510   2.053
 3631TIP3   OH210849   4.159   3.814   3.197
 3631TIP3    H110850   4.129   3.745   3.256
 3631TIP3    H210851   4.252   3.825   3.217
 3632TIP3   OH210852   4.133   3.557   2.348
 3632TIP3    H110853   4.066   3.580   2.284
 3632TIP3    H210854   4.179   3.483   2.309
 3633TIP3   OH210855   3.432   3.593   3.099
 3633TIP3    H110856   3.501   3.640   3.146
 3633TIP3    H210857   3.421   3.512   3.147
 3634TIP3   OH210858   3.483   3.082   1.806
 3634TIP3    H110859   3.473   3.079   1.901
 3634TIP3    H210860   3.403   3.125   1.774
 3635TIP3   OH210861   3.023   3.132   2.665
 3635TIP3    H110862   3.097   3.157   2.721
 3635TIP3    H210863   3.064   3.089   2.589
 3636TIP3   OH210864   2.953   3.101   2.187
 3636TIP3    H110865   2.996   3.132   2.107
 3636TIP3    H210866   2.890   3.171   2.208
 3637TIP3   OH210867   4.164   3.810   2.776
 3637TIP3    H110868   4.192   3.745   2.712
 3637TIP3    H210869   4.128   3.759   2.848
 3638TIP3   OH210870   3.828   3.299   2.457
 3638TIP3    H110871   3.756   3.283   2.517
 3638TIP3    H210872   3.903   3.256   2.497
 3639TIP3   OH210873   3.245   3.347   2.449
 3639TIP3    H110874   3.152   3.344   2.424
 3639TIP3    H210875   3.273   3.255   2.442
 3640TIP3   OH210876   3.501   3.346   2.148
 3640TIP3    H110877   3.597   3.352   2.141
 3640TIP3    H210878   3.470   3.362   2.059
 3641TIP3   OH210879   4.323   3.355   2.657
 3641TIP3    H110880   4.295   3.370   2.747
 3641TIP3    H210881   4.274   3.277   2.629
 3642TIP3   OH210882   3.379   3.392   1.903
 3642TIP3    H110883   3.318   3.333   1.860
 3642TIP3    H210884   3.438   3.422   1.833
 3643TIP3   OH210885   4.494   5.050   2.876
 3643TIP3    H110886   4.489   5.068   2.782
 3643TIP3    H210887   4.572   5.096   2.906
 3644TIP3   OH210888   3.434   4.173   3.294
 3644TIP3    H110889   3.515   4.192   3.341
 3644TIP3    H210890   3.366   4.175   3.361
 3645TIP3   OH210891   3.899   3.626   2.554
 3645TIP3    H110892   3.958   3.573   2.501
 3645TIP3    H210893   3.898   3.584   2.640
 3646TIP3   OH210894   3.392   3.097   2.445
 3646TIP3    H110895   3.361   3.023   2.497
 3646TIP3    H210896   3.433   3.057   2.369
 3647TIP3   OH210897   3.872   3.528   2.818
 3647TIP3    H110898   3.784   3.556   2.845
 3647TIP3    H210899   3.930   3.577   2.876
 3648TIP3   OH210900   3.598   3.888   1.927
 3648TIP3    H110901   3.528   3.824   1.915
 3648TIP3    H210902   3.579   3.929   2.011
 3649TIP3   OH210903   4.499   4.139   2.543
 3649TIP3    H110904   4.534   4.188   2.468
 3649TIP3    H210905   4.418   4.099   2.510
 3650TIP3   OH210906   4.068   3.205   1.823
 3650TIP3    H110907   3.974   3.184   1.826
 3650TIP3    H210908   4.073   3.299   1.841
 3651TIP3   OH210909   4.010   4.219   2.943
 3651TIP3    H110910   4.062   4.207   3.022
 3651TIP3    H210911   3.973   4.307   2.951
 3652TIP3   OH210912   4.132   3.464   1.905
 3652TIP3    H110913   4.227   3.465   1.916
 3652TIP3    H210914   4.113   3.542   1.853
 3653TIP3   OH210915   3.299   3.918   2.601
 3653TIP3    H110916   3.338   3.893   2.517
 3653TIP3    H210917   3.355   3.877   2.666
 3654TIP3   OH210918   3.758   4.046   1.764
 3654TIP3    H110919   3.712   4.129   1.764
 3654TIP3    H210920   3.707   3.989   1.821
 3655TIP3   OH210921   3.182   3.858   3.229
 3655TIP3    H110922   3.220   3.837   3.314
 3655TIP3    H210923   3.127   3.783   3.208
 3656TIP3   OH210924   3.929   3.969   3.221
 3656TIP3    H110925   3.878   3.936   3.147
 3656TIP3    H210926   4.016   3.930   3.209
 3657TIP3   OH210927   4.159   4.500   2.829
 3657TIP3    H110928   4.064   4.489   2.835
 3657TIP3    H210929   4.184   4.544   2.910
 3658TIP3   OH210930   4.552   3.554   1.728
 3658TIP3    H110931   4.495   3.508   1.666
 3658TIP3    H210932   4.558   3.643   1.694
 3659TIP3   OH210933   4.799   4.429   2.806
 3659TIP3    H110934   4.705   4.412   2.804
 3659TIP3    H210935   4.831   4.396   2.723
 3660TIP3   OH210936   4.275   4.369   1.648
 3660TIP3    H110937   4.258   4.290   1.698
 3660TIP3    H210938   4.300   4.337   1.561
 3661TIP3   OH210939   4.265   4.005   2.443
 3661TIP3    H110940   4.175   3.983   2.464
 3661TIP3    H210941   4.302   3.925   2.406
 3662TIP3   OH210942   3.425   4.240   2.244
 3662TIP3    H110943   3.432   4.314   2.184
 3662TIP3    H210944   3.335   4.245   2.278
 3663TIP3   OH210945   2.976   3.517   1.959
 3663TIP3    H110946   3.016   3.604   1.962
 3663TIP3    H210947   2.897   3.526   2.012
 3664TIP3   OH210948   3.495   3.985   2.159
 3664TIP3    H110949   3.486   4.077   2.183
 3664TIP3    H210950   3.483   3.937   2.241
 3665TIP3   OH210951   3.699   4.564   2.704
 3665TIP3    H110952   3.736   4.636   2.654
 3665TIP3    H210953   3.773   4.529   2.754
 3666TIP3   OH210954   3.328   4.468   2.094
 3666TIP3    H110955   3.242   4.475   2.136
 3666TIP3    H210956   3.364   4.556   2.098
 3667TIP3   OH210957   4.056   4.222   2.671
 3667TIP3    H110958   4.044   4.216   2.765
 3667TIP3    H210959   4.134   4.168   2.654
 3668TIP3   OH210960   4.051   4.105   1.562
 3668TIP3    H110961   4.103   4.089   1.641
 3668TIP3    H210962   3.964   4.073   1.585
 3669TIP3   OH210963   4.310   4.729   2.715
 3669TIP3    H110964   4.237   4.668   2.723
 3669TIP3    H210965   4.286   4.786   2.642
 3670TIP3   OH210966   4.380   4.582   1.368
 3670TIP3    H110967   4.427   4.655   1.327
 3670TIP3    H210968   4.297   4.621   1.397
 3671TIP3   OH210969   3.402   3.343   3.229
 3671TIP3    H110970   3.307   3.346   3.238
 3671TIP3    H210971   3.431   3.285   3.299
 3672TIP3   OH210972   4.221   4.053   1.779
 3672TIP3    H110973   4.204   3.978   1.836
 3672TIP3    H210974   4.314   4.047   1.758
 3673TIP3   OH210975   3.125   4.451   2.866
 3673TIP3    H110976   3.177   4.388   2.916
 3673TIP3    H210977   3.144   4.535   2.906
 3674TIP3   OH210978   3.397   4.071   1.555
 3674TIP3    H110979   3.409   3.980   1.529
 3674TIP3    H210980   3.382   4.067   1.649
 3675TIP3   OH210981   3.342   4.083   1.829
 3675TIP3    H110982   3.420   4.057   1.878
 3675TIP3    H210983   3.340   4.179   1.835
 3676TIP3   OH210984   3.071   3.785   1.992
 3676TIP3    H110985   2.993   3.830   1.959
 3676TIP3    H210986   3.139   3.806   1.928
 3677TIP3   OH210987   4.239   3.407   2.916
 3677TIP3    H110988   4.316   3.452   2.948
 3677TIP3    H210989   4.231   3.330   2.972
 3678TIP3   OH210990   4.127   3.153   2.093
 3678TIP3    H110991   4.110   3.172   2.001
 3678TIP3    H210992   4.170   3.232   2.127
 3679TIP3   OH210993   3.608   4.271   1.769
 3679TIP3    H110994   3.524   4.298   1.806
 3679TIP3    H210995   3.635   4.345   1.714
 3680TIP3   OH210996   3.777   3.356   2.193
 3680TIP3    H110997   3.843   3.420   2.166
 3680TIP3    H210998   3.796   3.339   2.285
 3681TIP3   OH210999   4.076   3.642   2.976
 3681TIP3    H111000   4.105   3.684   3.057
 3681TIP3    H211001   4.127   3.561   2.971
 3682TIP3   OH211002   3.954   3.046   2.281
 3682TIP3    H111003   3.976   3.097   2.359
 3682TIP3    H211004   4.013   3.079   2.213
 3683TIP3   OH211005   3.355   4.356   1.844
 3683TIP3    H111006   3.336   4.426   1.781
 3683TIP3    H211007   3.345   4.397   1.930
 3684TIP3   OH211008   3.460   3.071   2.083
 3684TIP3    H111009   3.450   3.159   2.119
 3684TIP3    H211010   3.554   3.053   2.091
 3685TIP3   OH211011   4.696   3.546   2.962
 3685TIP3    H111012   4.601   3.556   2.972
 3685TIP3    H211013   4.706   3.482   2.891
 3686TIP3   OH211014   4.357   3.751   2.351
 3686TIP3    H111015   4.282   3.692   2.365
 3686TIP3    H211016   4.427   3.711   2.402
 3687TIP3   OH211017   3.073   3.989   1.786
 3687TIP3    H111018   3.142   4.053   1.803
 3687TIP3    H211019   3.116   3.922   1.733
 3688TIP3   OH211020   3.007   3.239   1.958
 3688TIP3    H111021   3.006   3.335   1.955
 3688TIP3    H211022   2.942   3.213   1.893
 3689TIP3   OH211023   4.337   4.718   2.293
 3689TIP3    H111024   4.294   4.768   2.223
 3689TIP3    H211025   4.431   4.733   2.278
 3690TIP3   OH211026   3.399   2.969   2.832
 3690TIP3    H111027   3.372   2.933   2.747
 3690TIP3    H211028   3.394   2.894   2.892
 3691TIP3   OH211029   2.920   4.202   2.232
 3691TIP3    H111030   2.883   4.249   2.306
 3691TIP3    H211031   2.885   4.246   2.155
 3692TIP3   OH211032   3.124   4.761   3.286
 3692TIP3    H111033   3.205   4.769   3.336
 3692TIP3    H211034   3.114   4.667   3.272
 3693TIP3   OH211035   3.587   4.684   3.323
 3693TIP3    H111036   3.680   4.664   3.335
 3693TIP3    H211037   3.559   4.625   3.253
 3694TIP3   OH211038   3.556   4.273   1.451
 3694TIP3    H111039   3.511   4.200   1.493
 3694TIP3    H211040   3.632   4.232   1.408
 3695TIP3   OH211041   4.211   4.616   3.072
 3695TIP3    H111042   4.220   4.544   3.134
 3695TIP3    H211043   4.286   4.673   3.090
 3696TIP3   OH211044   3.997   4.307   1.375
 3696TIP3    H111045   4.036   4.246   1.437
 3696TIP3    H211046   4.056   4.305   1.299
 3697TIP3   OH211047   3.229   4.150   3.482
 3697TIP3    H111048   3.247   4.056   3.490
 3697TIP3    H211049   3.144   4.155   3.439
 3698TIP3   OH211050   3.219   3.774   1.692
 3698TIP3    H111051   3.276   3.740   1.761
 3698TIP3    H211052   3.276   3.784   1.616
 3699TIP3   OH211053   3.845   4.238   3.260
 3699TIP3    H111054   3.804   4.260   3.176
 3699TIP3    H211055   3.885   4.152   3.246
 3700TIP3   OH211056   3.755   3.988   1.495
 3700TIP3    H111057   3.749   4.001   1.590
 3700TIP3    H211058   3.752   3.893   1.484
 3701TIP3   OH211059   4.329   4.277   2.871
 3701TIP3    H111060   4.407   4.305   2.822
 3701TIP3    H211061   4.263   4.344   2.852
 3702TIP3   OH211062   3.336   3.873   3.464
 3702TIP3    H111063   3.418   3.854   3.419
 3702TIP3    H211064   3.363   3.896   3.553
 3703TIP3   OH211065   3.401   3.680   1.891
 3703TIP3    H111066   3.383   3.600   1.940
 3703TIP3    H211067   3.458   3.652   1.820
 3704TIP3   OH211068   3.664   3.750   3.117
 3704TIP3    H111069   3.602   3.818   3.143
 3704TIP3    H211070   3.725   3.793   3.057
 3705TIP3   OH211071   3.539   3.521   1.719
 3705TIP3    H111072   3.512   3.519   1.627
 3705TIP3    H211073   3.635   3.523   1.715
 3706TIP3   OH211074   4.212   4.155   3.233
 3706TIP3    H111075   4.282   4.118   3.179
 3706TIP3    H211076   4.210   4.100   3.311
 3707TIP3   OH211077   4.331   3.816   1.413
 3707TIP3    H111078   4.318   3.774   1.328
 3707TIP3    H211079   4.307   3.908   1.398
 3708TIP3   OH211080   3.809   3.556   3.250
 3708TIP3    H111081   3.818   3.480   3.193
 3708TIP3    H211082   3.765   3.622   3.195
 3709TIP3   OH211083   3.821   3.353   3.052
 3709TIP3    H111084   3.851   3.385   2.966
 3709TIP3    H211085   3.731   3.324   3.036
 3710TIP3   OH211086   3.833   3.893   2.956
 3710TIP3    H111087   3.919   3.895   2.916
 3710TIP3    H211088   3.779   3.949   2.901
 3711TIP3   OH211089   4.427   3.832   3.299
 3711TIP3    H111090   4.454   3.743   3.322
 3711TIP3    H211091   4.506   3.872   3.263
 3712TIP3   OH211092   4.452   4.106   3.043
 3712TIP3    H111093   4.400   4.167   2.990
 3712TIP3    H211094   4.542   4.119   3.012
 3713TIP3   OH211095   3.685   3.650   3.485
 3713TIP3    H111096   3.627   3.578   3.507
 3713TIP3    H211097   3.723   3.625   3.400
 3714TIP3   OH211098   3.945   3.116   3.143
 3714TIP3    H111099   3.902   3.196   3.115
 3714TIP3    H211100   3.878   3.048   3.132
 3715TIP3   OH211101   4.070   3.602   3.344
 3715TIP3    H111102   4.066   3.588   3.439
 3715TIP3    H211103   3.982   3.580   3.314
 3716TIP3   OH211104   4.313   3.554   3.211
 3716TIP3    H111105   4.237   3.550   3.269
 3716TIP3    H211106   4.385   3.522   3.265
 3717TIP3   OH211107   4.547   3.505   3.353
 3717TIP3    H111108   4.565   3.411   3.361
 3717TIP3    H211109   4.541   3.536   3.444
 3718TIP3   OH211110   3.543   3.419   3.553
 3718TIP3    H111111   3.546   3.331   3.516
 3718TIP3    H211112   3.582   3.409   3.640
 3719TIP3   OH211113   4.024   3.107   3.407
 3719TIP3    H111114   4.092   3.041   3.405
 3719TIP3    H211115   3.991   3.111   3.317
 3720TIP3   OH211116   4.103   3.325   3.556
 3720TIP3    H111117   4.082   3.250   3.499
 3720TIP3    H211118   4.027   3.383   3.548
 3721TIP3   OH211119   3.350   4.561   1.657
 3721TIP3    H111120   3.441   4.545   1.635
 3721TIP3    H211121   3.314   4.609   1.582
 3722TIP3   OH211122   2.836   3.911   1.899
 3722TIP3    H111123   2.905   3.959   1.853
 3722TIP3    H211124   2.808   3.843   1.837
 3723TIP3   OH211125   2.730   4.536   2.300
 3723TIP3    H111126   2.666   4.482   2.254
 3723TIP3    H211127   2.776   4.475   2.358
 3724TIP3   OH211128   2.875   4.366   2.467
 3724TIP3    H111129   2.865   4.300   2.536
 3724TIP3    H211130   2.925   4.436   2.507
 3725TIP3   OH211131   4.601   4.788   2.275
 3725TIP3    H111132   4.630   4.818   2.361
 3725TIP3    H211133   4.666   4.825   2.214
 3726TIP3   OH211134   4.625   4.809   2.560
 3726TIP3    H111135   4.578   4.726   2.550
 3726TIP3    H211136   4.696   4.790   2.621
 3727TIP3   OH211137   4.676   4.506   3.127
 3727TIP3    H111138   4.599   4.514   3.182
 3727TIP3    H211139   4.719   4.592   3.131
 3728TIP3   OH211140   4.494   4.018   1.744
 3728TIP3    H111141   4.555   4.084   1.711
 3728TIP3    H211142   4.540   3.978   1.818
 3729TIP3   OH211143   4.622   3.875   1.944
 3729TIP3    H111144   4.555   3.836   2.001
 3729TIP3    H211145   4.687   3.910   2.003
 3730TIP3   OH211146   4.672   4.275   2.373
 3730TIP3    H111147   4.727   4.206   2.336
 3730TIP3    H211148   4.676   4.346   2.309
 3731TIP3   OH211149   4.486   4.566   2.567
 3731TIP3    H111150   4.417   4.610   2.617
 3731TIP3    H211151   4.439   4.523   2.495
 3732TIP3   OH211152   4.541   3.794   1.589
 3732TIP3    H111153   4.470   3.793   1.525
 3732TIP3    H211154   4.524   3.871   1.643
 3733TIP3   OH211155   4.396   3.445   1.531
 3733TIP3    H111156   4.351   3.482   1.455
 3733TIP3    H211157   4.386   3.351   1.521
 3734TIP3   OH211158   4.421   3.736   2.082
 3734TIP3    H111159   4.431   3.641   2.071
 3734TIP3    H211160   4.404   3.748   2.175
 3735TIP3   OH211161   3.061   3.797   2.835
 3735TIP3    H111162   3.067   3.750   2.752
 3735TIP3    H211163   3.151   3.803   2.866
 3736TIP3   OH211164   4.709   4.156   2.947
 3736TIP3    H111165   4.775   4.087   2.933
 3736TIP3    H211166   4.719   4.214   2.872
 3737TIP3   OH211167   4.885   3.946   2.941
 3737TIP3    H111168   4.811   3.902   2.981
 3737TIP3    H211169   4.960   3.888   2.958
 3738TIP3   OH211170   4.356   3.174   1.501
 3738TIP3    H111171   4.422   3.148   1.564
 3738TIP3    H211172   4.276   3.131   1.531
 3739TIP3   OH211173   4.418   3.457   1.963
 3739TIP3    H111174   4.463   3.373   1.977
 3739TIP3    H211175   4.465   3.497   1.890
 3740TIP3   OH211176   4.574   3.628   2.479
 3740TIP3    H111177   4.655   3.647   2.433
 3740TIP3    H211178   4.588   3.662   2.568
 3741TIP3   OH211179   4.646   3.774   2.711
 3741TIP3    H111180   4.573   3.805   2.764
 3741TIP3    H211181   4.679   3.853   2.668
 3742TIP3   OH211182   3.286   3.508   3.534
 3742TIP3    H111183   3.380   3.488   3.534
 3742TIP3    H211184   3.244   3.422   3.540
 3743TIP3   OH211185   5.107   3.377   3.249
 3743TIP3    H111186   5.164   3.311   3.210
 3743TIP3    H211187   5.070   3.424   3.174
 3744TIP3   OH211188   4.531   3.207   2.016
 3744TIP3    H111189   4.578   3.193   2.098
 3744TIP3    H211190   4.470   3.134   2.011
 3745TIP3   OH211191   3.228   3.187   2.849
 3745TIP3    H111192   3.284   3.110   2.855
 3745TIP3    H211193   3.288   3.260   2.836
 3746TIP3   OH211194   3.018   3.468   2.908
 3746TIP3    H111195   3.073   3.463   2.830
 3746TIP3    H211196   3.052   3.543   2.957
 3747TIP3   OH211197   4.955   3.488   3.049
 3747TIP3    H111198   4.867   3.525   3.059
 3747TIP3    H211199   4.941   3.407   3.000
 3748TIP3   OH211200   4.584   3.128   1.654
 3748TIP3    H111201   4.630   3.064   1.599
 3748TIP3    H211202   4.644   3.203   1.658
 3749TIP3   OH211203   3.012   2.969   2.418
 3749TIP3    H111204   2.924   2.949   2.449
 3749TIP3    H211205   2.998   3.020   2.338
 3750TIP3   OH211206   4.164   4.682   1.921
 3750TIP3    H111207   4.217   4.669   1.843
 3750TIP3    H211208   4.212   4.748   1.972
 3751TIP3   OH211209   3.228   3.050   3.243
 3751TIP3    H111210   3.177   3.030   3.321
 3751TIP3    H211211   3.164   3.076   3.178
 3752TIP3   OH211212   3.262   4.484   3.293
 3752TIP3    H111213   3.170   4.459   3.297
 3752TIP3    H211214   3.294   4.474   3.382
 3753TIP3   OH211215   3.470   4.521   2.850
 3753TIP3    H111216   3.419   4.595   2.817
 3753TIP3    H211217   3.555   4.530   2.808
 3754TIP3   OH211218   3.878   4.756   2.988
 3754TIP3    H111219   3.915   4.749   3.076
 3754TIP3    H211220   3.941   4.809   2.939
 3755TIP3   OH211221   4.067   4.910   2.859
 3755TIP3    H111222   4.131   4.857   2.811
 3755TIP3    H211223   4.121   4.967   2.914
 3756TIP3   OH211224   4.866   3.236   2.955
 3756TIP3    H111225   4.775   3.219   2.931
 3756TIP3    H211226   4.909   3.151   2.946
 3757TIP3   OH211227   3.131   4.764   2.896
 3757TIP3    H111228   3.040   4.784   2.873
 3757TIP3    H211229   3.154   4.830   2.962
 3758TIP3   OH211230   3.361   4.752   2.745
 3758TIP3    H111231   3.278   4.758   2.792
 3758TIP3    H211232   3.341   4.779   2.655
 3759TIP3   OH211233   3.783   4.771   2.539
 3759TIP3    H111234   3.715   4.784   2.472
 3759TIP3    H211235   3.794   4.857   2.579
 3760TIP3   OH211236   4.048   4.709   2.591
 3760TIP3    H111237   3.957   4.727   2.570
 3760TIP3    H211238   4.097   4.776   2.543
 3761TIP3   OH211239   4.249   4.887   2.492
 3761TIP3    H111240   4.245   4.974   2.451
 3761TIP3    H211241   4.279   4.829   2.422
 3762TIP3   OH211242   3.044   4.545   2.615
 3762TIP3    H111243   3.066   4.520   2.705
 3762TIP3    H211244   3.118   4.515   2.562
 3763TIP3   OH211245   3.249   4.432   2.476
 3763TIP3    H111246   3.259   4.349   2.523
 3763TIP3    H211247   3.335   4.473   2.480
 3764TIP3   OH211248   3.515   4.516   2.499
 3764TIP3    H111249   3.536   4.423   2.485
 3764TIP3    H211250   3.568   4.542   2.574
 3765TIP3   OH211251   4.036   3.135   2.540
 3765TIP3    H111252   4.013   3.077   2.612
 3765TIP3    H211253   4.126   3.112   2.517
 3766TIP3   OH211254   4.579   3.070   2.467
 3766TIP3    H111255   4.620   3.121   2.397
 3766TIP3    H211256   4.490   3.104   2.473
 3767TIP3   OH211257   4.693   3.160   2.234
 3767TIP3    H111258   4.762   3.099   2.209
 3767TIP3    H211259   4.731   3.247   2.222
 3768TIP3   OH211260   3.315   2.869   2.587
 3768TIP3    H111261   3.226   2.835   2.594
 3768TIP3    H211262   3.371   2.791   2.580
 3769TIP3   OH211263   3.135   2.772   2.242
 3769TIP3    H111264   3.160   2.822   2.164
 3769TIP3    H211265   3.101   2.838   2.303
 3770TIP3   OH211266   3.780   2.916   2.472
 3770TIP3    H111267   3.833   2.960   2.406
 3770TIP3    H211268   3.823   2.937   2.555
 3771TIP3   OH211269   4.289   3.056   2.461
 3771TIP3    H111270   4.313   3.021   2.375
 3771TIP3    H211271   4.295   2.981   2.520
 3772TIP3   OH211272   4.346   2.996   2.018
 3772TIP3    H111273   4.266   3.042   2.042
 3772TIP3    H211274   4.337   2.910   2.060
 3773TIP3   OH211275   2.817   4.340   2.017
 3773TIP3    H111276   2.733   4.309   1.982
 3773TIP3    H211277   2.825   4.429   1.982
 3774TIP3   OH211278   3.245   2.905   2.002
 3774TIP3    H111279   3.289   2.841   1.947
 3774TIP3    H211280   3.316   2.959   2.037
 3775TIP3   OH211281   3.736   3.100   2.104
 3775TIP3    H111282   3.796   3.048   2.158
 3775TIP3    H211283   3.752   3.191   2.130
 3776TIP3   OH211284   3.611   4.498   1.597
 3776TIP3    H111285   3.695   4.525   1.561
 3776TIP3    H211286   3.582   4.427   1.540
 3777TIP3   OH211287   4.311   4.637   1.690
 3777TIP3    H111288   4.305   4.542   1.680
 3777TIP3    H211289   4.271   4.672   1.610
 3778TIP3   OH211290   3.543   3.146   3.471
 3778TIP3    H111291   3.508   3.079   3.530
 3778TIP3    H211292   3.636   3.152   3.493
 3779TIP3   OH211293   3.793   3.150   3.590
 3779TIP3    H111294   3.873   3.130   3.542
 3779TIP3    H211295   3.788   3.083   3.658
 3780TIP3   OH211296   2.912   4.339   1.649
 3780TIP3    H111297   2.921   4.363   1.741
 3780TIP3    H211298   2.994   4.293   1.628
 3781TIP3   OH211299   4.611   3.240   3.381
 3781TIP3    H111300   4.627   3.207   3.469
 3781TIP3    H211301   4.695   3.229   3.336
 3782TIP3   OH211302   4.532   4.776   2.880
 3782TIP3    H111303   4.458   4.746   2.827
 3782TIP3    H211304   4.520   4.871   2.886
 3783TIP3   OH211305   5.810   4.170   1.621
 3783TIP3    H111306   5.778   4.256   1.594
 3783TIP3    H211307   5.738   4.110   1.601
 3784TIP3   OH211308   5.805   4.153   2.044
 3784TIP3    H111309   5.856   4.136   2.123
 3784TIP3    H211310   5.764   4.069   2.022
 3785TIP3   OH211311   5.106   4.022   2.394
 3785TIP3    H111312   5.141   3.967   2.464
 3785TIP3    H211313   5.183   4.046   2.342
 3786TIP3   OH211314   6.066   4.464   1.712
 3786TIP3    H111315   6.056   4.396   1.778
 3786TIP3    H211316   6.092   4.542   1.762
 3787TIP3   OH211317   5.090   4.451   2.094
 3787TIP3    H111318   5.076   4.356   2.095
 3787TIP3    H211319   5.185   4.461   2.083
 3788TIP3   OH211320   4.782   3.652   1.868
 3788TIP3    H111321   4.743   3.735   1.893
 3788TIP3    H211322   4.710   3.602   1.829
 3789TIP3   OH211323   4.852   3.953   2.082
 3789TIP3    H111324   4.903   3.876   2.109
 3789TIP3    H211325   4.918   4.013   2.045
 3790TIP3   OH211326   5.723   4.903   1.728
 3790TIP3    H111327   5.760   4.835   1.672
 3790TIP3    H211328   5.714   4.862   1.814
 3791TIP3   OH211329   5.611   4.376   2.054
 3791TIP3    H111330   5.652   4.295   2.024
 3791TIP3    H211331   5.684   4.431   2.082
 3792TIP3   OH211332   6.656   3.695   2.053
 3792TIP3    H111333   6.661   3.778   2.100
 3792TIP3    H211334   6.678   3.718   1.962
 3793TIP3   OH211335   6.023   3.871   2.088
 3793TIP3    H111336   6.057   3.785   2.116
 3793TIP3    H211337   5.982   3.854   2.003
 3794TIP3   OH211338   5.361   3.531   2.057
 3794TIP3    H111339   5.345   3.602   1.995
 3794TIP3    H211340   5.311   3.457   2.023
 3795TIP3   OH211341   6.073   3.621   1.682
 3795TIP3    H111342   6.134   3.616   1.755
 3795TIP3    H211343   6.125   3.658   1.610
 3796TIP3   OH211344   4.999   3.738   2.172
 3796TIP3    H111345   5.080   3.719   2.219
 3796TIP3    H211346   5.005   3.686   2.092
 3797TIP3   OH211347   5.422   3.937   1.990
 3797TIP3    H111348   5.516   3.921   1.998
 3797TIP3    H211349   5.387   3.856   1.955
 3798TIP3   OH211350   6.695   3.915   2.227
 3798TIP3    H111351   6.605   3.946   2.218
 3798TIP3    H211352   6.720   3.938   2.317
 3799TIP3   OH211353   5.359   3.524   2.500
 3799TIP3    H111354   5.304   3.559   2.429
 3799TIP3    H211355   5.305   3.535   2.578
 3800TIP3   OH211356   5.711   4.390   1.477
 3800TIP3    H111357   5.665   4.358   1.399
 3800TIP3    H211358   5.656   4.461   1.510
 3801TIP3   OH211359   5.456   4.301   2.271
 3801TIP3    H111360   5.401   4.371   2.305
 3801TIP3    H211361   5.503   4.340   2.198
 3802TIP3   OH211362   6.236   3.648   1.898
 3802TIP3    H111363   6.193   3.630   1.982
 3802TIP3    H211364   6.294   3.721   1.916
 3803TIP3   OH211365   5.237   3.637   2.277
 3803TIP3    H111366   5.295   3.709   2.301
 3803TIP3    H211367   5.282   3.593   2.205
 3804TIP3   OH211368   5.295   4.503   2.374
 3804TIP3    H111369   5.278   4.591   2.341
 3804TIP3    H211370   5.218   4.481   2.426
 3805TIP3   OH211371   4.674   4.197   1.630
 3805TIP3    H111372   4.639   4.211   1.542
 3805TIP3    H211373   4.700   4.284   1.659
 3806TIP3   OH211374   6.114   4.708   1.858
 3806TIP3    H111375   6.028   4.700   1.899
 3806TIP3    H211376   6.112   4.793   1.815
 3807TIP3   OH211377   6.466   3.582   2.275
 3807TIP3    H111378   6.390   3.524   2.285
 3807TIP3    H211379   6.474   3.594   2.181
 3808TIP3   OH211380   5.688   3.222   2.208
 3808TIP3    H111381   5.695   3.134   2.244
 3808TIP3    H211382   5.616   3.262   2.257
 3809TIP3   OH211383   5.828   4.737   1.532
 3809TIP3    H111384   5.877   4.656   1.517
 3809TIP3    H211385   5.888   4.807   1.506
 3810TIP3   OH211386   5.966   4.512   1.457
 3810TIP3    H111387   5.890   4.454   1.456
 3810TIP3    H211388   6.012   4.488   1.537
 3811TIP3   OH211389   6.349   4.601   2.205
 3811TIP3    H111390   6.331   4.526   2.148
 3811TIP3    H211391   6.334   4.677   2.149
 3812TIP3   OH211392   5.637   4.003   1.478
 3812TIP3    H111393   5.555   4.048   1.459
 3812TIP3    H211394   5.683   4.000   1.394
 3813TIP3   OH211395   5.600   3.807   1.170
 3813TIP3    H111396   5.664   3.854   1.223
 3813TIP3    H211397   5.651   3.739   1.126
 3814TIP3   OH211398   6.533   4.261   2.065
 3814TIP3    H111399   6.448   4.304   2.065
 3814TIP3    H211400   6.566   4.274   1.975
 3815TIP3   OH211401   5.994   4.085   1.440
 3815TIP3    H111402   5.940   4.117   1.512
 3815TIP3    H211403   6.076   4.058   1.482
 3816TIP3   OH211404   6.219   4.123   2.370
 3816TIP3    H111405   6.217   4.204   2.421
 3816TIP3    H211406   6.136   4.121   2.324
 3817TIP3   OH211407   5.222   4.073   1.845
 3817TIP3    H111408   5.184   4.015   1.779
 3817TIP3    H211409   5.293   4.022   1.884
 3818TIP3   OH211410   5.353   4.497   1.990
 3818TIP3    H111411   5.325   4.477   1.900
 3818TIP3    H211412   5.439   4.456   1.998
 3819TIP3   OH211413   5.324   4.065   2.218
 3819TIP3    H111414   5.362   4.029   2.138
 3819TIP3    H211415   5.375   4.145   2.235
 3820TIP3   OH211416   5.879   4.702   1.993
 3820TIP3    H111417   5.865   4.779   2.047
 3820TIP3    H211418   5.864   4.628   2.052
 3821TIP3   OH211419   5.494   4.608   2.537
 3821TIP3    H111420   5.433   4.666   2.583
 3821TIP3    H211421   5.437   4.554   2.481
 3822TIP3   OH211422   5.823   3.949   1.274
 3822TIP3    H111423   5.884   4.005   1.323
 3822TIP3    H211424   5.851   3.957   1.183
 3823TIP3   OH211425   5.249   4.161   2.671
 3823TIP3    H111426   5.249   4.254   2.695
 3823TIP3    H211427   5.156   4.138   2.665
 3824TIP3   OH211428   5.572   4.626   1.535
 3824TIP3    H111429   5.655   4.672   1.546
 3824TIP3    H211430   5.513   4.692   1.498
 3825TIP3   OH211431   5.283   4.769   2.620
 3825TIP3    H111432   5.259   4.775   2.528
 3825TIP3    H211433   5.201   4.751   2.666
 3826TIP3   OH211434   6.335   3.180   1.324
 3826TIP3    H111435   6.258   3.198   1.378
 3826TIP3    H211436   6.346   3.260   1.271
 3827TIP3   OH211437   5.091   3.923   1.640
 3827TIP3    H111438   5.017   3.971   1.600
 3827TIP3    H211439   5.056   3.836   1.659
 3828TIP3   OH211440   6.110   4.517   0.921
 3828TIP3    H111441   6.113   4.613   0.928
 3828TIP3    H211442   6.200   4.489   0.937
 3829TIP3   OH211443   4.874   4.316   2.571
 3829TIP3    H111444   4.806   4.297   2.506
 3829TIP3    H211445   4.909   4.231   2.595
 3830TIP3   OH211446   4.738   4.497   2.208
 3830TIP3    H111447   4.832   4.494   2.192
 3830TIP3    H211448   4.725   4.575   2.263
 3831TIP3   OH211449   6.578   4.965   2.267
 3831TIP3    H111450   6.585   4.870   2.279
 3831TIP3    H211451   6.498   4.989   2.314
 3832TIP3   OH211452   5.684   4.746   2.396
 3832TIP3    H111453   5.678   4.837   2.425
 3832TIP3    H211454   5.617   4.700   2.446
 3833TIP3   OH211455   5.451   4.850   1.368
 3833TIP3    H111456   5.413   4.830   1.283
 3833TIP3    H211457   5.417   4.937   1.390
 3834TIP3   OH211458   4.894   4.707   1.730
 3834TIP3    H111459   4.940   4.697   1.813
 3834TIP3    H211460   4.848   4.624   1.718
 3835TIP3   OH211461   5.662   4.764   1.030
 3835TIP3    H111462   5.720   4.697   0.992
 3835TIP3    H211463   5.698   4.778   1.118
 3836TIP3   OH211464   5.710   4.820   1.292
 3836TIP3    H111465   5.620   4.820   1.324
 3836TIP3    H211466   5.761   4.783   1.363
 3837TIP3   OH211467   6.475   4.075   2.508
 3837TIP3    H111468   6.385   4.084   2.477
 3837TIP3    H211469   6.491   3.980   2.506
 3838TIP3   OH211470   5.076   4.501   2.543
 3838TIP3    H111471   5.126   4.488   2.623
 3838TIP3    H211472   5.005   4.437   2.549
 3839TIP3   OH211473   5.461   3.309   2.352
 3839TIP3    H111474   5.376   3.278   2.322
 3839TIP3    H211475   5.441   3.388   2.404
 3840TIP3   OH211476   5.986   3.476   2.563
 3840TIP3    H111477   6.057   3.417   2.536
 3840TIP3    H211478   5.917   3.418   2.593
 3841TIP3   OH211479   6.237   3.866   2.475
 3841TIP3    H111480   6.193   3.864   2.560
 3841TIP3    H211481   6.214   3.951   2.437
 3842TIP3   OH211482   5.902   3.939   1.015
 3842TIP3    H111483   5.855   3.941   0.932
 3842TIP3    H211484   5.988   3.975   0.995
 3843TIP3   OH211485   5.614   3.356   1.325
 3843TIP3    H111486   5.583   3.361   1.415
 3843TIP3    H211487   5.576   3.276   1.290
 3844TIP3   OH211488   5.400   3.842   2.364
 3844TIP3    H111489   5.355   3.850   2.448
 3844TIP3    H211490   5.379   3.923   2.318
 3845TIP3   OH211491   5.279   3.725   1.880
 3845TIP3    H111492   5.190   3.699   1.904
 3845TIP3    H211493   5.292   3.688   1.793
 3846TIP3   OH211494   5.766   3.800   1.610
 3846TIP3    H111495   5.718   3.872   1.570
 3846TIP3    H211496   5.823   3.767   1.541
 3847TIP3   OH211497   5.949   4.076   2.689
 3847TIP3    H111498   5.923   4.005   2.747
 3847TIP3    H211499   6.043   4.086   2.702
 3848TIP3   OH211500   5.935   3.818   1.833
 3848TIP3    H111501   5.865   3.836   1.770
 3848TIP3    H211502   5.978   3.740   1.798
 3849TIP3   OH211503   5.231   3.853   2.583
 3849TIP3    H111504   5.269   3.908   2.651
 3849TIP3    H211505   5.213   3.770   2.627
 3850TIP3   OH211506   5.276   3.337   1.292
 3850TIP3    H111507   5.270   3.338   1.388
 3850TIP3    H211508   5.199   3.384   1.262
 3851TIP3   OH211509   4.826   3.381   2.157
 3851TIP3    H111510   4.894   3.416   2.215
 3851TIP3    H211511   4.873   3.356   2.077
 3852TIP3   OH211512   4.744   3.359   1.668
 3852TIP3    H111513   4.790   3.394   1.592
 3852TIP3    H211514   4.683   3.427   1.693
 3853TIP3   OH211515   5.961   4.069   2.261
 3853TIP3    H111516   5.990   4.003   2.198
 3853TIP3    H211517   5.922   4.019   2.333
 3854TIP3   OH211518   5.619   3.568   1.943
 3854TIP3    H111519   5.546   3.549   2.002
 3854TIP3    H211520   5.691   3.514   1.977
 3855TIP3   OH211521   5.044   3.596   1.941
 3855TIP3    H111522   4.955   3.600   1.906
 3855TIP3    H211523   5.072   3.507   1.924
 3856TIP3   OH211524   5.297   3.595   1.639
 3856TIP3    H111525   5.391   3.609   1.627
 3856TIP3    H211526   5.260   3.615   1.553
 3857TIP3   OH211527   6.103   3.607   2.139
 3857TIP3    H111528   6.082   3.624   2.231
 3857TIP3    H211529   6.094   3.512   2.130
 3858TIP3   OH211530   5.175   3.623   1.395
 3858TIP3    H111531   5.109   3.577   1.343
 3858TIP3    H211532   5.229   3.670   1.330
 3859TIP3   OH211533   6.289   5.308   2.364
 3859TIP3    H111534   6.285   5.325   2.270
 3859TIP3    H211535   6.368   5.353   2.394
 3860TIP3   OH211536   5.231   4.423   2.776
 3860TIP3    H111537   5.313   4.440   2.823
 3860TIP3    H211538   5.164   4.424   2.844
 3861TIP3   OH211539   5.694   3.884   2.043
 3861TIP3    H111540   5.741   3.820   1.990
 3861TIP3    H211541   5.690   3.844   2.130
 3862TIP3   OH211542   5.189   3.349   1.929
 3862TIP3    H111543   5.159   3.274   1.980
 3862TIP3    H211544   5.233   3.311   1.853
 3863TIP3   OH211545   5.667   3.786   2.306
 3863TIP3    H111546   5.579   3.813   2.333
 3863TIP3    H211547   5.726   3.835   2.363
 3864TIP3   OH211548   5.407   4.144   1.419
 3864TIP3    H111549   5.331   4.091   1.395
 3864TIP3    H211550   5.383   4.184   1.502
 3865TIP3   OH211551   6.293   4.395   2.029
 3865TIP3    H111552   6.327   4.444   1.954
 3865TIP3    H211553   6.213   4.354   1.998
 3866TIP3   OH211554   5.861   3.468   1.292
 3866TIP3    H111555   5.770   3.443   1.306
 3866TIP3    H211556   5.866   3.559   1.323
 3867TIP3   OH211557   5.808   4.478   2.428
 3867TIP3    H111558   5.855   4.464   2.510
 3867TIP3    H211559   5.768   4.565   2.438
 3868TIP3   OH211560   5.928   3.717   1.394
 3868TIP3    H111561   6.023   3.722   1.408
 3868TIP3    H211562   5.907   3.798   1.346
 3869TIP3   OH211563   5.097   4.167   2.074
 3869TIP3    H111564   5.133   4.145   1.988
 3869TIP3    H211565   5.160   4.131   2.137
 3870TIP3   OH211566   5.552   4.310   1.255
 3870TIP3    H111567   5.503   4.392   1.257
 3870TIP3    H211568   5.499   4.249   1.307
 3871TIP3   OH211569   4.975   4.093   2.708
 3871TIP3    H111570   4.986   4.069   2.800
 3871TIP3    H211571   4.905   4.036   2.676
 3872TIP3   OH211572   5.714   4.223   2.722
 3872TIP3    H111573   5.649   4.166   2.682
 3872TIP3    H211574   5.798   4.185   2.697
 3873TIP3   OH211575   5.956   4.764   2.317
 3873TIP3    H111576   5.861   4.749   2.323
 3873TIP3    H211577   5.980   4.801   2.402
 3874TIP3   OH211578   6.352   3.803   1.219
 3874TIP3    H111579   6.297   3.756   1.155
 3874TIP3    H211580   6.356   3.892   1.186
 3875TIP3   OH211581   6.595   4.688   2.293
 3875TIP3    H111582   6.502   4.670   2.294
 3875TIP3    H211583   6.626   4.653   2.209
 3876TIP3   OH211584   6.062   4.619   1.198
 3876TIP3    H111585   6.037   4.584   1.284
 3876TIP3    H211586   6.047   4.547   1.137
 3877TIP3   OH211587   6.061   4.261   1.927
 3877TIP3    H111588   5.972   4.238   1.951
 3877TIP3    H211589   6.099   4.180   1.893
 3878TIP3   OH211590   5.213   4.486   1.746
 3878TIP3    H111591   5.211   4.567   1.695
 3878TIP3    H211592   5.121   4.463   1.759
 3879TIP3   OH211593   4.774   3.787   1.439
 3879TIP3    H111594   4.817   3.872   1.453
 3879TIP3    H211595   4.696   3.790   1.495
 3880TIP3   OH211596   5.321   4.250   1.653
 3880TIP3    H111597   5.298   4.338   1.681
 3880TIP3    H211598   5.290   4.193   1.724
 3881TIP3   OH211599   5.494   4.820   2.191
 3881TIP3    H111600   5.531   4.892   2.140
 3881TIP3    H211601   5.568   4.784   2.240
 3882TIP3   OH211602   5.147   4.716   1.609
 3882TIP3    H111603   5.053   4.724   1.629
 3882TIP3    H211604   5.176   4.806   1.596
 3883TIP3   OH211605   5.853   4.476   2.156
 3883TIP3    H111606   5.840   4.472   2.251
 3883TIP3    H211607   5.924   4.415   2.139
 3884TIP3   OH211608   5.811   4.369   1.084
 3884TIP3    H111609   5.872   4.339   1.152
 3884TIP3    H211610   5.725   4.338   1.113
 3885TIP3   OH211611   6.107   4.983   2.203
 3885TIP3    H111612   6.036   4.921   2.216
 3885TIP3    H211613   6.078   5.039   2.131
 3886TIP3   OH211614   6.123   4.826   0.886
 3886TIP3    H111615   6.131   4.880   0.808
 3886TIP3    H211616   6.048   4.863   0.933
 3887TIP3   OH211617   5.185   3.601   2.708
 3887TIP3    H111618   5.089   3.604   2.710
 3887TIP3    H211619   5.209   3.538   2.776
 3888TIP3   OH211620   6.014   4.271   1.237
 3888TIP3    H111621   5.999   4.215   1.313
 3888TIP3    H211622   6.109   4.279   1.231
 3889TIP3   OH211623   4.917   4.704   2.355
 3889TIP3    H111624   4.969   4.638   2.400
 3889TIP3    H211625   4.940   4.787   2.398
 3890TIP3   OH211626   5.250   4.305   1.031
 3890TIP3    H111627   5.236   4.212   1.014
 3890TIP3    H211628   5.210   4.319   1.117
 3891TIP3   OH211629   5.149   4.353   1.282
 3891TIP3    H111630   5.191   4.336   1.366
 3891TIP3    H211631   5.075   4.410   1.301
 3892TIP3   OH211632   4.873   4.043   1.508
 3892TIP3    H111633   4.809   4.085   1.565
 3892TIP3    H211634   4.886   4.104   1.436
 3893TIP3   OH211635   6.037   3.686   2.400
 3893TIP3    H111636   6.123   3.718   2.427
 3893TIP3    H211637   6.020   3.612   2.458
 3894TIP3   OH211638   5.923   3.413   1.575
 3894TIP3    H111639   5.905   3.438   1.484
 3894TIP3    H211640   5.966   3.490   1.613
 3895TIP3   OH211641   5.411   4.541   1.275
 3895TIP3    H111642   5.356   4.575   1.345
 3895TIP3    H211643   5.406   4.607   1.206
 3896TIP3   OH211644   5.575   3.612   1.676
 3896TIP3    H111645   5.640   3.678   1.652
 3896TIP3    H211646   5.588   3.599   1.770
 3897TIP3   OH211647   5.871   3.903   2.460
 3897TIP3    H111648   5.898   3.939   2.544
 3897TIP3    H211649   5.924   3.824   2.449
 3898TIP3   OH211650   5.752   3.298   1.761
 3898TIP3    H111651   5.776   3.341   1.843
 3898TIP3    H211652   5.810   3.337   1.696
 3899TIP3   OH211653   5.258   3.324   1.569
 3899TIP3    H111654   5.245   3.413   1.603
 3899TIP3    H211655   5.351   3.308   1.579
 3900TIP3   OH211656   6.497   3.799   2.446
 3900TIP3    H111657   6.403   3.813   2.463
 3900TIP3    H211658   6.500   3.730   2.381
 3901TIP3   OH211659   6.154   4.007   1.839
 3901TIP3    H111660   6.078   3.950   1.852
 3901TIP3    H211661   6.224   3.965   1.890
 3902TIP3   OH211662   4.861   4.255   1.309
 3902TIP3    H111663   4.836   4.340   1.272
 3902TIP3    H211664   4.921   4.218   1.245
 3903TIP3   OH211665   4.804   3.509   1.445
 3903TIP3    H111666   4.818   3.603   1.452
 3903TIP3    H211667   4.740   3.500   1.375
 3904TIP3   OH211668   6.134   4.976   1.781
 3904TIP3    H111669   6.091   5.028   1.713
 3904TIP3    H211670   6.227   4.989   1.765
 3905TIP3   OH211671   5.195   3.230   2.313
 3905TIP3    H111672   5.168   3.196   2.228
 3905TIP3    H211673   5.188   3.156   2.373
 3906TIP3   OH211674   4.736   4.468   1.716
 3906TIP3    H111675   4.686   4.506   1.788
 3906TIP3    H211676   4.697   4.505   1.637
 3907TIP3   OH211677   4.919   5.014   2.772
 3907TIP3    H111678   5.002   5.018   2.819
 3907TIP3    H211679   4.903   4.921   2.759
 3908TIP3   OH211680   5.387   4.933   2.816
 3908TIP3    H111681   5.479   4.909   2.823
 3908TIP3    H211682   5.354   4.879   2.744
 3909TIP3   OH211683   5.376   4.533   0.960
 3909TIP3    H111684   5.332   4.457   0.998
 3909TIP3    H211685   5.450   4.497   0.911
 3910TIP3   OH211686   6.009   4.868   2.566
 3910TIP3    H111687   6.020   4.797   2.630
 3910TIP3    H211688   6.084   4.925   2.580
 3911TIP3   OH211689   5.790   4.564   0.893
 3911TIP3    H111690   5.810   4.496   0.958
 3911TIP3    H211691   5.870   4.574   0.843
 3912TIP3   OH211692   5.026   4.414   2.966
 3912TIP3    H111693   5.048   4.321   2.973
 3912TIP3    H211694   4.941   4.416   2.923
 3913TIP3   OH211695   5.017   4.051   1.173
 3913TIP3    H111696   5.067   4.027   1.252
 3913TIP3    H211697   5.083   4.053   1.104
 3914TIP3   OH211698   5.644   4.497   2.741
 3914TIP3    H111699   5.601   4.517   2.658
 3914TIP3    H211700   5.679   4.409   2.729
 3915TIP3   OH211701   5.563   4.236   0.986
 3915TIP3    H111702   5.533   4.253   1.075
 3915TIP3    H211703   5.548   4.143   0.973
 3916TIP3   OH211704   6.125   4.538   2.356
 3916TIP3    H111705   6.203   4.567   2.309
 3916TIP3    H211706   6.059   4.604   2.336
 3917TIP3   OH211707   5.145   4.161   2.962
 3917TIP3    H111708   5.219   4.132   2.910
 3917TIP3    H211709   5.181   4.176   3.049
 3918TIP3   OH211710   5.198   3.968   1.376
 3918TIP3    H111711   5.173   3.937   1.463
 3918TIP3    H211712   5.238   3.892   1.334
 3919TIP3   OH211713   5.487   4.028   2.622
 3919TIP3    H111714   5.409   4.082   2.633
 3919TIP3    H211715   5.529   4.062   2.543
 3920TIP3   OH211716   5.326   3.772   1.221
 3920TIP3    H111717   5.296   3.774   1.130
 3920TIP3    H211718   5.421   3.781   1.215
 3921TIP3   OH211719   6.006   4.419   2.724
 3921TIP3    H111720   6.076   4.382   2.669
 3921TIP3    H211721   6.000   4.359   2.798
 3922TIP3   OH211722   6.140   4.033   0.905
 3922TIP3    H111723   6.116   3.994   0.821
 3922TIP3    H211724   6.098   4.119   0.904
 3923TIP3   OH211725   5.608   3.810   2.736
 3923TIP3    H111726   5.612   3.736   2.675
 3923TIP3    H211727   5.567   3.881   2.685
 3924TIP3   OH211728   5.617   3.608   2.539
 3924TIP3    H111729   5.648   3.638   2.454
 3924TIP3    H211730   5.527   3.580   2.523
 3925TIP3   OH211731   5.625   4.141   2.420
 3925TIP3    H111732   5.715   4.155   2.390
 3925TIP3    H211733   5.573   4.202   2.368
 3926TIP3   OH211734   6.229   4.100   2.791
 3926TIP3    H111735   6.235   4.006   2.778
 3926TIP3    H211736   6.319   4.131   2.790
 3927TIP3   OH211737   6.247   4.359   2.520
 3927TIP3    H111738   6.195   4.422   2.470
 3927TIP3    H211739   6.336   4.372   2.489
 3928TIP3   OH211740   5.492   3.904   2.976
 3928TIP3    H111741   5.424   3.840   2.997
 3928TIP3    H211742   5.523   3.879   2.889
 3929TIP3   OH211743   5.729   3.371   2.649
 3929TIP3    H111744   5.694   3.451   2.611
 3929TIP3    H211745   5.666   3.303   2.625
 3930TIP3   OH211746   5.864   3.858   2.832
 3930TIP3    H111747   5.852   3.844   2.926
 3930TIP3    H211748   5.780   3.834   2.793
 3931TIP3   OH211749   6.123   3.839   2.718
 3931TIP3    H111750   6.040   3.818   2.763
 3931TIP3    H211751   6.189   3.789   2.766
 3932TIP3   OH211752   6.357   3.769   2.853
 3932TIP3    H111753   6.365   3.674   2.860
 3932TIP3    H211754   6.347   3.799   2.944
 3933TIP3   OH211755   5.325   3.690   3.045
 3933TIP3    H111756   5.324   3.601   3.010
 3933TIP3    H211757   5.364   3.681   3.132
 3934TIP3   OH211758   5.808   3.337   2.910
 3934TIP3    H111759   5.887   3.286   2.892
 3934TIP3    H211760   5.770   3.355   2.824
 3935TIP3   OH211761   5.896   3.573   3.040
 3935TIP3    H111762   5.869   3.502   2.982
 3935TIP3    H211763   5.824   3.636   3.035
 3936TIP3   OH211764   4.600   4.182   1.358
 3936TIP3    H111765   4.686   4.218   1.334
 3936TIP3    H211766   4.592   4.104   1.303
 3937TIP3   OH211767   4.518   4.793   1.785
 3937TIP3    H111768   4.455   4.738   1.738
 3937TIP3    H211769   4.564   4.732   1.843
 3938TIP3   OH211770   4.660   4.628   1.958
 3938TIP3    H111771   4.650   4.561   2.025
 3938TIP3    H211772   4.712   4.696   2.000
 3939TIP3   OH211773   6.403   5.032   1.765
 3939TIP3    H111774   6.423   5.062   1.853
 3939TIP3    H211775   6.460   5.085   1.708
 3940TIP3   OH211776   6.422   5.062   2.046
 3940TIP3    H111777   6.374   4.980   2.040
 3940TIP3    H211778   6.492   5.045   2.108
 3941TIP3   OH211779   6.461   4.768   2.607
 3941TIP3    H111780   6.394   4.773   2.675
 3941TIP3    H211781   6.509   4.851   2.615
 3942TIP3   OH211782   6.291   4.267   1.233
 3942TIP3    H111783   6.354   4.336   1.211
 3942TIP3    H211784   6.328   4.224   1.310
 3943TIP3   OH211785   6.416   4.128   1.434
 3943TIP3    H111786   6.351   4.088   1.492
 3943TIP3    H211787   6.482   4.164   1.493
 3944TIP3   OH211788   6.467   4.533   1.861
 3944TIP3    H111789   6.521   4.464   1.821
 3944TIP3    H211790   6.469   4.604   1.798
 3945TIP3   OH211791   6.281   4.822   2.052
 3945TIP3    H111792   6.213   4.865   2.104
 3945TIP3    H211793   6.234   4.779   1.981
 3946TIP3   OH211794   6.343   4.041   1.084
 3946TIP3    H111795   6.272   4.034   1.021
 3946TIP3    H211796   6.323   4.120   1.135
 3947TIP3   OH211797   6.205   3.695   1.014
 3947TIP3    H111798   6.153   3.739   0.947
 3947TIP3    H211799   6.190   3.602   0.999
 3948TIP3   OH211800   6.219   3.988   1.572
 3948TIP3    H111801   6.226   3.893   1.561
 3948TIP3    H211802   6.201   4.001   1.665
 3949TIP3   OH211803   4.843   4.062   2.334
 3949TIP3    H111804   4.834   4.025   2.247
 3949TIP3    H211805   4.937   4.058   2.352
 3950TIP3   OH211806   6.503   4.409   2.422
 3950TIP3    H111807   6.572   4.343   2.413
 3950TIP3    H211808   6.513   4.465   2.345
 3951TIP3   OH211809   6.693   4.208   2.424
 3951TIP3    H111810   6.614   4.164   2.456
 3951TIP3    H211811   6.764   4.147   2.442
 3952TIP3   OH211812   6.155   3.422   0.981
 3952TIP3    H111813   6.216   3.403   1.052
 3952TIP3    H211814   6.072   3.386   1.010
 3953TIP3   OH211815   6.216   3.712   1.454
 3953TIP3    H111816   6.259   3.628   1.467
 3953TIP3    H211817   6.262   3.752   1.380
 3954TIP3   OH211818   6.372   3.881   1.964
 3954TIP3    H111819   6.455   3.899   1.921
 3954TIP3    H211820   6.383   3.915   2.053
 3955TIP3   OH211821   6.440   4.030   2.191
 3955TIP3    H111822   6.369   4.058   2.248
 3955TIP3    H211823   6.472   4.112   2.152
 3956TIP3   OH211824   5.059   3.739   2.991
 3956TIP3    H111825   5.154   3.735   3.003
 3956TIP3    H211826   5.027   3.656   3.026
 3957TIP3   OH211827   6.913   3.621   2.736
 3957TIP3    H111828   6.972   3.564   2.688
 3957TIP3    H211829   6.870   3.674   2.669
 3958TIP3   OH211830   6.329   3.462   1.502
 3958TIP3    H111831   6.374   3.450   1.586
 3958TIP3    H211832   6.266   3.390   1.498
 3959TIP3   OH211833   5.027   3.451   2.337
 3959TIP3    H111834   5.081   3.372   2.341
 3959TIP3    H211835   5.090   3.522   2.323
 3960TIP3   OH211836   4.816   3.719   2.386
 3960TIP3    H111837   4.867   3.711   2.306
 3960TIP3    H211838   4.860   3.789   2.435
 3961TIP3   OH211839   6.755   3.752   2.563
 3961TIP3    H111840   6.679   3.797   2.600
 3961TIP3    H211841   6.718   3.687   2.504
 3962TIP3   OH211842   6.379   3.386   1.144
 3962TIP3    H111843   6.425   3.322   1.089
 3962TIP3    H211844   6.439   3.460   1.149
 3963TIP3   OH211845   4.804   3.213   1.892
 3963TIP3    H111846   4.718   3.208   1.934
 3963TIP3    H211847   4.791   3.273   1.818
 3964TIP3   OH211848   5.978   4.932   1.429
 3964TIP3    H111849   6.028   4.926   1.348
 3964TIP3    H211850   6.013   5.010   1.473
 3965TIP3   OH211851   5.025   3.321   2.733
 3965TIP3    H111852   4.971   3.286   2.804
 3965TIP3    H211853   4.962   3.347   2.666
 3966TIP3   OH211854   5.058   4.737   2.782
 3966TIP3    H111855   4.965   4.715   2.774
 3966TIP3    H211856   5.079   4.715   2.873
 3967TIP3   OH211857   5.265   4.779   2.339
 3967TIP3    H111858   5.214   4.853   2.305
 3967TIP3    H211859   5.349   4.787   2.295
 3968TIP3   OH211860   5.673   5.013   2.478
 3968TIP3    H111861   5.712   5.006   2.566
 3968TIP3    H211862   5.736   5.065   2.429
 3969TIP3   OH211863   5.861   5.167   2.346
 3969TIP3    H111864   5.923   5.113   2.297
 3969TIP3    H211865   5.916   5.223   2.400
 3970TIP3   OH211866   6.669   3.507   2.442
 3970TIP3    H111867   6.589   3.521   2.392
 3970TIP3    H211868   6.690   3.415   2.428
 3971TIP3   OH211869   4.929   5.027   2.383
 3971TIP3    H111870   4.838   5.046   2.361
 3971TIP3    H211871   4.951   5.092   2.450
 3972TIP3   OH211872   5.159   5.011   2.232
 3972TIP3    H111873   5.076   5.017   2.279
 3972TIP3    H211874   5.138   5.035   2.142
 3973TIP3   OH211875   5.578   5.026   2.023
 3973TIP3    H111876   5.506   5.037   1.961
 3973TIP3    H211877   5.588   5.113   2.064
 3974TIP3   OH211878   5.843   4.968   2.078
 3974TIP3    H111879   5.751   4.984   2.057
 3974TIP3    H211880   5.891   5.035   2.029
 3975TIP3   OH211881   6.047   5.146   1.981
 3975TIP3    H111882   6.040   5.231   1.939
 3975TIP3    H211883   6.076   5.087   1.911
 3976TIP3   OH211884   4.836   4.803   2.107
 3976TIP3    H111885   4.862   4.776   2.195
 3976TIP3    H211886   4.907   4.771   2.050
 3977TIP3   OH211887   5.039   4.689   1.966
 3977TIP3    H111888   5.051   4.605   2.010
 3977TIP3    H211889   5.126   4.728   1.964
 3978TIP3   OH211890   5.309   4.775   1.983
 3978TIP3    H111891   5.327   4.682   1.969
 3978TIP3    H211892   5.361   4.798   2.061
 3979TIP3   OH211893   5.816   3.386   2.014
 3979TIP3    H111894   5.792   3.332   2.090
 3979TIP3    H211895   5.912   3.377   2.009
 3980TIP3   OH211896   6.384   3.317   1.956
 3980TIP3    H111897   6.419   3.372   1.886
 3980TIP3    H211898   6.305   3.361   1.985
 3981TIP3   OH211899   6.489   3.419   1.723
 3981TIP3    H111900   6.560   3.359   1.698
 3981TIP3    H211901   6.525   3.506   1.708
 3982TIP3   OH211902   5.112   3.124   2.070
 3982TIP3    H111903   5.023   3.091   2.081
 3982TIP3    H211904   5.167   3.046   2.066
 3983TIP3   OH211905   4.910   3.018   1.716
 3983TIP3    H111906   4.945   3.071   1.644
 3983TIP3    H211907   4.881   3.081   1.781
 3984TIP3   OH211908   5.574   3.169   1.953
 3984TIP3    H111909   5.626   3.218   1.889
 3984TIP3    H211910   5.612   3.192   2.038
 3985TIP3   OH211911   6.086   3.337   1.962
 3985TIP3    H111912   6.112   3.312   1.874
 3985TIP3    H211913   6.090   3.255   2.013
 3986TIP3   OH211914   6.141   3.254   1.505
 3986TIP3    H111915   6.061   3.301   1.528
 3986TIP3    H211916   6.131   3.168   1.548
 3987TIP3   OH211917   4.634   4.572   1.488
 3987TIP3    H111918   4.542   4.575   1.463
 3987TIP3    H211919   4.682   4.568   1.405
 3988TIP3   OH211920   5.038   3.162   1.487
 3988TIP3    H111921   5.083   3.101   1.430
 3988TIP3    H211922   5.107   3.217   1.523
 3989TIP3   OH211923   5.535   3.355   1.590
 3989TIP3    H111924   5.595   3.307   1.647
 3989TIP3    H211925   5.545   3.447   1.616
 3990TIP3   OH211926   5.399   4.768   1.108
 3990TIP3    H111927   5.489   4.784   1.078
 3990TIP3    H211928   5.364   4.705   1.044
 3991TIP3   OH211929   6.113   4.891   1.190
 3991TIP3    H111930   6.101   4.796   1.191
 3991TIP3    H211931   6.052   4.922   1.123
 3992TIP3   OH211932   5.325   3.416   2.972
 3992TIP3    H111933   5.292   3.343   3.024
 3992TIP3    H211934   5.418   3.421   2.994
 3993TIP3   OH211935   5.582   3.416   3.079
 3993TIP3    H111936   5.659   3.392   3.028
 3993TIP3    H211937   5.571   3.344   3.141
 3994TIP3   OH211938   6.410   3.499   2.865
 3994TIP3    H111939   6.428   3.466   2.953
 3994TIP3    H211940   6.493   3.489   2.819
 3995TIP3   OH211941   6.329   5.034   2.367
 3995TIP3    H111942   6.255   5.003   2.315
 3995TIP3    H211943   6.315   5.128   2.375
 3996TIP3   OH211944   7.607   4.401   1.130
 3996TIP3    H111945   7.567   4.486   1.113
 3996TIP3    H211946   7.542   4.338   1.097
 3997TIP3   OH211947   7.602   4.391   1.524
 3997TIP3    H111948   7.661   4.341   1.580
 3997TIP3    H211949   7.540   4.326   1.491
 3998TIP3   OH211950   6.899   4.285   1.880
 3998TIP3    H111951   6.931   4.228   1.950
 3998TIP3    H211952   6.978   4.322   1.841
 3999TIP3   OH211953   7.888   4.706   1.244
 3999TIP3    H111954   7.871   4.640   1.311
 3999TIP3    H211955   7.913   4.785   1.292
 4000TIP3   OH211956   6.892   4.700   1.568
 4000TIP3    H111957   6.877   4.606   1.579
 4000TIP3    H211958   6.988   4.709   1.569
 4001TIP3   OH211959   6.580   3.910   1.353
 4001TIP3    H111960   6.539   3.993   1.379
 4001TIP3    H211961   6.508   3.857   1.321
 4002TIP3   OH211962   6.649   4.210   1.565
 4002TIP3    H111963   6.698   4.133   1.595
 4002TIP3    H211964   6.717   4.271   1.534
 4003TIP3   OH211965   7.469   5.147   1.278
 4003TIP3    H111966   7.515   5.076   1.234
 4003TIP3    H211967   7.453   5.114   1.367
 4004TIP3   OH211968   7.414   4.630   1.542
 4004TIP3    H111969   7.457   4.547   1.521
 4004TIP3    H211970   7.487   4.688   1.566
 4005TIP3   OH211971   7.780   4.173   1.585
 4005TIP3    H111972   7.819   4.089   1.609
 4005TIP3    H211973   7.733   4.155   1.504
 4006TIP3   OH211974   7.159   3.787   1.540
 4006TIP3    H111975   7.140   3.859   1.481
 4006TIP3    H211976   7.107   3.713   1.507
 4007TIP3   OH211977   7.860   3.887   1.183
 4007TIP3    H111978   7.926   3.844   1.237
 4007TIP3    H211979   7.904   3.965   1.148
 4008TIP3   OH211980   6.794   3.996   1.660
 4008TIP3    H111981   6.875   3.978   1.706
 4008TIP3    H211982   6.799   3.943   1.581
 4009TIP3   OH211983   7.219   4.192   1.474
 4009TIP3    H111984   7.311   4.171   1.487
 4009TIP3    H211985   7.181   4.111   1.440
 4010TIP3   OH211986   7.145   3.784   1.989
 4010TIP3    H111987   7.095   3.819   1.915
 4010TIP3    H211988   7.090   3.801   2.065
 4011TIP3   OH211989   7.482   4.616   1.012
 4011TIP3    H111990   7.456   4.585   0.925
 4011TIP3    H211991   7.405   4.663   1.044
 4012TIP3   OH211992   7.258   4.561   1.761
 4012TIP3    H111993   7.201   4.630   1.794
 4012TIP3    H211994   7.306   4.602   1.689
 4013TIP3   OH211995   7.033   3.892   1.760
 4013TIP3    H111996   7.087   3.968   1.784
 4013TIP3    H211997   7.081   3.850   1.688
 4014TIP3   OH211998   7.092   4.758   1.863
 4014TIP3    H111999   7.076   4.848   1.833
 4014TIP3    H212000   7.014   4.737   1.914
 4015TIP3   OH212001   6.477   4.448   1.140
 4015TIP3    H112002   6.434   4.460   1.055
 4015TIP3    H212003   6.502   4.537   1.167
 4016TIP3   OH212004   7.922   4.956   1.357
 4016TIP3    H112005   7.832   4.952   1.390
 4016TIP3    H212006   7.932   5.047   1.328
 4017TIP3   OH212007   7.479   3.475   1.711
 4017TIP3    H112008   7.472   3.383   1.736
 4017TIP3    H212009   7.404   3.518   1.752
 4018TIP3   OH212010   7.621   4.988   1.116
 4018TIP3    H112011   7.669   4.909   1.090
 4018TIP3    H212012   7.644   5.054   1.050
 4019TIP3   OH212013   7.720   4.745   1.035
 4019TIP3    H112014   7.641   4.691   1.035
 4019TIP3    H212015   7.772   4.713   1.108
 4020TIP3   OH212016   8.128   4.835   1.695
 4020TIP3    H112017   8.100   4.779   1.623
 4020TIP3    H212018   8.130   4.923   1.657
 4021TIP3   OH212019   7.448   4.249   0.962
 4021TIP3    H112020   7.359   4.284   0.952
 4021TIP3    H212021   7.487   4.257   0.875
 4022TIP3   OH212022   7.403   4.066   0.674
 4022TIP3    H112023   7.473   4.119   0.712
 4022TIP3    H212024   7.448   3.995   0.628
 4023TIP3   OH212025   7.792   4.318   0.948
 4023TIP3    H112026   7.736   4.352   1.018
 4023TIP3    H212027   7.863   4.272   0.994
 4024TIP3   OH212028   7.966   4.386   1.875
 4024TIP3    H112029   8.031   4.450   1.904
 4024TIP3    H212030   7.885   4.411   1.919
 4025TIP3   OH212031   7.015   4.318   1.337
 4025TIP3    H112032   6.981   4.254   1.275
 4025TIP3    H212033   7.089   4.273   1.380
 4026TIP3   OH212034   7.161   4.740   1.479
 4026TIP3    H112035   7.145   4.725   1.386
 4026TIP3    H212036   7.249   4.707   1.494
 4027TIP3   OH212037   7.126   4.327   1.701
 4027TIP3    H112038   7.166   4.291   1.622
 4027TIP3    H212039   7.179   4.405   1.721
 4028TIP3   OH212040   7.676   4.956   1.471
 4028TIP3    H112041   7.662   5.035   1.523
 4028TIP3    H212042   7.663   4.884   1.532
 4029TIP3   OH212043   7.292   4.864   2.025
 4029TIP3    H112044   7.231   4.924   2.070
 4029TIP3    H212045   7.236   4.811   1.969
 4030TIP3   OH212046   7.628   4.226   0.746
 4030TIP3    H112047   7.684   4.260   0.815
 4030TIP3    H212048   7.640   4.287   0.673
 4031TIP3   OH212049   7.038   4.417   2.143
 4031TIP3    H112050   7.043   4.506   2.178
 4031TIP3    H212051   6.946   4.394   2.149
 4032TIP3   OH212052   7.369   4.878   1.159
 4032TIP3    H112053   7.462   4.904   1.163
 4032TIP3    H212054   7.345   4.892   1.067
 4033TIP3   OH212055   7.081   5.024   2.112
 4033TIP3    H112056   7.057   5.031   2.019
 4033TIP3    H212057   6.998   5.007   2.156
 4034TIP3   OH212058   6.901   4.158   1.136
 4034TIP3    H112059   6.817   4.198   1.114
 4034TIP3    H212060   6.879   4.067   1.159
 4035TIP3   OH212061   6.669   4.572   2.058
 4035TIP3    H112062   6.600   4.552   1.995
 4035TIP3    H212063   6.704   4.487   2.082
 4036TIP3   OH212064   6.519   4.764   1.704
 4036TIP3    H112065   6.614   4.774   1.712
 4036TIP3    H212066   6.483   4.841   1.747
 4037TIP3   OH212067   7.472   5.009   1.871
 4037TIP3    H112068   7.468   5.096   1.910
 4037TIP3    H212069   7.416   4.955   1.927
 4038TIP3   OH212070   7.257   5.154   0.737
 4038TIP3    H112071   7.180   5.105   0.708
 4038TIP3    H212072   7.222   5.230   0.782
 4039TIP3   OH212073   6.660   4.967   1.242
 4039TIP3    H112074   6.714   4.959   1.320
 4039TIP3    H212075   6.615   4.883   1.234
 4040TIP3   OH212076   7.413   4.973   0.601
 4040TIP3    H112077   7.355   5.044   0.627
 4040TIP3    H212078   7.473   4.963   0.675
 4041TIP3   OH212079   6.870   4.758   2.028
 4041TIP3    H112080   6.921   4.746   2.108
 4041TIP3    H212081   6.798   4.695   2.035
 4042TIP3   OH212082   7.253   3.572   1.842
 4042TIP3    H112083   7.168   3.541   1.809
 4042TIP3    H212084   7.232   3.652   1.890
 4043TIP3   OH212085   7.753   3.689   2.049
 4043TIP3    H112086   7.821   3.668   2.114
 4043TIP3    H212087   7.671   3.671   2.094
 4044TIP3   OH212088   8.100   4.143   1.986
 4044TIP3    H112089   8.032   4.142   2.053
 4044TIP3    H212090   8.080   4.220   1.932
 4045TIP3   OH212091   7.420   3.612   0.812
 4045TIP3    H112092   7.387   3.620   0.902
 4045TIP3    H212093   7.377   3.533   0.778
 4046TIP3   OH212094   7.186   4.100   1.846
 4046TIP3    H112095   7.142   4.110   1.931
 4046TIP3    H212096   7.170   4.183   1.801
 4047TIP3   OH212097   7.074   3.982   1.368
 4047TIP3    H112098   6.985   3.955   1.393
 4047TIP3    H212099   7.087   3.944   1.281
 4048TIP3   OH212100   7.573   4.046   1.090
 4048TIP3    H112101   7.524   4.116   1.049
 4048TIP3    H212102   7.629   4.012   1.021
 4049TIP3   OH212103   7.712   4.086   1.330
 4049TIP3    H112104   7.652   4.099   1.257
 4049TIP3    H212105   7.751   4.000   1.314
 4050TIP3   OH212106   7.023   4.115   2.067
 4050TIP3    H112107   7.053   4.174   2.136
 4050TIP3    H212108   7.004   4.033   2.111
 4051TIP3   OH212109   7.070   3.597   0.782
 4051TIP3    H112110   7.063   3.598   0.877
 4051TIP3    H212111   6.993   3.646   0.752
 4052TIP3   OH212112   6.620   3.638   1.634
 4052TIP3    H112113   6.689   3.672   1.691
 4052TIP3    H212114   6.666   3.607   1.557
 4053TIP3   OH212115   6.544   3.611   1.159
 4053TIP3    H112116   6.589   3.646   1.082
 4053TIP3    H212117   6.483   3.679   1.185
 4054TIP3   OH212118   7.415   3.828   1.428
 4054TIP3    H112119   7.339   3.810   1.482
 4054TIP3    H212120   7.484   3.773   1.465
 4055TIP3   OH212121   6.839   3.855   1.428
 4055TIP3    H112122   6.750   3.859   1.394
 4055TIP3    H212123   6.866   3.764   1.412
 4056TIP3   OH212124   7.092   3.853   1.128
 4056TIP3    H112125   7.186   3.866   1.115
 4056TIP3    H212126   7.053   3.872   1.042
 4057TIP3   OH212127   7.857   3.903   1.588
 4057TIP3    H112128   7.845   3.888   1.682
 4057TIP3    H212129   7.873   3.816   1.551
 4058TIP3   OH212130   6.965   3.883   0.887
 4058TIP3    H112131   6.901   3.836   0.834
 4058TIP3    H212132   7.024   3.923   0.824
 4059TIP3   OH212133   8.081   5.564   1.872
 4059TIP3    H112134   8.098   5.577   1.778
 4059TIP3    H212135   8.167   5.568   1.913
 4060TIP3   OH212136   7.027   4.678   2.258
 4060TIP3    H112137   7.108   4.694   2.307
 4060TIP3    H212138   6.959   4.676   2.326
 4061TIP3   OH212139   7.478   4.122   1.532
 4061TIP3    H112140   7.521   4.054   1.482
 4061TIP3    H212141   7.480   4.090   1.622
 4062TIP3   OH212142   6.985   3.608   1.413
 4062TIP3    H112143   6.955   3.532   1.463
 4062TIP3    H212144   7.021   3.570   1.332
 4063TIP3   OH212145   7.448   4.034   1.801
 4063TIP3    H112146   7.356   4.059   1.811
 4063TIP3    H212147   7.493   4.085   1.868
 4064TIP3   OH212148   7.206   4.366   0.926
 4064TIP3    H112149   7.131   4.315   0.895
 4064TIP3    H212150   7.175   4.408   1.006
 4065TIP3   OH212151   8.082   4.654   1.503
 4065TIP3    H112152   8.135   4.628   1.428
 4065TIP3    H212153   8.003   4.601   1.497
 4066TIP3   OH212154   7.673   3.709   0.792
 4066TIP3    H112155   7.581   3.685   0.795
 4066TIP3    H212156   7.674   3.805   0.793
 4067TIP3   OH212157   7.606   4.705   1.900
 4067TIP3    H112158   7.642   4.635   1.953
 4067TIP3    H212159   7.585   4.775   1.962
 4068TIP3   OH212160   7.724   3.986   0.861
 4068TIP3    H112161   7.818   4.004   0.865
 4068TIP3    H212162   7.690   4.054   0.803
 4069TIP3   OH212163   6.891   4.416   1.565
 4069TIP3    H112164   6.929   4.394   1.480
 4069TIP3    H212165   6.955   4.383   1.629
 4070TIP3   OH212166   7.381   4.520   0.767
 4070TIP3    H112167   7.330   4.594   0.733
 4070TIP3    H212168   7.317   4.468   0.816
 4071TIP3   OH212169   6.769   4.345   2.191
 4071TIP3    H112170   6.772   4.318   2.283
 4071TIP3    H212171   6.698   4.293   2.153
 4072TIP3   OH212172   7.456   4.478   2.225
 4072TIP3    H112173   7.392   4.412   2.198
 4072TIP3    H212174   7.533   4.462   2.170
 4073TIP3   OH212175   7.745   5.010   1.796
 4073TIP3    H112176   7.651   4.995   1.793
 4073TIP3    H212177   7.761   5.044   1.884
 4074TIP3   OH212178   7.847   4.511   1.441
 4074TIP3    H112179   7.757   4.487   1.462
 4074TIP3    H212180   7.886   4.432   1.405
 4075TIP3   OH212181   6.989   4.729   1.243
 4075TIP3    H112182   6.978   4.811   1.195
 4075TIP3    H212183   6.924   4.735   1.314
 4076TIP3   OH212184   6.571   4.029   0.934
 4076TIP3    H112185   6.620   4.106   0.964
 4076TIP3    H212186   6.492   4.029   0.988
 4077TIP3   OH212187   7.097   4.499   1.148
 4077TIP3    H112188   7.058   4.580   1.182
 4077TIP3    H212189   7.076   4.433   1.214
 4078TIP3   OH212190   7.287   5.072   1.676
 4078TIP3    H112191   7.323   5.151   1.634
 4078TIP3    H212192   7.359   5.040   1.730
 4079TIP3   OH212193   6.897   4.961   1.114
 4079TIP3    H112194   6.811   4.974   1.154
 4079TIP3    H212195   6.931   5.049   1.100
 4080TIP3   OH212196   7.656   4.732   1.634
 4080TIP3    H112197   7.636   4.726   1.727
 4080TIP3    H212198   7.729   4.672   1.621
 4081TIP3   OH212199   7.900   5.222   1.692
 4081TIP3    H112200   7.835   5.154   1.710
 4081TIP3    H212201   7.860   5.276   1.625
 4082TIP3   OH212202   6.970   3.867   2.189
 4082TIP3    H112203   6.875   3.877   2.192
 4082TIP3    H212204   6.993   3.826   2.273
 4083TIP3   OH212205   7.793   4.485   0.731
 4083TIP3    H112206   7.795   4.436   0.813
 4083TIP3    H212207   7.883   4.480   0.697
 4084TIP3   OH212208   6.718   4.959   1.839
 4084TIP3    H112209   6.769   4.895   1.889
 4084TIP3    H212210   6.735   5.043   1.883
 4085TIP3   OH212211   7.093   4.485   0.559
 4085TIP3    H112212   7.056   4.404   0.523
 4085TIP3    H212213   7.049   4.496   0.643
 4086TIP3   OH212214   6.973   4.560   0.799
 4086TIP3    H112215   6.942   4.500   0.867
 4086TIP3    H212216   6.947   4.646   0.831
 4087TIP3   OH212217   6.664   4.263   1.050
 4087TIP3    H112218   6.602   4.314   1.101
 4087TIP3    H212219   6.679   4.315   0.971
 4088TIP3   OH212220   7.827   3.869   1.856
 4088TIP3    H112221   7.812   3.961   1.878
 4088TIP3    H212222   7.781   3.820   1.924
 4089TIP3   OH212223   7.687   3.690   1.076
 4089TIP3    H112224   7.694   3.690   0.981
 4089TIP3    H212225   7.740   3.765   1.104
 4090TIP3   OH212226   7.243   4.730   0.650
 4090TIP3    H112227   7.149   4.741   0.663
 4090TIP3    H212228   7.279   4.817   0.667
 4091TIP3   OH212229   7.369   3.871   1.159
 4091TIP3    H112230   7.440   3.929   1.132
 4091TIP3    H212231   7.384   3.859   1.253
 4092TIP3   OH212232   7.581   4.145   2.014
 4092TIP3    H112233   7.593   4.236   2.042
 4092TIP3    H212234   7.662   4.124   1.968
 4093TIP3   OH212235   7.532   3.561   1.257
 4093TIP3    H112236   7.556   3.604   1.339
 4093TIP3    H212237   7.584   3.605   1.190
 4094TIP3   OH212238   6.958   4.816   0.891
 4094TIP3    H112239   6.893   4.850   0.831
 4094TIP3    H212240   6.949   4.870   0.970
 4095TIP3   OH212241   7.052   3.582   1.060
 4095TIP3    H112242   7.040   3.671   1.093
 4095TIP3    H212243   7.147   3.567   1.066
 4096TIP3   OH212244   7.946   4.260   1.356
 4096TIP3    H112245   7.866   4.208   1.366
 4096TIP3    H212246   7.987   4.256   1.443
 4097TIP3   OH212247   6.697   4.415   0.831
 4097TIP3    H112248   6.727   4.505   0.840
 4097TIP3    H212249   6.745   4.382   0.755
 4098TIP3   OH212250   6.603   3.755   0.934
 4098TIP3    H112251   6.617   3.849   0.944
 4098TIP3    H212252   6.530   3.748   0.873
 4099TIP3   OH212253   7.975   5.232   1.340
 4099TIP3    H112254   7.904   5.241   1.276
 4099TIP3    H212255   8.055   5.236   1.288
 4100TIP3   OH212256   6.995   3.485   1.796
 4100TIP3    H112257   6.966   3.452   1.711
 4100TIP3    H212258   6.987   3.410   1.855
 4101TIP3   OH212259   6.530   4.720   1.209
 4101TIP3    H112260   6.487   4.744   1.292
 4101TIP3    H212261   6.467   4.746   1.141
 4102TIP3   OH212262   6.713   5.270   2.259
 4102TIP3    H112263   6.796   5.275   2.306
 4102TIP3    H212264   6.697   5.177   2.248
 4103TIP3   OH212265   7.181   5.188   2.309
 4103TIP3    H112266   7.275   5.172   2.311
 4103TIP3    H212267   7.148   5.134   2.237
 4104TIP3   OH212268   7.780   5.103   2.049
 4104TIP3    H112269   7.780   5.035   2.116
 4104TIP3    H212270   7.853   5.160   2.073
 4105TIP3   OH212271   6.824   4.674   2.451
 4105TIP3    H112272   6.847   4.582   2.461
 4105TIP3    H212273   6.738   4.673   2.409
 4106TIP3   OH212274   6.835   4.272   0.644
 4106TIP3    H112275   6.894   4.243   0.714
 4106TIP3    H212276   6.888   4.268   0.564
 4107TIP3   OH212277   7.439   4.756   2.229
 4107TIP3    H112278   7.393   4.782   2.149
 4107TIP3    H212279   7.452   4.662   2.220
 4108TIP3   OH212280   7.357   4.474   0.492
 4108TIP3    H112281   7.404   4.488   0.574
 4108TIP3    H212282   7.265   4.484   0.516
 4109TIP3   OH212283   7.929   4.807   1.883
 4109TIP3    H112284   8.001   4.817   1.820
 4109TIP3    H212285   7.856   4.855   1.844
 4110TIP3   OH212286   6.943   4.425   2.460
 4110TIP3    H112287   6.988   4.344   2.434
 4110TIP3    H212288   6.978   4.445   2.547
 4111TIP3   OH212289   6.989   4.210   0.869
 4111TIP3    H112290   6.962   4.180   0.956
 4111TIP3    H212291   7.035   4.135   0.831
 4112TIP3   OH212292   7.281   4.288   2.112
 4112TIP3    H112293   7.199   4.338   2.114
 4112TIP3    H212294   7.323   4.314   2.030
 4113TIP3   OH212295   7.129   4.024   0.720
 4113TIP3    H112296   7.098   4.025   0.630
 4113TIP3    H212297   7.224   4.032   0.714
 4114TIP3   OH212298   7.834   4.655   2.248
 4114TIP3    H112299   7.909   4.654   2.188
 4114TIP3    H212300   7.772   4.593   2.210
 4115TIP3   OH212301   7.389   4.060   2.226
 4115TIP3    H112302   7.408   3.992   2.162
 4115TIP3    H212303   7.361   4.135   2.174
 4116TIP3   OH212304   7.407   3.856   2.024
 4116TIP3    H112305   7.435   3.902   1.946
 4116TIP3    H212306   7.314   3.839   2.011
 4117TIP3   OH212307   7.420   4.388   1.903
 4117TIP3    H112308   7.511   4.417   1.915
 4117TIP3    H212309   7.379   4.457   1.851
 4118TIP3   OH212310   7.988   4.339   2.331
 4118TIP3    H112311   7.948   4.268   2.280
 4118TIP3    H212312   7.931   4.415   2.314
 4119TIP3   OH212313   8.032   4.621   2.052
 4119TIP3    H112314   7.986   4.671   1.984
 4119TIP3    H212315   8.112   4.591   2.009
 4120TIP3   OH212316   7.291   4.157   2.465
 4120TIP3    H112317   7.212   4.108   2.488
 4120TIP3    H212318   7.313   4.127   2.377
 4121TIP3   OH212319   7.502   3.622   2.135
 4121TIP3    H112320   7.463   3.702   2.099
 4121TIP3    H212321   7.438   3.553   2.116
 4122TIP3   OH212322   7.660   4.114   2.315
 4122TIP3    H112323   7.628   4.094   2.403
 4122TIP3    H212324   7.584   4.101   2.258
 4123TIP3   OH212325   7.903   4.125   2.183
 4123TIP3    H112326   7.811   4.124   2.209
 4123TIP3    H212327   7.946   4.065   2.245
 4124TIP3   OH212328   8.019   3.990   2.386
 4124TIP3    H112329   8.073   3.913   2.404
 4124TIP3    H212330   7.979   4.011   2.471
 4125TIP3   OH212331   7.119   3.930   2.527
 4125TIP3    H112332   7.129   3.840   2.495
 4125TIP3    H212333   7.154   3.928   2.616
 4126TIP3   OH212334   7.616   3.621   2.381
 4126TIP3    H112335   7.679   3.550   2.373
 4126TIP3    H212336   7.570   3.622   2.297
 4127TIP3   OH212337   7.698   3.836   2.535
 4127TIP3    H112338   7.676   3.768   2.472
 4127TIP3    H212339   7.629   3.902   2.525
 4128TIP3   OH212340   6.917   5.105   0.497
 4128TIP3    H112341   7.003   5.077   0.528
 4128TIP3    H212342   6.912   5.074   0.407
 4129TIP3   OH212343   6.366   4.422   0.878
 4129TIP3    H112344   6.443   4.469   0.845
 4129TIP3    H212345   6.373   4.335   0.838
 4130TIP3   OH212346   6.324   5.041   1.277
 4130TIP3    H112347   6.254   4.991   1.234
 4130TIP3    H212348   6.365   4.980   1.337
 4131TIP3   OH212349   6.459   4.876   1.451
 4131TIP3    H112350   6.449   4.813   1.523
 4131TIP3    H212351   6.510   4.947   1.489
 4132TIP3   OH212352   8.238   5.305   1.536
 4132TIP3    H112353   8.197   5.220   1.520
 4132TIP3    H212354   8.241   5.313   1.631
 4133TIP3   OH212355   8.198   5.071   2.020
 4133TIP3    H112356   8.122   5.024   2.054
 4133TIP3    H212357   8.163   5.127   1.951
 4134TIP3   OH212358   8.096   5.069   1.560
 4134TIP3    H112359   8.024   5.118   1.601
 4134TIP3    H212360   8.056   5.029   1.483
 4135TIP3   OH212361   7.990   4.188   1.094
 4135TIP3    H112362   8.083   4.206   1.078
 4135TIP3    H212363   7.974   4.220   1.182
 4136TIP3   OH212364   6.637   4.320   1.817
 4136TIP3    H112365   6.628   4.283   1.729
 4136TIP3    H212366   6.731   4.316   1.835
 4137TIP3   OH212367   6.856   3.990   2.467
 4137TIP3    H112368   6.949   3.992   2.487
 4137TIP3    H212369   6.823   3.911   2.510
 4138TIP3   OH212370   6.827   3.706   1.805
 4138TIP3    H112371   6.881   3.627   1.816
 4138TIP3    H212372   6.890   3.777   1.796
 4139TIP3   OH212373   6.619   3.968   1.879
 4139TIP3    H112374   6.669   3.966   1.798
 4139TIP3    H212375   6.653   4.044   1.926
 4140TIP3   OH212376   6.602   3.465   1.381
 4140TIP3    H112377   6.516   3.460   1.423
 4140TIP3    H212378   6.589   3.525   1.308
 4141TIP3   OH212379   7.675   5.210   0.948
 4141TIP3    H112380   7.683   5.154   0.871
 4141TIP3    H212381   7.750   5.270   0.942
 4142TIP3   OH212382   6.819   3.529   2.198
 4142TIP3    H112383   6.772   3.531   2.281
 4142TIP3    H212384   6.765   3.580   2.138
 4143TIP3   OH212385   6.854   4.992   2.271
 4143TIP3    H112386   6.761   4.971   2.261
 4143TIP3    H212387   6.875   4.966   2.361
 4144TIP3   OH212388   7.064   5.031   1.831
 4144TIP3    H112389   7.012   5.106   1.800
 4144TIP3    H212390   7.147   5.039   1.783
 4145TIP3   OH212391   7.466   5.272   1.967
 4145TIP3    H112392   7.504   5.265   2.055
 4145TIP3    H212393   7.533   5.318   1.916
 4146TIP3   OH212394   7.662   5.413   1.837
 4146TIP3    H112395   7.729   5.358   1.795
 4146TIP3    H212396   7.713   5.477   1.888
 4147TIP3   OH212397   6.720   5.279   1.875
 4147TIP3    H112398   6.630   5.299   1.850
 4147TIP3    H212399   6.743   5.346   1.940
 4148TIP3   OH212400   6.955   5.261   1.734
 4148TIP3    H112401   6.871   5.269   1.779
 4148TIP3    H212402   6.935   5.286   1.643
 4149TIP3   OH212403   7.381   5.292   1.539
 4149TIP3    H112404   7.300   5.307   1.489
 4149TIP3    H212405   7.396   5.374   1.585
 4150TIP3   OH212406   7.638   5.214   1.566
 4150TIP3    H112407   7.545   5.236   1.557
 4150TIP3    H212408   7.684   5.293   1.537
 4151TIP3   OH212409   7.824   5.404   1.489
 4151TIP3    H112410   7.852   5.495   1.477
 4151TIP3    H212411   7.888   5.353   1.439
 4152TIP3   OH212412   6.634   5.061   1.591
 4152TIP3    H112413   6.657   5.036   1.680
 4152TIP3    H212414   6.706   5.029   1.537
 4153TIP3   OH212415   6.830   4.937   1.451
 4153TIP3    H112416   6.841   4.855   1.500
 4153TIP3    H212417   6.916   4.979   1.455
 4154TIP3   OH212418   7.089   5.009   1.490
 4154TIP3    H112419   7.121   4.919   1.480
 4154TIP3    H212420   7.150   5.049   1.552
 4155TIP3   OH212421   7.600   3.641   1.512
 4155TIP3    H112422   7.580   3.589   1.590
 4155TIP3    H212423   7.693   3.622   1.495
 4156TIP3   OH212424   6.909   3.382   1.553
 4156TIP3    H112425   6.820   3.350   1.565
 4156TIP3    H212426   6.963   3.303   1.549
 4157TIP3   OH212427   6.718   3.275   1.206
 4157TIP3    H112428   6.748   3.329   1.133
 4157TIP3    H212429   6.684   3.337   1.270
 4158TIP3   OH212430   7.366   3.422   1.446
 4158TIP3    H112431   7.411   3.472   1.378
 4158TIP3    H212432   7.405   3.454   1.528
 4159TIP3   OH212433   7.849   3.564   1.424
 4159TIP3    H112434   7.870   3.544   1.333
 4159TIP3    H212435   7.867   3.483   1.472
 4160TIP3   OH212436   6.371   4.801   1.005
 4160TIP3    H112437   6.280   4.800   0.974
 4160TIP3    H212438   6.398   4.893   0.997
 4161TIP3   OH212439   6.836   3.419   0.982
 4161TIP3    H112440   6.880   3.358   0.923
 4161TIP3    H212441   6.907   3.474   1.016
 4162TIP3   OH212442   7.327   3.614   1.074
 4162TIP3    H112443   7.386   3.567   1.133
 4162TIP3    H212444   7.340   3.706   1.096
 4163TIP3   OH212445   7.141   3.655   2.455
 4163TIP3    H112446   7.107   3.583   2.508
 4163TIP3    H212447   7.234   3.660   2.477
 4164TIP3   OH212448   7.400   3.657   2.562
 4164TIP3    H112449   7.470   3.662   2.497
 4164TIP3    H212450   7.417   3.575   2.609
 4165TIP3   OH212451   6.512   4.806   0.551
 4165TIP3    H112452   6.480   4.880   0.601
 4165TIP3    H212453   6.526   4.737   0.616
 4166TIP3   OH212454   8.114   5.284   1.848
 4166TIP3    H112455   8.039   5.263   1.793
 4166TIP3    H212456   8.113   5.380   1.853
 4167TIP3   OH212457   0.062   5.219   2.839
 4167TIP3    H112458   0.029   5.305   2.811
 4167TIP3    H212459   0.003   5.156   2.798
 4168TIP3   OH212460   0.127   5.197   3.109
 4168TIP3    H112461   0.053   5.229   3.161
 4168TIP3    H212462   0.095   5.198   3.019
 4169TIP3   OH212463   0.324   5.502   2.880
 4169TIP3    H112464   0.336   5.434   2.947
 4169TIP3    H212465   0.350   5.583   2.924
 4170TIP3   OH212466   8.494   5.990   2.889
 4170TIP3    H112467   8.546   5.911   2.873
 4170TIP3    H212468   8.408   5.957   2.915
 4171TIP3   OH212469   8.440   5.330   3.275
 4171TIP3    H112470   8.377   5.335   3.203
 4171TIP3    H212471   8.461   5.421   3.294
 4172TIP3   OH212472   0.891   4.742   3.241
 4172TIP3    H112473   0.911   4.826   3.282
 4172TIP3    H212474   0.912   4.755   3.148
 4173TIP3   OH212475   0.308   4.905   3.258
 4173TIP3    H112476   0.340   4.816   3.274
 4173TIP3    H212477   0.276   4.902   3.167
 4174TIP3   OH212478   0.341   4.654   2.844
 4174TIP3    H112479   0.403   4.647   2.917
 4174TIP3    H212480   0.391   4.694   2.774
 4175TIP3   OH212481   0.959   4.958   3.411
 4175TIP3    H112482   0.873   4.997   3.399
 4175TIP3    H212483   0.991   4.996   3.493
 4176TIP3   OH212484   8.442   5.417   2.685
 4176TIP3    H112485   8.368   5.474   2.667
 4176TIP3    H212486   8.519   5.471   2.667
 4177TIP3   OH212487   0.492   4.683   3.068
 4177TIP3    H112488   0.457   4.656   3.153
 4177TIP3    H212489   0.550   4.757   3.089
 4178TIP3   OH212490   0.371   5.749   3.010
 4178TIP3    H112491   0.281   5.739   3.039
 4178TIP3    H212492   0.377   5.840   2.983
 4179TIP3   OH212493   0.687   4.631   3.407
 4179TIP3    H112494   0.600   4.659   3.376
 4179TIP3    H212495   0.747   4.661   3.338
 4180TIP3   OH212496   8.483   4.307   3.395
 4180TIP3    H112497   8.501   4.216   3.419
 4180TIP3    H212498   8.490   4.355   3.478
 4181TIP3   OH212499   0.062   5.772   2.703
 4181TIP3    H112500   0.099   5.685   2.689
 4181TIP3    H212501   0.130   5.831   2.671
 4182TIP3   OH212502   0.187   5.535   2.646
 4182TIP3    H112503   0.227   5.480   2.578
 4182TIP3    H212504   0.240   5.519   2.724
 4183TIP3   OH212505   0.599   5.652   3.389
 4183TIP3    H112506   0.585   5.576   3.331
 4183TIP3    H212507   0.583   5.728   3.333
 4184TIP3   OH212508   8.423   5.069   2.655
 4184TIP3    H112509   8.331   5.075   2.629
 4184TIP3    H212510   8.470   5.047   2.574
 4185TIP3   OH212511   8.411   4.831   2.393
 4185TIP3    H112512   8.482   4.887   2.424
 4185TIP3    H212513   8.455   4.760   2.346
 4186TIP3   OH212514   0.794   5.301   3.238
 4186TIP3    H112515   0.710   5.346   3.245
 4186TIP3    H212516   0.824   5.319   3.149
 4187TIP3   OH212517   0.251   5.156   2.639
 4187TIP3    H112518   0.200   5.180   2.717
 4187TIP3    H212519   0.332   5.118   2.675
 4188TIP3   OH212520   0.530   5.192   3.538
 4188TIP3    H112521   0.506   5.269   3.589
 4188TIP3    H212522   0.447   5.153   3.512
 4189TIP3   OH212523   0.099   5.768   3.079
 4189TIP3    H112524   0.109   5.857   3.114
 4189TIP3    H212525   0.087   5.713   3.156
 4190TIP3   OH212526   0.108   5.011   2.458
 4190TIP3    H112527   0.166   5.068   2.509
 4190TIP3    H212528   0.137   5.021   2.368
 4191TIP3   OH212529   0.597   4.218   2.495
 4191TIP3    H112530   0.519   4.233   2.548
 4191TIP3    H212531   0.605   4.296   2.441
 4192TIP3   OH212532   0.405   5.596   2.052
 4192TIP3    H112533   0.409   5.690   2.032
 4192TIP3    H212534   0.492   5.563   2.030
 4193TIP3   OH212535   0.829   6.012   3.447
 4193TIP3    H112536   0.836   5.917   3.457
 4193TIP3    H212537   0.748   6.035   3.493
 4194TIP3   OH212538   8.418   5.842   2.138
 4194TIP3    H112539   8.476   5.781   2.092
 4194TIP3    H212540   8.458   5.850   2.225
 4195TIP3   OH212541   0.010   5.850   2.400
 4195TIP3    H112542  -0.051   5.782   2.428
 4195TIP3    H212543   0.088   5.838   2.454
 4196TIP3   OH212544   0.720   5.127   3.730
 4196TIP3    H112545   0.650   5.143   3.666
 4196TIP3    H212546   0.739   5.033   3.721
 4197TIP3   OH212547   0.294   4.482   3.717
 4197TIP3    H112548   0.367   4.454   3.772
 4197TIP3    H212549   0.229   4.515   3.779
 4198TIP3   OH212550   0.493   4.893   3.604
 4198TIP3    H112551   0.468   4.883   3.695
 4198TIP3    H212552   0.430   4.955   3.568
 4199TIP3   OH212553   0.192   5.016   2.205
 4199TIP3    H112554   0.132   5.002   2.132
 4199TIP3    H212555   0.271   5.053   2.165
 4200TIP3   OH212556   8.363   4.432   2.430
 4200TIP3    H112557   8.326   4.456   2.514
 4200TIP3    H212558   8.337   4.341   2.417
 4201TIP3   OH212559   0.061   4.871   2.781
 4201TIP3    H112560   0.003   4.941   2.753
 4201TIP3    H212561   0.103   4.841   2.701
 4202TIP3   OH212562   0.269   5.100   3.822
 4202TIP3    H112563   0.269   5.015   3.865
 4202TIP3    H212564   0.351   5.141   3.850
 4203TIP3   OH212565   0.231   4.862   2.993
 4203TIP3    H112566   0.168   4.889   2.926
 4203TIP3    H212567   0.272   4.783   2.957
 4204TIP3   OH212568   0.303   5.051   3.487
 4204TIP3    H112569   0.298   5.003   3.404
 4204TIP3    H212570   0.249   5.129   3.473
 4205TIP3   OH212571   8.419   4.521   3.118
 4205TIP3    H112572   8.346   4.503   3.179
 4205TIP3    H212573   8.495   4.530   3.175
 4206TIP3   OH212574   0.368   4.641   3.316
 4206TIP3    H112575   0.344   4.665   3.405
 4206TIP3    H212576   0.298   4.582   3.287
 4207TIP3   OH212577   0.555   6.346   3.540
 4207TIP3    H112578   0.549   6.364   3.447
 4207TIP3    H212579   0.630   6.398   3.570
 4208TIP3   OH212580   0.016   4.881   3.162
 4208TIP3    H112581   0.088   4.865   3.101
 4208TIP3    H212582   0.021   4.809   3.225
 4209TIP3   OH212583   8.468   4.777   3.423
 4209TIP3    H112584   8.406   4.848   3.404
 4209TIP3    H212585   8.533   4.817   3.481
 4210TIP3   OH212586   0.566   5.450   3.211
 4210TIP3    H112587   0.599   5.500   3.137
 4210TIP3    H212588   0.487   5.407   3.178
 4211TIP3   OH212589   0.118   4.508   2.497
 4211TIP3    H112590   0.027   4.496   2.468
 4211TIP3    H212591   0.130   4.602   2.498
 4212TIP3   OH212592   0.032   5.497   3.558
 4212TIP3    H112593   0.072   5.471   3.641
 4212TIP3    H212594  -0.011   5.580   3.578
 4213TIP3   OH212595   0.199   4.769   2.562
 4213TIP3    H112596   0.294   4.765   2.573
 4213TIP3    H212597   0.185   4.845   2.506
 4214TIP3   OH212598   8.163   5.366   2.535
 4214TIP3    H112599   8.239   5.347   2.479
 4214TIP3    H212600   8.168   5.302   2.605
 4215TIP3   OH212601   8.505   5.289   3.943
 4215TIP3    H112602   8.420   5.282   3.899
 4215TIP3    H212603   8.562   5.329   3.878
 4216TIP3   OH212604   0.240   5.764   3.567
 4216TIP3    H112605   0.151   5.746   3.596
 4216TIP3    H212606   0.264   5.844   3.613
 4217TIP3   OH212607   0.601   4.854   2.390
 4217TIP3    H112608   0.542   4.809   2.329
 4217TIP3    H212609   0.607   4.943   2.356
 4218TIP3   OH212610   0.847   5.735   3.470
 4218TIP3    H112611   0.754   5.716   3.469
 4218TIP3    H212612   0.879   5.700   3.387
 4219TIP3   OH212613   0.337   5.663   2.313
 4219TIP3    H112614   0.277   5.596   2.346
 4219TIP3    H212615   0.359   5.634   2.225
 4220TIP3   OH212616   0.373   5.307   3.077
 4220TIP3    H112617   0.284   5.285   3.104
 4220TIP3    H212618   0.410   5.224   3.047
 4221TIP3   OH212619   0.245   5.526   3.285
 4221TIP3    H112620   0.150   5.537   3.292
 4221TIP3    H212621   0.265   5.449   3.337
 4222TIP3   OH212622   0.118   5.454   2.246
 4222TIP3    H112623   0.163   5.407   2.316
 4222TIP3    H212624   0.071   5.386   2.197
 4223TIP3   OH212625   0.355   6.054   3.369
 4223TIP3    H112626   0.310   5.974   3.342
 4223TIP3    H212627   0.347   6.113   3.293
 4224TIP3   OH212628   0.425   5.868   2.031
 4224TIP3    H112629   0.441   5.917   1.951
 4224TIP3    H212630   0.355   5.917   2.076
 4225TIP3   OH212631   0.273   5.352   2.450
 4225TIP3    H112632   0.260   5.281   2.513
 4225TIP3    H212633   0.364   5.345   2.423
 4226TIP3   OH212634   0.292   4.708   3.569
 4226TIP3    H112635   0.373   4.752   3.594
 4226TIP3    H212636   0.291   4.628   3.622
 4227TIP3   OH212637   0.201   4.442   2.746
 4227TIP3    H112638   0.175   4.461   2.656
 4227TIP3    H212639   0.260   4.514   2.769
 4228TIP3   OH212640   8.249   4.685   2.937
 4228TIP3    H112641   8.289   4.752   2.883
 4228TIP3    H212642   8.318   4.621   2.953
 4229TIP3   OH212643   0.121   4.905   3.657
 4229TIP3    H112644   0.173   4.982   3.636
 4229TIP3    H212645   0.177   4.831   3.633
 4230TIP3   OH212646   0.033   4.335   2.936
 4230TIP3    H112647   0.014   4.410   2.993
 4230TIP3    H212648   0.098   4.368   2.874
 4231TIP3   OH212649   0.758   4.862   3.626
 4231TIP3    H112650   0.663   4.867   3.623
 4231TIP3    H212651   0.782   4.815   3.547
 4232TIP3   OH212652   0.441   5.049   3.006
 4232TIP3    H112653   0.357   5.003   3.017
 4232TIP3    H212654   0.500   5.003   3.065
 4233TIP3   OH212655   0.398   6.020   2.962
 4233TIP3    H112656   0.357   6.061   2.886
 4233TIP3    H212657   0.492   6.034   2.949
 4234TIP3   OH212658   0.286   5.970   3.732
 4234TIP3    H112659   0.245   5.925   3.806
 4234TIP3    H212660   0.360   6.017   3.772
 4235TIP3   OH212661   0.077   5.638   2.043
 4235TIP3    H112662   0.104   5.583   2.117
 4235TIP3    H212663   0.142   5.621   1.975
 4236TIP3   OH212664   8.250   5.303   2.183
 4236TIP3    H112665   8.285   5.308   2.272
 4236TIP3    H212666   8.263   5.212   2.157
 4237TIP3   OH212667   0.399   5.544   3.552
 4237TIP3    H112668   0.466   5.578   3.493
 4237TIP3    H212669   0.332   5.612   3.553
 4238TIP3   OH212670   7.962   4.776   2.489
 4238TIP3    H112671   7.928   4.750   2.404
 4238TIP3    H212672   8.057   4.761   2.483
 4239TIP3   OH212673   0.310   5.519   4.010
 4239TIP3    H112674   0.395   5.528   3.966
 4239TIP3    H212675   0.314   5.432   4.051
 4240TIP3   OH212676   0.405   5.118   2.065
 4240TIP3    H112677   0.386   5.071   1.984
 4240TIP3    H212678   0.374   5.207   2.049
 4241TIP3   OH212679   8.381   4.548   3.598
 4241TIP3    H112680   8.392   4.582   3.509
 4241TIP3    H212681   8.364   4.626   3.651
 4242TIP3   OH212682   8.390   5.221   3.540
 4242TIP3    H112683   8.454   5.167   3.492
 4242TIP3    H212684   8.380   5.299   3.485
 4243TIP3   OH212685   0.520   5.134   3.958
 4243TIP3    H112686   0.550   5.043   3.965
 4243TIP3    H212687   0.583   5.175   3.900
 4244TIP3   OH212688   0.528   5.391   3.729
 4244TIP3    H112689   0.471   5.452   3.682
 4244TIP3    H212690   0.616   5.408   3.694
 4245TIP3   OH212691   8.516   4.333   3.791
 4245TIP3    H112692   8.483   4.418   3.761
 4245TIP3    H212693   8.458   4.269   3.750
 4246TIP3   OH212694   0.190   4.864   3.963
 4246TIP3    H112695   0.169   4.930   4.029
 4246TIP3    H212696   0.116   4.864   3.904
 4247TIP3   OH212697   0.428   4.827   3.851
 4247TIP3    H112698   0.345   4.818   3.897
 4247TIP3    H212699   0.494   4.807   3.917
 4248TIP3   OH212700   0.624   4.802   4.038
 4248TIP3    H112701   0.629   4.707   4.050
 4248TIP3    H212702   0.608   4.836   4.126
 4249TIP3   OH212703   0.207   4.420   3.980
 4249TIP3    H112704   0.250   4.334   3.990
 4249TIP3    H212705   0.134   4.404   3.921
 4250TIP3   OH212706   0.222   4.624   4.162
 4250TIP3    H112707   0.225   4.558   4.093
 4250TIP3    H212708   0.132   4.621   4.194
 4251TIP3   OH212709   0.665   6.086   2.947
 4251TIP3    H112710   0.678   6.096   3.041
 4251TIP3    H212711   0.684   6.172   2.910
 4252TIP3   OH212712   0.676   6.105   3.225
 4252TIP3    H112713   0.624   6.024   3.223
 4252TIP3    H212714   0.744   6.087   3.290
 4253TIP3   OH212715   0.708   5.812   3.791
 4253TIP3    H112716   0.655   5.823   3.871
 4253TIP3    H212717   0.762   5.891   3.787
 4254TIP3   OH212718   0.541   5.317   2.407
 4254TIP3    H112719   0.602   5.382   2.372
 4254TIP3    H212720   0.587   5.278   2.481
 4255TIP3   OH212721   0.667   5.178   2.606
 4255TIP3    H112722   0.601   5.134   2.659
 4255TIP3    H212723   0.732   5.209   2.670
 4256TIP3   OH212724   0.726   5.587   3.034
 4256TIP3    H112725   0.776   5.517   2.992
 4256TIP3    H212726   0.723   5.657   2.969
 4257TIP3   OH212727   0.541   5.863   3.213
 4257TIP3    H112728   0.458   5.873   3.261
 4257TIP3    H212729   0.516   5.815   3.134
 4258TIP3   OH212730   0.595   5.094   2.256
 4258TIP3    H112731   0.530   5.092   2.186
 4258TIP3    H212732   0.572   5.170   2.309
 4259TIP3   OH212733   0.441   4.750   2.197
 4259TIP3    H112734   0.403   4.785   2.116
 4259TIP3    H212735   0.431   4.655   2.188
 4260TIP3   OH212736   0.476   5.028   2.737
 4260TIP3    H112737   0.483   4.934   2.722
 4260TIP3    H212738   0.471   5.037   2.832
 4261TIP3   OH212739   0.766   5.459   3.610
 4261TIP3    H112740   0.829   5.390   3.591
 4261TIP3    H212741   0.761   5.510   3.529
 4262TIP3   OH212742   0.933   5.243   3.599
 4262TIP3    H112743   0.860   5.203   3.645
 4262TIP3    H212744   1.008   5.187   3.620
 4263TIP3   OH212745   0.405   4.481   2.175
 4263TIP3    H112746   0.474   4.449   2.234
 4263TIP3    H212747   0.327   4.432   2.201
 4264TIP3   OH212748   0.479   4.756   2.624
 4264TIP3    H112749   0.522   4.671   2.635
 4264TIP3    H212750   0.522   4.795   2.548
 4265TIP3   OH212751   0.630   4.910   3.154
 4265TIP3    H112752   0.711   4.932   3.108
 4265TIP3    H212753   0.639   4.952   3.239
 4266TIP3   OH212754   0.711   5.072   3.369
 4266TIP3    H112755   0.644   5.104   3.429
 4266TIP3    H212756   0.740   5.150   3.321
 4267TIP3   OH212757   1.150   4.683   3.919
 4267TIP3    H112758   1.212   4.619   3.884
 4267TIP3    H212759   1.115   4.728   3.841
 4268TIP3   OH212760   0.581   4.502   2.679
 4268TIP3    H112761   0.626   4.490   2.763
 4268TIP3    H212762   0.525   4.425   2.671
 4269TIP3   OH212763   1.008   4.787   3.712
 4269TIP3    H112764   0.922   4.828   3.721
 4269TIP3    H212765   0.992   4.707   3.663
 4270TIP3   OH212766   0.638   4.425   2.319
 4270TIP3    H112767   0.681   4.364   2.259
 4270TIP3    H212768   0.694   4.503   2.319
 4271TIP3   OH212769   0.229   5.950   2.589
 4271TIP3    H112770   0.287   5.950   2.513
 4271TIP3    H212771   0.262   6.020   2.646
 4272TIP3   OH212772   0.164   6.197   3.512
 4272TIP3    H112773   0.230   6.143   3.470
 4272TIP3    H212774   0.214   6.262   3.562
 4273TIP3   OH212775   0.917   4.543   3.611
 4273TIP3    H112776   0.829   4.534   3.574
 4273TIP3    H212777   0.954   4.455   3.607
 4274TIP3   OH212778   0.100   6.031   3.176
 4274TIP3    H112779   0.026   6.061   3.124
 4274TIP3    H212780   0.162   6.104   3.175
 4275TIP3   OH212781   0.324   6.216   3.145
 4275TIP3    H112782   0.302   6.297   3.098
 4275TIP3    H212783   0.345   6.153   3.077
 4276TIP3   OH212784   0.158   4.472   3.248
 4276TIP3    H112785   0.107   4.402   3.289
 4276TIP3    H212786   0.218   4.426   3.189
 4277TIP3   OH212787   0.629   4.376   3.139
 4277TIP3    H112788   0.667   4.425   3.066
 4277TIP3    H212789   0.535   4.393   3.134
 4278TIP3   OH212790   0.739   4.457   2.901
 4278TIP3    H112791   0.808   4.398   2.873
 4278TIP3    H212792   0.775   4.545   2.888
 4279TIP3   OH212793   8.354   4.211   3.161
 4279TIP3    H112794   8.433   4.174   3.122
 4279TIP3    H212795   8.384   4.251   3.243
 4280TIP3   OH212796   0.349   4.340   3.103
 4280TIP3    H112797   0.369   4.299   3.019
 4280TIP3    H212798   0.347   4.267   3.165
 4281TIP3   OH212799   0.409   4.278   2.683
 4281TIP3    H112800   0.327   4.325   2.699
 4281TIP3    H212801   0.397   4.194   2.727
 4282TIP3   OH212802   8.295   4.495   2.690
 4282TIP3    H112803   8.263   4.420   2.740
 4282TIP3    H212804   8.369   4.528   2.741
 4283TIP3   OH212805   0.375   5.930   2.358
 4283TIP3    H112806   0.368   5.836   2.345
 4283TIP3    H212807   0.331   5.969   2.283
 4284TIP3   OH212808   0.672   4.534   4.052
 4284TIP3    H112809   0.694   4.503   4.140
 4284TIP3    H212810   0.756   4.532   4.005
 4285TIP3   OH212811   0.577   6.072   3.545
 4285TIP3    H112812   0.500   6.046   3.495
 4285TIP3    H212813   0.569   6.167   3.553
 4286TIP3   OH212814   1.847   5.459   2.282
 4286TIP3    H112815   1.809   5.546   2.272
 4286TIP3    H212816   1.778   5.399   2.253
 4287TIP3   OH212817   1.843   5.453   2.709
 4287TIP3    H112818   1.896   5.437   2.787
 4287TIP3    H212819   1.803   5.368   2.690
 4288TIP3   OH212820   1.151   5.332   3.060
 4288TIP3    H112821   1.181   5.271   3.126
 4288TIP3    H212822   1.232   5.369   3.023
 4289TIP3   OH212823   2.112   5.761   2.379
 4289TIP3    H112824   2.104   5.696   2.448
 4289TIP3    H212825   2.136   5.842   2.425
 4290TIP3   OH212826   1.140   5.750   2.774
 4290TIP3    H112827   1.126   5.656   2.766
 4290TIP3    H212828   1.205   5.759   2.844
 4291TIP3   OH212829   0.828   4.956   2.533
 4291TIP3    H112830   0.785   5.038   2.555
 4291TIP3    H212831   0.760   4.904   2.491
 4292TIP3   OH212832   0.897   5.246   2.745
 4292TIP3    H112833   0.945   5.169   2.776
 4292TIP3    H212834   0.961   5.295   2.693
 4293TIP3   OH212835   1.769   6.198   2.392
 4293TIP3    H112836   1.797   6.130   2.330
 4293TIP3    H212837   1.776   6.155   2.478
 4294TIP3   OH212838   1.671   5.680   2.727
 4294TIP3    H112839   1.711   5.598   2.699
 4294TIP3    H212840   1.745   5.735   2.754
 4295TIP3   OH212841   2.685   5.000   2.730
 4295TIP3    H112842   2.706   5.082   2.773
 4295TIP3    H212843   2.712   5.013   2.639
 4296TIP3   OH212844   2.064   5.170   2.751
 4296TIP3    H112845   2.102   5.087   2.777
 4296TIP3    H212846   2.027   5.153   2.664
 4297TIP3   OH212847   1.419   4.831   2.711
 4297TIP3    H112848   1.398   4.904   2.654
 4297TIP3    H212849   1.365   4.759   2.679
 4298TIP3   OH212850   2.116   4.927   2.345
 4298TIP3    H112851   2.181   4.920   2.415
 4298TIP3    H212852   2.165   4.961   2.270
 4299TIP3   OH212853   1.044   5.035   2.840
 4299TIP3    H112854   1.127   5.017   2.885
 4299TIP3    H212855   1.049   4.983   2.760
 4300TIP3   OH212856   1.469   5.247   2.638
 4300TIP3    H112857   1.562   5.227   2.647
 4300TIP3    H212858   1.430   5.166   2.606
 4301TIP3   OH212859   2.747   5.214   2.901
 4301TIP3    H112860   2.662   5.256   2.893
 4301TIP3    H212861   2.786   5.253   2.979
 4302TIP3   OH212862   1.403   4.827   3.163
 4302TIP3    H112863   1.350   4.861   3.090
 4302TIP3    H212864   1.348   4.842   3.240
 4303TIP3   OH212865   1.689   5.666   2.184
 4303TIP3    H112866   1.687   5.658   2.089
 4303TIP3    H212867   1.658   5.755   2.202
 4304TIP3   OH212868   1.503   5.605   2.933
 4304TIP3    H112869   1.446   5.677   2.963
 4304TIP3    H212870   1.558   5.645   2.866
 4305TIP3   OH212871   2.283   4.946   2.561
 4305TIP3    H112872   2.242   4.927   2.645
 4305TIP3    H212873   2.340   5.020   2.578
 4306TIP3   OH212874   1.289   4.934   2.934
 4306TIP3    H112875   1.344   5.009   2.959
 4306TIP3    H212876   1.335   4.892   2.862
 4307TIP3   OH212877   1.325   5.805   3.018
 4307TIP3    H112878   1.320   5.899   3.002
 4307TIP3    H212879   1.256   5.787   3.082
 4308TIP3   OH212880   0.717   5.491   2.283
 4308TIP3    H112881   0.681   5.505   2.196
 4308TIP3    H212882   0.748   5.578   2.311
 4309TIP3   OH212883   2.155   6.008   2.522
 4309TIP3    H112884   2.068   6.001   2.560
 4309TIP3    H212885   2.155   6.093   2.477
 4310TIP3   OH212886   2.482   4.885   2.893
 4310TIP3    H112887   2.397   4.915   2.861
 4310TIP3    H212888   2.545   4.916   2.828
 4311TIP3   OH212889   1.744   4.522   2.887
 4311TIP3    H112890   1.736   4.430   2.914
 4311TIP3    H212891   1.668   4.565   2.927
 4312TIP3   OH212892   1.858   6.034   2.184
 4312TIP3    H112893   1.905   5.952   2.171
 4312TIP3    H212894   1.918   6.102   2.155
 4313TIP3   OH212895   2.005   5.812   2.127
 4313TIP3    H112896   2.022   5.739   2.069
 4313TIP3    H212897   2.044   5.786   2.210
 4314TIP3   OH212898   2.388   5.905   2.868
 4314TIP3    H112899   2.376   5.830   2.810
 4314TIP3    H212900   2.374   5.981   2.812
 4315TIP3   OH212901   1.675   5.301   2.126
 4315TIP3    H112902   1.600   5.350   2.094
 4315TIP3    H212903   1.734   5.295   2.050
 4316TIP3   OH212904   1.654   5.102   1.838
 4316TIP3    H112905   1.720   5.151   1.887
 4316TIP3    H212906   1.703   5.036   1.789
 4317TIP3   OH212907   2.578   5.555   2.731
 4317TIP3    H112908   2.495   5.603   2.731
 4317TIP3    H212909   2.615   5.572   2.645
 4318TIP3   OH212910   2.040   5.398   2.100
 4318TIP3    H112911   1.984   5.423   2.173
 4318TIP3    H212912   2.122   5.369   2.141
 4319TIP3   OH212913   2.267   5.421   3.040
 4319TIP3    H112914   2.267   5.505   3.087
 4319TIP3    H212915   2.184   5.421   2.992
 4320TIP3   OH212916   1.259   5.387   2.513
 4320TIP3    H112917   1.225   5.333   2.441
 4320TIP3    H212918   1.339   5.343   2.541
 4321TIP3   OH212919   1.430   5.797   2.638
 4321TIP3    H112920   1.385   5.713   2.627
 4321TIP3    H212921   1.520   5.773   2.659
 4322TIP3   OH212922   1.381   5.365   2.876
 4322TIP3    H112923   1.416   5.332   2.794
 4322TIP3    H212924   1.431   5.445   2.893
 4323TIP3   OH212925   1.916   6.002   2.652
 4323TIP3    H112926   1.906   6.082   2.703
 4323TIP3    H212927   1.908   5.931   2.716
 4324TIP3   OH212928   1.536   5.902   3.195
 4324TIP3    H112929   1.477   5.960   3.244
 4324TIP3    H212930   1.478   5.850   3.140
 4325TIP3   OH212931   1.873   5.252   1.938
 4325TIP3    H112932   1.934   5.308   1.986
 4325TIP3    H212933   1.898   5.263   1.846
 4326TIP3   OH212934   1.294   5.461   3.329
 4326TIP3    H112935   1.296   5.553   3.355
 4326TIP3    H212936   1.201   5.439   3.328
 4327TIP3   OH212937   1.601   5.933   2.193
 4327TIP3    H112938   1.689   5.969   2.200
 4327TIP3    H212939   1.554   5.995   2.137
 4328TIP3   OH212940   1.330   6.063   3.286
 4328TIP3    H112941   1.302   6.078   3.195
 4328TIP3    H212942   1.248   6.049   3.333
 4329TIP3   OH212943   2.386   4.479   1.987
 4329TIP3    H112944   2.307   4.499   2.038
 4329TIP3    H212945   2.398   4.555   1.930
 4330TIP3   OH212946   1.141   5.225   2.310
 4330TIP3    H112947   1.065   5.268   2.271
 4330TIP3    H212948   1.111   5.138   2.333
 4331TIP3   OH212949   2.201   5.853   1.533
 4331TIP3    H112950   2.200   5.948   1.518
 4331TIP3    H212951   2.292   5.828   1.519
 4332TIP3   OH212952   0.921   5.618   3.235
 4332TIP3    H112953   0.853   5.601   3.170
 4332TIP3    H212954   0.955   5.531   3.258
 4333TIP3   OH212955   0.762   5.827   2.880
 4333TIP3    H112956   0.852   5.843   2.909
 4333TIP3    H212957   0.714   5.904   2.909
 4334TIP3   OH212958   2.622   6.259   2.933
 4334TIP3    H112959   2.627   6.165   2.948
 4334TIP3    H212960   2.543   6.286   2.979
 4335TIP3   OH212961   1.727   6.047   3.058
 4335TIP3    H112962   1.722   6.137   3.089
 4335TIP3    H212963   1.660   6.001   3.109
 4336TIP3   OH212964   1.503   6.145   2.017
 4336TIP3    H112965   1.461   6.131   1.932
 4336TIP3    H212966   1.475   6.232   2.044
 4337TIP3   OH212967   0.919   5.993   2.411
 4337TIP3    H112968   0.907   6.024   2.501
 4337TIP3    H212969   0.848   5.931   2.397
 4338TIP3   OH212970   1.711   6.073   1.643
 4338TIP3    H112971   1.765   6.002   1.609
 4338TIP3    H212972   1.745   6.088   1.731
 4339TIP3   OH212973   1.759   6.124   1.912
 4339TIP3    H112974   1.674   6.123   1.957
 4339TIP3    H212975   1.822   6.096   1.979
 4340TIP3   OH212976   2.510   5.382   3.211
 4340TIP3    H112977   2.430   5.391   3.160
 4340TIP3    H212978   2.531   5.289   3.209
 4341TIP3   OH212979   1.123   5.802   3.203
 4341TIP3    H112980   1.171   5.795   3.285
 4341TIP3    H212981   1.051   5.740   3.211
 4342TIP3   OH212982   1.508   4.615   3.014
 4342TIP3    H112983   1.424   4.581   2.984
 4342TIP3    H212984   1.486   4.694   3.063
 4343TIP3   OH212985   2.053   4.730   3.214
 4343TIP3    H112986   2.122   4.707   3.275
 4343TIP3    H212987   1.972   4.714   3.262
 4344TIP3   OH212988   2.271   5.155   3.124
 4344TIP3    H112989   2.231   5.152   3.211
 4344TIP3    H212990   2.257   5.245   3.094
 4345TIP3   OH212991   1.949   5.270   1.681
 4345TIP3    H112992   1.905   5.254   1.597
 4345TIP3    H212993   2.032   5.311   1.656
 4346TIP3   OH212994   1.661   4.657   1.985
 4346TIP3    H112995   1.623   4.661   2.073
 4346TIP3    H212996   1.621   4.579   1.946
 4347TIP3   OH212997   1.445   5.142   3.027
 4347TIP3    H112998   1.397   5.152   3.109
 4347TIP3    H212999   1.426   5.222   2.978
 4348TIP3   OH213000   1.326   5.027   2.543
 4348TIP3    H113001   1.237   5.002   2.569
 4348TIP3    H213002   1.337   4.991   2.455
 4349TIP3   OH213003   1.808   5.102   2.269
 4349TIP3    H113004   1.758   5.171   2.226
 4349TIP3    H213005   1.867   5.068   2.202
 4350TIP3   OH213006   1.994   5.370   3.349
 4350TIP3    H113007   1.968   5.301   3.410
 4350TIP3    H213008   2.087   5.385   3.368
 4351TIP3   OH213009   1.973   5.116   2.498
 4351TIP3    H113010   1.906   5.140   2.433
 4351TIP3    H213011   2.019   5.042   2.458
 4352TIP3   OH213012   1.274   5.157   3.243
 4352TIP3    H113013   1.300   5.217   3.313
 4352TIP3    H213014   1.258   5.074   3.288
 4353TIP3   OH213015   1.324   4.640   1.954
 4353TIP3    H113016   1.312   4.643   2.048
 4353TIP3    H213017   1.246   4.682   1.918
 4354TIP3   OH213018   0.865   4.682   2.823
 4354TIP3    H113019   0.940   4.714   2.873
 4354TIP3    H213020   0.903   4.655   2.739
 4355TIP3   OH213021   0.792   4.659   2.333
 4355TIP3    H113022   0.836   4.692   2.255
 4355TIP3    H213023   0.728   4.726   2.355
 4356TIP3   OH213024   2.006   5.369   2.925
 4356TIP3    H113025   2.033   5.303   2.862
 4356TIP3    H213026   1.967   5.319   2.997
 4357TIP3   OH213027   1.685   4.818   2.596
 4357TIP3    H113028   1.607   4.820   2.652
 4357TIP3    H213029   1.758   4.809   2.657
 4358TIP3   OH213030   1.089   4.900   2.605
 4358TIP3    H113031   1.000   4.905   2.571
 4358TIP3    H213032   1.116   4.810   2.589
 4359TIP3   OH213033   1.342   4.900   2.300
 4359TIP3    H113034   1.437   4.911   2.287
 4359TIP3    H213035   1.304   4.918   2.214
 4360TIP3   OH213036   2.144   4.907   2.802
 4360TIP3    H113037   2.123   4.923   2.894
 4360TIP3    H213038   2.077   4.846   2.773
 4361TIP3   OH213039   1.221   4.928   2.056
 4361TIP3    H113040   1.155   4.879   2.006
 4361TIP3    H213041   1.276   4.969   1.989
 4362TIP3   OH213042   2.334   6.608   3.028
 4362TIP3    H113043   2.331   6.627   2.934
 4362TIP3    H213044   2.413   6.652   3.059
 4363TIP3   OH213045   1.279   5.721   3.438
 4363TIP3    H113046   1.359   5.741   3.486
 4363TIP3    H213047   1.210   5.725   3.505
 4364TIP3   OH213048   1.736   5.182   2.703
 4364TIP3    H113049   1.803   5.132   2.655
 4364TIP3    H213050   1.735   5.142   2.790
 4365TIP3   OH213051   1.237   4.652   2.593
 4365TIP3    H113052   1.206   4.577   2.644
 4365TIP3    H213053   1.264   4.615   2.509
 4366TIP3   OH213054   1.713   5.088   2.971
 4366TIP3    H113055   1.625   5.118   2.995
 4366TIP3    H213056   1.772   5.139   3.026
 4367TIP3   OH213057   1.430   5.464   2.080
 4367TIP3    H113058   1.364   5.396   2.062
 4367TIP3    H213059   1.430   5.472   2.175
 4368TIP3   OH213060   2.342   5.697   2.692
 4368TIP3    H113061   2.377   5.745   2.618
 4368TIP3    H213062   2.261   5.657   2.658
 4369TIP3   OH213063   1.914   4.755   1.983
 4369TIP3    H113064   1.820   4.735   1.980
 4369TIP3    H213065   1.918   4.851   1.993
 4370TIP3   OH213066   1.849   5.777   3.096
 4370TIP3    H113067   1.901   5.768   3.176
 4370TIP3    H213068   1.813   5.866   3.102
 4371TIP3   OH213069   1.975   5.019   2.057
 4371TIP3    H113070   2.070   5.022   2.067
 4371TIP3    H213071   1.954   5.096   2.003
 4372TIP3   OH213072   1.151   5.475   2.748
 4372TIP3    H113073   1.181   5.451   2.660
 4372TIP3    H213074   1.208   5.426   2.807
 4373TIP3   OH213075   1.597   5.607   1.917
 4373TIP3    H113076   1.555   5.693   1.914
 4373TIP3    H213077   1.540   5.553   1.972
 4374TIP3   OH213078   1.024   5.391   3.370
 4374TIP3    H113079   1.030   5.365   3.462
 4374TIP3    H213080   0.953   5.337   3.335
 4375TIP3   OH213081   1.759   5.521   3.388
 4375TIP3    H113082   1.693   5.461   3.353
 4375TIP3    H213083   1.843   5.483   3.360
 4376TIP3   OH213084   1.999   6.058   2.982
 4376TIP3    H113085   1.904   6.049   2.988
 4376TIP3    H213086   2.025   6.101   3.063
 4377TIP3   OH213087   2.393   5.112   1.879
 4377TIP3    H113088   2.336   5.066   1.817
 4377TIP3    H213089   2.399   5.201   1.846
 4378TIP3   OH213090   2.636   5.975   2.962
 4378TIP3    H113091   2.541   5.965   2.954
 4378TIP3    H213092   2.670   5.948   2.876
 4379TIP3   OH213093   2.120   5.926   1.796
 4379TIP3    H113094   2.095   5.853   1.853
 4379TIP3    H213095   2.142   5.884   1.712
 4380TIP3   OH213096   2.108   5.563   2.591
 4380TIP3    H113097   2.018   5.542   2.615
 4380TIP3    H213098   2.144   5.482   2.555
 4381TIP3   OH213099   0.828   5.080   2.109
 4381TIP3    H113100   0.870   5.163   2.127
 4381TIP3    H213101   0.748   5.081   2.161
 4382TIP3   OH213102   1.541   6.122   2.853
 4382TIP3    H113103   1.577   6.195   2.803
 4382TIP3    H213104   1.615   6.088   2.904
 4383TIP3   OH213105   1.161   6.023   2.263
 4383TIP3    H113106   1.085   6.073   2.234
 4383TIP3    H213107   1.233   6.087   2.263
 4384TIP3   OH213108   1.909   5.780   2.827
 4384TIP3    H113109   1.892   5.775   2.921
 4384TIP3    H213110   1.993   5.737   2.816
 4385TIP3   OH213111   1.895   5.657   1.701
 4385TIP3    H113112   1.940   5.641   1.784
 4385TIP3    H213113   1.810   5.616   1.711
 4386TIP3   OH213114   2.149   6.286   2.865
 4386TIP3    H113115   2.075   6.226   2.873
 4386TIP3    H213116   2.125   6.344   2.793
 4387TIP3   OH213117   2.209   6.128   1.512
 4387TIP3    H113118   2.243   6.194   1.452
 4387TIP3    H213119   2.133   6.170   1.554
 4388TIP3   OH213120   1.232   4.904   3.370
 4388TIP3    H113121   1.137   4.911   3.375
 4388TIP3    H213122   1.256   4.848   3.444
 4389TIP3   OH213123   2.062   5.612   1.925
 4389TIP3    H113124   2.045   5.537   1.982
 4389TIP3    H213125   2.156   5.606   1.905
 4390TIP3   OH213126   0.973   5.998   3.010
 4390TIP3    H113127   1.022   5.938   3.068
 4390TIP3    H213128   0.980   6.083   3.053
 4391TIP3   OH213129   1.246   5.626   1.710
 4391TIP3    H113130   1.255   5.535   1.680
 4391TIP3    H213131   1.220   5.619   1.802
 4392TIP3   OH213132   1.191   5.638   1.983
 4392TIP3    H113133   1.276   5.609   2.016
 4392TIP3    H213134   1.193   5.733   1.989
 4393TIP3   OH213135   0.920   5.333   2.183
 4393TIP3    H113136   0.850   5.374   2.234
 4393TIP3    H213137   0.936   5.394   2.111
 4394TIP3   OH213138   2.079   4.962   3.064
 4394TIP3    H113139   2.156   5.009   3.096
 4394TIP3    H213140   2.072   4.886   3.121
 4395TIP3   OH213141   1.970   4.708   2.252
 4395TIP3    H113142   1.949   4.726   2.160
 4395TIP3    H213143   2.012   4.788   2.283
 4396TIP3   OH213144   1.455   5.836   1.918
 4396TIP3    H113145   1.371   5.861   1.956
 4396TIP3    H213146   1.477   5.909   1.860
 4397TIP3   OH213147   1.623   4.908   2.340
 4397TIP3    H113148   1.686   4.976   2.315
 4397TIP3    H213149   1.643   4.889   2.432
 4398TIP3   OH213150   1.918   5.203   3.127
 4398TIP3    H113151   1.944   5.248   3.207
 4398TIP3    H213152   1.968   5.122   3.127
 4399TIP3   OH213153   1.784   4.606   2.432
 4399TIP3    H113154   1.762   4.683   2.484
 4399TIP3    H213155   1.853   4.636   2.372
 4400TIP3   OH213156   1.203   5.911   2.001
 4400TIP3    H113157   1.183   5.977   1.934
 4400TIP3    H213158   1.192   5.958   2.084
 4401TIP3   OH213159   1.298   4.627   2.233
 4401TIP3    H113160   1.284   4.716   2.264
 4401TIP3    H213161   1.392   4.613   2.239
 4402TIP3   OH213162   2.539   5.114   3.121
 4402TIP3    H113163   2.443   5.113   3.126
 4402TIP3    H213164   2.559   5.073   3.037
 4403TIP3   OH213165   2.199   5.306   2.501
 4403TIP3    H113166   2.123   5.249   2.514
 4403TIP3    H213167   2.268   5.266   2.554
 4404TIP3   OH213168   0.934   5.522   1.976
 4404TIP3    H113169   1.005   5.586   1.986
 4404TIP3    H213170   0.967   5.459   1.913
 4405TIP3   OH213171   0.853   4.802   2.108
 4405TIP3    H113172   0.860   4.897   2.111
 4405TIP3    H213173   0.793   4.785   2.036
 4406TIP3   OH213174   2.177   6.276   2.440
 4406TIP3    H113175   2.135   6.324   2.369
 4406TIP3    H213176   2.271   6.291   2.428
 4407TIP3   OH213177   1.247   4.527   2.977
 4407TIP3    H113178   1.217   4.493   2.893
 4407TIP3    H213179   1.237   4.452   3.037
 4408TIP3   OH213180   0.782   5.755   2.365
 4408TIP3    H113181   0.716   5.764   2.434
 4408TIP3    H213182   0.742   5.795   2.288
 4409TIP3   OH213183   0.964   6.311   3.430
 4409TIP3    H113184   1.045   6.316   3.480
 4409TIP3    H213185   0.944   6.218   3.425
 4410TIP3   OH213186   1.427   6.236   3.480
 4410TIP3    H113187   1.521   6.220   3.490
 4410TIP3    H213188   1.401   6.178   3.409
 4411TIP3   OH213189   1.403   5.826   1.604
 4411TIP3    H113190   1.355   5.755   1.647
 4411TIP3    H213191   1.476   5.783   1.561
 4412TIP3   OH213192   2.055   6.172   3.225
 4412TIP3    H113193   2.061   6.101   3.289
 4412TIP3    H213194   2.131   6.227   3.243
 4413TIP3   OH213195   1.848   5.865   1.524
 4413TIP3    H113196   1.878   5.802   1.589
 4413TIP3    H213197   1.914   5.861   1.454
 4414TIP3   OH213198   1.074   5.711   3.629
 4414TIP3    H113199   1.092   5.617   3.636
 4414TIP3    H213200   0.989   5.715   3.586
 4415TIP3   OH213201   1.071   5.331   1.840
 4415TIP3    H113202   1.125   5.305   1.915
 4415TIP3    H213203   1.133   5.340   1.768
 4416TIP3   OH213204   1.689   5.798   3.404
 4416TIP3    H113205   1.647   5.818   3.320
 4416TIP3    H213206   1.726   5.710   3.392
 4417TIP3   OH213207   1.627   5.547   1.651
 4417TIP3    H113208   1.605   5.561   1.744
 4417TIP3    H213209   1.613   5.453   1.637
 4418TIP3   OH213210   2.166   5.832   3.015
 4418TIP3    H113211   2.245   5.862   2.970
 4418TIP3    H213212   2.103   5.902   3.002
 4419TIP3   OH213213   1.194   5.455   3.630
 4419TIP3    H113214   1.272   5.435   3.578
 4419TIP3    H213215   1.228   5.478   3.716
 4420TIP3   OH213216   1.251   5.259   2.043
 4420TIP3    H113217   1.223   5.221   2.126
 4420TIP3    H213218   1.293   5.187   1.996
 4421TIP3   OH213219   1.540   5.335   3.287
 4421TIP3    H113220   1.458   5.385   3.295
 4421TIP3    H213221   1.578   5.365   3.205
 4422TIP3   OH213222   1.378   5.071   1.881
 4422TIP3    H113223   1.348   5.074   1.790
 4422TIP3    H213224   1.473   5.076   1.876
 4423TIP3   OH213225   2.048   5.718   3.386
 4423TIP3    H113226   2.122   5.684   3.335
 4423TIP3    H213227   2.046   5.663   3.464
 4424TIP3   OH213228   2.175   5.380   1.564
 4424TIP3    H113229   2.157   5.326   1.487
 4424TIP3    H213230   2.148   5.468   1.538
 4425TIP3   OH213231   1.653   5.113   3.401
 4425TIP3    H113232   1.657   5.040   3.339
 4425TIP3    H213233   1.615   5.185   3.351
 4426TIP3   OH213234   1.662   4.911   3.200
 4426TIP3    H113235   1.690   4.947   3.116
 4426TIP3    H213236   1.571   4.885   3.186
 4427TIP3   OH213237   1.672   5.438   3.074
 4427TIP3    H113238   1.762   5.463   3.055
 4427TIP3    H213239   1.619   5.503   3.027
 4428TIP3   OH213240   2.262   5.398   3.450
 4428TIP3    H113241   2.303   5.312   3.461
 4428TIP3    H213242   2.335   5.456   3.428
 4429TIP3   OH213243   2.296   5.663   3.185
 4429TIP3    H113244   2.241   5.722   3.134
 4429TIP3    H213245   2.385   5.680   3.154
 4430TIP3   OH213246   1.534   5.203   3.641
 4430TIP3    H113247   1.468   5.137   3.661
 4430TIP3    H213248   1.565   5.180   3.553
 4431TIP3   OH213249   1.786   4.674   3.291
 4431TIP3    H113250   1.744   4.755   3.262
 4431TIP3    H213251   1.719   4.607   3.280
 4432TIP3   OH213252   1.911   5.156   3.498
 4432TIP3    H113253   1.904   5.143   3.593
 4432TIP3    H213254   1.824   5.135   3.464
 4433TIP3   OH213255   2.154   5.109   3.363
 4433TIP3    H113256   2.077   5.110   3.419
 4433TIP3    H213257   2.226   5.084   3.422
 4434TIP3   OH213258   2.387   5.070   3.516
 4434TIP3    H113259   2.403   4.976   3.524
 4434TIP3    H213260   2.383   5.101   3.606
 4435TIP3   OH213261   1.373   4.980   3.706
 4435TIP3    H113262   1.377   4.892   3.669
 4435TIP3    H213263   1.412   4.972   3.793
 4436TIP3   OH213264   1.861   4.663   3.556
 4436TIP3    H113265   1.929   4.595   3.552
 4436TIP3    H213266   1.828   4.670   3.466
 4437TIP3   OH213267   1.946   4.879   3.704
 4437TIP3    H113268   1.919   4.807   3.648
 4437TIP3    H213269   1.872   4.939   3.703
 4438TIP3   OH213270   1.196   6.116   1.820
 4438TIP3    H113271   1.284   6.106   1.784
 4438TIP3    H213272   1.146   6.156   1.750
 4439TIP3   OH213273   0.661   5.497   2.006
 4439TIP3    H113274   0.754   5.513   1.992
 4439TIP3    H213275   0.644   5.414   1.962
 4440TIP3   OH213276   0.571   6.099   2.450
 4440TIP3    H113277   0.507   6.045   2.404
 4440TIP3    H213278   0.615   6.039   2.510
 4441TIP3   OH213279   0.722   5.937   2.618
 4441TIP3    H113280   0.707   5.865   2.679
 4441TIP3    H213281   0.769   6.003   2.669
 4442TIP3   OH213282   2.442   6.345   2.426
 4442TIP3    H113283   2.468   6.373   2.514
 4442TIP3    H213284   2.505   6.388   2.368
 4443TIP3   OH213285   2.465   6.366   2.710
 4443TIP3    H113286   2.419   6.283   2.702
 4443TIP3    H213287   2.536   6.348   2.772
 4444TIP3   OH213288   2.510   6.061   3.281
 4444TIP3    H113289   2.442   6.070   3.347
 4444TIP3    H213290   2.557   6.144   3.284
 4445TIP3   OH213291   2.337   5.579   1.893
 4445TIP3    H113292   2.398   5.645   1.862
 4445TIP3    H213293   2.381   5.538   1.967
 4446TIP3   OH213294   2.464   5.434   2.092
 4446TIP3    H113295   2.398   5.395   2.150
 4446TIP3    H213296   2.530   5.469   2.152
 4447TIP3   OH213297   2.514   5.832   2.522
 4447TIP3    H113298   2.568   5.763   2.484
 4447TIP3    H213299   2.518   5.904   2.459
 4448TIP3   OH213300   2.324   6.125   2.715
 4448TIP3    H113301   2.256   6.169   2.766
 4448TIP3    H213302   2.276   6.083   2.643
 4449TIP3   OH213303   2.382   5.352   1.741
 4449TIP3    H113304   2.310   5.352   1.678
 4449TIP3    H213305   2.366   5.429   1.796
 4450TIP3   OH213306   2.236   5.009   1.680
 4450TIP3    H113307   2.197   5.042   1.599
 4450TIP3    H213308   2.224   4.914   1.677
 4451TIP3   OH213309   2.264   5.294   2.232
 4451TIP3    H113310   2.272   5.199   2.219
 4451TIP3    H213311   2.247   5.305   2.325
 4452TIP3   OH213312   0.889   5.367   2.990
 4452TIP3    H113313   0.880   5.329   2.903
 4452TIP3    H213314   0.983   5.364   3.009
 4453TIP3   OH213315   2.553   5.715   3.092
 4453TIP3    H113316   2.618   5.646   3.076
 4453TIP3    H213317   2.577   5.785   3.031
 4454TIP3   OH213318   2.723   5.500   3.084
 4454TIP3    H113319   2.651   5.458   3.132
 4454TIP3    H213320   2.799   5.445   3.104
 4455TIP3   OH213321   2.192   4.741   1.663
 4455TIP3    H113322   2.260   4.707   1.720
 4455TIP3    H213323   2.113   4.691   1.687
 4456TIP3   OH213324   2.262   5.016   2.116
 4456TIP3    H113325   2.306   4.932   2.129
 4456TIP3    H213326   2.306   5.055   2.041
 4457TIP3   OH213327   2.415   5.182   2.635
 4457TIP3    H113328   2.496   5.200   2.587
 4457TIP3    H213329   2.429   5.220   2.722
 4458TIP3   OH213330   2.489   5.329   2.865
 4458TIP3    H113331   2.416   5.361   2.918
 4458TIP3    H213332   2.522   5.408   2.821
 4459TIP3   OH213333   1.109   5.039   3.651
 4459TIP3    H113334   1.204   5.034   3.665
 4459TIP3    H213335   1.076   4.956   3.686
 4460TIP3   OH213336   2.944   4.930   3.407
 4460TIP3    H113337   3.009   4.871   3.368
 4460TIP3    H213338   2.911   4.980   3.332
 4461TIP3   OH213339   2.374   4.766   2.167
 4461TIP3    H113340   2.420   4.750   2.250
 4461TIP3    H213341   2.313   4.693   2.160
 4462TIP3   OH213342   1.078   4.747   2.990
 4462TIP3    H113343   1.133   4.669   2.998
 4462TIP3    H213344   1.141   4.819   2.977
 4463TIP3   OH213345   0.868   5.011   3.059
 4463TIP3    H113346   0.919   5.004   2.978
 4463TIP3    H213347   0.891   5.097   3.095
 4464TIP3   OH213348   2.800   5.049   3.208
 4464TIP3    H113349   2.717   5.089   3.234
 4464TIP3    H213350   2.774   4.973   3.155
 4465TIP3   OH213351   2.427   4.683   1.806
 4465TIP3    H113352   2.470   4.621   1.747
 4465TIP3    H213353   2.485   4.759   1.808
 4466TIP3   OH213354   0.854   4.527   2.564
 4466TIP3    H113355   0.766   4.510   2.597
 4466TIP3    H213356   0.839   4.579   2.485
 4467TIP3   OH213357   2.001   6.232   2.071
 4467TIP3    H113358   2.060   6.224   1.996
 4467TIP3    H213359   2.042   6.299   2.126
 4468TIP3   OH213360   1.077   4.593   3.382
 4468TIP3    H113361   1.024   4.580   3.460
 4468TIP3    H213362   1.017   4.636   3.320
 4469TIP3   OH213363   1.106   6.031   3.448
 4469TIP3    H113364   1.012   6.014   3.443
 4469TIP3    H213365   1.127   6.025   3.541
 4470TIP3   OH213366   1.312   6.080   3.001
 4470TIP3    H113367   1.260   6.154   2.970
 4470TIP3    H213368   1.398   6.091   2.959
 4471TIP3   OH213369   1.720   6.314   3.138
 4471TIP3    H113370   1.757   6.307   3.226
 4471TIP3    H213371   1.783   6.366   3.089
 4472TIP3   OH213372   1.911   6.467   3.011
 4472TIP3    H113373   1.977   6.414   2.965
 4472TIP3    H213374   1.962   6.525   3.067
 4473TIP3   OH213375   2.710   4.805   3.099
 4473TIP3    H113376   2.623   4.799   3.058
 4473TIP3    H213377   2.745   4.716   3.093
 4474TIP3   OH213378   0.968   6.323   3.044
 4474TIP3    H113379   0.876   6.339   3.023
 4474TIP3    H213380   0.990   6.389   3.110
 4475TIP3   OH213381   1.199   6.306   2.895
 4475TIP3    H113382   1.117   6.315   2.943
 4475TIP3    H213383   1.180   6.340   2.807
 4476TIP3   OH213384   1.623   6.330   2.689
 4476TIP3    H113385   1.557   6.347   2.622
 4476TIP3    H213386   1.636   6.414   2.732
 4477TIP3   OH213387   1.888   6.264   2.737
 4477TIP3    H113388   1.797   6.285   2.719
 4477TIP3    H213389   1.938   6.333   2.694
 4478TIP3   OH213390   2.088   6.442   2.641
 4478TIP3    H113391   2.085   6.529   2.602
 4478TIP3    H213392   2.119   6.385   2.571
 4479TIP3   OH213393   0.909   6.097   2.748
 4479TIP3    H113394   0.904   6.079   2.842
 4479TIP3    H213395   0.994   6.062   2.721
 4480TIP3   OH213396   1.124   5.952   2.598
 4480TIP3    H113397   1.121   5.882   2.663
 4480TIP3    H213398   1.199   6.005   2.622
 4481TIP3   OH213399   1.364   6.067   2.645
 4481TIP3    H113400   1.394   5.977   2.628
 4481TIP3    H213401   1.414   6.095   2.721
 4482TIP3   OH213402   1.912   4.726   2.732
 4482TIP3    H113403   1.874   4.654   2.783
 4482TIP3    H213404   1.982   4.686   2.682
 4483TIP3   OH213405   2.421   4.625   2.618
 4483TIP3    H113406   2.461   4.675   2.547
 4483TIP3    H213407   2.332   4.660   2.625
 4484TIP3   OH213408   2.535   4.713   2.386
 4484TIP3    H113409   2.605   4.654   2.359
 4484TIP3    H213410   2.572   4.801   2.374
 4485TIP3   OH213411   1.159   4.426   2.735
 4485TIP3    H113412   1.069   4.394   2.742
 4485TIP3    H213413   1.212   4.346   2.727
 4486TIP3   OH213414   0.970   4.326   2.388
 4486TIP3    H113415   0.997   4.376   2.311
 4486TIP3    H213416   0.937   4.392   2.449
 4487TIP3   OH213417   1.634   4.459   2.625
 4487TIP3    H113418   1.681   4.511   2.559
 4487TIP3    H213419   1.670   4.490   2.709
 4488TIP3   OH213420   2.130   4.615   2.604
 4488TIP3    H113421   2.146   4.585   2.515
 4488TIP3    H213422   2.134   4.535   2.657
 4489TIP3   OH213423   2.190   4.554   2.170
 4489TIP3    H113424   2.110   4.602   2.191
 4489TIP3    H213425   2.177   4.468   2.209
 4490TIP3   OH213426   0.667   5.891   2.164
 4490TIP3    H113427   0.584   5.858   2.130
 4490TIP3    H213428   0.669   5.983   2.137
 4491TIP3   OH213429   1.088   4.453   2.150
 4491TIP3    H113430   1.134   4.392   2.092
 4491TIP3    H213431   1.156   4.512   2.182
 4492TIP3   OH213432   1.573   4.655   2.249
 4492TIP3    H113433   1.633   4.605   2.304
 4492TIP3    H213434   1.587   4.747   2.274
 4493TIP3   OH213435   1.454   6.057   1.742
 4493TIP3    H113436   1.538   6.083   1.705
 4493TIP3    H213437   1.425   5.985   1.686
 4494TIP3   OH213438   2.156   6.194   1.842
 4494TIP3    H113439   2.149   6.099   1.831
 4494TIP3    H213440   2.114   6.230   1.764
 4495TIP3   OH213441   1.381   4.707   3.622
 4495TIP3    H113442   1.345   4.640   3.681
 4495TIP3    H213443   1.473   4.713   3.646
 4496TIP3   OH213444   1.630   4.714   3.743
 4496TIP3    H113445   1.710   4.691   3.695
 4496TIP3    H213446   1.623   4.646   3.810
 4497TIP3   OH213447   0.739   5.868   1.808
 4497TIP3    H113448   0.746   5.892   1.901
 4497TIP3    H213449   0.826   5.835   1.785
 4498TIP3   OH213450   2.455   4.800   3.530
 4498TIP3    H113451   2.471   4.770   3.619
 4498TIP3    H213452   2.540   4.795   3.487
 4499TIP3   OH213453   2.373   6.333   3.031
 4499TIP3    H113454   2.298   6.304   2.979
 4499TIP3    H213455   2.361   6.428   3.039
 4500TIP3   OH213456   3.647   5.716   1.777
 4500TIP3    H113457   3.613   5.803   1.759
 4500TIP3    H213458   3.578   5.656   1.750
 4501TIP3   OH213459   3.646   5.713   2.194
 4501TIP3    H113460   3.696   5.695   2.273
 4501TIP3    H213461   3.605   5.630   2.172
 4502TIP3   OH213462   2.947   5.582   2.545
 4502TIP3    H113463   2.981   5.527   2.615
 4502TIP3    H213464   3.024   5.609   2.495
 4503TIP3   OH213465   3.910   6.018   1.868
 4503TIP3    H113466   3.899   5.952   1.936
 4503TIP3    H213467   3.934   6.098   1.915
 4504TIP3   OH213468   2.930   6.005   2.240
 4504TIP3    H113469   2.916   5.910   2.244
 4504TIP3    H213470   3.025   6.014   2.229
 4505TIP3   OH213471   2.623   5.208   2.021
 4505TIP3    H113472   2.584   5.292   2.044
 4505TIP3    H213473   2.551   5.158   1.981
 4506TIP3   OH213474   2.696   5.512   2.230
 4506TIP3    H113475   2.745   5.435   2.258
 4506TIP3    H213476   2.763   5.574   2.200
 4507TIP3   OH213477   3.565   6.455   1.878
 4507TIP3    H113478   3.595   6.390   1.814
 4507TIP3    H213479   3.564   6.409   1.961
 4508TIP3   OH213480   3.451   5.936   2.207
 4508TIP3    H113481   3.493   5.857   2.174
 4508TIP3    H213482   3.523   5.992   2.236
 4509TIP3   OH213483   4.481   5.255   2.214
 4509TIP3    H113484   4.501   5.340   2.253
 4509TIP3    H213485   4.507   5.264   2.122
 4510TIP3   OH213486   3.862   5.424   2.238
 4510TIP3    H113487   3.903   5.342   2.264
 4510TIP3    H213488   3.826   5.407   2.151
 4511TIP3   OH213489   3.214   5.087   2.202
 4511TIP3    H113490   3.196   5.160   2.143
 4511TIP3    H213491   3.161   5.015   2.168
 4512TIP3   OH213492   3.910   5.185   1.830
 4512TIP3    H113493   3.976   5.177   1.899
 4512TIP3    H213494   3.959   5.218   1.754
 4513TIP3   OH213495   2.838   5.294   2.325
 4513TIP3    H113496   2.921   5.278   2.370
 4513TIP3    H213497   2.845   5.244   2.244
 4514TIP3   OH213498   3.265   5.496   2.140
 4514TIP3    H113499   3.359   5.480   2.146
 4514TIP3    H213500   3.230   5.414   2.103
 4515TIP3   OH213501   4.544   5.473   2.384
 4515TIP3    H113502   4.457   5.510   2.377
 4515TIP3    H213503   4.579   5.509   2.466
 4516TIP3   OH213504   3.198   5.084   2.650
 4516TIP3    H113505   3.146   5.119   2.577
 4516TIP3    H213506   3.144   5.099   2.727
 4517TIP3   OH213507   3.511   5.925   1.662
 4517TIP3    H113508   3.493   5.912   1.569
 4517TIP3    H213509   3.471   6.010   1.682
 4518TIP3   OH213510   3.298   5.858   2.424
 4518TIP3    H113511   3.243   5.929   2.458
 4518TIP3    H213512   3.346   5.898   2.351
 4519TIP3   OH213513   4.077   5.206   2.045
 4519TIP3    H113514   4.042   5.183   2.131
 4519TIP3    H213515   4.137   5.279   2.062
 4520TIP3   OH213516   3.082   5.192   2.422
 4520TIP3    H113517   3.137   5.267   2.446
 4520TIP3    H213518   3.128   5.150   2.350
 4521TIP3   OH213519   3.135   6.060   2.525
 4521TIP3    H113520   3.120   6.149   2.492
 4521TIP3    H213521   3.059   6.040   2.578
 4522TIP3   OH213522   2.516   5.759   1.775
 4522TIP3    H113523   2.484   5.779   1.687
 4522TIP3    H213524   2.541   5.845   1.811
 4523TIP3   OH213525   3.954   6.266   2.011
 4523TIP3    H113526   3.867   6.259   2.049
 4523TIP3    H213527   3.953   6.351   1.965
 4524TIP3   OH213528   4.279   5.149   2.385
 4524TIP3    H113529   4.193   5.172   2.350
 4524TIP3    H213530   4.341   5.175   2.316
 4525TIP3   OH213531   3.540   4.778   2.372
 4525TIP3    H113532   3.534   4.686   2.398
 4525TIP3    H213533   3.465   4.820   2.414
 4526TIP3   OH213534   3.659   6.297   1.668
 4526TIP3    H113535   3.709   6.216   1.656
 4526TIP3    H213536   3.721   6.366   1.644
 4527TIP3   OH213537   3.809   6.077   1.616
 4527TIP3    H113538   3.817   6.000   1.559
 4527TIP3    H213539   3.846   6.048   1.699
 4528TIP3   OH213540   4.187   6.162   2.354
 4528TIP3    H113541   4.171   6.086   2.298
 4528TIP3    H213542   4.172   6.238   2.298
 4529TIP3   OH213543   3.473   5.558   1.625
 4529TIP3    H113544   3.395   5.609   1.604
 4529TIP3    H213545   3.523   5.556   1.543
 4530TIP3   OH213546   3.448   5.355   1.324
 4530TIP3    H113547   3.512   5.406   1.374
 4530TIP3    H213548   3.500   5.291   1.276
 4531TIP3   OH213549   4.375   5.816   2.218
 4531TIP3    H113550   4.290   5.861   2.218
 4531TIP3    H213551   4.409   5.830   2.130
 4532TIP3   OH213552   3.833   5.652   1.587
 4532TIP3    H113553   3.778   5.677   1.661
 4532TIP3    H213554   3.915   5.622   1.627
 4533TIP3   OH213555   4.063   5.679   2.525
 4533TIP3    H113556   4.062   5.761   2.574
 4533TIP3    H213557   3.980   5.677   2.477
 4534TIP3   OH213558   3.062   5.631   1.998
 4534TIP3    H113559   3.027   5.571   1.931
 4534TIP3    H213560   3.136   5.583   2.035
 4535TIP3   OH213561   3.193   6.052   2.137
 4535TIP3    H113562   3.172   6.036   2.045
 4535TIP3    H213563   3.281   6.015   2.149
 4536TIP3   OH213564   3.165   5.625   2.366
 4536TIP3    H113565   3.204   5.590   2.286
 4536TIP3    H213566   3.215   5.704   2.384
 4537TIP3   OH213567   3.716   6.260   2.142
 4537TIP3    H113568   3.706   6.338   2.196
 4537TIP3    H213569   3.703   6.187   2.203
 4538TIP3   OH213570   3.336   6.164   2.687
 4538TIP3    H113571   3.276   6.222   2.734
 4538TIP3    H213572   3.278   6.112   2.631
 4539TIP3   OH213573   3.663   5.510   1.424
 4539TIP3    H113574   3.724   5.566   1.472
 4539TIP3    H213575   3.689   5.519   1.333
 4540TIP3   OH213576   3.094   5.722   2.819
 4540TIP3    H113577   3.095   5.814   2.844
 4540TIP3    H213578   3.001   5.700   2.813
 4541TIP3   OH213579   3.406   6.185   1.681
 4541TIP3    H113580   3.493   6.226   1.685
 4541TIP3    H213581   3.352   6.247   1.632
 4542TIP3   OH213582   3.124   6.323   2.771
 4542TIP3    H113583   3.098   6.330   2.679
 4542TIP3    H213584   3.042   6.307   2.818
 4543TIP3   OH213585   4.174   4.739   1.470
 4543TIP3    H113586   4.097   4.762   1.522
 4543TIP3    H213587   4.187   4.814   1.412
 4544TIP3   OH213588   2.938   5.475   1.794
 4544TIP3    H113589   2.861   5.519   1.758
 4544TIP3    H213590   2.907   5.385   1.812
 4545TIP3   OH213591   3.993   6.105   1.022
 4545TIP3    H113592   3.996   6.201   1.012
 4545TIP3    H213593   4.085   6.079   1.022
 4546TIP3   OH213594   2.713   5.875   2.721
 4546TIP3    H113595   2.646   5.854   2.656
 4546TIP3    H213596   2.750   5.790   2.746
 4547TIP3   OH213597   2.579   6.056   2.359
 4547TIP3    H113598   2.674   6.055   2.347
 4547TIP3    H213599   2.562   6.134   2.412
 4548TIP3   OH213600   4.420   6.519   2.419
 4548TIP3    H113601   4.426   6.425   2.432
 4548TIP3    H213602   4.340   6.545   2.466
 4549TIP3   OH213603   3.525   6.304   2.544
 4549TIP3    H113604   3.520   6.395   2.575
 4549TIP3    H213605   3.458   6.258   2.596
 4550TIP3   OH213606   3.297   6.407   1.506
 4550TIP3    H113607   3.253   6.386   1.424
 4550TIP3    H213608   3.263   6.492   1.532
 4551TIP3   OH213609   2.736   6.262   1.883
 4551TIP3    H113610   2.782   6.255   1.967
 4551TIP3    H213611   2.690   6.178   1.874
 4552TIP3   OH213612   3.495   6.333   1.151
 4552TIP3    H113613   3.546   6.261   1.113
 4552TIP3    H213614   3.535   6.347   1.237
 4553TIP3   OH213615   3.554   6.381   1.415
 4553TIP3    H113616   3.466   6.383   1.454
 4553TIP3    H213617   3.610   6.344   1.484
 4554TIP3   OH213618   4.310   5.638   2.691
 4554TIP3    H113619   4.227   5.648   2.645
 4554TIP3    H213620   4.329   5.544   2.688
 4555TIP3   OH213621   2.917   6.058   2.694
 4555TIP3    H113622   2.967   6.047   2.775
 4555TIP3    H213623   2.845   5.996   2.701
 4556TIP3   OH213624   3.304   4.870   2.502
 4556TIP3    H113625   3.219   4.839   2.470
 4556TIP3    H213626   3.284   4.951   2.549
 4557TIP3   OH213627   3.847   4.988   2.700
 4557TIP3    H113628   3.917   4.964   2.760
 4557TIP3    H213629   3.766   4.970   2.749
 4558TIP3   OH213630   4.069   5.414   2.614
 4558TIP3    H113631   4.028   5.411   2.700
 4558TIP3    H213632   4.054   5.503   2.584
 4559TIP3   OH213633   3.742   5.521   1.167
 4559TIP3    H113634   3.697   5.507   1.084
 4559TIP3    H213635   3.824   5.564   1.142
 4560TIP3   OH213636   3.449   4.916   1.469
 4560TIP3    H113637   3.416   4.920   1.559
 4560TIP3    H213638   3.415   4.833   1.435
 4561TIP3   OH213639   3.240   5.400   2.510
 4561TIP3    H113640   3.198   5.411   2.595
 4561TIP3    H213641   3.220   5.481   2.463
 4562TIP3   OH213642   3.124   5.282   2.030
 4562TIP3    H113643   3.035   5.257   2.055
 4562TIP3    H213644   3.135   5.247   1.942
 4563TIP3   OH213645   3.605   5.355   1.757
 4563TIP3    H113646   3.557   5.426   1.716
 4563TIP3    H213647   3.664   5.323   1.689
 4564TIP3   OH213648   3.792   5.626   2.835
 4564TIP3    H113649   3.765   5.558   2.896
 4564TIP3    H213650   3.884   5.643   2.857
 4565TIP3   OH213651   3.769   5.372   1.986
 4565TIP3    H113652   3.703   5.396   1.921
 4565TIP3    H213653   3.816   5.299   1.946
 4566TIP3   OH213654   3.071   5.412   2.732
 4566TIP3    H113655   3.119   5.468   2.794
 4566TIP3    H213656   3.056   5.331   2.779
 4567TIP3   OH213657   3.115   4.893   1.442
 4567TIP3    H113658   3.107   4.896   1.538
 4567TIP3    H213659   3.038   4.941   1.410
 4568TIP3   OH213660   2.665   4.938   2.313
 4568TIP3    H113661   2.735   4.974   2.368
 4568TIP3    H213662   2.707   4.921   2.229
 4569TIP3   OH213663   2.585   4.915   1.822
 4569TIP3    H113664   2.631   4.950   1.745
 4569TIP3    H213665   2.522   4.983   1.846
 4570TIP3   OH213666   3.803   5.624   2.412
 4570TIP3    H113667   3.830   5.558   2.348
 4570TIP3    H213668   3.764   5.575   2.483
 4571TIP3   OH213669   3.482   5.076   2.084
 4571TIP3    H113670   3.406   5.077   2.142
 4571TIP3    H213671   3.557   5.066   2.142
 4572TIP3   OH213672   2.886   5.157   2.092
 4572TIP3    H113673   2.797   5.160   2.057
 4572TIP3    H213674   2.916   5.068   2.074
 4573TIP3   OH213675   3.138   5.156   1.786
 4573TIP3    H113676   3.232   5.167   1.775
 4573TIP3    H213677   3.101   5.175   1.699
 4574TIP3   OH213678   3.947   5.163   2.293
 4574TIP3    H113679   3.923   5.180   2.384
 4574TIP3    H213680   3.881   5.101   2.262
 4575TIP3   OH213681   3.017   5.185   1.540
 4575TIP3    H113682   2.953   5.136   1.488
 4575TIP3    H213683   3.072   5.229   1.475
 4576TIP3   OH213684   4.130   6.866   2.513
 4576TIP3    H113685   4.131   6.878   2.418
 4576TIP3    H213686   4.210   6.910   2.544
 4577TIP3   OH213687   3.073   5.980   2.928
 4577TIP3    H113688   3.155   5.999   2.974
 4577TIP3    H213689   3.006   5.984   2.995
 4578TIP3   OH213690   3.537   5.438   2.190
 4578TIP3    H113691   3.604   5.392   2.139
 4578TIP3    H213692   3.538   5.395   2.275
 4579TIP3   OH213693   3.032   4.912   2.075
 4579TIP3    H113694   3.002   4.837   2.125
 4579TIP3    H213695   3.066   4.875   1.994
 4580TIP3   OH213696   3.509   5.340   2.460
 4580TIP3    H113697   3.421   5.372   2.482
 4580TIP3    H213698   3.568   5.393   2.514
 4581TIP3   OH213699   3.241   5.706   1.563
 4581TIP3    H113700   3.169   5.647   1.544
 4581TIP3    H213701   3.219   5.743   1.649
 4582TIP3   OH213702   4.136   5.953   2.180
 4582TIP3    H113703   4.170   6.001   2.105
 4582TIP3    H213704   4.056   5.912   2.148
 4583TIP3   OH213705   3.705   5.014   1.469
 4583TIP3    H113706   3.611   4.996   1.464
 4583TIP3    H213707   3.711   5.109   1.479
 4584TIP3   OH213708   3.649   6.034   2.582
 4584TIP3    H113709   3.700   6.023   2.663
 4584TIP3    H213710   3.610   6.121   2.590
 4585TIP3   OH213711   3.770   5.277   1.541
 4585TIP3    H113712   3.865   5.280   1.550
 4585TIP3    H213713   3.748   5.354   1.488
 4586TIP3   OH213714   2.932   5.717   2.226
 4586TIP3    H113715   2.971   5.699   2.140
 4586TIP3    H213716   2.997   5.686   2.288
 4587TIP3   OH213717   3.400   5.862   1.404
 4587TIP3    H113718   3.352   5.945   1.404
 4587TIP3    H213719   3.347   5.804   1.458
 4588TIP3   OH213720   2.821   5.657   2.860
 4588TIP3    H113721   2.842   5.643   2.952
 4588TIP3    H213722   2.753   5.593   2.840
 4589TIP3   OH213723   3.562   5.783   2.870
 4589TIP3    H113724   3.500   5.731   2.819
 4589TIP3    H213725   3.648   5.745   2.849
 4590TIP3   OH213726   3.796   6.318   2.466
 4590TIP3    H113727   3.702   6.306   2.474
 4590TIP3    H213728   3.822   6.359   2.549
 4591TIP3   OH213729   4.195   5.369   1.368
 4591TIP3    H113730   4.137   5.323   1.308
 4591TIP3    H213731   4.196   5.459   1.336
 4592TIP3   OH213732   4.434   6.238   2.445
 4592TIP3    H113733   4.339   6.225   2.441
 4592TIP3    H213734   4.467   6.207   2.361
 4593TIP3   OH213735   3.926   6.170   1.291
 4593TIP3    H113736   3.896   6.096   1.344
 4593TIP3    H213737   3.939   6.133   1.204
 4594TIP3   OH213738   3.904   5.819   2.080
 4594TIP3    H113739   3.813   5.796   2.102
 4594TIP3    H213740   3.940   5.738   2.042
 4595TIP3   OH213741   3.059   6.054   1.885
 4595TIP3    H113742   3.060   6.131   1.828
 4595TIP3    H213743   2.966   6.037   1.900
 4596TIP3   OH213744   2.611   5.339   1.586
 4596TIP3    H113745   2.659   5.419   1.609
 4596TIP3    H213746   2.534   5.340   1.643
 4597TIP3   OH213747   3.148   5.806   1.797
 4597TIP3    H113748   3.134   5.896   1.825
 4597TIP3    H213749   3.123   5.753   1.872
 4598TIP3   OH213750   3.335   6.377   2.341
 4598TIP3    H113751   3.372   6.449   2.291
 4598TIP3    H213752   3.409   6.343   2.392
 4599TIP3   OH213753   2.969   6.281   1.733
 4599TIP3    H113754   2.883   6.286   1.775
 4599TIP3    H213755   3.003   6.370   1.737
 4600TIP3   OH213756   3.692   6.035   2.309
 4600TIP3    H113757   3.681   6.030   2.404
 4600TIP3    H213758   3.768   5.979   2.292
 4601TIP3   OH213759   3.690   5.904   1.201
 4601TIP3    H113760   3.743   5.892   1.279
 4601TIP3    H213761   3.603   5.873   1.227
 4602TIP3   OH213762   3.948   6.544   2.352
 4602TIP3    H113763   3.874   6.483   2.361
 4602TIP3    H213764   3.922   6.603   2.281
 4603TIP3   OH213765   4.012   6.381   1.042
 4603TIP3    H113766   4.054   6.459   1.006
 4603TIP3    H213767   3.925   6.411   1.070
 4604TIP3   OH213768   3.030   5.160   2.860
 4604TIP3    H113769   2.934   5.165   2.868
 4604TIP3    H213770   3.058   5.110   2.937
 4605TIP3   OH213771   3.860   5.870   1.418
 4605TIP3    H113772   3.841   5.795   1.474
 4605TIP3    H213773   3.954   5.863   1.399
 4606TIP3   OH213774   2.758   6.265   2.504
 4606TIP3    H113775   2.810   6.201   2.552
 4606TIP3    H213776   2.778   6.349   2.546
 4607TIP3   OH213777   3.030   5.885   1.192
 4607TIP3    H113778   3.046   5.795   1.165
 4607TIP3    H213779   3.017   5.880   1.287
 4608TIP3   OH213780   2.981   5.899   1.466
 4608TIP3    H113781   3.056   5.871   1.519
 4608TIP3    H213782   2.982   5.995   1.473
 4609TIP3   OH213783   2.712   5.587   1.672
 4609TIP3    H113784   2.648   5.634   1.726
 4609TIP3    H213785   2.734   5.649   1.602
 4610TIP3   OH213786   3.875   5.222   2.553
 4610TIP3    H113787   3.953   5.267   2.587
 4610TIP3    H213788   3.866   5.145   2.609
 4611TIP3   OH213789   3.761   4.967   1.738
 4611TIP3    H113790   3.743   4.984   1.646
 4611TIP3    H213791   3.806   5.046   1.769
 4612TIP3   OH213792   3.248   6.086   1.408
 4612TIP3    H113793   3.164   6.111   1.447
 4612TIP3    H213794   3.271   6.160   1.351
 4613TIP3   OH213795   3.417   5.166   1.828
 4613TIP3    H113796   3.481   5.232   1.802
 4613TIP3    H213797   3.439   5.146   1.919
 4614TIP3   OH213798   3.713   5.459   2.613
 4614TIP3    H113799   3.740   5.504   2.693
 4614TIP3    H213800   3.764   5.378   2.612
 4615TIP3   OH213801   3.579   4.864   1.919
 4615TIP3    H113802   3.558   4.941   1.971
 4615TIP3    H213803   3.648   4.893   1.859
 4616TIP3   OH213804   2.995   6.172   1.482
 4616TIP3    H113805   2.973   6.242   1.421
 4616TIP3    H213806   2.985   6.212   1.569
 4617TIP3   OH213807   3.094   4.884   1.722
 4617TIP3    H113808   3.083   4.974   1.752
 4617TIP3    H213809   3.188   4.867   1.727
 4618TIP3   OH213810   4.335   5.366   2.604
 4618TIP3    H113811   4.240   5.370   2.613
 4618TIP3    H213812   4.350   5.314   2.525
 4619TIP3   OH213813   3.995   5.562   1.989
 4619TIP3    H113814   3.920   5.505   2.001
 4619TIP3    H213815   4.065   5.521   2.041
 4620TIP3   OH213816   2.732   5.776   1.461
 4620TIP3    H113817   2.802   5.840   1.473
 4620TIP3    H213818   2.768   5.712   1.400
 4621TIP3   OH213819   2.646   5.062   1.599
 4621TIP3    H113820   2.654   5.157   1.601
 4621TIP3    H213821   2.588   5.044   1.525
 4622TIP3   OH213822   3.974   6.536   1.932
 4622TIP3    H113823   3.927   6.587   1.865
 4622TIP3    H213824   4.067   6.556   1.917
 4623TIP3   OH213825   3.040   4.787   2.465
 4623TIP3    H113826   3.011   4.756   2.379
 4623TIP3    H213827   3.032   4.710   2.522
 4624TIP3   OH213828   2.568   6.030   1.858
 4624TIP3    H113829   2.524   6.067   1.934
 4624TIP3    H213830   2.528   6.074   1.783
 4625TIP3   OH213831   2.762   6.574   2.923
 4625TIP3    H113832   2.844   6.580   2.972
 4625TIP3    H213833   2.749   6.480   2.911
 4626TIP3   OH213834   3.226   6.494   2.963
 4626TIP3    H113835   3.318   6.470   2.976
 4626TIP3    H213836   3.196   6.437   2.892
 4627TIP3   OH213837   3.193   6.085   1.091
 4627TIP3    H113838   3.146   6.014   1.133
 4627TIP3    H213839   3.268   6.043   1.050
 4628TIP3   OH213840   3.852   6.428   2.711
 4628TIP3    H113841   3.857   6.357   2.776
 4628TIP3    H213842   3.928   6.483   2.730
 4629TIP3   OH213843   3.622   6.118   1.042
 4629TIP3    H113844   3.661   6.051   1.097
 4629TIP3    H213845   3.674   6.118   0.962
 4630TIP3   OH213846   2.868   5.969   3.116
 4630TIP3    H113847   2.888   5.876   3.126
 4630TIP3    H213848   2.782   5.970   3.075
 4631TIP3   OH213849   2.864   5.585   1.318
 4631TIP3    H113850   2.916   5.560   1.394
 4631TIP3    H213851   2.927   5.596   1.247
 4632TIP3   OH213852   3.487   6.057   2.892
 4632TIP3    H113853   3.445   6.077   2.809
 4632TIP3    H213854   3.525   5.970   2.880
 4633TIP3   OH213855   3.388   5.799   1.137
 4633TIP3    H113856   3.384   5.811   1.231
 4633TIP3    H213857   3.387   5.704   1.125
 4634TIP3   OH213858   3.965   6.092   2.506
 4634TIP3    H113859   4.043   6.122   2.459
 4634TIP3    H213860   3.899   6.159   2.488
 4635TIP3   OH213861   2.985   5.709   3.111
 4635TIP3    H113862   3.064   5.692   3.061
 4635TIP3    H213863   3.016   5.731   3.199
 4636TIP3   OH213864   3.038   5.519   1.524
 4636TIP3    H113865   3.020   5.486   1.612
 4636TIP3    H213866   3.084   5.447   1.481
 4637TIP3   OH213867   3.320   5.575   2.763
 4637TIP3    H113868   3.249   5.637   2.780
 4637TIP3    H213869   3.368   5.613   2.690
 4638TIP3   OH213870   3.170   5.331   1.363
 4638TIP3    H113871   3.143   5.334   1.271
 4638TIP3    H213872   3.265   5.334   1.360
 4639TIP3   OH213873   3.845   5.975   2.872
 4639TIP3    H113874   3.918   5.939   2.822
 4639TIP3    H213875   3.842   5.922   2.952
 4640TIP3   OH213876   3.965   5.637   1.052
 4640TIP3    H113877   3.949   5.585   0.973
 4640TIP3    H213878   3.940   5.726   1.027
 4641TIP3   OH213879   3.449   5.368   2.887
 4641TIP3    H113880   3.456   5.294   2.827
 4641TIP3    H213881   3.408   5.437   2.836
 4642TIP3   OH213882   3.458   5.165   2.688
 4642TIP3    H113883   3.487   5.203   2.604
 4642TIP3    H213884   3.367   5.140   2.673
 4643TIP3   OH213885   3.468   5.701   2.575
 4643TIP3    H113886   3.558   5.721   2.547
 4643TIP3    H213887   3.414   5.761   2.523
 4644TIP3   OH213888   4.058   5.657   2.938
 4644TIP3    H113889   4.101   5.573   2.951
 4644TIP3    H213890   4.130   5.718   2.920
 4645TIP3   OH213891   4.092   5.919   2.672
 4645TIP3    H113892   4.037   5.979   2.622
 4645TIP3    H213893   4.181   5.935   2.640
 4646TIP3   OH213894   3.328   5.461   3.124
 4646TIP3    H113895   3.262   5.395   3.145
 4646TIP3    H213896   3.362   5.434   3.038
 4647TIP3   OH213897   3.581   4.931   2.781
 4647TIP3    H113898   3.540   5.012   2.750
 4647TIP3    H213899   3.514   4.863   2.768
 4648TIP3   OH213900   3.708   5.413   2.985
 4648TIP3    H113901   3.701   5.402   3.080
 4648TIP3    H213902   3.620   5.392   2.952
 4649TIP3   OH213903   3.951   5.365   2.851
 4649TIP3    H113904   3.873   5.367   2.907
 4649TIP3    H213905   4.022   5.341   2.910
 4650TIP3   OH213906   4.186   5.326   3.002
 4650TIP3    H113907   4.200   5.231   3.010
 4650TIP3    H213908   4.180   5.357   3.092
 4651TIP3   OH213909   3.166   5.238   3.191
 4651TIP3    H113910   3.174   5.149   3.156
 4651TIP3    H213911   3.205   5.233   3.278
 4652TIP3   OH213912   3.652   4.918   3.046
 4652TIP3    H113913   3.722   4.853   3.041
 4652TIP3    H213914   3.621   4.926   2.956
 4653TIP3   OH213915   3.740   5.135   3.192
 4653TIP3    H113916   3.712   5.064   3.135
 4653TIP3    H213917   3.666   5.197   3.191
 4654TIP3   OH213918   2.980   6.377   1.297
 4654TIP3    H113919   3.072   6.359   1.275
 4654TIP3    H213920   2.947   6.426   1.222
 4655TIP3   OH213921   2.460   5.763   1.491
 4655TIP3    H113922   2.553   5.782   1.482
 4655TIP3    H213923   2.450   5.674   1.456
 4656TIP3   OH213924   2.365   6.348   1.935
 4656TIP3    H113925   2.300   6.294   1.890
 4656TIP3    H213926   2.409   6.288   1.994
 4657TIP3   OH213927   2.506   6.183   2.107
 4657TIP3    H113928   2.496   6.117   2.175
 4657TIP3    H213929   2.556   6.253   2.149
 4658TIP3   OH213930   4.234   6.620   1.912
 4658TIP3    H113931   4.269   6.631   2.001
 4658TIP3    H213932   4.309   6.639   1.855
 4659TIP3   OH213933   4.274   6.618   2.194
 4659TIP3    H113934   4.221   6.539   2.187
 4659TIP3    H213935   4.340   6.598   2.260
 4660TIP3   OH213936   4.308   6.318   2.767
 4660TIP3    H113937   4.237   6.326   2.832
 4660TIP3    H213938   4.353   6.403   2.772
 4661TIP3   OH213939   4.132   5.834   1.386
 4661TIP3    H113940   4.196   5.901   1.361
 4661TIP3    H213941   4.173   5.788   1.459
 4662TIP3   OH213942   4.255   5.687   1.583
 4662TIP3    H113943   4.188   5.646   1.638
 4662TIP3    H213944   4.320   5.721   1.644
 4663TIP3   OH213945   4.311   6.088   2.010
 4663TIP3    H113946   4.364   6.018   1.972
 4663TIP3    H213947   4.313   6.158   1.945
 4664TIP3   OH213948   4.123   6.384   2.202
 4664TIP3    H113949   4.055   6.427   2.254
 4664TIP3    H213950   4.075   6.341   2.131
 4665TIP3   OH213951   4.170   5.608   1.231
 4665TIP3    H113952   4.100   5.610   1.166
 4665TIP3    H213953   4.156   5.687   1.284
 4666TIP3   OH213954   4.038   5.267   1.174
 4666TIP3    H113955   4.001   5.306   1.094
 4666TIP3    H213956   4.020   5.173   1.165
 4667TIP3   OH213957   4.056   5.548   1.718
 4667TIP3    H113958   4.064   5.453   1.706
 4667TIP3    H213959   4.040   5.558   1.812
 4668TIP3   OH213960   2.684   5.618   2.485
 4668TIP3    H113961   2.675   5.583   2.396
 4668TIP3    H213962   2.778   5.616   2.502
 4669TIP3   OH213963   4.348   5.971   2.578
 4669TIP3    H113964   4.414   5.903   2.563
 4669TIP3    H213965   4.367   6.037   2.511
 4670TIP3   OH213966   4.524   5.760   2.573
 4670TIP3    H113967   4.450   5.719   2.616
 4670TIP3    H213968   4.599   5.704   2.593
 4671TIP3   OH213969   3.990   5.000   1.146
 4671TIP3    H113970   4.062   4.967   1.200
 4671TIP3    H213971   3.915   4.947   1.172
 4672TIP3   OH213972   4.058   5.273   1.602
 4672TIP3    H113973   4.101   5.189   1.617
 4672TIP3    H213974   4.104   5.312   1.528
 4673TIP3   OH213975   4.212   5.439   2.121
 4673TIP3    H113976   4.293   5.457   2.074
 4673TIP3    H213977   4.226   5.477   2.208
 4674TIP3   OH213978   4.286   5.588   2.350
 4674TIP3    H113979   4.213   5.618   2.404
 4674TIP3    H213980   4.318   5.667   2.307
 4675TIP3   OH213981   2.902   5.294   3.130
 4675TIP3    H113982   2.996   5.294   3.147
 4675TIP3    H213983   2.870   5.213   3.170
 4676TIP3   OH213984   4.745   5.186   2.893
 4676TIP3    H113985   4.807   5.127   2.850
 4676TIP3    H213986   4.706   5.237   2.822
 4677TIP3   OH213987   4.167   5.024   1.657
 4677TIP3    H113988   4.213   5.007   1.739
 4677TIP3    H213989   4.107   4.950   1.648
 4678TIP3   OH213990   2.872   5.008   2.487
 4678TIP3    H113991   2.927   4.930   2.491
 4678TIP3    H213992   2.932   5.080   2.470
 4679TIP3   OH213993   2.658   5.272   2.542
 4679TIP3    H113994   2.710   5.265   2.461
 4679TIP3    H213995   2.689   5.353   2.583
 4680TIP3   OH213996   4.596   5.304   2.697
 4680TIP3    H113997   4.513   5.345   2.720
 4680TIP3    H213998   4.572   5.230   2.643
 4681TIP3   OH213999   4.222   4.942   1.289
 4681TIP3    H114000   4.270   4.873   1.242
 4681TIP3    H214001   4.286   5.013   1.297
 4682TIP3   OH214002   2.647   4.771   2.045
 4682TIP3    H114003   2.560   4.764   2.085
 4682TIP3    H214004   2.634   4.829   1.970
 4683TIP3   OH214005   3.808   6.499   1.569
 4683TIP3    H114006   3.861   6.477   1.492
 4683TIP3    H214007   3.855   6.571   1.610
 4684TIP3   OH214008   2.868   4.838   2.864
 4684TIP3    H114009   2.820   4.837   2.947
 4684TIP3    H214010   2.811   4.887   2.804
 4685TIP3   OH214011   2.898   6.295   2.935
 4685TIP3    H114012   2.805   6.272   2.929
 4685TIP3    H214013   2.920   6.281   3.027
 4686TIP3   OH214014   3.105   6.335   2.488
 4686TIP3    H114015   3.055   6.410   2.456
 4686TIP3    H214016   3.191   6.344   2.446
 4687TIP3   OH214017   3.515   6.571   2.625
 4687TIP3    H114018   3.553   6.563   2.713
 4687TIP3    H214019   3.578   6.624   2.577
 4688TIP3   OH214020   3.704   6.726   2.495
 4688TIP3    H114021   3.767   6.670   2.450
 4688TIP3    H214022   3.757   6.782   2.551
 4689TIP3   OH214023   4.506   5.060   2.587
 4689TIP3    H114024   4.419   5.054   2.547
 4689TIP3    H214025   4.542   4.972   2.580
 4690TIP3   OH214026   2.769   6.581   2.534
 4690TIP3    H114027   2.678   6.601   2.511
 4690TIP3    H214028   2.792   6.645   2.600
 4691TIP3   OH214029   2.999   6.567   2.382
 4691TIP3    H114030   2.916   6.574   2.429
 4691TIP3    H214031   2.978   6.593   2.292
 4692TIP3   OH214032   3.419   6.583   2.175
 4692TIP3    H114033   3.350   6.595   2.110
 4692TIP3    H214034   3.430   6.669   2.215
 4693TIP3   OH214035   3.687   6.527   2.225
 4693TIP3    H114036   3.594   6.541   2.207
 4693TIP3    H214037   3.732   6.594   2.174
 4694TIP3   OH214038   3.899   6.712   2.130
 4694TIP3    H114039   3.885   6.795   2.083
 4694TIP3    H214040   3.925   6.650   2.062
 4695TIP3   OH214041   2.678   6.361   2.255
 4695TIP3    H114042   2.702   6.336   2.344
 4695TIP3    H214043   2.750   6.329   2.201
 4696TIP3   OH214044   2.882   6.245   2.117
 4696TIP3    H114045   2.893   6.161   2.161
 4696TIP3    H214046   2.969   6.285   2.118
 4697TIP3   OH214047   3.150   6.331   2.135
 4697TIP3    H114048   3.170   6.239   2.121
 4697TIP3    H214049   3.203   6.355   2.211
 4698TIP3   OH214050   3.711   4.982   2.216
 4698TIP3    H114051   3.674   4.909   2.265
 4698TIP3    H214052   3.781   4.942   2.164
 4699TIP3   OH214053   4.216   4.889   2.116
 4699TIP3    H114054   4.254   4.936   2.042
 4699TIP3    H214055   4.123   4.912   2.114
 4700TIP3   OH214056   4.326   4.969   1.878
 4700TIP3    H114057   4.395   4.911   1.848
 4700TIP3    H214058   4.362   5.057   1.867
 4701TIP3   OH214059   2.953   4.689   2.220
 4701TIP3    H114060   2.863   4.656   2.227
 4701TIP3    H214061   3.007   4.610   2.214
 4702TIP3   OH214062   2.772   4.578   1.875
 4702TIP3    H114063   2.799   4.629   1.798
 4702TIP3    H214064   2.736   4.642   1.935
 4703TIP3   OH214065   3.424   4.724   2.113
 4703TIP3    H114066   3.474   4.769   2.044
 4703TIP3    H214067   3.467   4.751   2.194
 4704TIP3   OH214068   3.929   4.867   2.090
 4704TIP3    H114069   3.948   4.833   2.003
 4704TIP3    H214070   3.932   4.790   2.147
 4705TIP3   OH214071   3.982   4.813   1.655
 4705TIP3    H114072   3.901   4.859   1.679
 4705TIP3    H214073   3.973   4.726   1.694
 4706TIP3   OH214074   2.453   6.157   1.644
 4706TIP3    H114075   2.369   6.122   1.615
 4706TIP3    H214076   2.455   6.247   1.611
 4707TIP3   OH214077   2.882   4.715   1.639
 4707TIP3    H114078   2.927   4.656   1.579
 4707TIP3    H214079   2.950   4.772   1.673
 4708TIP3   OH214080   3.369   4.912   1.735
 4708TIP3    H114081   3.430   4.862   1.788
 4708TIP3    H214082   3.384   5.003   1.761
 4709TIP3   OH214083   3.239   6.311   1.238
 4709TIP3    H114084   3.326   6.337   1.206
 4709TIP3    H214085   3.212   6.240   1.179
 4710TIP3   OH214086   3.956   6.435   1.345
 4710TIP3    H114087   3.953   6.340   1.334
 4710TIP3    H214088   3.905   6.470   1.271
 4711TIP3   OH214089   3.176   4.965   3.102
 4711TIP3    H114090   3.141   4.899   3.162
 4711TIP3    H214091   3.269   4.972   3.126
 4712TIP3   OH214092   3.425   4.969   3.222
 4712TIP3    H114093   3.505   4.949   3.174
 4712TIP3    H214094   3.421   4.901   3.289
 4713TIP3   OH214095   2.560   6.169   1.295
 4713TIP3    H114096   2.564   6.182   1.389
 4713TIP3    H214097   2.641   6.121   1.274
 4714TIP3   OH214098   4.250   5.054   3.015
 4714TIP3    H114099   4.266   5.027   3.105
 4714TIP3    H214100   4.336   5.049   2.973
 4715TIP3   OH214101   4.171   6.591   2.516
 4715TIP3    H114102   4.095   6.561   2.466
 4715TIP3    H214103   4.156   6.685   2.527
 4716TIP3   OH214104   5.396   5.979   1.326
 4716TIP3    H114105   5.374   6.065   1.290
 4716TIP3    H214106   5.344   5.917   1.275
 4717TIP3   OH214107   5.447   5.968   1.682
 4717TIP3    H114108   5.492   5.947   1.764
 4717TIP3    H214109   5.402   5.888   1.657
 4718TIP3   OH214110   4.745   5.839   2.029
 4718TIP3    H114111   4.779   5.783   2.099
 4718TIP3    H214112   4.822   5.862   1.977
 4719TIP3   OH214113   5.738   6.259   1.383
 4719TIP3    H114114   5.722   6.199   1.456
 4719TIP3    H214115   5.758   6.343   1.426
 4720TIP3   OH214116   4.724   6.267   1.736
 4720TIP3    H114117   4.712   6.173   1.737
 4720TIP3    H214118   4.819   6.279   1.726
 4721TIP3   OH214119   4.422   5.470   1.507
 4721TIP3    H114120   4.379   5.552   1.530
 4721TIP3    H214121   4.352   5.416   1.469
 4722TIP3   OH214122   4.486   5.761   1.721
 4722TIP3    H114123   4.537   5.684   1.748
 4722TIP3    H214124   4.548   5.815   1.673
 4723TIP3   OH214125   5.313   6.702   1.405
 4723TIP3    H114126   5.375   6.646   1.358
 4723TIP3    H214127   5.304   6.660   1.491
 4724TIP3   OH214128   5.247   6.192   1.690
 4724TIP3    H114129   5.288   6.113   1.654
 4724TIP3    H214130   5.321   6.245   1.721
 4725TIP3   OH214131   6.275   5.514   1.709
 4725TIP3    H114132   6.292   5.597   1.753
 4725TIP3    H214133   6.317   5.523   1.624
 4726TIP3   OH214134   5.664   5.681   1.733
 4726TIP3    H114135   5.701   5.596   1.759
 4726TIP3    H214136   5.620   5.664   1.650
 4727TIP3   OH214137   5.014   5.338   1.687
 4727TIP3    H114138   4.992   5.413   1.630
 4727TIP3    H214139   4.961   5.266   1.653
 4728TIP3   OH214140   5.699   5.438   1.333
 4728TIP3    H114141   5.769   5.426   1.398
 4728TIP3    H214142   5.743   5.477   1.258
 4729TIP3   OH214143   4.636   5.548   1.811
 4729TIP3    H114144   4.719   5.530   1.856
 4729TIP3    H214145   4.641   5.496   1.731
 4730TIP3   OH214146   5.061   5.753   1.630
 4730TIP3    H114147   5.156   5.737   1.636
 4730TIP3    H214148   5.025   5.672   1.596
 4731TIP3   OH214149   6.339   5.729   1.876
 4731TIP3    H114150   6.251   5.766   1.870
 4731TIP3    H214151   6.376   5.768   1.954
 4732TIP3   OH214152   4.993   5.340   2.137
 4732TIP3    H114153   4.942   5.373   2.063
 4732TIP3    H214154   4.938   5.356   2.213
 4733TIP3   OH214155   5.330   6.188   1.159
 4733TIP3    H114156   5.310   6.166   1.069
 4733TIP3    H214157   5.262   6.249   1.186
 4734TIP3   OH214158   5.093   6.117   1.908
 4734TIP3    H114159   5.037   6.187   1.942
 4734TIP3    H214160   5.139   6.156   1.834
 4735TIP3   OH214161   5.881   5.454   1.537
 4735TIP3    H114162   5.839   5.432   1.621
 4735TIP3    H214163   5.936   5.530   1.557
 4736TIP3   OH214164   4.881   5.446   1.907
 4736TIP3    H114165   4.937   5.521   1.930
 4736TIP3    H214166   4.927   5.403   1.835
 4737TIP3   OH214167   4.931   6.317   2.012
 4737TIP3    H114168   4.915   6.405   1.979
 4737TIP3    H214169   4.854   6.295   2.065
 4738TIP3   OH214170   4.325   6.013   1.298
 4738TIP3    H114171   4.290   6.026   1.210
 4738TIP3    H214172   4.348   6.101   1.328
 4739TIP3   OH214173   5.752   6.516   1.498
 4739TIP3    H114174   5.666   6.506   1.537
 4739TIP3    H214175   5.750   6.602   1.458
 4740TIP3   OH214176   6.071   5.407   1.872
 4740TIP3    H114177   5.985   5.428   1.836
 4740TIP3    H214178   6.133   5.435   1.804
 4741TIP3   OH214179   5.337   5.035   1.861
 4741TIP3    H114180   5.328   4.943   1.884
 4741TIP3    H214181   5.261   5.078   1.900
 4742TIP3   OH214182   5.489   6.553   1.266
 4742TIP3    H114183   5.527   6.471   1.233
 4742TIP3    H214184   5.543   6.622   1.228
 4743TIP3   OH214185   5.575   6.309   1.177
 4743TIP3    H114186   5.496   6.256   1.183
 4743TIP3    H214187   5.627   6.283   1.253
 4744TIP3   OH214188   5.980   6.416   1.846
 4744TIP3    H114189   5.964   6.339   1.791
 4744TIP3    H214190   5.964   6.490   1.787
 4745TIP3   OH214191   5.269   5.824   1.137
 4745TIP3    H114192   5.183   5.867   1.139
 4745TIP3    H214193   5.275   5.788   1.048
 4746TIP3   OH214194   5.261   5.705   0.891
 4746TIP3    H114195   5.357   5.702   0.889
 4746TIP3    H214196   5.234   5.617   0.866
 4747TIP3   OH214197   6.169   6.069   1.716
 4747TIP3    H114198   6.084   6.113   1.719
 4747TIP3    H214199   6.204   6.089   1.629
 4748TIP3   OH214200   5.609   5.895   1.185
 4748TIP3    H114201   5.543   5.921   1.248
 4748TIP3    H214202   5.685   5.871   1.238
 4749TIP3   OH214203   5.859   5.936   2.013
 4749TIP3    H114204   5.859   6.019   2.060
 4749TIP3    H214205   5.776   5.934   1.965
 4750TIP3   OH214206   4.852   5.883   1.498
 4750TIP3    H114207   4.813   5.819   1.438
 4750TIP3    H214208   4.929   5.838   1.534
 4751TIP3   OH214209   4.990   6.307   1.637
 4751TIP3    H114210   4.961   6.293   1.547
 4751TIP3    H214211   5.077   6.269   1.640
 4752TIP3   OH214212   4.963   5.880   1.857
 4752TIP3    H114213   5.000   5.845   1.776
 4752TIP3    H214214   5.012   5.960   1.873
 4753TIP3   OH214215   5.518   6.510   1.635
 4753TIP3    H114216   5.502   6.591   1.683
 4753TIP3    H214217   5.501   6.440   1.698
 4754TIP3   OH214218   5.131   6.419   2.176
 4754TIP3    H114219   5.071   6.478   2.222
 4754TIP3    H214220   5.074   6.367   2.119
 4755TIP3   OH214221   5.519   5.764   0.962
 4755TIP3    H114222   5.548   5.817   1.037
 4755TIP3    H214223   5.505   5.828   0.892
 4756TIP3   OH214224   4.887   5.968   2.311
 4756TIP3    H114225   4.891   6.061   2.334
 4756TIP3    H214226   4.794   5.949   2.305
 4757TIP3   OH214227   5.196   6.440   1.251
 4757TIP3    H114228   5.286   6.470   1.264
 4757TIP3    H214229   5.151   6.515   1.211
 4758TIP3   OH214230   4.920   6.579   2.259
 4758TIP3    H114231   4.894   6.586   2.167
 4758TIP3    H214232   4.838   6.563   2.306
 4759TIP3   OH214233   5.931   4.978   0.998
 4759TIP3    H114234   5.855   4.995   1.053
 4759TIP3    H214235   5.937   5.055   0.941
 4760TIP3   OH214236   4.723   5.708   1.322
 4760TIP3    H114237   4.647   5.755   1.287
 4760TIP3    H214238   4.692   5.618   1.333
 4761TIP3   OH214239   4.510   6.130   2.208
 4761TIP3    H114240   4.442   6.111   2.143
 4761TIP3    H214241   4.546   6.044   2.231
 4762TIP3   OH214242   4.384   6.309   1.845
 4762TIP3    H114243   4.475   6.296   1.820
 4762TIP3    H214244   4.386   6.381   1.908
 4763TIP3   OH214245   6.223   6.759   1.923
 4763TIP3    H114246   6.227   6.663   1.930
 4763TIP3    H214247   6.141   6.782   1.964
 4764TIP3   OH214248   5.321   6.557   2.035
 4764TIP3    H114249   5.314   6.648   2.063
 4764TIP3    H214250   5.254   6.511   2.085
 4765TIP3   OH214251   5.078   6.644   1.093
 4765TIP3    H114252   5.045   6.587   1.024
 4765TIP3    H214253   5.009   6.710   1.104
 4766TIP3   OH214254   4.524   6.517   1.381
 4766TIP3    H114255   4.569   6.509   1.465
 4766TIP3    H214256   4.480   6.433   1.370
 4767TIP3   OH214257   5.340   6.547   0.761
 4767TIP3    H114258   5.308   6.462   0.732
 4767TIP3    H214259   5.358   6.535   0.855
 4768TIP3   OH214260   5.388   6.709   1.039
 4768TIP3    H114261   5.302   6.736   1.006
 4768TIP3    H214262   5.379   6.615   1.055
 4769TIP3   OH214263   6.103   5.891   2.180
 4769TIP3    H114264   6.022   5.901   2.129
 4769TIP3    H214265   6.122   5.797   2.176
 4770TIP3   OH214266   4.713   6.314   2.180
 4770TIP3    H114267   4.763   6.302   2.261
 4770TIP3    H214268   4.641   6.251   2.188
 4771TIP3   OH214269   5.101   5.127   1.988
 4771TIP3    H114270   5.017   5.094   1.955
 4771TIP3    H214271   5.077   5.207   2.036
 4772TIP3   OH214272   5.641   5.245   2.186
 4772TIP3    H114273   5.711   5.220   2.247
 4772TIP3    H214274   5.560   5.227   2.233
 4773TIP3   OH214275   5.865   5.671   2.103
 4773TIP3    H114276   5.824   5.669   2.189
 4773TIP3    H214277   5.849   5.760   2.071
 4774TIP3   OH214278   5.480   5.757   0.488
 4774TIP3    H114279   5.431   5.796   0.415
 4774TIP3    H214280   5.546   5.823   0.510
 4775TIP3   OH214281   5.222   5.183   0.962
 4775TIP3    H114282   5.187   5.177   1.051
 4775TIP3    H214283   5.207   5.096   0.925
 4776TIP3   OH214284   5.038   5.655   2.001
 4776TIP3    H114285   4.991   5.663   2.084
 4776TIP3    H214286   5.018   5.736   1.954
 4777TIP3   OH214287   4.920   5.540   1.528
 4777TIP3    H114288   4.830   5.514   1.550
 4777TIP3    H214289   4.933   5.504   1.440
 4778TIP3   OH214290   5.397   5.623   1.271
 4778TIP3    H114291   5.353   5.696   1.226
 4778TIP3    H214292   5.452   5.583   1.204
 4779TIP3   OH214293   5.585   5.883   2.323
 4779TIP3    H114294   5.558   5.814   2.384
 4779TIP3    H214295   5.677   5.898   2.342
 4780TIP3   OH214296   5.567   5.630   1.484
 4780TIP3    H114297   5.497   5.652   1.423
 4780TIP3    H214298   5.611   5.554   1.445
 4781TIP3   OH214299   4.870   5.672   2.219
 4781TIP3    H114300   4.890   5.734   2.289
 4781TIP3    H214301   4.852   5.590   2.264
 4782TIP3   OH214302   4.916   5.132   0.952
 4782TIP3    H114303   4.889   5.147   1.042
 4782TIP3    H214304   4.840   5.155   0.899
 4783TIP3   OH214305   4.452   5.197   1.806
 4783TIP3    H114306   4.531   5.227   1.850
 4783TIP3    H214307   4.482   5.167   1.720
 4784TIP3   OH214308   4.387   5.171   1.311
 4784TIP3    H114309   4.431   5.201   1.232
 4784TIP3    H214310   4.325   5.240   1.332
 4785TIP3   OH214311   5.601   5.882   1.902
 4785TIP3    H114312   5.629   5.815   1.840
 4785TIP3    H214313   5.559   5.833   1.973
 4786TIP3   OH214314   5.280   5.334   1.575
 4786TIP3    H114315   5.201   5.332   1.629
 4786TIP3    H214316   5.352   5.325   1.637
 4787TIP3   OH214317   4.682   5.410   1.578
 4787TIP3    H114318   4.592   5.414   1.544
 4787TIP3    H214319   4.709   5.320   1.562
 4788TIP3   OH214320   4.939   5.411   1.289
 4788TIP3    H114321   5.031   5.422   1.265
 4788TIP3    H214322   4.890   5.428   1.208
 4789TIP3   OH214323   5.739   5.417   1.781
 4789TIP3    H114324   5.717   5.434   1.872
 4789TIP3    H214325   5.671   5.357   1.750
 4790TIP3   OH214326   4.775   5.434   1.071
 4790TIP3    H114327   4.708   5.403   1.011
 4790TIP3    H214328   4.839   5.479   1.016
 4791TIP3   OH214329   4.871   6.232   2.413
 4791TIP3    H114330   4.951   6.253   2.461
 4791TIP3    H214331   4.802   6.237   2.480
 4792TIP3   OH214332   5.332   5.695   1.680
 4792TIP3    H114333   5.395   5.643   1.630
 4792TIP3    H214334   5.330   5.654   1.766
 4793TIP3   OH214335   4.831   5.163   1.563
 4793TIP3    H114336   4.799   5.089   1.615
 4793TIP3    H214337   4.856   5.125   1.479
 4794TIP3   OH214338   5.305   5.598   1.946
 4794TIP3    H114339   5.217   5.628   1.968
 4794TIP3    H214340   5.364   5.651   2.000
 4795TIP3   OH214341   5.023   5.936   1.118
 4795TIP3    H114342   4.950   5.875   1.105
 4795TIP3    H214343   5.000   5.985   1.196
 4796TIP3   OH214344   5.926   6.198   1.684
 4796TIP3    H114345   5.960   6.248   1.609
 4796TIP3    H214346   5.846   6.158   1.652
 4797TIP3   OH214347   5.464   5.290   0.934
 4797TIP3    H114348   5.374   5.258   0.947
 4797TIP3    H214349   5.463   5.379   0.969
 4798TIP3   OH214350   5.444   6.291   2.070
 4798TIP3    H114351   5.493   6.282   2.151
 4798TIP3    H214352   5.405   6.378   2.074
 4799TIP3   OH214353   5.545   5.518   1.064
 4799TIP3    H114354   5.622   5.483   1.020
 4799TIP3    H214355   5.533   5.605   1.026
 4800TIP3   OH214356   4.733   5.989   1.721
 4800TIP3    H114357   4.766   5.962   1.635
 4800TIP3    H214358   4.794   5.951   1.784
 4801TIP3   OH214359   5.112   6.038   0.890
 4801TIP3    H114360   5.125   6.130   0.912
 4801TIP3    H214361   5.088   5.996   0.972
 4802TIP3   OH214362   4.614   5.904   2.342
 4802TIP3    H114363   4.621   5.882   2.435
 4802TIP3    H214364   4.541   5.851   2.310
 4803TIP3   OH214365   5.350   6.034   2.362
 4803TIP3    H114366   5.283   5.974   2.330
 4803TIP3    H214367   5.433   5.995   2.333
 4804TIP3   OH214368   5.592   6.571   1.958
 4804TIP3    H114369   5.497   6.561   1.964
 4804TIP3    H214370   5.617   6.612   2.040
 4805TIP3   OH214371   5.975   5.631   0.863
 4805TIP3    H114372   5.945   5.589   0.783
 4805TIP3    H214373   5.941   5.721   0.857
 4806TIP3   OH214374   6.228   6.478   1.937
 4806TIP3    H114375   6.133   6.470   1.929
 4806TIP3    H214376   6.262   6.451   1.852
 4807TIP3   OH214377   5.795   6.428   0.757
 4807TIP3    H114378   5.843   6.361   0.806
 4807TIP3    H214379   5.703   6.409   0.776
 4808TIP3   OH214380   5.697   6.069   1.582
 4808TIP3    H114381   5.606   6.048   1.603
 4808TIP3    H214382   5.733   5.987   1.549
 4809TIP3   OH214383   4.843   6.319   1.400
 4809TIP3    H114384   4.851   6.405   1.358
 4809TIP3    H214385   4.753   6.293   1.383
 4810TIP3   OH214386   4.405   5.588   1.094
 4810TIP3    H114387   4.455   5.665   1.122
 4810TIP3    H214388   4.322   5.595   1.140
 4811TIP3   OH214389   4.947   6.077   1.328
 4811TIP3    H114390   4.921   6.166   1.353
 4811TIP3    H214391   4.912   6.022   1.397
 4812TIP3   OH214392   5.130   6.631   1.833
 4812TIP3    H114393   5.166   6.705   1.784
 4812TIP3    H214394   5.205   6.596   1.882
 4813TIP3   OH214395   4.770   6.563   1.274
 4813TIP3    H114396   4.679   6.560   1.302
 4813TIP3    H214397   4.790   6.657   1.269
 4814TIP3   OH214398   5.487   6.286   1.798
 4814TIP3    H114399   5.476   6.283   1.893
 4814TIP3    H214400   5.561   6.228   1.781
 4815TIP3   OH214401   5.517   6.229   0.604
 4815TIP3    H114402   5.485   6.141   0.622
 4815TIP3    H214403   5.458   6.262   0.536
 4816TIP3   OH214404   5.738   6.794   1.854
 4816TIP3    H114405   5.668   6.730   1.863
 4816TIP3    H214406   5.711   6.848   1.779
 4817TIP3   OH214407   4.821   5.419   2.343
 4817TIP3    H114408   4.726   5.426   2.348
 4817TIP3    H214409   4.845   5.364   2.417
 4818TIP3   OH214410   5.663   6.072   0.979
 4818TIP3    H114411   5.616   6.043   1.057
 4818TIP3    H214412   5.708   5.993   0.948
 4819TIP3   OH214413   4.550   6.511   1.997
 4819TIP3    H114414   4.605   6.445   2.039
 4819TIP3    H214415   4.572   6.592   2.043
 4820TIP3   OH214416   4.936   6.226   0.765
 4820TIP3    H114417   4.957   6.144   0.721
 4820TIP3    H214418   4.862   6.205   0.821
 4821TIP3   OH214419   4.775   6.119   0.997
 4821TIP3    H114420   4.844   6.062   1.030
 4821TIP3    H214421   4.787   6.201   1.043
 4822TIP3   OH214422   4.507   5.826   1.199
 4822TIP3    H114423   4.448   5.890   1.239
 4822TIP3    H214424   4.529   5.863   1.113
 4823TIP3   OH214425   5.672   5.479   2.041
 4823TIP3    H114426   5.750   5.523   2.075
 4823TIP3    H214427   5.662   5.401   2.096
 4824TIP3   OH214428   5.544   5.235   1.218
 4824TIP3    H114429   5.523   5.261   1.128
 4824TIP3    H214430   5.589   5.311   1.255
 4825TIP3   OH214431   5.106   6.295   1.006
 4825TIP3    H114432   5.055   6.308   1.087
 4825TIP3    H214433   5.067   6.356   0.944
 4826TIP3   OH214434   5.221   5.417   1.317
 4826TIP3    H114435   5.279   5.490   1.296
 4826TIP3    H214436   5.238   5.398   1.409
 4827TIP3   OH214437   5.509   5.715   2.100
 4827TIP3    H114438   5.535   5.759   2.181
 4827TIP3    H214439   5.560   5.634   2.099
 4828TIP3   OH214440   5.377   5.126   1.409
 4828TIP3    H114441   5.355   5.203   1.461
 4828TIP3    H214442   5.439   5.158   1.344
 4829TIP3   OH214443   4.798   6.366   1.094
 4829TIP3    H114444   4.750   6.395   1.017
 4829TIP3    H214445   4.794   6.440   1.154
 4830TIP3   OH214446   4.883   5.139   1.232
 4830TIP3    H114447   4.873   5.230   1.261
 4830TIP3    H214448   4.978   5.125   1.231
 4831TIP3   OH214449   6.130   5.617   2.092
 4831TIP3    H114450   6.035   5.625   2.101
 4831TIP3    H214451   6.142   5.564   2.013
 4832TIP3   OH214452   5.786   5.816   1.493
 4832TIP3    H114453   5.709   5.760   1.506
 4832TIP3    H214454   5.854   5.777   1.547
 4833TIP3   OH214455   4.497   6.110   0.928
 4833TIP3    H114456   4.582   6.147   0.953
 4833TIP3    H214457   4.514   6.016   0.917
 4834TIP3   OH214458   4.433   5.313   1.078
 4834TIP3    H114459   4.437   5.407   1.095
 4834TIP3    H214460   4.347   5.300   1.036
 4835TIP3   OH214461   5.775   6.783   1.435
 4835TIP3    H114462   5.733   6.845   1.376
 4835TIP3    H214463   5.869   6.795   1.420
 4836TIP3   OH214464   4.838   5.040   1.950
 4836TIP3    H114465   4.808   5.008   1.865
 4836TIP3    H214466   4.828   4.965   2.009
 4837TIP3   OH214467   4.373   6.282   1.366
 4837TIP3    H114468   4.327   6.317   1.442
 4837TIP3    H214469   4.331   6.323   1.291
 4838TIP3   OH214470   4.556   6.831   2.409
 4838TIP3    H114471   4.638   6.836   2.459
 4838TIP3    H214472   4.539   6.738   2.401
 4839TIP3   OH214473   5.021   6.751   2.451
 4839TIP3    H114474   5.114   6.730   2.461
 4839TIP3    H214475   4.991   6.693   2.380
 4840TIP3   OH214476   4.958   6.420   0.569
 4840TIP3    H114477   4.921   6.346   0.618
 4840TIP3    H214478   4.993   6.381   0.489
 4841TIP3   OH214479   5.650   6.683   2.201
 4841TIP3    H114480   5.658   6.613   2.266
 4841TIP3    H214481   5.726   6.740   2.217
 4842TIP3   OH214482   4.665   6.227   2.602
 4842TIP3    H114483   4.684   6.134   2.612
 4842TIP3    H214484   4.578   6.229   2.561
 4843TIP3   OH214485   4.600   5.858   0.940
 4843TIP3    H114486   4.679   5.827   0.984
 4843TIP3    H214487   4.595   5.804   0.861
 4844TIP3   OH214488   5.283   6.311   2.379
 4844TIP3    H114489   5.239   6.332   2.297
 4844TIP3    H214490   5.317   6.223   2.366
 4845TIP3   OH214491   5.111   6.045   0.618
 4845TIP3    H114492   5.130   6.039   0.712
 4845TIP3    H214493   5.075   5.959   0.596
 4846TIP3   OH214494   5.760   6.347   1.997
 4846TIP3    H114495   5.837   6.376   1.950
 4846TIP3    H214496   5.693   6.413   1.979
 4847TIP3   OH214497   4.782   5.971   2.604
 4847TIP3    H114498   4.859   5.950   2.551
 4847TIP3    H214499   4.817   5.991   2.690
 4848TIP3   OH214500   4.820   5.763   1.070
 4848TIP3    H114501   4.801   5.722   1.154
 4848TIP3    H214502   4.871   5.697   1.022
 4849TIP3   OH214503   5.138   5.852   2.264
 4849TIP3    H114504   5.055   5.898   2.272
 4849TIP3    H214505   5.173   5.881   2.179
 4850TIP3   OH214506   4.964   5.564   0.936
 4850TIP3    H114507   4.965   5.637   0.874
 4850TIP3    H214508   5.041   5.511   0.913
 4851TIP3   OH214509   5.642   6.233   2.360
 4851TIP3    H114510   5.712   6.195   2.306
 4851TIP3    H214511   5.639   6.177   2.438
 4852TIP3   OH214512   5.724   5.885   0.545
 4852TIP3    H114513   5.751   5.812   0.490
 4852TIP3    H214514   5.756   5.963   0.499
 4853TIP3   OH214515   5.246   5.625   2.373
 4853TIP3    H114516   5.249   5.553   2.311
 4853TIP3    H214517   5.210   5.699   2.324
 4854TIP3   OH214518   5.253   5.423   2.173
 4854TIP3    H114519   5.281   5.460   2.089
 4854TIP3    H214520   5.162   5.397   2.159
 4855TIP3   OH214521   5.264   5.952   2.045
 4855TIP3    H114522   5.354   5.980   2.027
 4855TIP3    H214523   5.209   6.015   1.998
 4856TIP3   OH214524   5.853   5.912   2.422
 4856TIP3    H114525   5.892   5.824   2.429
 4856TIP3    H214526   5.927   5.969   2.398
 4857TIP3   OH214527   5.888   6.175   2.163
 4857TIP3    H114528   5.834   6.235   2.113
 4857TIP3    H214529   5.977   6.190   2.131
 4858TIP3   OH214530   5.129   5.715   2.614
 4858TIP3    H114531   5.060   5.653   2.634
 4858TIP3    H214532   5.158   5.692   2.526
 4859TIP3   OH214533   5.377   5.189   2.268
 4859TIP3    H114534   5.335   5.270   2.237
 4859TIP3    H214535   5.311   5.121   2.255
 4860TIP3   OH214536   5.503   5.668   2.472
 4860TIP3    H114537   5.492   5.656   2.567
 4860TIP3    H214538   5.417   5.647   2.435
 4861TIP3   OH214539   5.749   5.626   2.342
 4861TIP3    H114540   5.670   5.624   2.396
 4861TIP3    H214541   5.819   5.598   2.400
 4862TIP3   OH214542   5.982   5.582   2.491
 4862TIP3    H114543   5.996   5.488   2.498
 4862TIP3    H214544   5.978   5.612   2.582
 4863TIP3   OH214545   4.963   5.495   2.678
 4863TIP3    H114546   4.968   5.407   2.641
 4863TIP3    H214547   5.001   5.488   2.765
 4864TIP3   OH214548   5.448   5.174   2.533
 4864TIP3    H114549   5.517   5.109   2.528
 4864TIP3    H214550   5.416   5.183   2.443
 4865TIP3   OH214551   5.537   5.390   2.680
 4865TIP3    H114552   5.509   5.319   2.623
 4865TIP3    H214553   5.464   5.452   2.678
 4866TIP3   OH214554   4.784   6.595   0.659
 4866TIP3    H114555   4.851   6.538   0.622
 4866TIP3    H214556   4.754   6.648   0.586
 4867TIP3   OH214557   4.256   6.010   1.036
 4867TIP3    H114558   4.327   6.053   0.988
 4867TIP3    H214559   4.249   5.924   0.996
 4868TIP3   OH214560   4.155   6.600   1.427
 4868TIP3    H114561   4.091   6.543   1.385
 4868TIP3    H214562   4.202   6.542   1.487
 4869TIP3   OH214563   4.299   6.439   1.601
 4869TIP3    H114564   4.288   6.374   1.670
 4869TIP3    H214565   4.349   6.510   1.643
 4870TIP3   OH214566   6.033   6.858   1.415
 4870TIP3    H114567   6.056   6.870   1.507
 4870TIP3    H214568   6.059   6.940   1.373
 4871TIP3   OH214569   6.050   6.875   1.700
 4871TIP3    H114570   6.012   6.788   1.697
 4871TIP3    H214571   6.143   6.861   1.720
 4872TIP3   OH214572   6.096   6.570   2.246
 4872TIP3    H114573   6.026   6.578   2.312
 4872TIP3    H214574   6.148   6.650   2.258
 4873TIP3   OH214575   5.957   6.084   0.905
 4873TIP3    H114576   6.024   6.140   0.864
 4873TIP3    H214577   5.990   6.067   0.993
 4874TIP3   OH214578   6.023   5.990   1.141
 4874TIP3    H114579   5.971   5.932   1.198
 4874TIP3    H214580   6.107   5.999   1.187
 4875TIP3   OH214581   6.087   6.342   1.517
 4875TIP3    H114582   6.143   6.275   1.478
 4875TIP3    H214583   6.082   6.410   1.451
 4876TIP3   OH214584   5.913   6.636   1.695
 4876TIP3    H114585   5.843   6.677   1.746
 4876TIP3    H214586   5.868   6.594   1.622
 4877TIP3   OH214587   5.937   5.896   0.714
 4877TIP3    H114588   5.854   5.913   0.669
 4877TIP3    H214589   5.943   5.965   0.780
 4878TIP3   OH214590   5.891   5.509   0.636
 4878TIP3    H114591   5.840   5.576   0.589
 4878TIP3    H214592   5.837   5.430   0.630
 4879TIP3   OH214593   5.874   5.785   1.239
 4879TIP3    H114594   5.874   5.691   1.220
 4879TIP3    H214595   5.855   5.790   1.333
 4880TIP3   OH214596   4.481   5.874   1.971
 4880TIP3    H114597   4.471   5.838   1.883
 4880TIP3    H214598   4.575   5.872   1.987
 4881TIP3   OH214599   6.144   6.224   2.067
 4881TIP3    H114600   6.209   6.156   2.051
 4881TIP3    H214601   6.168   6.295   2.007
 4882TIP3   OH214602   6.319   6.013   2.064
 4882TIP3    H114603   6.244   5.971   2.107
 4882TIP3    H214604   6.393   5.956   2.083
 4883TIP3   OH214605   5.778   5.264   0.673
 4883TIP3    H114606   5.860   5.231   0.637
 4883TIP3    H214607   5.760   5.207   0.747
 4884TIP3   OH214608   5.867   5.535   1.129
 4884TIP3    H114609   5.896   5.444   1.138
 4884TIP3    H214610   5.859   5.549   1.035
 4885TIP3   OH214611   6.005   5.693   1.615
 4885TIP3    H114612   6.086   5.713   1.568
 4885TIP3    H214613   6.018   5.729   1.702
 4886TIP3   OH214614   6.079   5.841   1.842
 4886TIP3    H114615   6.005   5.872   1.895
 4886TIP3    H214616   6.113   5.920   1.799
 4887TIP3   OH214617   4.698   5.552   2.621
 4887TIP3    H114618   4.792   5.549   2.636
 4887TIP3    H214619   4.665   5.471   2.661
 4888TIP3   OH214620   6.540   5.444   2.380
 4888TIP3    H114621   6.602   5.384   2.337
 4888TIP3    H214622   6.502   5.494   2.308
 4889TIP3   OH214623   5.939   5.275   1.167
 4889TIP3    H114624   5.985   5.256   1.248
 4889TIP3    H214625   5.873   5.206   1.160
 4890TIP3   OH214626   4.670   5.261   1.971
 4890TIP3    H114627   4.724   5.183   1.974
 4890TIP3    H214628   4.732   5.332   1.953
 4891TIP3   OH214629   4.456   5.530   2.029
 4891TIP3    H114630   4.506   5.517   1.948
 4891TIP3    H214631   4.488   5.613   2.064
 4892TIP3   OH214632   6.391   5.558   2.181
 4892TIP3    H114633   6.307   5.599   2.200
 4892TIP3    H214634   6.369   5.482   2.128
 4893TIP3   OH214635   5.984   5.197   0.845
 4893TIP3    H114636   6.050   5.152   0.792
 4893TIP3    H214637   5.975   5.283   0.806
 4894TIP3   OH214638   4.446   5.057   1.554
 4894TIP3    H114639   4.356   5.033   1.578
 4894TIP3    H214640   4.438   5.096   1.467
 4895TIP3   OH214641   5.655   6.745   1.158
 4895TIP3    H114642   5.750   6.740   1.145
 4895TIP3    H214643   5.642   6.828   1.203
 4896TIP3   OH214644   4.668   5.107   2.357
 4896TIP3    H114645   4.616   5.098   2.437
 4896TIP3    H214646   4.610   5.149   2.295
 4897TIP3   OH214647   4.696   6.550   2.423
 4897TIP3    H114648   4.603   6.529   2.415
 4897TIP3    H214649   4.716   6.535   2.515
 4898TIP3   OH214650   4.899   6.592   1.977
 4898TIP3    H114651   4.849   6.666   1.944
 4898TIP3    H214652   4.985   6.600   1.936
 4899TIP3   OH214653   5.307   6.823   2.115
 4899TIP3    H114654   5.347   6.817   2.201
 4899TIP3    H214655   5.368   6.877   2.064
 4900TIP3   OH214656   5.491   6.980   1.981
 4900TIP3    H114657   5.553   6.929   1.929
 4900TIP3    H214658   5.546   7.034   2.039
 4901TIP3   OH214659   6.303   5.312   2.074
 4901TIP3    H114660   6.214   5.303   2.039
 4901TIP3    H214661   6.340   5.225   2.068
 4902TIP3   OH214662   4.554   6.847   2.015
 4902TIP3    H114663   4.465   6.875   1.996
 4902TIP3    H214664   4.583   6.905   2.086
 4903TIP3   OH214665   4.790   6.821   1.873
 4903TIP3    H114666   4.706   6.830   1.918
 4903TIP3    H214667   4.772   6.849   1.783
 4904TIP3   OH214668   5.213   6.837   1.670
 4904TIP3    H114669   5.141   6.844   1.607
 4904TIP3    H214670   5.226   6.926   1.703
 4905TIP3   OH214671   5.477   6.773   1.719
 4905TIP3    H114672   5.386   6.794   1.698
 4905TIP3    H214673   5.528   6.840   1.673
 4906TIP3   OH214674   5.680   6.946   1.636
 4906TIP3    H114675   5.670   7.035   1.601
 4906TIP3    H214676   5.713   6.895   1.562
 4907TIP3   OH214677   4.472   6.617   1.752
 4907TIP3    H114678   4.500   6.589   1.839
 4907TIP3    H214679   4.542   6.586   1.694
 4908TIP3   OH214680   4.673   6.505   1.610
 4908TIP3    H114681   4.685   6.420   1.652
 4908TIP3    H214682   4.761   6.543   1.608
 4909TIP3   OH214683   4.943   6.581   1.632
 4909TIP3    H114684   4.961   6.488   1.618
 4909TIP3    H214685   4.998   6.605   1.706
 4910TIP3   OH214686   5.511   5.241   1.710
 4910TIP3    H114687   5.471   5.169   1.758
 4910TIP3    H214688   5.579   5.200   1.656
 4911TIP3   OH214689   6.011   5.151   1.608
 4911TIP3    H114690   6.047   5.197   1.533
 4911TIP3    H214691   5.917   5.170   1.606
 4912TIP3   OH214692   6.120   5.212   1.366
 4912TIP3    H114693   6.189   5.154   1.334
 4912TIP3    H214694   6.157   5.300   1.359
 4913TIP3   OH214695   4.747   4.941   1.709
 4913TIP3    H114696   4.657   4.909   1.714
 4913TIP3    H214697   4.800   4.862   1.700
 4914TIP3   OH214698   4.501   4.836   1.328
 4914TIP3    H114699   4.565   4.870   1.266
 4914TIP3    H214700   4.521   4.880   1.410
 4915TIP3   OH214701   5.224   4.982   1.598
 4915TIP3    H114702   5.273   5.031   1.532
 4915TIP3    H214703   5.262   5.009   1.682
 4916TIP3   OH214704   5.727   5.128   1.576
 4916TIP3    H114705   5.735   5.095   1.487
 4916TIP3    H214706   5.728   5.050   1.632
 4917TIP3   OH214707   5.761   5.068   1.191
 4917TIP3    H114708   5.676   5.111   1.193
 4917TIP3    H214709   5.745   4.981   1.230
 4918TIP3   OH214710   4.255   6.410   1.160
 4918TIP3    H114711   4.171   6.370   1.141
 4918TIP3    H214712   4.242   6.503   1.142
 4919TIP3   OH214713   4.678   4.971   1.130
 4919TIP3    H114714   4.723   4.899   1.086
 4919TIP3    H214715   4.748   5.021   1.172
 4920TIP3   OH214716   5.159   5.164   1.232
 4920TIP3    H114717   5.222   5.113   1.283
 4920TIP3    H214718   5.177   5.255   1.254
 4921TIP3   OH214719   5.101   6.648   0.684
 4921TIP3    H114720   5.186   6.628   0.724
 4921TIP3    H214721   5.047   6.572   0.705
 4922TIP3   OH214722   5.788   6.696   0.773
 4922TIP3    H114723   5.803   6.608   0.739
 4922TIP3    H214724   5.777   6.751   0.696
 4923TIP3   OH214725   4.972   5.222   2.593
 4923TIP3    H114726   4.937   5.155   2.651
 4923TIP3    H214727   5.065   5.229   2.617
 4924TIP3   OH214728   5.223   5.228   2.711
 4924TIP3    H114729   5.301   5.206   2.660
 4924TIP3    H214730   5.216   5.159   2.776
 4925TIP3   OH214731   4.358   6.400   0.901
 4925TIP3    H114732   4.330   6.408   0.992
 4925TIP3    H214733   4.402   6.315   0.896
 4926TIP3   OH214734   6.046   5.311   2.501
 4926TIP3    H114735   6.062   5.281   2.591
 4926TIP3    H214736   6.131   5.306   2.458
 4927TIP3   OH214737   5.969   6.860   1.990
 4927TIP3    H114738   5.885   6.824   1.961
 4927TIP3    H214739   5.999   6.913   1.917
 4928TIP3   OH214740   7.110   6.134   1.306
 4928TIP3    H114741   7.194   6.179   1.299
 4928TIP3    H214742   7.131   6.041   1.296
 4929TIP3   OH214743   6.512   6.081   1.562
 4929TIP3    H114744   6.548   6.024   1.630
 4929TIP3    H214745   6.589   6.110   1.513
 4930TIP3   OH214746   6.471   6.471   1.360
 4930TIP3    H114747   6.464   6.376   1.348
 4930TIP3    H214748   6.560   6.484   1.395
 4931TIP3   OH214749   6.181   5.734   1.085
 4931TIP3    H114750   6.208   5.810   1.035
 4931TIP3    H214751   6.098   5.760   1.125
 4932TIP3   OH214752   6.269   6.000   1.248
 4932TIP3    H114753   6.326   5.925   1.267
 4932TIP3    H214754   6.313   6.047   1.178
 4933TIP3   OH214755   7.114   6.448   1.117
 4933TIP3    H114756   7.042   6.384   1.116
 4933TIP3    H214757   7.072   6.531   1.137
 4934TIP3   OH214758   8.076   5.785   1.221
 4934TIP3    H114759   8.151   5.836   1.252
 4934TIP3    H214760   8.031   5.844   1.161
 4935TIP3   OH214761   7.513   5.885   1.295
 4935TIP3    H114762   7.582   5.852   1.352
 4935TIP3    H214763   7.508   5.821   1.223
 4936TIP3   OH214764   6.826   5.552   1.266
 4936TIP3    H114765   6.849   5.607   1.191
 4936TIP3    H214766   6.773   5.481   1.229
 4937TIP3   OH214767   7.500   5.755   0.823
 4937TIP3    H114768   7.586   5.716   0.838
 4937TIP3    H214769   7.491   5.758   0.728
 4938TIP3   OH214770   6.419   5.786   1.316
 4938TIP3    H114771   6.510   5.776   1.344
 4938TIP3    H214772   6.406   5.714   1.254
 4939TIP3   OH214773   6.817   5.976   1.216
 4939TIP3    H114774   6.897   5.996   1.166
 4939TIP3    H214775   6.761   5.930   1.154
 4940TIP3   OH214776   6.787   5.593   1.637
 4940TIP3    H114777   6.735   5.630   1.566
 4940TIP3    H214778   6.733   5.607   1.715
 4941TIP3   OH214779   6.885   6.325   1.518
 4941TIP3    H114780   6.812   6.362   1.567
 4941TIP3    H214781   6.919   6.398   1.467
 4942TIP3   OH214782   7.717   5.823   1.070
 4942TIP3    H114783   7.715   5.743   1.018
 4942TIP3    H214784   7.800   5.865   1.046
 4943TIP3   OH214785   6.662   5.704   1.416
 4943TIP3    H114786   6.718   5.778   1.438
 4943TIP3    H214787   6.716   5.649   1.359
 4944TIP3   OH214788   6.703   6.542   1.531
 4944TIP3    H114789   6.708   6.625   1.483
 4944TIP3    H214790   6.627   6.553   1.589
 4945TIP3   OH214791   6.156   6.237   0.816
 4945TIP3    H114792   6.133   6.291   0.740
 4945TIP3    H214793   6.164   6.300   0.888
 4946TIP3   OH214794   7.950   5.663   1.442
 4946TIP3    H114795   7.872   5.716   1.424
 4946TIP3    H214796   8.007   5.680   1.367
 4947TIP3   OH214797   7.150   5.336   1.408
 4947TIP3    H114798   7.144   5.263   1.346
 4947TIP3    H214799   7.060   5.349   1.438
 4948TIP3   OH214800   7.993   6.282   1.176
 4948TIP3    H114801   7.925   6.319   1.119
 4948TIP3    H214802   8.074   6.291   1.126
 4949TIP3   OH214803   7.614   6.189   1.592
 4949TIP3    H114804   7.641   6.261   1.648
 4949TIP3    H214805   7.518   6.189   1.597
 4950TIP3   OH214806   6.665   6.171   1.030
 4950TIP3    H114807   6.627   6.108   0.970
 4950TIP3    H214808   6.744   6.128   1.064
 4951TIP3   OH214809   6.717   6.480   1.204
 4951TIP3    H114810   6.645   6.434   1.160
 4951TIP3    H214811   6.709   6.571   1.174
 4952TIP3   OH214812   6.727   6.139   1.403
 4952TIP3    H114813   6.769   6.097   1.329
 4952TIP3    H214814   6.794   6.198   1.438
 4953TIP3   OH214815   7.349   6.747   1.112
 4953TIP3    H114816   7.400   6.819   1.076
 4953TIP3    H214817   7.410   6.701   1.171
 4954TIP3   OH214818   6.915   6.662   1.670
 4954TIP3    H114819   6.870   6.719   1.733
 4954TIP3    H214820   6.846   6.608   1.633
 4955TIP3   OH214821   6.679   6.253   1.778
 4955TIP3    H114822   6.677   6.340   1.818
 4955TIP3    H214823   6.588   6.222   1.781
 4956TIP3   OH214824   6.731   6.807   1.812
 4956TIP3    H114825   6.688   6.843   1.735
 4956TIP3    H214826   6.659   6.789   1.874
 4957TIP3   OH214827   6.541   6.067   0.810
 4957TIP3    H114828   6.485   6.114   0.748
 4957TIP3    H214829   6.515   5.976   0.801
 4958TIP3   OH214830   6.304   6.381   1.696
 4958TIP3    H114831   6.233   6.361   1.635
 4958TIP3    H214832   6.340   6.296   1.721
 4959TIP3   OH214833   6.218   6.575   1.384
 4959TIP3    H114834   6.306   6.538   1.383
 4959TIP3    H214835   6.223   6.647   1.447
 4960TIP3   OH214836   7.131   6.800   1.570
 4960TIP3    H114837   7.118   6.894   1.580
 4960TIP3    H214838   7.051   6.761   1.606
 4961TIP3   OH214839   6.359   6.727   0.873
 4961TIP3    H114840   6.451   6.720   0.899
 4961TIP3    H214841   6.344   6.821   0.866
 4962TIP3   OH214842   7.926   6.185   1.671
 4962TIP3    H114843   7.848   6.174   1.615
 4962TIP3    H214844   7.958   6.096   1.684
 4963TIP3   OH214845   6.492   6.578   1.693
 4963TIP3    H114846   6.541   6.566   1.774
 4963TIP3    H214847   6.427   6.508   1.694
 4964TIP3   OH214848   6.888   5.373   1.496
 4964TIP3    H114849   6.806   5.346   1.456
 4964TIP3    H214850   6.868   5.457   1.537
 4965TIP3   OH214851   7.440   5.506   1.697
 4965TIP3    H114852   7.510   5.476   1.756
 4965TIP3    H214853   7.359   5.484   1.743
 4966TIP3   OH214854   7.677   5.918   1.608
 4966TIP3    H114855   7.634   5.899   1.692
 4966TIP3    H214856   7.655   6.010   1.591
 4967TIP3   OH214857   6.826   5.900   1.514
 4967TIP3    H114858   6.776   5.910   1.595
 4967TIP3    H214859   6.800   5.974   1.460
 4968TIP3   OH214860   6.741   5.910   0.965
 4968TIP3    H114861   6.710   5.825   0.997
 4968TIP3    H214862   6.764   5.895   0.874
 4969TIP3   OH214863   7.397   6.139   1.833
 4969TIP3    H114864   7.366   6.073   1.895
 4969TIP3    H214865   7.489   6.152   1.857
 4970TIP3   OH214866   7.293   5.909   0.897
 4970TIP3    H114867   7.327   5.996   0.915
 4970TIP3    H214868   7.366   5.862   0.857
 4971TIP3   OH214869   6.652   5.913   1.729
 4971TIP3    H114870   6.721   5.960   1.777
 4971TIP3    H214871   6.640   5.831   1.778
 4972TIP3   OH214872   6.253   5.440   1.325
 4972TIP3    H114873   6.307   5.465   1.399
 4972TIP3    H214874   6.291   5.487   1.250
 4973TIP3   OH214875   6.221   5.447   0.718
 4973TIP3    H114876   6.265   5.523   0.678
 4973TIP3    H214877   6.180   5.483   0.797
 4974TIP3   OH214878   7.344   6.197   1.536
 4974TIP3    H114879   7.358   6.188   1.442
 4974TIP3    H214880   7.333   6.108   1.568
 4975TIP3   OH214881   7.088   5.508   1.175
 4975TIP3    H114882   7.006   5.507   1.224
 4975TIP3    H214883   7.151   5.549   1.235
 4976TIP3   OH214884   6.396   5.570   1.138
 4976TIP3    H114885   6.321   5.615   1.099
 4976TIP3    H214886   6.421   5.504   1.073
 4977TIP3   OH214887   6.747   5.731   0.723
 4977TIP3    H114888   6.843   5.727   0.728
 4977TIP3    H214889   6.728   5.727   0.629
 4978TIP3   OH214890   7.559   5.564   1.336
 4978TIP3    H114891   7.527   5.615   1.410
 4978TIP3    H214892   7.485   5.508   1.312
 4979TIP3   OH214893   6.662   6.496   1.908
 4979TIP3    H114894   6.744   6.517   1.952
 4979TIP3    H214895   6.596   6.501   1.977
 4980TIP3   OH214896   7.197   5.890   1.221
 4980TIP3    H114897   7.290   5.867   1.212
 4980TIP3    H214898   7.170   5.850   1.303
 4981TIP3   OH214899   6.667   5.419   1.089
 4981TIP3    H114900   6.611   5.346   1.116
 4981TIP3    H214901   6.718   5.385   1.016
 4982TIP3   OH214902   7.096   5.858   1.475
 4982TIP3    H114903   7.006   5.885   1.488
 4982TIP3    H214904   7.147   5.913   1.534
 4983TIP3   OH214905   7.761   6.403   1.103
 4983TIP3    H114906   7.729   6.494   1.107
 4983TIP3    H214907   7.722   6.360   1.178
 4984TIP3   OH214908   7.241   6.535   1.586
 4984TIP3    H114909   7.285   6.502   1.664
 4984TIP3    H214910   7.202   6.618   1.614
 4985TIP3   OH214911   6.498   6.217   1.275
 4985TIP3    H114912   6.497   6.170   1.191
 4985TIP3    H214913   6.576   6.183   1.320
 4986TIP3   OH214914   6.413   6.171   1.842
 4986TIP3    H114915   6.432   6.150   1.933
 4986TIP3    H214916   6.346   6.107   1.817
 4987TIP3   OH214917   7.163   6.292   1.848
 4987TIP3    H114918   7.112   6.243   1.783
 4987TIP3    H214919   7.253   6.260   1.837
 4988TIP3   OH214920   7.402   6.829   1.532
 4988TIP3    H114921   7.309   6.818   1.554
 4988TIP3    H214922   7.437   6.880   1.606
 4989TIP3   OH214923   7.456   6.372   1.133
 4989TIP3    H114924   7.372   6.358   1.177
 4989TIP3    H214925   7.436   6.367   1.040
 4990TIP3   OH214926   6.594   6.606   0.907
 4990TIP3    H114927   6.649   6.588   0.831
 4990TIP3    H214928   6.557   6.520   0.930
 4991TIP3   OH214929   6.232   5.886   0.388
 4991TIP3    H114930   6.250   5.967   0.437
 4991TIP3    H214931   6.158   5.847   0.434
 4992TIP3   OH214932   6.738   6.297   0.791
 4992TIP3    H114933   6.776   6.362   0.850
 4992TIP3    H214934   6.705   6.228   0.849
 4993TIP3   OH214935   6.968   6.908   1.339
 4993TIP3    H114936   7.010   6.978   1.289
 4993TIP3    H214937   7.025   6.832   1.327
 4994TIP3   OH214938   7.387   6.601   1.360
 4994TIP3    H114939   7.347   6.612   1.446
 4994TIP3    H214940   7.360   6.514   1.332
 4995TIP3   OH214941   6.617   5.662   1.846
 4995TIP3    H114942   6.522   5.670   1.850
 4995TIP3    H214943   6.639   5.608   1.922
 4996TIP3   OH214944   6.332   6.763   1.554
 4996TIP3    H114945   6.394   6.707   1.602
 4996TIP3    H214946   6.344   6.850   1.592
 4997TIP3   OH214947   6.364   6.181   0.636
 4997TIP3    H114948   6.295   6.189   0.702
 4997TIP3    H214949   6.347   6.252   0.574
 4998TIP3   OH214950   7.469   5.725   1.543
 4998TIP3    H114951   7.545   5.774   1.573
 4998TIP3    H214952   7.460   5.654   1.607
 4999TIP3   OH214953   7.050   5.604   0.780
 4999TIP3    H114954   7.110   5.648   0.720
 4999TIP3    H214955   7.074   5.637   0.866
 5000TIP3   OH214956   7.312   5.946   1.629
 5000TIP3    H114957   7.340   5.975   1.716
 5000TIP3    H214958   7.361   5.866   1.612
 5001TIP3   OH214959   7.144   5.360   0.944
 5001TIP3    H114960   7.130   5.395   1.032
 5001TIP3    H214961   7.198   5.425   0.900
 5002TIP3   OH214962   6.732   5.403   0.639
 5002TIP3    H114963   6.666   5.469   0.659
 5002TIP3    H214964   6.763   5.373   0.725
 5003TIP3   OH214965   7.957   5.920   1.583
 5003TIP3    H114966   7.862   5.910   1.593
 5003TIP3    H214967   7.987   5.834   1.554
 5004TIP3   OH214968   7.679   5.988   0.837
 5004TIP3    H114969   7.628   5.913   0.867
 5004TIP3    H214970   7.693   6.040   0.916
 5005TIP3   OH214971   6.294   5.686   0.609
 5005TIP3    H114972   6.329   5.774   0.598
 5005TIP3    H214973   6.208   5.689   0.568
 5006TIP3   OH214974   6.623   5.303   1.442
 5006TIP3    H114975   6.595   5.273   1.355
 5006TIP3    H214976   6.619   5.225   1.497
 5007TIP3   OH214977   6.157   6.574   0.801
 5007TIP3    H114978   6.099   6.572   0.877
 5007TIP3    H214979   6.222   6.640   0.823
 5008TIP3   OH214980   6.340   7.102   1.920
 5008TIP3    H114981   6.419   7.108   1.973
 5008TIP3    H214982   6.338   7.012   1.889
 5009TIP3   OH214983   6.814   7.034   1.946
 5009TIP3    H114984   6.908   7.033   1.965
 5009TIP3    H214985   6.799   6.953   1.896
 5010TIP3   OH214986   7.477   6.949   1.765
 5010TIP3    H114987   7.434   6.870   1.798
 5010TIP3    H214988   7.563   6.949   1.807
 5011TIP3   OH214989   6.458   6.476   2.095
 5011TIP3    H114990   6.482   6.384   2.101
 5011TIP3    H214991   6.372   6.477   2.052
 5012TIP3   OH214992   7.078   6.559   1.871
 5012TIP3    H114993   7.032   6.578   1.789
 5012TIP3    H214994   7.113   6.471   1.859
 5013TIP3   OH214995   7.619   6.587   1.508
 5013TIP3    H114996   7.664   6.669   1.491
 5013TIP3    H214997   7.534   6.597   1.464
 5014TIP3   OH214998   6.583   6.222   2.090
 5014TIP3    H114999   6.663   6.204   2.041
 5014TIP3    H215000   6.613   6.246   2.178
 5015TIP3   OH215001   6.878   6.067   1.767
 5015TIP3    H115002   6.817   6.140   1.773
 5015TIP3    H215003   6.948   6.098   1.710
 5016TIP3   OH215004   7.425   6.474   1.833
 5016TIP3    H115005   7.514   6.457   1.801
 5016TIP3    H215006   7.421   6.429   1.918
 5017TIP3   OH215007   7.045   5.872   1.867
 5017TIP3    H115008   7.049   5.796   1.808
 5017TIP3    H215009   6.991   5.936   1.820
 5018TIP3   OH215010   7.048   5.668   1.673
 5018TIP3    H115011   7.073   5.713   1.592
 5018TIP3    H215012   6.956   5.643   1.659
 5019TIP3   OH215013   7.079   6.165   1.616
 5019TIP3    H115014   7.166   6.184   1.581
 5019TIP3    H215015   7.020   6.219   1.563
 5020TIP3   OH215016   7.661   6.175   1.921
 5020TIP3    H115017   7.713   6.095   1.932
 5020TIP3    H215018   7.725   6.242   1.898
 5021TIP3   OH215019   7.692   6.425   1.704
 5021TIP3    H115020   7.653   6.483   1.640
 5021TIP3    H215021   7.786   6.432   1.689
 5022TIP3   OH215022   6.923   5.972   2.102
 5022TIP3    H115023   6.854   5.909   2.122
 5022TIP3    H215024   6.953   5.949   2.015
 5023TIP3   OH215025   7.175   5.438   1.760
 5023TIP3    H115026   7.133   5.518   1.727
 5023TIP3    H215027   7.110   5.369   1.747
 5024TIP3   OH215028   7.299   5.921   1.965
 5024TIP3    H115029   7.288   5.911   2.059
 5024TIP3    H215030   7.212   5.902   1.929
 5025TIP3   OH215031   7.531   5.857   1.828
 5025TIP3    H115032   7.455   5.866   1.885
 5025TIP3    H215033   7.605   5.846   1.888
 5026TIP3   OH215034   7.765   5.843   1.973
 5026TIP3    H115035   7.781   5.749   1.978
 5026TIP3    H215036   7.763   5.872   2.064
 5027TIP3   OH215037   6.758   5.752   2.166
 5027TIP3    H115038   6.764   5.663   2.129
 5027TIP3    H215039   6.797   5.745   2.253
 5028TIP3   OH215040   7.241   5.429   2.025
 5028TIP3    H115041   7.311   5.365   2.019
 5028TIP3    H215042   7.207   5.437   1.935
 5029TIP3   OH215043   7.331   5.646   2.167
 5029TIP3    H115044   7.302   5.575   2.111
 5029TIP3    H215045   7.258   5.708   2.167
 5030TIP3   OH215046   5.973   6.844   0.893
 5030TIP3    H115047   5.919   6.788   0.837
 5030TIP3    H215048   5.967   6.803   0.979
 5031TIP3   OH215049   5.923   6.740   1.143
 5031TIP3    H115050   5.959   6.665   1.095
 5031TIP3    H215051   5.999   6.780   1.186
 5032TIP3   OH215052   6.268   6.147   1.473
 5032TIP3    H115053   6.261   6.099   1.390
 5032TIP3    H215054   6.359   6.137   1.499
 5033TIP3   OH215055   7.953   6.466   1.631
 5033TIP3    H115056   7.981   6.374   1.637
 5033TIP3    H215057   7.937   6.480   1.537
 5034TIP3   OH215058   7.956   5.968   1.048
 5034TIP3    H115059   8.017   6.004   0.984
 5034TIP3    H215060   7.895   6.040   1.065
 5035TIP3   OH215061   7.826   6.119   1.362
 5035TIP3    H115062   7.751   6.172   1.390
 5035TIP3    H215063   7.825   6.125   1.267
 5036TIP3   OH215064   6.493   5.806   2.109
 5036TIP3    H115065   6.588   5.805   2.124
 5036TIP3    H215066   6.461   5.725   2.148
 5037TIP3   OH215067   6.456   5.518   1.494
 5037TIP3    H115068   6.515   5.443   1.484
 5037TIP3    H215069   6.511   5.594   1.471
 5038TIP3   OH215070   6.246   5.791   1.529
 5038TIP3    H115071   6.301   5.783   1.451
 5038TIP3    H215072   6.282   5.866   1.576
 5039TIP3   OH215073   6.193   5.217   1.066
 5039TIP3    H115074   6.098   5.209   1.081
 5039TIP3    H215075   6.217   5.300   1.106
 5040TIP3   OH215076   6.459   5.355   1.841
 5040TIP3    H115077   6.409   5.347   1.922
 5040TIP3    H215078   6.402   5.403   1.782
 5041TIP3   OH215079   6.496   6.789   1.954
 5041TIP3    H115080   6.404   6.779   1.929
 5041TIP3    H215081   6.496   6.781   2.049
 5042TIP3   OH215082   6.606   6.893   1.592
 5042TIP3    H115083   6.549   6.953   1.544
 5042TIP3    H215084   6.648   6.841   1.523
 5043TIP3   OH215085   7.176   7.077   1.586
 5043TIP3    H115086   7.192   7.072   1.680
 5043TIP3    H215087   7.244   7.135   1.553
 5044TIP3   OH215088   8.134   5.553   1.607
 5044TIP3    H115089   8.067   5.591   1.550
 5044TIP3    H215090   8.170   5.480   1.556
 5045TIP3   OH215091   6.302   7.031   1.619
 5045TIP3    H115092   6.235   7.064   1.559
 5045TIP3    H215093   6.352   7.109   1.644
 5046TIP3   OH215094   6.514   7.072   1.420
 5046TIP3    H115095   6.425   7.073   1.385
 5046TIP3    H215096   6.540   7.164   1.423
 5047TIP3   OH215097   7.052   7.105   1.133
 5047TIP3    H115098   7.113   7.097   1.060
 5047TIP3    H215099   7.096   7.164   1.194
 5048TIP3   OH215100   6.326   6.876   1.299
 5048TIP3    H115101   6.318   6.840   1.388
 5048TIP3    H215102   6.373   6.809   1.250
 5049TIP3   OH215103   6.457   6.677   1.177
 5049TIP3    H115104   6.468   6.597   1.229
 5049TIP3    H215105   6.538   6.687   1.128
 5050TIP3   OH215106   6.729   6.733   1.127
 5050TIP3    H115107   6.809   6.721   1.076
 5050TIP3    H215108   6.711   6.827   1.121
 5051TIP3   OH215109   7.370   5.405   1.217
 5051TIP3    H115110   7.291   5.409   1.271
 5051TIP3    H215111   7.378   5.313   1.193
 5052TIP3   OH215112   7.858   5.419   0.983
 5052TIP3    H115113   7.937   5.473   0.973
 5052TIP3    H215114   7.810   5.460   1.054
 5053TIP3   OH215115   0.593   7.912   2.064
 5053TIP3    H115116   0.568   7.833   2.016
 5053TIP3    H215117   0.689   7.906   2.070
 5054TIP3   OH215118   6.531   5.203   1.199
 5054TIP3    H115119   6.446   5.170   1.229
 5054TIP3    H215120   6.588   5.126   1.201
 5055TIP3   OH215121   6.435   5.064   0.958
 5055TIP3    H115122   6.370   5.096   0.895
 5055TIP3    H215123   6.415   5.109   1.040
 5056TIP3   OH215124   6.919   5.246   1.125
 5056TIP3    H115125   6.933   5.314   1.059
 5056TIP3    H215126   6.999   5.246   1.177
 5057TIP3   OH215127   7.569   5.478   1.042
 5057TIP3    H115128   7.614   5.400   1.009
 5057TIP3    H215129   7.514   5.446   1.113
 5058TIP3   OH215130   6.477   5.273   0.659
 5058TIP3    H115131   6.463   5.252   0.566
 5058TIP3    H215132   6.492   5.367   0.661
 5059TIP3   OH215133   6.872   5.418   0.884
 5059TIP3    H115134   6.893   5.331   0.851
 5059TIP3    H215135   6.941   5.474   0.849
 5060TIP3   OH215136   6.764   5.479   2.079
 5060TIP3    H115137   6.731   5.411   2.138
 5060TIP3    H215138   6.857   5.486   2.102
 5061TIP3   OH215139   7.015   5.485   2.197
 5061TIP3    H115140   7.094   5.463   2.148
 5061TIP3    H215141   7.008   5.416   2.263
 5062TIP3   OH215142   7.831   5.577   1.982
 5062TIP3    H115143   7.844   5.551   2.073
 5062TIP3    H215144   7.918   5.573   1.943
 5063TIP3   OH215145   0.538   6.563   2.877
 5063TIP3    H115146   0.556   6.643   2.927
 5063TIP3    H215147   0.556   6.586   2.786
 5064TIP3   OH215148   8.449   6.404   2.530
 5064TIP3    H115149   8.506   6.456   2.585
 5064TIP3    H215150   8.434   6.458   2.452
 5065TIP3   OH215151   0.590   6.769   3.057
 5065TIP3    H115152   0.503   6.806   3.050
 5065TIP3    H215153   0.629   6.811   3.133
 5066TIP3   OH215154   0.119   6.521   2.706
 5066TIP3    H115155   0.169   6.440   2.716
 5066TIP3    H215156   0.180   6.590   2.731
 5067TIP3   OH215157   0.318   6.478   3.030
 5067TIP3    H115158   0.245   6.526   2.991
 5067TIP3    H215159   0.393   6.498   2.973
 5068TIP3   OH215160   0.229   7.491   2.966
 5068TIP3    H115161   0.209   7.403   2.933
 5068TIP3    H215162   0.150   7.542   2.945
 5069TIP3   OH215163   0.417   7.086   2.880
 5069TIP3    H115164   0.344   7.146   2.894
 5069TIP3    H215165   0.457   7.115   2.798
 5070TIP3   OH215166   0.245   6.042   2.144
 5070TIP3    H115167   0.160   6.065   2.183
 5070TIP3    H215168   0.270   6.119   2.093
 5071TIP3   OH215169   0.380   6.927   3.354
 5071TIP3    H115170   0.293   6.958   3.380
 5071TIP3    H215171   0.369   6.832   3.342
 5072TIP3   OH215172   0.186   7.243   2.844
 5072TIP3    H115173   0.229   7.285   2.769
 5072TIP3    H215174   0.108   7.202   2.807
 5073TIP3   OH215175   0.453   7.441   3.117
 5073TIP3    H115176   0.368   7.481   3.099
 5073TIP3    H215177   0.480   7.404   3.033
 5074TIP3   OH215178   0.343   6.661   3.275
 5074TIP3    H115179   0.282   6.602   3.321
 5074TIP3    H215180   0.353   6.622   3.189
 5075TIP3   OH215181   0.051   6.827   2.649
 5075TIP3    H115182  -0.010   6.753   2.649
 5075TIP3    H215183   0.128   6.794   2.695
 5076TIP3   OH215184   0.288   6.627   3.703
 5076TIP3    H115185   0.284   6.532   3.694
 5076TIP3    H215186   0.197   6.655   3.706
 5077TIP3   OH215187   0.331   6.962   2.213
 5077TIP3    H115188   0.261   6.934   2.271
 5077TIP3    H215189   0.389   7.014   2.268
 5078TIP3   OH215190   0.321   7.355   2.638
 5078TIP3    H115191   0.393   7.292   2.633
 5078TIP3    H215192   0.349   7.427   2.581
 5079TIP3   OH215193   0.157   6.839   2.387
 5079TIP3    H115194   0.141   6.746   2.369
 5079TIP3    H215195   0.114   6.855   2.471
 5080TIP3   OH215196   0.368   7.228   3.270
 5080TIP3    H115197   0.440   7.170   3.245
 5080TIP3    H215198   0.374   7.302   3.209
 5081TIP3   OH215199   0.586   7.061   3.246
 5081TIP3    H115200   0.515   7.014   3.289
 5081TIP3    H215201   0.664   7.007   3.261
 5082TIP3   OH215202   0.130   6.571   2.312
 5082TIP3    H115203   0.165   6.483   2.328
 5082TIP3    H215204   0.116   6.574   2.217
 5083TIP3   OH215205   0.270   6.728   2.793
 5083TIP3    H115206   0.350   6.748   2.744
 5083TIP3    H215207   0.282   6.773   2.877
 5084TIP3   OH215208   0.331   6.871   3.019
 5084TIP3    H115209   0.277   6.909   3.088
 5084TIP3    H215210   0.364   6.947   2.970
 5085TIP3   OH215211   0.799   6.491   3.551
 5085TIP3    H115212   0.858   6.430   3.507
 5085TIP3    H215213   0.759   6.541   3.480
 5086TIP3   OH215214   0.221   6.309   2.325
 5086TIP3    H115215   0.261   6.291   2.410
 5086TIP3    H215216   0.150   6.245   2.319
 5087TIP3   OH215217   0.640   6.615   3.366
 5087TIP3    H115218   0.579   6.655   3.428
 5087TIP3    H215219   0.586   6.557   3.313
 5088TIP3   OH215220   0.332   6.242   1.981
 5088TIP3    H115221   0.362   6.188   1.908
 5088TIP3    H215222   0.376   6.327   1.968
 5089TIP3   OH215223   0.550   6.353   3.255
 5089TIP3    H115224   0.462   6.329   3.225
 5089TIP3    H215225   0.600   6.271   3.251
 5090TIP3   OH215226   0.295   6.163   2.758
 5090TIP3    H115227   0.333   6.217   2.689
 5090TIP3    H215228   0.204   6.191   2.764
 5091TIP3   OH215229   0.392   6.291   2.543
 5091TIP3    H115230   0.460   6.234   2.507
 5091TIP3    H215231   0.420   6.379   2.520
 5092TIP3   OH215232   0.032   6.232   2.761
 5092TIP3    H115233  -0.025   6.258   2.689
 5092TIP3    H215234  -0.000   6.145   2.787
 5093TIP3   OH215235   8.524   6.109   2.300
 5093TIP3    H115236   8.435   6.126   2.269
 5093TIP3    H215237   8.519   6.023   2.342
 5094TIP3   OH215238   0.313   6.356   3.672
 5094TIP3    H115239   0.322   6.328   3.763
 5094TIP3    H215240   0.402   6.351   3.636
 5095TIP3   OH215241   1.502   7.235   1.957
 5095TIP3    H115242   1.452   7.314   1.974
 5095TIP3    H215243   1.443   7.180   1.905
 5096TIP3   OH215244   1.511   7.253   2.331
 5096TIP3    H115245   1.540   7.238   2.421
 5096TIP3    H215246   1.450   7.181   2.313
 5097TIP3   OH215247   0.777   7.169   2.705
 5097TIP3    H115248   0.804   7.092   2.755
 5097TIP3    H215249   0.843   7.235   2.727
 5098TIP3   OH215250   1.724   7.570   2.058
 5098TIP3    H115251   1.721   7.501   2.124
 5098TIP3    H215252   1.771   7.642   2.100
 5099TIP3   OH215253   0.844   7.571   2.451
 5099TIP3    H115254   0.780   7.501   2.463
 5099TIP3    H215255   0.900   7.541   2.380
 5100TIP3   OH215256   0.452   6.717   2.177
 5100TIP3    H115257   0.414   6.805   2.172
 5100TIP3    H215258   0.413   6.678   2.256
 5101TIP3   OH215259   0.538   7.061   2.375
 5101TIP3    H115260   0.579   6.980   2.405
 5101TIP3    H215261   0.611   7.118   2.351
 5102TIP3   OH215262   1.317   7.503   2.415
 5102TIP3    H115263   1.314   7.494   2.320
 5102TIP3    H215264   1.406   7.531   2.433
 5103TIP3   OH215265   2.323   6.815   2.367
 5103TIP3    H115266   2.343   6.898   2.409
 5103TIP3    H215267   2.350   6.827   2.276
 5104TIP3   OH215268   1.707   6.981   2.394
 5104TIP3    H115269   1.743   6.896   2.419
 5104TIP3    H215270   1.672   6.968   2.306
 5105TIP3   OH215271   1.057   6.640   2.353
 5105TIP3    H115272   1.038   6.717   2.299
 5105TIP3    H215273   1.002   6.571   2.316
 5106TIP3   OH215274   1.754   6.739   1.984
 5106TIP3    H115275   1.818   6.731   2.055
 5106TIP3    H215276   1.804   6.774   1.910
 5107TIP3   OH215277   0.678   6.847   2.476
 5107TIP3    H115278   0.762   6.834   2.519
 5107TIP3    H215279   0.686   6.798   2.394
 5108TIP3   OH215280   1.122   7.053   2.259
 5108TIP3    H115281   1.213   7.031   2.276
 5108TIP3    H215282   1.080   6.971   2.235
 5109TIP3   OH215283   2.387   7.030   2.537
 5109TIP3    H115284   2.298   7.065   2.533
 5109TIP3    H215285   2.423   7.066   2.618
 5110TIP3   OH215286   1.037   6.641   2.800
 5110TIP3    H115287   0.987   6.679   2.728
 5110TIP3    H215288   0.984   6.657   2.878
 5111TIP3   OH215289   1.495   7.459   1.697
 5111TIP3    H115290   1.417   7.450   1.643
 5111TIP3    H215291   1.488   7.547   1.735
 5112TIP3   OH215292   1.153   7.364   2.572
 5112TIP3    H115293   1.106   7.434   2.618
 5112TIP3    H215294   1.213   7.410   2.514
 5113TIP3   OH215295   1.921   6.757   2.199
 5113TIP3    H115296   1.879   6.738   2.283
 5113TIP3    H215297   1.978   6.832   2.218
 5114TIP3   OH215298   0.924   6.750   2.571
 5114TIP3    H115299   0.978   6.825   2.597
 5114TIP3    H215300   0.973   6.708   2.500
 5115TIP3   OH215301   1.003   7.561   2.684
 5115TIP3    H115302   0.980   7.599   2.599
 5115TIP3    H215303   0.923   7.518   2.713
 5116TIP3   OH215304   2.121   6.701   2.532
 5116TIP3    H115305   2.036   6.729   2.499
 5116TIP3    H215306   2.183   6.731   2.465
 5117TIP3   OH215307   1.382   6.337   2.522
 5117TIP3    H115308   1.377   6.247   2.552
 5117TIP3    H215309   1.308   6.381   2.565
 5118TIP3   OH215310   1.752   7.567   1.718
 5118TIP3    H115311   1.714   7.513   1.649
 5118TIP3    H215312   1.733   7.520   1.799
 5119TIP3   OH215313   2.084   7.705   2.442
 5119TIP3    H115314   2.047   7.624   2.407
 5119TIP3    H215315   2.106   7.757   2.365
 5120TIP3   OH215316   1.343   7.108   1.769
 5120TIP3    H115317   1.262   7.160   1.766
 5120TIP3    H215318   1.383   7.122   1.683
 5121TIP3   OH215319   1.370   6.860   1.534
 5121TIP3    H115320   1.423   6.936   1.560
 5121TIP3    H215321   1.422   6.818   1.465
 5122TIP3   OH215322   2.222   7.358   2.375
 5122TIP3    H115323   2.136   7.399   2.374
 5122TIP3    H215324   2.255   7.367   2.285
 5123TIP3   OH215325   1.692   7.203   1.760
 5123TIP3    H115326   1.633   7.225   1.832
 5123TIP3    H215327   1.772   7.174   1.803
 5124TIP3   OH215328   1.901   7.217   2.658
 5124TIP3    H115329   1.903   7.294   2.715
 5124TIP3    H215330   1.815   7.221   2.615
 5125TIP3   OH215331   0.914   7.194   2.130
 5125TIP3    H115332   0.866   7.129   2.079
 5125TIP3    H215333   0.991   7.146   2.162
 5126TIP3   OH215334   1.002   7.508   2.241
 5126TIP3    H115335   1.007   7.593   2.197
 5126TIP3    H215336   1.091   7.473   2.234
 5127TIP3   OH215337   1.011   7.151   2.488
 5127TIP3    H115338   1.052   7.124   2.406
 5127TIP3    H215339   1.061   7.228   2.515
 5128TIP3   OH215340   1.247   7.595   2.815
 5128TIP3    H115341   1.272   7.686   2.801
 5128TIP3    H215342   1.162   7.586   2.772
 5129TIP3   OH215343   1.547   7.067   1.571
 5129TIP3    H115344   1.596   7.124   1.630
 5129TIP3    H215345   1.566   7.100   1.483
 5130TIP3   OH215346   0.943   7.261   2.955
 5130TIP3    H115347   0.949   7.346   2.998
 5130TIP3    H215348   0.854   7.231   2.974
 5131TIP3   OH215349   2.018   6.295   1.623
 5131TIP3    H115350   1.940   6.317   1.675
 5131TIP3    H215351   2.031   6.372   1.567
 5132TIP3   OH215352   0.757   7.019   1.986
 5132TIP3    H115353   0.731   7.043   1.897
 5132TIP3    H215354   0.717   6.933   2.000
 5133TIP3   OH215355   0.529   7.357   2.872
 5133TIP3    H115356   0.491   7.434   2.829
 5133TIP3    H215357   0.623   7.362   2.852
 5134TIP3   OH215358   2.153   7.188   2.849
 5134TIP3    H115359   2.065   7.199   2.812
 5134TIP3    H215360   2.170   7.094   2.843
 5135TIP3   OH215361   0.770   7.481   2.814
 5135TIP3    H115362   0.776   7.509   2.906
 5135TIP3    H215363   0.734   7.557   2.768
 5136TIP3   OH215364   1.147   6.430   2.654
 5136TIP3    H115365   1.062   6.401   2.621
 5136TIP3    H215366   1.129   6.512   2.699
 5137TIP3   OH215367   1.689   6.542   2.853
 5137TIP3    H115368   1.760   6.521   2.914
 5137TIP3    H215369   1.609   6.528   2.903
 5138TIP3   OH215370   1.912   6.963   2.765
 5138TIP3    H115371   1.868   6.962   2.850
 5138TIP3    H215372   1.893   7.049   2.728
 5139TIP3   OH215373   1.623   7.037   1.278
 5139TIP3    H115374   1.614   7.035   1.183
 5139TIP3    H215375   1.647   7.127   1.299
 5140TIP3   OH215376   1.292   6.462   1.624
 5140TIP3    H115377   1.263   6.475   1.715
 5140TIP3    H215378   1.264   6.372   1.604
 5141TIP3   OH215379   1.082   6.955   2.664
 5141TIP3    H115380   1.033   6.969   2.745
 5141TIP3    H215381   1.056   7.029   2.608
 5142TIP3   OH215382   0.966   6.838   2.191
 5142TIP3    H115383   0.873   6.821   2.210
 5142TIP3    H215384   0.978   6.803   2.103
 5143TIP3   OH215385   1.460   6.904   1.906
 5143TIP3    H115386   1.413   6.974   1.862
 5143TIP3    H215387   1.522   6.871   1.841
 5144TIP3   OH215388   1.647   7.170   2.979
 5144TIP3    H115389   1.618   7.105   3.043
 5144TIP3    H215390   1.737   7.190   3.005
 5145TIP3   OH215391   1.617   6.931   2.141
 5145TIP3    H115392   1.552   6.962   2.078
 5145TIP3    H215393   1.658   6.856   2.098
 5146TIP3   OH215394   0.903   6.969   2.873
 5146TIP3    H115395   0.901   7.037   2.940
 5146TIP3    H215396   0.889   6.887   2.920
 5147TIP3   OH215397   0.955   6.434   1.593
 5147TIP3    H115398   0.935   6.450   1.685
 5147TIP3    H215399   0.870   6.421   1.552
 5148TIP3   OH215400   0.496   6.525   2.449
 5148TIP3    H115401   0.575   6.545   2.500
 5148TIP3    H215402   0.528   6.479   2.372
 5149TIP3   OH215403   0.462   6.491   1.989
 5149TIP3    H115404   0.479   6.495   1.895
 5149TIP3    H215405   0.461   6.583   2.017
 5150TIP3   OH215406   1.639   7.179   2.566
 5150TIP3    H115407   1.667   7.111   2.504
 5150TIP3    H215408   1.597   7.131   2.637
 5151TIP3   OH215409   1.323   6.625   2.237
 5151TIP3    H115410   1.245   6.631   2.293
 5151TIP3    H215411   1.397   6.623   2.298
 5152TIP3   OH215412   0.722   6.713   2.239
 5152TIP3    H115413   0.633   6.705   2.205
 5152TIP3    H215414   0.761   6.626   2.227
 5153TIP3   OH215415   0.995   6.713   1.952
 5153TIP3    H115416   1.088   6.730   1.937
 5153TIP3    H215417   0.953   6.737   1.870
 5154TIP3   OH215418   1.782   6.717   2.439
 5154TIP3    H115419   1.764   6.733   2.531
 5154TIP3    H215420   1.712   6.659   2.410
 5155TIP3   OH215421   0.834   6.727   1.732
 5155TIP3    H115422   0.749   6.683   1.733
 5155TIP3    H215423   0.857   6.734   1.639
 5156TIP3   OH215424   0.917   7.504   3.103
 5156TIP3    H115425   0.991   7.509   3.164
 5156TIP3    H215426   0.840   7.498   3.160
 5157TIP3   OH215427   1.379   6.984   2.341
 5157TIP3    H115428   1.455   6.943   2.299
 5157TIP3    H215429   1.378   6.949   2.430
 5158TIP3   OH215430   0.871   6.472   2.222
 5158TIP3    H115431   0.840   6.396   2.270
 5158TIP3    H215432   0.890   6.440   2.134
 5159TIP3   OH215433   1.350   6.899   2.612
 5159TIP3    H115434   1.264   6.933   2.634
 5159TIP3    H215435   1.411   6.951   2.665
 5160TIP3   OH215436   1.114   7.261   1.763
 5160TIP3    H115437   1.062   7.181   1.764
 5160TIP3    H215438   1.078   7.314   1.834
 5161TIP3   OH215439   1.979   7.477   2.328
 5161TIP3    H115440   2.000   7.524   2.247
 5161TIP3    H215441   1.894   7.437   2.311
 5162TIP3   OH215442   1.544   6.576   1.616
 5162TIP3    H115443   1.450   6.558   1.614
 5162TIP3    H215444   1.551   6.670   1.629
 5163TIP3   OH215445   1.496   7.504   2.728
 5163TIP3    H115446   1.551   7.517   2.805
 5163TIP3    H215447   1.409   7.535   2.754
 5164TIP3   OH215448   1.631   6.832   1.697
 5164TIP3    H115449   1.726   6.832   1.710
 5164TIP3    H215450   1.614   6.912   1.646
 5165TIP3   OH215451   0.769   7.212   2.366
 5165TIP3    H115452   0.809   7.222   2.280
 5165TIP3    H215453   0.841   7.183   2.423
 5166TIP3   OH215454   1.247   7.435   1.591
 5166TIP3    H115455   1.186   7.504   1.568
 5166TIP3    H215456   1.192   7.362   1.617
 5167TIP3   OH215457   0.695   7.157   3.010
 5167TIP3    H115458   0.673   7.134   3.101
 5167TIP3    H215459   0.612   7.156   2.964
 5168TIP3   OH215460   1.403   7.288   3.038
 5168TIP3    H115461   1.339   7.231   2.994
 5168TIP3    H215462   1.487   7.262   3.000
 5169TIP3   OH215463   2.034   6.920   1.523
 5169TIP3    H115464   1.977   6.873   1.463
 5169TIP3    H215465   2.042   7.007   1.486
 5170TIP3   OH215466   2.304   7.715   2.597
 5170TIP3    H115467   2.216   7.732   2.564
 5170TIP3    H215468   2.356   7.697   2.518
 5171TIP3   OH215469   1.743   7.362   2.237
 5171TIP3    H115470   1.656   7.334   2.264
 5171TIP3    H215471   1.783   7.284   2.198
 5172TIP3   OH215472   0.993   7.403   1.965
 5172TIP3    H115473   1.017   7.473   2.026
 5172TIP3    H215474   0.955   7.335   2.020
 5173TIP3   OH215475   1.577   7.577   2.473
 5173TIP3    H115476   1.557   7.559   2.564
 5173TIP3    H215477   1.635   7.505   2.446
 5174TIP3   OH215478   1.525   7.295   1.360
 5174TIP3    H115479   1.596   7.329   1.415
 5174TIP3    H215480   1.449   7.348   1.385
 5175TIP3   OH215481   0.867   6.716   3.007
 5175TIP3    H115482   0.772   6.726   3.018
 5175TIP3    H215483   0.897   6.678   3.089
 5176TIP3   OH215484   1.726   7.344   1.529
 5176TIP3    H115485   1.709   7.305   1.615
 5176TIP3    H215486   1.821   7.357   1.527
 5177TIP3   OH215487   1.724   6.770   2.700
 5177TIP3    H115488   1.799   6.818   2.735
 5177TIP3    H215489   1.713   6.695   2.759
 5178TIP3   OH215490   1.603   6.525   1.886
 5178TIP3    H115491   1.583   6.546   1.795
 5178TIP3    H215492   1.647   6.604   1.919
 5179TIP3   OH215493   1.272   6.721   1.981
 5179TIP3    H115494   1.337   6.787   1.956
 5179TIP3    H215495   1.291   6.703   2.073
 5180TIP3   OH215496   1.559   7.007   2.765
 5180TIP3    H115497   1.587   7.057   2.842
 5180TIP3    H215498   1.611   6.927   2.768
 5181TIP3   OH215499   1.428   6.418   2.073
 5181TIP3    H115500   1.403   6.493   2.126
 5181TIP3    H215501   1.495   6.451   2.013
 5182TIP3   OH215502   0.949   6.449   1.883
 5182TIP3    H115503   0.945   6.541   1.911
 5182TIP3    H215504   1.042   6.429   1.879
 5183TIP3   OH215505   2.178   6.920   2.756
 5183TIP3    H115506   2.083   6.923   2.764
 5183TIP3    H215507   2.193   6.874   2.673
 5184TIP3   OH215508   1.840   7.117   2.145
 5184TIP3    H115509   1.762   7.062   2.155
 5184TIP3    H215510   1.906   7.073   2.199
 5185TIP3   OH215511   0.889   6.341   2.609
 5185TIP3    H115512   0.855   6.312   2.524
 5185TIP3    H215513   0.882   6.264   2.665
 5186TIP3   OH215514   0.689   7.438   3.262
 5186TIP3    H115515   0.738   7.356   3.260
 5186TIP3    H215516   0.615   7.423   3.202
 5187TIP3   OH215517   1.309   7.538   3.076
 5187TIP3    H115518   1.290   7.570   2.988
 5187TIP3    H215519   1.343   7.450   3.063
 5188TIP3   OH215520   1.823   7.573   2.650
 5188TIP3    H115521   1.898   7.632   2.648
 5188TIP3    H215522   1.758   7.617   2.704
 5189TIP3   OH215523   0.869   7.230   3.268
 5189TIP3    H115524   0.952   7.193   3.238
 5189TIP3    H215525   0.888   7.264   3.356
 5190TIP3   OH215526   0.971   7.036   1.753
 5190TIP3    H115527   0.883   7.002   1.766
 5190TIP3    H215528   1.008   6.981   1.683
 5191TIP3   OH215529   1.192   7.139   2.920
 5191TIP3    H115530   1.108   7.185   2.924
 5191TIP3    H215531   1.233   7.171   2.840
 5192TIP3   OH215532   1.103   6.914   1.544
 5192TIP3    H115533   1.113   6.882   1.454
 5192TIP3    H215534   1.190   6.905   1.583
 5193TIP3   OH215535   1.683   7.497   3.010
 5193TIP3    H115536   1.763   7.444   3.007
 5193TIP3    H215537   1.651   7.485   3.100
 5194TIP3   OH215538   1.866   7.203   1.167
 5194TIP3    H115539   1.839   7.157   1.087
 5194TIP3    H215540   1.813   7.282   1.170
 5195TIP3   OH215541   1.294   6.918   3.041
 5195TIP3    H115542   1.299   6.845   2.978
 5195TIP3    H215543   1.258   6.991   2.990
 5196TIP3   OH215544   1.300   6.720   2.835
 5196TIP3    H115545   1.327   6.764   2.755
 5196TIP3    H215546   1.207   6.700   2.822
 5197TIP3   OH215547   1.345   7.241   2.719
 5197TIP3    H115548   1.424   7.294   2.708
 5197TIP3    H215549   1.280   7.283   2.662
 5198TIP3   OH215550   1.905   7.201   3.098
 5198TIP3    H115551   1.955   7.119   3.102
 5198TIP3    H215552   1.972   7.270   3.100
 5199TIP3   OH215553   1.943   7.420   2.837
 5199TIP3    H115554   1.880   7.472   2.786
 5199TIP3    H215555   2.028   7.453   2.809
 5200TIP3   OH215556   1.165   7.019   3.272
 5200TIP3    H115557   1.101   6.952   3.295
 5200TIP3    H215558   1.200   6.991   3.187
 5201TIP3   OH215559   1.421   6.487   2.932
 5201TIP3    H115560   1.381   6.568   2.899
 5201TIP3    H215561   1.353   6.421   2.918
 5202TIP3   OH215562   1.552   6.967   3.136
 5202TIP3    H115563   1.544   6.962   3.231
 5202TIP3    H215564   1.465   6.945   3.103
 5203TIP3   OH215565   1.791   6.908   2.999
 5203TIP3    H115566   1.714   6.915   3.056
 5203TIP3    H215567   1.863   6.891   3.059
 5204TIP3   OH215568   2.027   6.884   3.150
 5204TIP3    H115569   2.042   6.790   3.158
 5204TIP3    H215570   2.021   6.915   3.241
 5205TIP3   OH215571   1.013   6.792   3.340
 5205TIP3    H115572   1.021   6.702   3.308
 5205TIP3    H215573   1.049   6.789   3.429
 5206TIP3   OH215574   1.493   6.475   3.196
 5206TIP3    H115575   1.564   6.411   3.190
 5206TIP3    H215576   1.461   6.483   3.106
 5207TIP3   OH215577   1.579   6.693   3.343
 5207TIP3    H115578   1.551   6.622   3.285
 5207TIP3    H215579   1.506   6.755   3.341
 5208TIP3   OH215580   2.167   7.948   2.866
 5208TIP3    H115581   2.093   7.972   2.922
 5208TIP3    H215582   2.241   7.997   2.902
 5209TIP3   OH215583   1.994   7.367   1.536
 5209TIP3    H115584   2.052   7.436   1.505
 5209TIP3    H215585   2.038   7.332   1.614
 5210TIP3   OH215586   2.114   7.237   1.741
 5210TIP3    H115587   2.048   7.202   1.801
 5210TIP3    H215588   2.178   7.280   1.798
 5211TIP3   OH215589   2.163   7.623   2.169
 5211TIP3    H115590   2.212   7.547   2.136
 5211TIP3    H215591   2.127   7.664   2.090
 5212TIP3   OH215592   2.033   7.151   1.376
 5212TIP3    H115593   1.969   7.159   1.305
 5212TIP3    H215594   2.016   7.226   1.433
 5213TIP3   OH215595   1.880   6.813   1.327
 5213TIP3    H115596   1.818   6.859   1.271
 5213TIP3    H215597   1.869   6.721   1.305
 5214TIP3   OH215598   1.916   7.101   1.882
 5214TIP3    H115599   1.921   7.006   1.868
 5214TIP3    H215600   1.897   7.110   1.975
 5215TIP3   OH215601   0.515   7.150   2.633
 5215TIP3    H115602   0.508   7.121   2.542
 5215TIP3    H215603   0.609   7.153   2.650
 5216TIP3   OH215604   2.183   7.515   2.747
 5216TIP3    H115605   2.246   7.443   2.735
 5216TIP3    H215606   2.213   7.583   2.686
 5217TIP3   OH215607   2.368   7.314   2.745
 5217TIP3    H115608   2.294   7.267   2.785
 5217TIP3    H215609   2.443   7.257   2.760
 5218TIP3   OH215610   1.843   6.541   1.283
 5218TIP3    H115611   1.910   6.521   1.349
 5218TIP3    H215612   1.763   6.502   1.317
 5219TIP3   OH215613   1.907   6.829   1.760
 5219TIP3    H115614   1.950   6.745   1.772
 5219TIP3    H215615   1.951   6.869   1.686
 5220TIP3   OH215616   2.054   6.991   2.275
 5220TIP3    H115617   2.135   7.011   2.227
 5220TIP3    H215618   2.068   7.028   2.362
 5221TIP3   OH215619   2.126   7.134   2.505
 5221TIP3    H115620   2.050   7.161   2.556
 5221TIP3    H215621   2.158   7.214   2.464
 5222TIP3   OH215622   0.754   6.848   3.275
 5222TIP3    H115623   0.847   6.846   3.296
 5222TIP3    H215624   0.718   6.770   3.316
 5223TIP3   OH215625   2.584   6.744   3.045
 5223TIP3    H115626   2.648   6.685   3.004
 5223TIP3    H215627   2.548   6.794   2.972
 5224TIP3   OH215628   2.014   6.577   1.803
 5224TIP3    H115629   2.059   6.562   1.886
 5224TIP3    H215630   1.950   6.506   1.798
 5225TIP3   OH215631   0.716   6.559   2.617
 5225TIP3    H115632   0.775   6.485   2.628
 5225TIP3    H215633   0.774   6.635   2.610
 5226TIP3   OH215634   0.510   6.821   2.700
 5226TIP3    H115635   0.558   6.821   2.618
 5226TIP3    H215636   0.512   6.911   2.730
 5227TIP3   OH215637   2.438   6.861   2.847
 5227TIP3    H115638   2.356   6.902   2.872
 5227TIP3    H215639   2.413   6.786   2.793
 5228TIP3   OH215640   2.068   6.495   1.439
 5228TIP3    H115641   2.118   6.432   1.388
 5228TIP3    H215642   2.125   6.572   1.445
 5229TIP3   OH215643   0.491   6.353   2.225
 5229TIP3    H115644   0.400   6.330   2.244
 5229TIP3    H215645   0.486   6.403   2.143
 5230TIP3   OH215646   0.698   6.378   3.007
 5230TIP3    H115647   0.656   6.387   3.093
 5230TIP3    H215648   0.651   6.439   2.951
 5231TIP3   OH215649   2.347   6.619   2.736
 5231TIP3    H115650   2.260   6.613   2.696
 5231TIP3    H215651   2.382   6.530   2.730
 5232TIP3   OH215652   1.556   6.543   2.370
 5232TIP3    H115653   1.516   6.470   2.419
 5232TIP3    H215654   1.624   6.501   2.317
 5233TIP3   OH215655   2.058   6.438   2.254
 5233TIP3    H115656   2.099   6.488   2.183
 5233TIP3    H215657   1.970   6.475   2.261
 5234TIP3   OH215658   2.174   6.528   2.023
 5234TIP3    H115659   2.243   6.468   1.995
 5234TIP3    H215660   2.211   6.615   2.011
 5235TIP3   OH215661   0.794   6.246   2.365
 5235TIP3    H115662   0.701   6.225   2.371
 5235TIP3    H215663   0.837   6.163   2.344
 5236TIP3   OH215664   0.634   6.142   2.068
 5236TIP3    H115665   0.665   6.187   1.989
 5236TIP3    H215666   0.574   6.204   2.109
 5237TIP3   OH215667   1.287   6.262   2.263
 5237TIP3    H115668   1.328   6.314   2.194
 5237TIP3    H215669   1.320   6.300   2.345
 5238TIP3   OH215670   1.766   6.423   2.239
 5238TIP3    H115671   1.789   6.389   2.152
 5238TIP3    H215672   1.771   6.347   2.297
 5239TIP3   OH215673   1.823   6.371   1.805
 5239TIP3    H115674   1.744   6.419   1.828
 5239TIP3    H215675   1.811   6.285   1.845
 5240TIP3   OH215676   0.739   6.276   1.854
 5240TIP3    H115677   0.769   6.218   1.783
 5240TIP3    H215678   0.810   6.339   1.865
 5241TIP3   OH215679   1.223   6.469   1.889
 5241TIP3    H115680   1.284   6.420   1.945
 5241TIP3    H215681   1.235   6.561   1.915
 5242TIP3   OH215682   1.018   6.519   3.251
 5242TIP3    H115683   0.983   6.452   3.310
 5242TIP3    H215684   1.110   6.527   3.276
 5243TIP3   OH215685   1.266   6.526   3.373
 5243TIP3    H115686   1.347   6.507   3.325
 5243TIP3    H215687   1.260   6.457   3.439
 5244TIP3   OH215688   2.092   6.613   3.166
 5244TIP3    H115689   2.108   6.584   3.256
 5244TIP3    H215690   2.177   6.608   3.124
 5245TIP3   OH215691   3.250   7.514   1.483
 5245TIP3    H115692   3.241   7.603   1.449
 5245TIP3    H215693   3.215   7.458   1.414
 5246TIP3   OH215694   3.298   7.541   1.812
 5246TIP3    H115695   3.326   7.503   1.896
 5246TIP3    H215696   3.262   7.467   1.763
 5247TIP3   OH215697   2.586   7.404   2.185
 5247TIP3    H115698   2.620   7.343   2.251
 5247TIP3    H215699   2.665   7.441   2.145
 5248TIP3   OH215700   3.542   7.798   1.488
 5248TIP3    H115701   3.539   7.726   1.552
 5248TIP3    H215702   3.513   7.875   1.536
 5249TIP3   OH215703   2.607   7.764   1.938
 5249TIP3    H115704   2.584   7.672   1.927
 5249TIP3    H215705   2.691   7.774   1.894
 5250TIP3   OH215706   2.264   7.016   1.659
 5250TIP3    H115707   2.226   7.099   1.687
 5250TIP3    H215708   2.191   6.968   1.620
 5251TIP3   OH215709   2.343   7.327   1.868
 5251TIP3    H115710   2.389   7.247   1.892
 5251TIP3    H215711   2.412   7.390   1.850
 5252TIP3   OH215712   3.119   7.759   1.829
 5252TIP3    H115713   3.163   7.681   1.797
 5252TIP3    H215714   3.189   7.813   1.866
 5253TIP3   OH215715   4.113   7.077   1.827
 5253TIP3    H115716   4.105   7.172   1.817
 5253TIP3    H215717   4.150   7.047   1.744
 5254TIP3   OH215718   3.498   7.232   1.875
 5254TIP3    H115719   3.539   7.149   1.898
 5254TIP3    H215720   3.464   7.218   1.787
 5255TIP3   OH215721   2.853   6.900   1.839
 5255TIP3    H115722   2.834   6.972   1.779
 5255TIP3    H215723   2.800   6.827   1.806
 5256TIP3   OH215724   3.533   6.997   1.478
 5256TIP3    H115725   3.602   6.986   1.543
 5256TIP3    H215726   3.579   7.031   1.400
 5257TIP3   OH215727   2.477   7.106   1.962
 5257TIP3    H115728   2.560   7.090   2.007
 5257TIP3    H215729   2.483   7.056   1.881
 5258TIP3   OH215730   2.905   7.303   1.764
 5258TIP3    H115731   2.999   7.286   1.774
 5258TIP3    H215732   2.869   7.222   1.728
 5259TIP3   OH215733   4.134   7.321   2.055
 5259TIP3    H115734   4.057   7.353   2.007
 5259TIP3    H215735   4.101   7.248   2.107
 5260TIP3   OH215736   2.834   6.897   2.287
 5260TIP3    H115737   2.783   6.933   2.214
 5260TIP3    H215738   2.780   6.913   2.364
 5261TIP3   OH215739   3.194   7.726   1.287
 5261TIP3    H115740   3.182   7.659   1.220
 5261TIP3    H215741   3.279   7.765   1.268
 5262TIP3   OH215742   2.998   7.615   2.029
 5262TIP3    H115743   2.934   7.668   2.077
 5262TIP3    H215744   3.035   7.676   1.965
 5263TIP3   OH215745   3.714   7.010   1.682
 5263TIP3    H115746   3.679   6.990   1.769
 5263TIP3    H215747   3.770   7.087   1.696
 5264TIP3   OH215748   2.721   7.006   2.059
 5264TIP3    H115749   2.776   7.080   2.083
 5264TIP3    H215750   2.767   6.963   1.987
 5265TIP3   OH215751   2.814   7.724   2.192
 5265TIP3    H115752   2.804   7.810   2.150
 5265TIP3    H215753   2.732   7.712   2.240
 5266TIP3   OH215754   2.154   7.550   1.409
 5266TIP3    H115755   2.117   7.550   1.321
 5266TIP3    H215756   2.161   7.642   1.433
 5267TIP3   OH215757   3.901   6.967   2.004
 5267TIP3    H115758   3.813   6.978   1.968
 5267TIP3    H215759   3.960   6.992   1.932
 5268TIP3   OH215760   3.177   6.593   2.011
 5268TIP3    H115761   3.169   6.501   2.036
 5268TIP3    H215762   3.102   6.635   2.051
 5269TIP3   OH215763   3.456   7.787   1.223
 5269TIP3    H115764   3.520   7.741   1.169
 5269TIP3    H215765   3.495   7.790   1.310
 5270TIP3   OH215766   3.813   7.988   1.999
 5270TIP3    H115767   3.806   7.912   1.942
 5270TIP3    H215768   3.782   8.061   1.945
 5271TIP3   OH215769   3.140   7.388   1.262
 5271TIP3    H115770   3.055   7.423   1.236
 5271TIP3    H215771   3.191   7.386   1.180
 5272TIP3   OH215772   3.062   7.175   0.986
 5272TIP3    H115773   3.129   7.240   1.008
 5272TIP3    H215774   3.110   7.103   0.945
 5273TIP3   OH215775   4.011   7.637   1.863
 5273TIP3    H115776   3.932   7.691   1.863
 5273TIP3    H215777   4.049   7.650   1.776
 5274TIP3   OH215778   3.686   7.494   2.142
 5274TIP3    H115779   3.686   7.575   2.194
 5274TIP3    H215780   3.600   7.494   2.099
 5275TIP3   OH215781   2.702   7.442   1.630
 5275TIP3    H115782   2.666   7.382   1.566
 5275TIP3    H215783   2.779   7.397   1.665
 5276TIP3   OH215784   2.844   7.799   1.802
 5276TIP3    H115785   2.839   7.867   1.734
 5276TIP3    H215786   2.937   7.780   1.810
 5277TIP3   OH215787   2.809   7.424   1.989
 5277TIP3    H115788   2.839   7.382   1.908
 5277TIP3    H215789   2.873   7.494   2.004
 5278TIP3   OH215790   3.026   7.844   2.321
 5278TIP3    H115791   2.964   7.917   2.326
 5278TIP3    H215792   2.976   7.772   2.282
 5279TIP3   OH215793   2.729   7.518   2.450
 5279TIP3    H115794   2.732   7.605   2.492
 5279TIP3    H215795   2.638   7.491   2.460
 5280TIP3   OH215796   3.803   6.533   1.142
 5280TIP3    H115797   3.720   6.551   1.187
 5280TIP3    H215798   3.830   6.617   1.105
 5281TIP3   OH215799   2.576   7.281   1.437
 5281TIP3    H115800   2.503   7.327   1.395
 5281TIP3    H215801   2.540   7.195   1.459
 5282TIP3   OH215802   2.386   7.626   2.349
 5282TIP3    H115803   2.305   7.605   2.304
 5282TIP3    H215804   2.417   7.542   2.383
 5283TIP3   OH215805   3.956   7.456   2.307
 5283TIP3    H115806   3.869   7.474   2.272
 5283TIP3    H215807   3.958   7.362   2.321
 5284TIP3   OH215808   2.573   7.812   2.298
 5284TIP3    H115809   2.525   7.879   2.347
 5284TIP3    H215810   2.516   7.736   2.298
 5285TIP3   OH215811   2.941   6.685   2.139
 5285TIP3    H115812   2.856   6.653   2.107
 5285TIP3    H215813   2.920   6.765   2.186
 5286TIP3   OH215814   3.481   6.802   2.335
 5286TIP3    H115815   3.552   6.778   2.395
 5286TIP3    H215816   3.401   6.784   2.384
 5287TIP3   OH215817   3.737   7.253   2.271
 5287TIP3    H115818   3.680   7.237   2.346
 5287TIP3    H215819   3.697   7.328   2.226
 5288TIP3   OH215820   3.086   6.732   1.106
 5288TIP3    H115821   3.054   6.734   1.196
 5288TIP3    H215822   3.055   6.647   1.072
 5289TIP3   OH215823   2.880   7.212   2.148
 5289TIP3    H115824   2.835   7.223   2.232
 5289TIP3    H215825   2.857   7.290   2.098
 5290TIP3   OH215826   2.762   7.091   1.666
 5290TIP3    H115827   2.672   7.067   1.691
 5290TIP3    H215828   2.772   7.056   1.577
 5291TIP3   OH215829   3.243   7.165   1.383
 5291TIP3    H115830   3.201   7.242   1.347
 5291TIP3    H215831   3.305   7.137   1.316
 5292TIP3   OH215832   3.442   7.422   2.460
 5292TIP3    H115833   3.416   7.358   2.527
 5292TIP3    H215834   3.529   7.452   2.488
 5293TIP3   OH215835   3.403   7.197   1.621
 5293TIP3    H115836   3.338   7.230   1.558
 5293TIP3    H215837   3.441   7.120   1.578
 5294TIP3   OH215838   2.708   7.225   2.365
 5294TIP3    H115839   2.732   7.288   2.432
 5294TIP3    H215840   2.693   7.143   2.412
 5295TIP3   OH215841   2.747   6.706   1.081
 5295TIP3    H115842   2.741   6.711   1.176
 5295TIP3    H215843   2.675   6.759   1.049
 5296TIP3   OH215844   2.304   6.752   1.950
 5296TIP3    H115845   2.373   6.788   2.006
 5296TIP3    H215846   2.347   6.735   1.866
 5297TIP3   OH215847   2.224   6.726   1.458
 5297TIP3    H115848   2.268   6.762   1.381
 5297TIP3    H215849   2.163   6.795   1.484
 5298TIP3   OH215850   3.425   7.430   2.043
 5298TIP3    H115851   3.457   7.367   1.979
 5298TIP3    H215852   3.396   7.376   2.117
 5299TIP3   OH215853   3.121   6.888   1.721
 5299TIP3    H115854   3.044   6.891   1.778
 5299TIP3    H215855   3.196   6.883   1.781
 5300TIP3   OH215856   2.525   6.968   1.731
 5300TIP3    H115857   2.436   6.971   1.695
 5300TIP3    H215858   2.555   6.878   1.713
 5301TIP3   OH215859   2.777   6.968   1.423
 5301TIP3    H115860   2.871   6.981   1.410
 5301TIP3    H215861   2.738   6.987   1.337
 5302TIP3   OH215862   3.592   6.977   1.937
 5302TIP3    H115863   3.572   6.997   2.029
 5302TIP3    H215864   3.523   6.917   1.910
 5303TIP3   OH215865   2.646   6.992   1.183
 5303TIP3    H115866   2.581   6.947   1.130
 5303TIP3    H215867   2.701   7.039   1.120
 5304TIP3   OH215868   2.726   7.749   2.604
 5304TIP3    H115869   2.803   7.761   2.660
 5304TIP3    H215870   2.652   7.760   2.663
 5305TIP3   OH215871   3.168   7.236   1.824
 5305TIP3    H115872   3.243   7.200   1.776
 5305TIP3    H215873   3.174   7.196   1.911
 5306TIP3   OH215874   2.670   6.723   1.715
 5306TIP3    H115875   2.640   6.647   1.765
 5306TIP3    H215876   2.704   6.686   1.633
 5307TIP3   OH215877   3.147   7.146   2.099
 5307TIP3    H115878   3.059   7.180   2.118
 5307TIP3    H215879   3.205   7.200   2.152
 5308TIP3   OH215880   2.891   7.509   1.212
 5308TIP3    H115881   2.820   7.448   1.189
 5308TIP3    H215882   2.861   7.552   1.292
 5309TIP3   OH215883   3.776   7.777   1.824
 5309TIP3    H115884   3.808   7.815   1.742
 5309TIP3    H215885   3.697   7.729   1.798
 5310TIP3   OH215886   3.336   6.846   1.103
 5310TIP3    H115887   3.242   6.830   1.102
 5310TIP3    H215888   3.345   6.940   1.120
 5311TIP3   OH215889   3.300   7.816   2.227
 5311TIP3    H115890   3.346   7.780   2.303
 5311TIP3    H215891   3.208   7.813   2.252
 5312TIP3   OH215892   3.408   7.104   1.168
 5312TIP3    H115893   3.503   7.105   1.175
 5312TIP3    H215894   3.387   7.181   1.116
 5313TIP3   OH215895   2.568   7.494   1.866
 5313TIP3    H115896   2.604   7.489   1.778
 5313TIP3    H215897   2.637   7.461   1.923
 5314TIP3   OH215898   2.995   7.686   1.030
 5314TIP3    H115899   3.004   7.763   1.087
 5314TIP3    H215900   2.959   7.618   1.087
 5315TIP3   OH215901   2.472   7.416   2.504
 5315TIP3    H115902   2.475   7.399   2.598
 5315TIP3    H215903   2.394   7.369   2.474
 5316TIP3   OH215904   3.199   7.541   2.525
 5316TIP3    H115905   3.141   7.493   2.465
 5316TIP3    H215906   3.287   7.527   2.490
 5317TIP3   OH215907   3.828   7.201   1.056
 5317TIP3    H115908   3.753   7.162   1.012
 5317TIP3    H215909   3.827   7.293   1.029
 5318TIP3   OH215910   4.078   7.998   2.089
 5318TIP3    H115911   3.988   8.025   2.073
 5318TIP3    H215912   4.115   7.984   2.002
 5319TIP3   OH215913   3.550   7.636   1.723
 5319TIP3    H115914   3.460   7.619   1.752
 5319TIP3    H215915   3.581   7.552   1.691
 5320TIP3   OH215916   2.259   7.148   1.217
 5320TIP3    H115917   2.305   7.229   1.239
 5320TIP3    H215918   2.183   7.147   1.276
 5321TIP3   OH215919   2.787   7.624   1.438
 5321TIP3    H115920   2.819   7.702   1.484
 5321TIP3    H215921   2.754   7.567   1.507
 5322TIP3   OH215922   3.349   7.849   1.950
 5322TIP3    H115923   3.335   7.843   2.044
 5322TIP3    H215924   3.436   7.811   1.936
 5323TIP3   OH215925   3.326   7.627   0.870
 5323TIP3    H115926   3.330   7.545   0.918
 5323TIP3    H215927   3.238   7.662   0.889
 5324TIP3   OH215928   2.665   6.975   2.495
 5324TIP3    H115929   2.570   6.981   2.502
 5324TIP3    H215930   2.691   6.922   2.571
 5325TIP3   OH215931   2.641   7.678   0.826
 5325TIP3    H115932   2.724   7.646   0.791
 5325TIP3    H215933   2.662   7.709   0.914
 5326TIP3   OH215934   2.359   7.395   1.302
 5326TIP3    H115935   2.293   7.438   1.357
 5326TIP3    H215936   2.378   7.459   1.233
 5327TIP3   OH215937   3.528   7.039   2.202
 5327TIP3    H115938   3.598   7.076   2.256
 5327TIP3    H215939   3.504   6.958   2.246
 5328TIP3   OH215940   3.389   6.785   1.372
 5328TIP3    H115941   3.373   6.807   1.280
 5328TIP3    H215942   3.432   6.863   1.408
 5329TIP3   OH215943   3.057   6.978   1.462
 5329TIP3    H115944   3.120   7.044   1.433
 5329TIP3    H215945   3.080   6.962   1.554
 5330TIP3   OH215946   3.352   7.265   2.248
 5330TIP3    H115947   3.381   7.312   2.326
 5330TIP3    H215948   3.406   7.186   2.247
 5331TIP3   OH215949   3.214   6.679   1.556
 5331TIP3    H115950   3.191   6.755   1.608
 5331TIP3    H215951   3.280   6.710   1.495
 5332TIP3   OH215952   2.730   6.697   1.360
 5332TIP3    H115953   2.720   6.788   1.390
 5332TIP3    H215954   2.824   6.680   1.364
 5333TIP3   OH215955   3.977   7.148   2.198
 5333TIP3    H115956   3.892   7.180   2.228
 5333TIP3    H215957   3.955   7.077   2.138
 5334TIP3   OH215958   3.623   7.382   1.638
 5334TIP3    H115959   3.545   7.326   1.639
 5334TIP3    H215960   3.690   7.332   1.684
 5335TIP3   OH215961   2.351   7.609   1.097
 5335TIP3    H115962   2.392   7.695   1.090
 5335TIP3    H215963   2.410   7.550   1.050
 5336TIP3   OH215964   2.283   6.871   1.234
 5336TIP3    H115965   2.299   6.966   1.236
 5336TIP3    H215966   2.218   6.860   1.164
 5337TIP3   OH215967   2.677   6.600   2.101
 5337TIP3    H115968   2.648   6.567   2.016
 5337TIP3    H215969   2.668   6.525   2.160
 5338TIP3   OH215970   2.509   7.701   2.777
 5338TIP3    H115971   2.552   7.617   2.763
 5338TIP3    H215972   2.443   7.707   2.708
 5339TIP3   OH215973   2.508   7.419   0.990
 5339TIP3    H115974   2.565   7.388   1.061
 5339TIP3    H215975   2.561   7.411   0.911
 5340TIP3   OH215976   3.114   7.793   2.570
 5340TIP3    H115977   3.093   7.825   2.482
 5340TIP3    H215978   3.147   7.704   2.556
 5341TIP3   OH215979   2.897   7.601   0.782
 5341TIP3    H115980   2.944   7.636   0.858
 5341TIP3    H215981   2.928   7.510   0.775
 5342TIP3   OH215982   3.601   7.836   2.109
 5342TIP3    H115983   3.669   7.897   2.078
 5342TIP3    H215984   3.554   7.885   2.177
 5343TIP3   OH215985   2.661   7.470   2.756
 5343TIP3    H115986   2.743   7.449   2.710
 5343TIP3    H215987   2.689   7.505   2.840
 5344TIP3   OH215988   2.686   7.326   1.176
 5344TIP3    H115989   2.667   7.289   1.262
 5344TIP3    H215990   2.723   7.254   1.126
 5345TIP3   OH215991   2.969   7.392   2.401
 5345TIP3    H115992   2.891   7.447   2.411
 5345TIP3    H215993   3.017   7.431   2.328
 5346TIP3   OH215994   2.795   7.135   1.008
 5346TIP3    H115995   2.773   7.127   0.915
 5346TIP3    H215996   2.890   7.148   1.010
 5347TIP3   OH215997   3.441   7.735   2.486
 5347TIP3    H115998   3.530   7.764   2.464
 5347TIP3    H215999   3.447   7.710   2.579
 5348TIP3   OH216000   3.548   7.489   0.754
 5348TIP3    H116001   3.519   7.399   0.736
 5348TIP3    H216002   3.472   7.531   0.794
 5349TIP3   OH216003   3.088   7.181   2.527
 5349TIP3    H116004   3.092   7.107   2.467
 5349TIP3    H216005   3.048   7.251   2.475
 5350TIP3   OH216006   3.094   6.978   2.327
 5350TIP3    H116007   3.122   7.016   2.244
 5350TIP3    H216008   3.003   6.953   2.313
 5351TIP3   OH216009   3.143   7.504   2.226
 5351TIP3    H116010   3.234   7.496   2.198
 5351TIP3    H216011   3.098   7.543   2.151
 5352TIP3   OH216012   3.700   7.465   2.579
 5352TIP3    H116013   3.750   7.384   2.591
 5352TIP3    H216014   3.766   7.533   2.566
 5353TIP3   OH216015   3.740   7.711   2.312
 5353TIP3    H116016   3.678   7.764   2.263
 5353TIP3    H216017   3.826   7.732   2.275
 5354TIP3   OH216018   2.961   7.277   2.761
 5354TIP3    H116019   2.899   7.207   2.782
 5354TIP3    H216020   2.998   7.252   2.676
 5355TIP3   OH216021   3.218   6.745   2.418
 5355TIP3    H116022   3.176   6.825   2.388
 5355TIP3    H216023   3.152   6.677   2.405
 5356TIP3   OH216024   3.350   7.221   2.621
 5356TIP3    H116025   3.341   7.213   2.716
 5356TIP3    H216026   3.262   7.203   2.587
 5357TIP3   OH216027   3.591   7.161   2.482
 5357TIP3    H116028   3.513   7.167   2.537
 5357TIP3    H216029   3.663   7.144   2.543
 5358TIP3   OH216030   3.832   7.143   2.634
 5358TIP3    H116031   3.843   7.049   2.642
 5358TIP3    H216032   3.823   7.174   2.724
 5359TIP3   OH216033   2.806   7.052   2.826
 5359TIP3    H116034   2.813   6.963   2.791
 5359TIP3    H216035   2.843   7.045   2.915
 5360TIP3   OH216036   3.289   6.733   2.683
 5360TIP3    H116037   3.359   6.668   2.679
 5360TIP3    H216038   3.258   6.741   2.593
 5361TIP3   OH216039   3.377   6.951   2.829
 5361TIP3    H116040   3.350   6.879   2.772
 5361TIP3    H216041   3.303   7.012   2.826
 5362TIP3   OH216042   2.091   7.538   1.143
 5362TIP3    H116043   2.177   7.571   1.118
 5362TIP3    H216044   2.076   7.463   1.086
 5363TIP3   OH216045   6.810   0.125   2.361
 5363TIP3    H116046   6.719   0.117   2.332
 5363TIP3    H216047   6.805   0.180   2.439
 5364TIP3   OH216048   3.737   7.669   1.070
 5364TIP3    H116049   3.799   7.741   1.079
 5364TIP3    H216050   3.767   7.603   1.132
 5365TIP3   OH216051   3.868   7.499   1.231
 5365TIP3    H116052   3.818   7.447   1.294
 5365TIP3    H216053   3.941   7.535   1.281
 5366TIP3   OH216054   3.945   7.901   1.639
 5366TIP3    H116055   3.998   7.827   1.610
 5366TIP3    H216056   3.931   7.953   1.560
 5367TIP3   OH216057   3.784   7.442   0.899
 5367TIP3    H116058   3.698   7.460   0.860
 5367TIP3    H216059   3.799   7.515   0.959
 5368TIP3   OH216060   3.615   7.089   0.916
 5368TIP3    H116061   3.657   7.123   0.837
 5368TIP3    H216062   3.613   6.994   0.902
 5369TIP3   OH216063   3.739   7.333   1.393
 5369TIP3    H116064   3.700   7.249   1.367
 5369TIP3    H216065   3.691   7.358   1.471
 5370TIP3   OH216066   2.322   7.408   2.126
 5370TIP3    H116067   2.315   7.379   2.035
 5370TIP3    H216068   2.417   7.414   2.141
 5371TIP3   OH216069   3.984   7.774   2.209
 5371TIP3    H116070   4.038   7.708   2.165
 5371TIP3    H216071   4.006   7.856   2.165
 5372TIP3   OH216072   4.185   7.572   2.218
 5372TIP3    H116073   4.103   7.536   2.252
 5372TIP3    H216074   4.219   7.627   2.289
 5373TIP3   OH216075   3.607   6.817   0.863
 5373TIP3    H116076   3.649   6.769   0.936
 5373TIP3    H216077   3.524   6.771   0.849
 5374TIP3   OH216078   3.684   7.084   1.263
 5374TIP3    H116079   3.725   6.998   1.275
 5374TIP3    H216080   3.738   7.128   1.198
 5375TIP3   OH216081   3.842   7.247   1.752
 5375TIP3    H116082   3.924   7.265   1.705
 5375TIP3    H216083   3.850   7.295   1.834
 5376TIP3   OH216084   3.892   7.414   1.966
 5376TIP3    H116085   3.819   7.441   2.022
 5376TIP3    H216086   3.927   7.496   1.932
 5377TIP3   OH216087   2.542   7.104   2.769
 5377TIP3    H116088   2.637   7.102   2.784
 5377TIP3    H216089   2.510   7.023   2.809
 5378TIP3   OH216090   4.378   7.004   2.527
 5378TIP3    H116091   4.442   6.942   2.492
 5378TIP3    H216092   4.346   7.050   2.449
 5379TIP3   OH216093   3.787   6.838   1.317
 5379TIP3    H116094   3.840   6.814   1.393
 5379TIP3    H216095   3.730   6.762   1.303
 5380TIP3   OH216096   2.510   6.822   2.124
 5380TIP3    H116097   2.565   6.744   2.128
 5380TIP3    H216098   2.571   6.894   2.107
 5381TIP3   OH216099   2.296   7.084   2.178
 5381TIP3    H116100   2.346   7.075   2.097
 5381TIP3    H216101   2.328   7.166   2.217
 5382TIP3   OH216102   4.234   7.132   2.334
 5382TIP3    H116103   4.167   7.171   2.389
 5382TIP3    H216104   4.187   7.070   2.278
 5383TIP3   OH216105   3.870   6.771   1.027
 5383TIP3    H116106   3.896   6.702   0.965
 5383TIP3    H216107   3.863   6.850   0.974
 5384TIP3   OH216108   2.283   6.583   1.682
 5384TIP3    H116109   2.197   6.577   1.723
 5384TIP3    H216110   2.271   6.642   1.608
 5385TIP3   OH216111   2.508   6.660   2.505
 5385TIP3    H116112   2.458   6.654   2.586
 5385TIP3    H216113   2.450   6.705   2.444
 5386TIP3   OH216114   4.145   6.863   2.225
 5386TIP3    H116115   4.056   6.841   2.198
 5386TIP3    H216116   4.194   6.781   2.219
 5387TIP3   OH216117   3.355   6.802   1.860
 5387TIP3    H116118   3.314   6.729   1.906
 5387TIP3    H216119   3.422   6.761   1.805
 5388TIP3   OH216120   3.849   6.714   1.765
 5388TIP3    H116121   3.887   6.755   1.688
 5388TIP3    H216122   3.755   6.728   1.756
 5389TIP3   OH216123   3.961   6.772   1.523
 5389TIP3    H116124   4.031   6.717   1.488
 5389TIP3    H216125   3.994   6.862   1.513
 5390TIP3   OH216126   2.591   6.497   1.858
 5390TIP3    H116127   2.502   6.464   1.865
 5390TIP3    H216128   2.645   6.418   1.852
 5391TIP3   OH216129   2.396   6.391   1.505
 5391TIP3    H116130   2.429   6.444   1.432
 5391TIP3    H216131   2.364   6.456   1.569
 5392TIP3   OH216132   3.061   6.539   1.751
 5392TIP3    H116133   3.110   6.584   1.682
 5392TIP3    H216134   3.103   6.566   1.832
 5393TIP3   OH216135   3.567   6.682   1.728
 5393TIP3    H116136   3.583   6.649   1.639
 5393TIP3    H216137   3.569   6.605   1.783
 5394TIP3   OH216138   3.606   6.626   1.305
 5394TIP3    H116139   3.525   6.674   1.324
 5394TIP3    H216140   3.594   6.541   1.347
 5395TIP3   OH216141   2.517   6.530   1.277
 5395TIP3    H116142   2.564   6.472   1.217
 5395TIP3    H216143   2.585   6.588   1.312
 5396TIP3   OH216144   3.005   6.726   1.370
 5396TIP3    H116145   3.066   6.675   1.425
 5396TIP3    H216146   3.020   6.817   1.396
 5397TIP3   OH216147   2.814   6.779   2.741
 5397TIP3    H116148   2.778   6.713   2.800
 5397TIP3    H216149   2.906   6.786   2.765
 5398TIP3   OH216150   3.063   6.784   2.861
 5398TIP3    H116151   3.143   6.764   2.812
 5398TIP3    H216152   3.058   6.716   2.928
 5399TIP3   OH216153   3.887   6.871   2.652
 5399TIP3    H116154   3.902   6.841   2.741
 5399TIP3    H216155   3.973   6.864   2.610
 5400TIP3   OH216156   4.955   7.832   0.932
 5400TIP3    H116157   5.017   7.882   0.879
 5400TIP3    H216158   4.880   7.819   0.874
 5401TIP3   OH216159   5.008   7.759   1.348
 5401TIP3    H116160   5.079   7.766   1.413
 5401TIP3    H216161   4.993   7.665   1.338
 5402TIP3   OH216162   4.373   7.710   1.692
 5402TIP3    H116163   4.442   7.646   1.672
 5402TIP3    H216164   4.413   7.795   1.670
 5403TIP3   OH216165   8.151   0.029   0.927
 5403TIP3    H116166   8.230  -0.013   0.960
 5403TIP3    H216167   8.178   0.118   0.907
 5404TIP3   OH216168   4.423   8.009   1.475
 5404TIP3    H116169   4.377   7.934   1.438
 5404TIP3    H216170   4.485   8.036   1.408
 5405TIP3   OH216171   4.039   7.255   1.228
 5405TIP3    H116172   3.997   7.330   1.270
 5405TIP3    H216173   3.967   7.209   1.184
 5406TIP3   OH216174   4.104   7.566   1.361
 5406TIP3    H116175   4.167   7.499   1.387
 5406TIP3    H216176   4.142   7.606   1.283
 5407TIP3   OH216177   4.897   8.014   1.363
 5407TIP3    H116178   4.928   7.926   1.338
 5407TIP3    H216179   4.976   8.062   1.385
 5408TIP3   OH216180   5.911   7.329   1.410
 5408TIP3    H116181   5.947   7.404   1.458
 5408TIP3    H216182   5.854   7.369   1.344
 5409TIP3   OH216183   5.271   7.517   1.401
 5409TIP3    H116184   5.345   7.455   1.402
 5409TIP3    H216185   5.280   7.564   1.319
 5410TIP3   OH216186   4.639   7.150   1.352
 5410TIP3    H116187   4.612   7.223   1.297
 5410TIP3    H216188   4.592   7.074   1.317
 5411TIP3   OH216189   5.334   7.284   0.978
 5411TIP3    H116190   5.415   7.256   1.021
 5411TIP3    H216191   5.363   7.343   0.908
 5412TIP3   OH216192   4.270   7.365   1.455
 5412TIP3    H116193   4.354   7.344   1.496
 5412TIP3    H216194   4.268   7.310   1.376
 5413TIP3   OH216195   4.713   7.554   1.305
 5413TIP3    H116196   4.800   7.519   1.324
 5413TIP3    H216197   4.659   7.476   1.290
 5414TIP3   OH216198   5.986   7.552   1.552
 5414TIP3    H116199   5.895   7.580   1.556
 5414TIP3    H216200   6.023   7.578   1.637
 5415TIP3   OH216201   4.630   7.154   1.784
 5415TIP3    H116202   4.574   7.194   1.717
 5415TIP3    H216203   4.581   7.163   1.865
 5416TIP3   OH216204   7.704   0.035   0.775
 5416TIP3    H116205   7.649  -0.042   0.757
 5416TIP3    H216206   7.710   0.039   0.871
 5417TIP3   OH216207   4.741   7.923   1.570
 5417TIP3    H116208   4.686   7.991   1.608
 5417TIP3    H216209   4.791   7.967   1.502
 5418TIP3   OH216210   5.485   7.384   1.307
 5418TIP3    H116211   5.447   7.297   1.295
 5418TIP3    H216212   5.580   7.370   1.305
 5419TIP3   OH216213   4.511   7.270   1.562
 5419TIP3    H116214   4.567   7.343   1.589
 5419TIP3    H216215   4.560   7.225   1.494
 5420TIP3   OH216216   7.405   0.101   1.677
 5420TIP3    H116217   7.350   0.080   1.602
 5420TIP3    H216218   7.343   0.116   1.749
 5421TIP3   OH216219   4.007   7.774   1.051
 5421TIP3    H116220   3.969   7.726   0.978
 5421TIP3    H216221   3.983   7.865   1.036
 5422TIP3   OH216222   5.693   7.209   1.553
 5422TIP3    H116223   5.601   7.213   1.527
 5422TIP3    H216224   5.741   7.241   1.476
 5423TIP3   OH216225   4.968   6.836   1.523
 5423TIP3    H116226   4.958   6.743   1.543
 5423TIP3    H216227   4.892   6.878   1.561
 5424TIP3   OH216228   8.399   0.259   1.527
 5424TIP3    H116229   8.339   0.221   1.463
 5424TIP3    H216230   8.483   0.217   1.509
 5425TIP3   OH216231   4.884   7.582   0.726
 5425TIP3    H116232   4.809   7.641   0.736
 5425TIP3    H216233   4.923   7.607   0.643
 5426TIP3   OH216234   5.794   7.886   1.383
 5426TIP3    H116235   5.702   7.908   1.369
 5426TIP3    H216236   5.823   7.851   1.299
 5427TIP3   OH216237   5.272   7.716   0.619
 5427TIP3    H116238   5.204   7.776   0.651
 5427TIP3    H216239   5.281   7.652   0.689
 5428TIP3   OH216240   5.480   7.735   1.657
 5428TIP3    H116241   5.482   7.814   1.711
 5428TIP3    H216242   5.404   7.746   1.600
 5429TIP3   OH216243   4.496   7.682   1.170
 5429TIP3    H116244   4.453   7.622   1.110
 5429TIP3    H216245   4.572   7.633   1.203
 5430TIP3   OH216246   7.466   0.078   1.316
 5430TIP3    H116247   7.458   0.166   1.280
 5430TIP3    H216248   7.560   0.064   1.326
 5431TIP3   OH216249   4.600   7.698   1.506
 5431TIP3    H116250   4.644   7.662   1.429
 5431TIP3    H216251   4.649   7.778   1.527
 5432TIP3   OH216252   7.651   0.160   1.794
 5432TIP3    H116253   7.632   0.245   1.833
 5432TIP3    H216254   7.569   0.134   1.752
 5433TIP3   OH216255   4.385   7.531   0.984
 5433TIP3    H116256   4.299   7.568   0.967
 5433TIP3    H216257   4.392   7.458   0.922
 5434TIP3   OH216258   4.152   7.930   1.835
 5434TIP3    H116259   4.081   7.938   1.771
 5434TIP3    H216260   4.189   7.844   1.819
 5435TIP3   OH216261   5.744   7.686   1.834
 5435TIP3    H116262   5.667   7.715   1.786
 5435TIP3    H216263   5.758   7.596   1.805
 5436TIP3   OH216264   7.201   0.103   1.856
 5436TIP3    H116265   7.246   0.080   1.937
 5436TIP3    H216266   7.124   0.045   1.853
 5437TIP3   OH216267   4.735   6.942   1.632
 5437TIP3    H116268   4.652   6.910   1.598
 5437TIP3    H216269   4.712   7.023   1.679
 5438TIP3   OH216270   5.273   7.060   1.824
 5438TIP3    H116271   5.344   7.035   1.882
 5438TIP3    H216272   5.193   7.038   1.872
 5439TIP3   OH216273   5.515   7.477   1.744
 5439TIP3    H116274   5.470   7.473   1.829
 5439TIP3    H216275   5.493   7.562   1.708
 5440TIP3   OH216276   4.806   6.989   0.600
 5440TIP3    H116277   4.811   6.970   0.693
 5440TIP3    H216278   4.823   6.905   0.557
 5441TIP3   OH216279   4.671   7.477   1.650
 5441TIP3    H116280   4.690   7.515   1.736
 5441TIP3    H216281   4.648   7.552   1.595
 5442TIP3   OH216282   4.533   7.369   1.226
 5442TIP3    H116283   4.442   7.343   1.236
 5442TIP3    H216284   4.555   7.346   1.135
 5443TIP3   OH216285   5.256   7.502   0.803
 5443TIP3    H116286   5.181   7.527   0.857
 5443TIP3    H216287   5.233   7.415   0.770
 5444TIP3   OH216288   5.243   7.694   1.964
 5444TIP3    H116289   5.218   7.624   2.025
 5444TIP3    H216290   5.336   7.709   1.982
 5445TIP3   OH216291   5.130   7.403   1.118
 5445TIP3    H116292   5.077   7.452   1.055
 5445TIP3    H216293   5.196   7.359   1.064
 5446TIP3   OH216294   4.433   6.905   0.634
 5446TIP3    H116295   4.515   6.894   0.681
 5446TIP3    H216296   4.418   6.999   0.634
 5447TIP3   OH216297   4.086   7.003   1.462
 5447TIP3    H116298   4.170   7.034   1.497
 5447TIP3    H216299   4.108   6.969   1.375
 5448TIP3   OH216300   4.092   7.039   1.010
 5448TIP3    H116301   4.096   7.002   0.922
 5448TIP3    H216302   4.003   7.075   1.017
 5449TIP3   OH216303   5.179   7.703   1.570
 5449TIP3    H116304   5.217   7.642   1.507
 5449TIP3    H216305   5.163   7.651   1.648
 5450TIP3   OH216306   4.905   7.195   1.275
 5450TIP3    H116307   4.825   7.167   1.319
 5450TIP3    H216308   4.973   7.137   1.310
 5451TIP3   OH216309   4.310   7.211   1.228
 5451TIP3    H116310   4.215   7.199   1.219
 5451TIP3    H216311   4.344   7.122   1.232
 5452TIP3   OH216312   4.588   7.270   0.983
 5452TIP3    H116313   4.683   7.269   0.991
 5452TIP3    H216314   4.570   7.336   0.917
 5453TIP3   OH216315   5.419   7.175   1.494
 5453TIP3    H116316   5.356   7.220   1.551
 5453TIP3    H216317   5.368   7.148   1.418
 5454TIP3   OH216318   4.418   7.338   0.766
 5454TIP3    H116319   4.378   7.258   0.799
 5454TIP3    H216320   4.465   7.311   0.687
 5455TIP3   OH216321   7.344   0.033   2.079
 5455TIP3    H116322   7.424   0.049   2.129
 5455TIP3    H216323   7.276   0.020   2.145
 5456TIP3   OH216324   4.971   7.487   1.334
 5456TIP3    H116325   5.027   7.436   1.275
 5456TIP3    H216326   4.980   7.442   1.419
 5457TIP3   OH216327   4.454   6.977   1.235
 5457TIP3    H116328   4.427   6.900   1.284
 5457TIP3    H216329   4.472   6.945   1.146
 5458TIP3   OH216330   4.939   7.400   1.598
 5458TIP3    H116331   4.853   7.436   1.618
 5458TIP3    H216332   5.000   7.450   1.653
 5459TIP3   OH216333   4.733   7.813   0.766
 5459TIP3    H116334   4.689   7.785   0.686
 5459TIP3    H216335   4.663   7.817   0.831
 5460TIP3   OH216336   5.553   7.974   1.297
 5460TIP3    H116337   5.591   8.047   1.249
 5460TIP3    H216338   5.475   8.011   1.338
 5461TIP3   OH216339   7.920   0.106   1.726
 5461TIP3    H116340   7.960   0.091   1.812
 5461TIP3    H216341   7.828   0.128   1.746
 5462TIP3   OH216342   4.353   7.760   1.385
 5462TIP3    H116343   4.384   7.742   1.296
 5462TIP3    H216344   4.422   7.726   1.441
 5463TIP3   OH216345   5.010   7.835   1.982
 5463TIP3    H116346   4.973   7.822   1.895
 5463TIP3    H216347   5.098   7.796   1.977
 5464TIP3   OH216348   0.195   0.253   1.654
 5464TIP3    H116349   0.152   0.317   1.710
 5464TIP3    H216350   0.223   0.303   1.577
 5465TIP3   OH216351   5.285   7.874   1.330
 5465TIP3    H116352   5.226   7.921   1.270
 5465TIP3    H216353   5.294   7.787   1.292
 5466TIP3   OH216354   4.122   7.370   0.790
 5466TIP3    H116355   4.190   7.422   0.747
 5466TIP3    H216356   4.041   7.399   0.749
 5467TIP3   OH216357   4.547   7.848   0.955
 5467TIP3    H116358   4.613   7.884   1.015
 5467TIP3    H216359   4.504   7.779   1.006
 5468TIP3   OH216360   7.978   0.067   1.461
 5468TIP3    H116361   7.959   0.079   1.554
 5468TIP3    H216362   8.031  -0.012   1.457
 5469TIP3   OH216363   4.474   7.180   2.014
 5469TIP3    H116364   4.403   7.116   2.005
 5469TIP3    H216365   4.524   7.151   2.090
 5470TIP3   OH216366   4.204   7.711   0.864
 5470TIP3    H116367   4.151   7.729   0.942
 5470TIP3    H216368   4.169   7.769   0.797
 5471TIP3   OH216369   5.288   7.308   1.703
 5471TIP3    H116370   5.376   7.341   1.721
 5471TIP3    H216371   5.284   7.225   1.751
 5472TIP3   OH216372   5.125   7.118   0.939
 5472TIP3    H116373   5.079   7.148   0.860
 5472TIP3    H216374   5.204   7.171   0.942
 5473TIP3   OH216375   4.855   7.269   1.022
 5473TIP3    H116376   4.937   7.282   0.975
 5473TIP3    H216377   4.880   7.250   1.112
 5474TIP3   OH216378   5.127   7.523   1.765
 5474TIP3    H116379   5.168   7.568   1.839
 5474TIP3    H216380   5.182   7.447   1.750
 5475TIP3   OH216381   5.005   6.940   1.100
 5475TIP3    H116382   5.042   6.963   1.186
 5475TIP3    H216383   5.051   6.996   1.038
 5476TIP3   OH216384   4.471   6.900   0.974
 5476TIP3    H116385   4.442   6.984   0.939
 5476TIP3    H216386   4.544   6.875   0.917
 5477TIP3   OH216387   5.780   7.415   1.746
 5477TIP3    H116388   5.686   7.427   1.754
 5477TIP3    H216389   5.791   7.355   1.672
 5478TIP3   OH216390   5.520   7.549   1.090
 5478TIP3    H116391   5.434   7.588   1.104
 5478TIP3    H216392   5.529   7.485   1.161
 5479TIP3   OH216393   4.115   7.851   0.639
 5479TIP3    H116394   4.159   7.934   0.623
 5479TIP3    H216395   4.148   7.792   0.571
 5480TIP3   OH216396   4.067   7.114   0.732
 5480TIP3    H116397   4.101   7.192   0.777
 5480TIP3    H216398   3.984   7.143   0.694
 5481TIP3   OH216399   4.476   6.853   1.595
 5481TIP3    H116400   4.445   6.819   1.511
 5481TIP3    H216401   4.466   6.779   1.656
 5482TIP3   OH216402   4.304   8.016   2.256
 5482TIP3    H116403   4.300   7.946   2.321
 5482TIP3    H216404   4.220   8.011   2.211
 5483TIP3   OH216405   7.749   0.076   2.038
 5483TIP3    H116406   7.717   0.093   1.949
 5483TIP3    H216407   7.796  -0.007   2.031
 5484TIP3   OH216408   8.209   0.121   1.676
 5484TIP3    H116409   8.266   0.186   1.636
 5484TIP3    H216410   8.122   0.161   1.673
 5485TIP3   OH216411   4.601   7.638   0.606
 5485TIP3    H116412   4.585   7.590   0.688
 5485TIP3    H216413   4.640   7.573   0.547
 5486TIP3   OH216414   4.749   7.629   1.864
 5486TIP3    H116415   4.715   7.686   1.932
 5486TIP3    H216416   4.813   7.682   1.817
 5487TIP3   OH216417   8.106   0.031   2.004
 5487TIP3    H116418   8.183   0.004   1.954
 5487TIP3    H216419   8.108  -0.026   2.082
 5488TIP3   OH216420   4.886   7.433   2.007
 5488TIP3    H116421   4.896   7.354   1.954
 5488TIP3    H216422   4.845   7.497   1.949
 5489TIP3   OH216423   4.893   7.226   1.816
 5489TIP3    H116424   4.922   7.263   1.732
 5489TIP3    H216425   4.801   7.204   1.802
 5490TIP3   OH216426   4.924   7.786   1.723
 5490TIP3    H116427   5.002   7.777   1.669
 5490TIP3    H216428   4.864   7.840   1.670
 5491TIP3   OH216429   5.503   7.734   2.074
 5491TIP3    H116430   5.555   7.655   2.084
 5491TIP3    H216431   5.567   7.805   2.069
 5492TIP3   OH216432   5.523   7.962   1.812
 5492TIP3    H116433   5.465   8.022   1.767
 5492TIP3    H216434   5.610   7.979   1.775
 5493TIP3   OH216435   4.772   7.532   2.243
 5493TIP3    H116436   4.709   7.466   2.271
 5493TIP3    H216437   4.805   7.500   2.159
 5494TIP3   OH216438   5.013   6.995   1.909
 5494TIP3    H116439   4.973   7.076   1.877
 5494TIP3    H216440   4.946   6.928   1.896
 5495TIP3   OH216441   5.144   7.483   2.108
 5495TIP3    H116442   5.133   7.471   2.203
 5495TIP3    H216443   5.058   7.463   2.072
 5496TIP3   OH216444   5.390   7.435   1.979
 5496TIP3    H116445   5.312   7.434   2.034
 5496TIP3    H216446   5.462   7.411   2.038
 5497TIP3   OH216447   5.616   7.383   2.132
 5497TIP3    H116448   5.628   7.289   2.144
 5497TIP3    H216449   5.608   7.418   2.220
 5498TIP3   OH216450   4.631   7.305   2.325
 5498TIP3    H116451   4.638   7.217   2.288
 5498TIP3    H216452   4.667   7.297   2.413
 5499TIP3   OH216453   5.084   6.988   2.173
 5499TIP3    H116454   5.153   6.922   2.170
 5499TIP3    H216455   5.053   6.995   2.083
 5500TIP3   OH216456   5.177   7.207   2.314
 5500TIP3    H116457   5.147   7.135   2.259
 5500TIP3    H216458   5.104   7.269   2.314
 5501TIP3   OH216459   3.871   7.773   0.476
 5501TIP3    H116460   3.826   7.851   0.510
 5501TIP3    H216461   3.822   7.700   0.513
 5502TIP3   OH216462   0.098   0.407   1.860
 5502TIP3    H116463   0.025   0.400   1.921
 5502TIP3    H216464   0.142   0.488   1.885
 5503TIP3   OH216465  -0.001   0.152   1.140
 5503TIP3    H116466   0.067   0.132   1.076
 5503TIP3    H216467  -0.046   0.229   1.105
 5504TIP3   OH216468   5.476   7.686   0.843
 5504TIP3    H116469   5.501   7.600   0.876
 5504TIP3    H216470   5.507   7.747   0.910
 5505TIP3   OH216471   4.113   7.684   1.610
 5505TIP3    H116472   4.105   7.651   1.520
 5505TIP3    H216473   4.207   7.693   1.624
 5506TIP3   OH216474   0.102   0.003   1.709
 5506TIP3    H116475   0.179  -0.054   1.716
 5506TIP3    H216476   0.135   0.083   1.668
 5507TIP3   OH216477   5.965   7.824   1.750
 5507TIP3    H116478   5.887   7.775   1.778
 5507TIP3    H216479   6.039   7.768   1.777
 5508TIP3   OH216480   5.523   7.236   0.581
 5508TIP3    H116481   5.510   7.201   0.669
 5508TIP3    H216482   5.496   7.327   0.587
 5509TIP3   OH216483   5.732   7.487   1.290
 5509TIP3    H116484   5.788   7.543   1.236
 5509TIP3    H216485   5.677   7.548   1.340
 5510TIP3   OH216486   5.741   7.665   1.539
 5510TIP3    H116487   5.646   7.664   1.553
 5510TIP3    H216488   5.756   7.740   1.482
 5511TIP3   OH216489   4.375   7.355   2.261
 5511TIP3    H116490   4.467   7.351   2.288
 5511TIP3    H216491   4.336   7.275   2.296
 5512TIP3   OH216492   5.584   7.099   0.813
 5512TIP3    H116493   5.629   7.058   0.886
 5512TIP3    H216494   5.509   7.042   0.796
 5513TIP3   OH216495   4.311   7.073   1.606
 5513TIP3    H116496   4.368   6.996   1.610
 5513TIP3    H216497   4.372   7.147   1.597
 5514TIP3   OH216498   4.098   7.340   1.682
 5514TIP3    H116499   4.147   7.323   1.602
 5514TIP3    H216500   4.096   7.435   1.690
 5515TIP3   OH216501   6.017   7.355   1.881
 5515TIP3    H116502   5.933   7.386   1.847
 5515TIP3    H216503   6.033   7.273   1.835
 5516TIP3   OH216504   4.081   6.859   1.215
 5516TIP3    H116505   3.988   6.835   1.210
 5516TIP3    H216506   4.093   6.922   1.144
 5517TIP3   OH216507   4.297   6.968   2.007
 5517TIP3    H116508   4.246   6.932   2.079
 5517TIP3    H216509   4.232   6.995   1.942
 5518TIP3   OH216510   5.948   7.130   1.716
 5518TIP3    H116511   5.856   7.131   1.688
 5518TIP3    H216512   5.972   7.038   1.715
 5519TIP3   OH216513   5.094   7.007   1.346
 5519TIP3    H116514   5.077   6.942   1.415
 5519TIP3    H216515   5.189   7.015   1.344
 5520TIP3   OH216516   5.653   6.981   1.294
 5520TIP3    H116517   5.676   7.028   1.214
 5520TIP3    H216518   5.559   6.999   1.306
 5521TIP3   OH216519   5.751   7.001   1.006
 5521TIP3    H116520   5.809   6.930   0.979
 5521TIP3    H216521   5.810   7.075   1.021
 5522TIP3   OH216522   4.378   6.749   1.361
 5522TIP3    H116523   4.288   6.717   1.366
 5522TIP3    H216524   4.431   6.670   1.351
 5523TIP3   OH216525   4.162   6.641   1.051
 5523TIP3    H116526   4.188   6.686   0.971
 5523TIP3    H216527   4.138   6.711   1.112
 5524TIP3   OH216528   4.824   6.828   1.272
 5524TIP3    H116529   4.869   6.872   1.200
 5524TIP3    H216530   4.877   6.846   1.349
 5525TIP3   OH216531   5.373   6.945   1.306
 5525TIP3    H116532   5.375   6.936   1.211
 5525TIP3    H216533   5.352   6.857   1.338
 5526TIP3   OH216534   5.505   6.805   0.807
 5526TIP3    H116535   5.427   6.799   0.751
 5526TIP3    H216536   5.482   6.755   0.885
 5527TIP3   OH216537   4.255   6.783   0.835
 5527TIP3    H116538   4.302   6.724   0.776
 5527TIP3    H216539   4.324   6.828   0.884
 5528TIP3   OH216540   4.826   7.029   0.883
 5528TIP3    H116541   4.869   6.959   0.933
 5528TIP3    H216542   4.837   7.107   0.937
 5529TIP3   OH216543   4.613   7.035   2.226
 5529TIP3    H116544   4.574   6.971   2.286
 5529TIP3    H216545   4.706   7.038   2.250
 5530TIP3   OH216546   4.860   7.039   2.348
 5530TIP3    H116547   4.940   7.019   2.299
 5530TIP3    H216548   4.854   6.970   2.414
 5531TIP3   OH216549   5.679   7.108   2.149
 5531TIP3    H116550   5.682   7.089   2.243
 5531TIP3    H216551   5.760   7.070   2.114
 5532TIP3   OH216552   6.219   7.895   1.066
 5532TIP3    H116553   6.195   7.944   1.144
 5532TIP3    H216554   6.160   7.928   0.998
 5533TIP3   OH216555   6.074   7.637   0.872
 5533TIP3    H116556   6.139   7.568   0.876
 5533TIP3    H216557   6.030   7.625   0.787
 5534TIP3   OH216558   6.339   7.434   1.258
 5534TIP3    H116559   6.301   7.508   1.209
 5534TIP3    H216560   6.322   7.455   1.350
 5535TIP3   OH216561   6.249   7.422   0.963
 5535TIP3    H116562   6.255   7.500   1.017
 5535TIP3    H216563   6.340   7.403   0.939
 5536TIP3   OH216564   6.774   7.196   0.973
 5536TIP3    H116565   6.745   7.139   0.901
 5536TIP3    H216566   6.700   7.197   1.034
 5537TIP3   OH216567   0.667   0.086   1.496
 5537TIP3    H116568   0.637   0.058   1.583
 5537TIP3    H216569   0.683   0.004   1.449
 5538TIP3   OH216570   0.332   0.243   1.239
 5538TIP3    H116571   0.285   0.289   1.170
 5538TIP3    H216572   0.294   0.155   1.240
 5539TIP3   OH216573   6.557   7.246   1.145
 5539TIP3    H116574   6.490   7.192   1.101
 5539TIP3    H216575   6.515   7.275   1.226
 5540TIP3   OH216576   7.111   7.286   1.334
 5540TIP3    H116577   7.157   7.355   1.382
 5540TIP3    H216578   7.018   7.308   1.342
 5541TIP3   OH216579   6.472   7.753   1.220
 5541TIP3    H116580   6.413   7.772   1.293
 5541TIP3    H216581   6.482   7.837   1.175
 5542TIP3   OH216582   6.323   7.794   1.446
 5542TIP3    H116583   6.333   7.809   1.540
 5542TIP3    H216584   6.235   7.757   1.436
 5543TIP3   OH216585   5.854   7.367   0.870
 5543TIP3    H116586   5.907   7.294   0.899
 5543TIP3    H216587   5.836   7.348   0.777
 5544TIP3   OH216588   6.016   7.971   1.527
 5544TIP3    H116589   6.025   7.939   1.617
 5544TIP3    H216590   5.926   7.950   1.503
 5545TIP3   OH216591   6.261   7.484   1.512
 5545TIP3    H116592   6.167   7.499   1.525
 5545TIP3    H216593   6.286   7.425   1.583
 5546TIP3   OH216594   6.364   7.106   1.035
 5546TIP3    H116595   6.320   7.051   0.970
 5546TIP3    H216596   6.356   7.057   1.117
 5547TIP3   OH216597   0.463   0.252   1.725
 5547TIP3    H116598   0.495   0.164   1.706
 5547TIP3    H216599   0.373   0.253   1.692
 5548TIP3   OH216600   6.251   8.005   1.740
 5548TIP3    H116601   6.278   7.918   1.770
 5548TIP3    H216602   6.259   8.061   1.817
 5549TIP3   OH216603   6.734   7.689   1.605
 5549TIP3    H116604   6.816   7.687   1.557
 5549TIP3    H216605   6.671   7.647   1.547
 5550TIP3   OH216606   6.665   7.517   1.186
 5550TIP3    H116607   6.707   7.567   1.115
 5550TIP3    H216608   6.584   7.565   1.204
 5551TIP3   OH216609   6.517   7.815   1.727
 5551TIP3    H116610   6.466   7.747   1.771
 5551TIP3    H216611   6.595   7.769   1.694
 5552TIP3   OH216612   6.849   7.363   1.325
 5552TIP3    H116613   6.798   7.430   1.279
 5552TIP3    H216614   6.816   7.280   1.290
 5553TIP3   OH216615   6.400   7.569   1.805
 5553TIP3    H116616   6.411   7.483   1.766
 5553TIP3    H216617   6.439   7.560   1.893
 5554TIP3   OH216618   6.977   7.275   1.623
 5554TIP3    H116619   7.047   7.210   1.618
 5554TIP3    H216620   6.898   7.229   1.593
 5555TIP3   OH216621   7.008   7.480   1.799
 5555TIP3    H116622   6.994   7.403   1.744
 5555TIP3    H216623   6.920   7.514   1.816
 5556TIP3   OH216624   5.916   7.990   1.133
 5556TIP3    H116625   5.922   7.940   1.052
 5556TIP3    H216626   6.001   7.977   1.176
 5557TIP3   OH216627   6.128   7.600   1.780
 5557TIP3    H116628   6.222   7.615   1.795
 5557TIP3    H216629   6.111   7.514   1.819
 5558TIP3   OH216630   6.113   7.246   1.121
 5558TIP3    H116631   6.162   7.172   1.155
 5558TIP3    H216632   6.176   7.295   1.068
 5559TIP3   OH216633   5.840   7.716   1.172
 5559TIP3    H116634   5.836   7.687   1.081
 5559TIP3    H216635   5.927   7.688   1.202
 5560TIP3   OH216636   6.087   7.142   1.479
 5560TIP3    H116637   6.051   7.137   1.567
 5560TIP3    H216638   6.027   7.199   1.431
 5561TIP3   OH216639   6.217   6.951   0.881
 5561TIP3    H116640   6.136   6.900   0.875
 5561TIP3    H216641   6.228   6.991   0.795
 5562TIP3   OH216642   6.384   7.296   1.726
 5562TIP3    H116643   6.348   7.240   1.795
 5562TIP3    H216644   6.479   7.295   1.743
 5563TIP3   OH216645   6.633   7.288   1.839
 5563TIP3    H116646   6.723   7.319   1.827
 5563TIP3    H216647   6.640   7.216   1.902
 5564TIP3   OH216648   1.855   0.522   5.764
 5564TIP3    H116649   1.833   0.472   5.843
 5564TIP3    H216650   1.895   0.603   5.797
 5565TIP3   OH216651   1.494   0.947   5.776
 5565TIP3    H116652   1.545   0.883   5.726
 5565TIP3    H216653   1.500   0.918   5.866
 5566TIP3   OH216654   8.092   7.964   6.355
 5566TIP3    H116655   8.014   7.991   6.307
 5566TIP3    H216656   8.149   8.042   6.354
 5567TIP3   OH216657   1.510   0.431   5.525
 5567TIP3    H116658   1.472   0.407   5.441
 5567TIP3    H216659   1.462   0.510   5.553
 5568TIP3   OH216660   1.909   0.771   5.919
 5568TIP3    H116661   1.816   0.761   5.941
 5568TIP3    H216662   1.911   0.847   5.861
 5569TIP3   OH216663   1.638   0.797   5.597
 5569TIP3    H116664   1.683   0.716   5.570
 5569TIP3    H216665   1.685   0.867   5.552
 5570TIP3   OH216666   1.759   0.566   5.506
 5570TIP3    H116667   1.689   0.502   5.495
 5570TIP3    H216668   1.804   0.540   5.587
 5571TIP3   OH216669   2.126   0.673   6.252
 5571TIP3    H116670   2.123   0.597   6.195
 5571TIP3    H216671   2.081   0.742   6.204
 5572TIP3   OH216672   2.321   0.310   6.114
 5572TIP3    H116673   2.242   0.363   6.118
 5572TIP3    H216674   2.354   0.322   6.025
 5573TIP3   OH216675   1.787   0.158   5.497
 5573TIP3    H116676   1.721   0.194   5.556
 5573TIP3    H216677   1.856   0.127   5.556
 5574TIP3   OH216678   1.658   0.770   6.027
 5574TIP3    H116679   1.648   0.843   6.087
 5574TIP3    H216680   1.659   0.692   6.083
 5575TIP3   OH216681   1.381   0.686   5.555
 5575TIP3    H116682   1.464   0.730   5.575
 5575TIP3    H216683   1.322   0.757   5.532
 5576TIP3   OH216684   1.938   0.597   4.917
 5576TIP3    H116685   1.932   0.690   4.894
 5576TIP3    H216686   2.029   0.573   4.898
 5577TIP3   OH216687   1.508   0.795   6.397
 5577TIP3    H116688   1.496   0.882   6.434
 5577TIP3    H216689   1.439   0.742   6.438
 5578TIP3   OH216690   1.223   0.892   5.409
 5578TIP3    H116691   1.192   0.881   5.319
 5578TIP3    H216692   1.200   0.983   5.432
 5579TIP3   OH216693   1.490   0.915   5.342
 5579TIP3    H116694   1.400   0.897   5.369
 5579TIP3    H216695   1.522   0.832   5.307
 5580TIP3   OH216696   2.254   0.139   6.596
 5580TIP3    H116697   2.180   0.199   6.590
 5580TIP3    H216698   2.218   0.055   6.565
 5581TIP3   OH216699   7.402   7.959   5.075
 5581TIP3    H116700   7.357   7.958   4.991
 5581TIP3    H216701   7.403   8.051   5.101
 5582TIP3   OH216702   2.090   1.234   6.332
 5582TIP3    H116703   2.071   1.310   6.277
 5582TIP3    H216704   2.156   1.265   6.394
 5583TIP3   OH216705   2.093   0.461   6.082
 5583TIP3    H116706   2.132   0.504   6.006
 5583TIP3    H216707   2.014   0.418   6.047
 5584TIP3   OH216708   1.382   0.384   5.261
 5584TIP3    H116709   1.327   0.463   5.260
 5584TIP3    H216710   1.320   0.311   5.258
 5585TIP3   OH216711   1.790   0.808   6.374
 5585TIP3    H116712   1.695   0.803   6.368
 5585TIP3    H216713   1.807   0.843   6.462
 5586TIP3   OH216714   7.863   7.871   5.227
 5586TIP3    H116715   7.791   7.820   5.190
 5586TIP3    H216716   7.845   7.961   5.199
 5587TIP3   OH216717   2.389   0.692   6.340
 5587TIP3    H116718   2.295   0.707   6.331
 5587TIP3    H216719   2.420   0.678   6.250
 5588TIP3   OH216720   1.880   0.664   5.185
 5588TIP3    H116721   1.841   0.596   5.240
 5588TIP3    H216722   1.886   0.624   5.098
 5589TIP3   OH216723   1.875   0.323   5.977
 5589TIP3    H116724   1.796   0.291   6.021
 5589TIP3    H216725   1.894   0.256   5.911
 5590TIP3   OH216726   1.260   0.896   6.260
 5590TIP3    H116727   1.274   0.943   6.178
 5590TIP3    H216728   1.349   0.879   6.293
 5591TIP3   OH216729   1.701   0.552   6.200
 5591TIP3    H116730   1.639   0.547   6.273
 5591TIP3    H216731   1.786   0.533   6.239
 5592TIP3   OH216732   1.602   0.354   5.082
 5592TIP3    H116733   1.675   0.341   5.143
 5592TIP3    H216734   1.526   0.370   5.139
 5593TIP3   OH216735   1.944   0.873   4.879
 5593TIP3    H116736   1.969   0.941   4.816
 5593TIP3    H216737   1.870   0.910   4.926
 5594TIP3   OH216738   1.799   0.313   5.266
 5594TIP3    H116739   1.786   0.259   5.344
 5594TIP3    H216740   1.893   0.326   5.261
 5595TIP3   OH216741   1.194   0.589   5.287
 5595TIP3    H116742   1.160   0.608   5.374
 5595TIP3    H216743   1.226   0.673   5.254
 5596TIP3   OH216744   1.921   1.032   5.819
 5596TIP3    H116745   1.870   1.080   5.754
 5596TIP3    H216746   2.012   1.054   5.799
 5597TIP3   OH216747   1.128   0.576   5.018
 5597TIP3    H116748   1.130   0.559   5.113
 5597TIP3    H216749   1.218   0.604   4.998
 5598TIP3   OH216750   1.851   0.899   6.629
 5598TIP3    H116751   1.862   0.846   6.707
 5598TIP3    H216752   1.924   0.959   6.629
 5599TIP3   OH216753   1.920   0.557   6.398
 5599TIP3    H116754   2.004   0.586   6.363
 5599TIP3    H216755   1.869   0.637   6.407
 5600TIP3   OH216756   1.943   0.140   4.927
 5600TIP3    H116757   1.912   0.088   4.853
 5600TIP3    H216758   1.898   0.224   4.917
 5601TIP3   OH216759   2.072   0.361   6.555
 5601TIP3    H116760   2.000   0.411   6.515
 5601TIP3    H216761   2.151   0.398   6.516
 5602TIP3   OH216762   0.915   0.902   5.188
 5602TIP3    H116763   1.009   0.886   5.182
 5602TIP3    H216764   0.890   0.935   5.101
 5603TIP3   OH216765   2.179   1.129   5.806
 5603TIP3    H116766   2.197   1.222   5.821
 5603TIP3    H216767   2.242   1.104   5.738
 5604TIP3   OH216768   2.206   1.105   6.082
 5604TIP3    H116769   2.190   1.098   5.988
 5604TIP3    H216770   2.301   1.097   6.091
 5605TIP3   OH216771   2.261   0.806   6.626
 5605TIP3    H116772   2.186   0.813   6.685
 5605TIP3    H216773   2.303   0.892   6.631
 5606TIP3   OH216774   2.076   0.322   5.266
 5606TIP3    H116775   2.134   0.392   5.237
 5606TIP3    H216776   2.113   0.292   5.349
 5607TIP3   OH216777   2.180   0.200   5.490
 5607TIP3    H116778   2.117   0.175   5.558
 5607TIP3    H216779   2.256   0.233   5.538
 5608TIP3   OH216780   2.257   0.580   5.898
 5608TIP3    H116781   2.312   0.513   5.858
 5608TIP3    H216782   2.255   0.651   5.833
 5609TIP3   OH216783   1.975   0.915   6.163
 5609TIP3    H116784   1.899   0.882   6.211
 5609TIP3    H216785   1.966   0.878   6.075
 5610TIP3   OH216786   2.125   0.097   5.119
 5610TIP3    H116787   2.059   0.105   5.050
 5610TIP3    H216788   2.109   0.172   5.176
 5611TIP3   OH216789   7.661   7.817   5.044
 5611TIP3    H116790   7.605   7.888   5.073
 5611TIP3    H216791   7.603   7.757   4.997
 5612TIP3   OH216792   2.003   0.049   5.660
 5612TIP3    H116793   2.024  -0.029   5.608
 5612TIP3    H216794   2.035   0.027   5.748
 5613TIP3   OH216795   2.308   0.455   6.456
 5613TIP3    H116796   2.374   0.387   6.444
 5613TIP3    H216797   2.341   0.531   6.409
 5614TIP3   OH216798   2.475   0.240   6.462
 5614TIP3    H116799   2.403   0.202   6.513
 5614TIP3    H216800   2.552   0.189   6.487
 5615TIP3   OH216801   7.803   7.979   5.986
 5615TIP3    H116802   7.890   7.992   5.950
 5615TIP3    H216803   7.814   7.995   6.080
 5616TIP3   OH216804   2.210   0.089   6.238
 5616TIP3    H116805   2.134   0.135   6.274
 5616TIP3    H216806   2.259   0.158   6.192
 5617TIP3   OH216807   1.784   0.993   5.465
 5617TIP3    H116808   1.813   0.952   5.384
 5617TIP3    H216809   1.824   1.080   5.463
 5618TIP3   OH216810   1.472   1.044   6.497
 5618TIP3    H116811   1.512   1.034   6.583
 5618TIP3    H216812   1.525   1.110   6.453
 5619TIP3   OH216813   1.641   1.219   6.374
 5619TIP3    H116814   1.687   1.160   6.314
 5619TIP3    H216815   1.710   1.266   6.420
 5620TIP3   OH216816   1.397   1.083   6.047
 5620TIP3    H116817   1.327   1.098   5.984
 5620TIP3    H216818   1.402   1.165   6.097
 5621TIP3   OH216819   1.657   1.029   6.142
 5621TIP3    H116820   1.570   1.046   6.105
 5621TIP3    H216821   1.715   1.088   6.093
 5622TIP3   OH216822   1.861   1.191   6.032
 5622TIP3    H116823   1.839   1.274   5.989
 5622TIP3    H216824   1.877   1.131   5.959
 5623TIP3   OH216825   1.176   0.839   5.143
 5623TIP3    H116826   1.265   0.841   5.107
 5623TIP3    H216827   1.127   0.784   5.082
 5624TIP3   OH216828   1.898   0.932   5.219
 5624TIP3    H116829   1.897   0.837   5.209
 5624TIP3    H216830   1.852   0.965   5.142
 5625TIP3   OH216831   3.374   0.457   5.165
 5625TIP3    H116832   3.354   0.548   5.145
 5625TIP3    H216833   3.300   0.407   5.129
 5626TIP3   OH216834   3.383   0.462   5.576
 5626TIP3    H116835   3.433   0.438   5.654
 5626TIP3    H216836   3.332   0.384   5.555
 5627TIP3   OH216837   2.687   0.344   5.925
 5627TIP3    H116838   2.727   0.278   5.982
 5627TIP3    H216839   2.758   0.371   5.866
 5628TIP3   OH216840   3.649   0.764   5.251
 5628TIP3    H116841   3.629   0.706   5.324
 5628TIP3    H216842   3.673   0.847   5.291
 5629TIP3   OH216843   8.001   7.987   5.440
 5629TIP3    H116844   7.955   8.070   5.452
 5629TIP3    H216845   7.947   7.939   5.377
 5630TIP3   OH216846   2.418   0.246   5.616
 5630TIP3    H116847   2.459   0.162   5.636
 5630TIP3    H216848   2.492   0.303   5.593
 5631TIP3   OH216849   3.297   1.206   5.251
 5631TIP3    H116850   3.334   1.140   5.192
 5631TIP3    H216851   3.276   1.158   5.330
 5632TIP3   OH216852   3.190   0.679   5.591
 5632TIP3    H116853   3.231   0.599   5.558
 5632TIP3    H216854   3.263   0.733   5.620
 5633TIP3   OH216855   3.622   0.159   5.640
 5633TIP3    H116856   3.691   0.094   5.633
 5633TIP3    H216857   3.573   0.150   5.558
 5634TIP3   OH216858   0.061   7.825   5.592
 5634TIP3    H116859   0.070   7.897   5.530
 5634TIP3    H216860  -0.011   7.773   5.558
 5635TIP3   OH216861   0.739   7.978   5.264
 5635TIP3    H116862   0.810   7.915   5.277
 5635TIP3    H216863   0.730   7.983   5.168
 5636TIP3   OH216864   2.560   0.020   5.692
 5636TIP3    H116865   2.646   0.021   5.733
 5636TIP3    H216866   2.572  -0.032   5.612
 5637TIP3   OH216867   2.985   0.238   5.519
 5637TIP3    H116868   3.079   0.224   5.527
 5637TIP3    H216869   2.950   0.154   5.489
 5638TIP3   OH216870   4.266   0.235   5.769
 5638TIP3    H116871   4.174   0.258   5.755
 5638TIP3    H216872   4.282   0.252   5.862
 5639TIP3   OH216873   3.290   0.679   5.017
 5639TIP3    H116874   3.249   0.653   4.935
 5639TIP3    H216875   3.239   0.755   5.047
 5640TIP3   OH216876   3.029   0.606   5.808
 5640TIP3    H116877   2.967   0.671   5.842
 5640TIP3    H216878   3.070   0.650   5.733
 5641TIP3   OH216879  -0.019   8.004   5.787
 5641TIP3    H116880   0.056   8.050   5.824
 5641TIP3    H216881   0.020   7.935   5.732
 5642TIP3   OH216882   2.845   0.789   5.919
 5642TIP3    H116883   2.788   0.799   5.843
 5642TIP3    H216884   2.788   0.808   5.994
 5643TIP3   OH216885   2.253   0.505   5.153
 5643TIP3    H116886   2.216   0.524   5.067
 5643TIP3    H216887   2.279   0.591   5.188
 5644TIP3   OH216888   3.699   1.008   5.387
 5644TIP3    H116889   3.614   1.000   5.430
 5644TIP3    H216890   3.694   1.092   5.341
 5645TIP3   OH216891   3.404   1.047   5.048
 5645TIP3    H116892   3.454   0.966   5.035
 5645TIP3    H216893   3.463   1.117   5.020
 5646TIP3   OH216894   3.536   0.811   5.002
 5646TIP3    H116895   3.460   0.752   5.002
 5646TIP3    H216896   3.585   0.787   5.081
 5647TIP3   OH216897   3.926   0.905   5.739
 5647TIP3    H116898   3.907   0.832   5.681
 5647TIP3    H216899   3.908   0.983   5.686
 5648TIP3   OH216900   3.208   0.314   4.994
 5648TIP3    H116901   3.124   0.359   4.979
 5648TIP3    H216902   3.252   0.319   4.909
 5649TIP3   OH216903   3.176   0.112   4.707
 5649TIP3    H116904   3.245   0.161   4.752
 5649TIP3    H216905   3.216   0.026   4.690
 5650TIP3   OH216906   4.112   0.586   5.607
 5650TIP3    H116907   4.024   0.624   5.606
 5650TIP3    H216908   4.141   0.594   5.516
 5651TIP3   OH216909   3.559   0.398   4.973
 5651TIP3    H116910   3.498   0.421   5.043
 5651TIP3    H216911   3.646   0.400   5.014
 5652TIP3   OH216912   3.790   0.438   5.891
 5652TIP3    H116913   3.779   0.517   5.944
 5652TIP3    H216914   3.705   0.426   5.848
 5653TIP3   OH216915   2.805   0.382   5.363
 5653TIP3    H116916   2.768   0.321   5.299
 5653TIP3    H216917   2.872   0.331   5.408
 5654TIP3   OH216918   2.969   0.831   5.490
 5654TIP3    H116919   2.926   0.780   5.421
 5654TIP3    H216920   3.043   0.776   5.516
 5655TIP3   OH216921   2.905   0.366   5.753
 5655TIP3    H116922   2.937   0.332   5.669
 5655TIP3    H216923   2.951   0.449   5.764
 5656TIP3   OH216924   3.469   1.000   5.527
 5656TIP3    H116925   3.446   1.080   5.573
 5656TIP3    H216926   3.446   0.929   5.588
 5657TIP3   OH216927   3.056   0.907   6.059
 5657TIP3    H116928   2.999   0.966   6.108
 5657TIP3    H216929   2.996   0.860   6.000
 5658TIP3   OH216930   3.412   0.243   4.797
 5658TIP3    H116931   3.462   0.311   4.842
 5658TIP3    H216932   3.434   0.255   4.704
 5659TIP3   OH216933   2.826   0.449   6.206
 5659TIP3    H116934   2.838   0.539   6.234
 5659TIP3    H216935   2.731   0.437   6.199
 5660TIP3   OH216936   3.159   0.919   5.059
 5660TIP3    H116937   3.237   0.974   5.061
 5660TIP3    H216938   3.093   0.972   5.013
 5661TIP3   OH216939   2.861   1.076   6.165
 5661TIP3    H116940   2.853   1.097   6.072
 5661TIP3    H216941   2.770   1.064   6.194
 5662TIP3   OH216942   2.670   0.222   5.170
 5662TIP3    H116943   2.594   0.267   5.136
 5662TIP3    H216944   2.635   0.140   5.206
 5663TIP3   OH216945   3.731   0.859   4.402
 5663TIP3    H116946   3.727   0.952   4.381
 5663TIP3    H216947   3.822   0.834   4.385
 5664TIP3   OH216948   2.469   0.624   6.089
 5664TIP3    H116949   2.407   0.617   6.016
 5664TIP3    H216950   2.508   0.536   6.096
 5665TIP3   OH216951   2.284   0.810   5.742
 5665TIP3    H116952   2.378   0.798   5.726
 5665TIP3    H216953   2.279   0.877   5.810
 5666TIP3   OH216954   4.159   1.270   5.800
 5666TIP3    H116955   4.164   1.175   5.812
 5666TIP3    H216956   4.078   1.295   5.844
 5667TIP3   OH216957   3.260   1.041   5.930
 5667TIP3    H116958   3.252   1.133   5.955
 5667TIP3    H216959   3.186   0.998   5.973
 5668TIP3   OH216960   3.040   1.155   4.880
 5668TIP3    H116961   2.997   1.135   4.797
 5668TIP3    H216962   3.002   1.238   4.907
 5669TIP3   OH216963   2.470   1.007   5.261
 5669TIP3    H116964   2.518   0.999   5.343
 5669TIP3    H216965   2.424   0.923   5.252
 5670TIP3   OH216966   3.240   1.089   4.509
 5670TIP3    H116967   3.289   1.019   4.467
 5670TIP3    H216968   3.278   1.097   4.596
 5671TIP3   OH216969   3.295   1.124   4.784
 5671TIP3    H116970   3.208   1.130   4.821
 5671TIP3    H216971   3.350   1.090   4.855
 5672TIP3   OH216972   4.038   0.392   6.087
 5672TIP3    H116973   3.968   0.442   6.045
 5672TIP3    H216974   4.009   0.301   6.082
 5673TIP3   OH216975   2.658   0.821   6.141
 5673TIP3    H116976   2.718   0.768   6.195
 5673TIP3    H216977   2.595   0.759   6.107
 5674TIP3   OH216978   3.854   0.196   6.033
 5674TIP3    H116979   3.775   0.161   6.073
 5674TIP3    H216980   3.822   0.253   5.963
 5675TIP3   OH216981   3.481   0.235   4.532
 5675TIP3    H116982   3.436   0.250   4.449
 5675TIP3    H216983   3.566   0.278   4.522
 5676TIP3   OH216984   3.005   0.155   5.911
 5676TIP3    H116985   2.947   0.160   5.987
 5676TIP3    H216986   2.980   0.230   5.857
 5677TIP3   OH216987   8.521   8.028   5.410
 5677TIP3    H116988   8.428   8.008   5.421
 5677TIP3    H216989   8.541   8.002   5.320
 5678TIP3   OH216990   3.315   0.122   5.154
 5678TIP3    H116991   3.269   0.191   5.106
 5678TIP3    H216992   3.396   0.108   5.105
 5679TIP3   OH216993   3.530   0.397   6.208
 5679TIP3    H116994   3.497   0.325   6.262
 5679TIP3    H216995   3.623   0.404   6.232
 5680TIP3   OH216996   3.473   0.174   5.399
 5680TIP3    H116997   3.413   0.214   5.336
 5680TIP3    H216998   3.504   0.095   5.356
 5681TIP3   OH216999   2.823   0.185   6.116
 5681TIP3    H117000   2.828   0.269   6.161
 5681TIP3    H217001   2.761   0.134   6.167
 5682TIP3   OH217002   8.130   7.776   5.220
 5682TIP3    H117003   8.131   7.774   5.125
 5682TIP3    H217004   8.040   7.802   5.243
 5683TIP3   OH217005   3.534   0.365   5.793
 5683TIP3    H117006   3.568   0.296   5.736
 5683TIP3    H217007   3.494   0.318   5.866
 5684TIP3   OH217008   8.263   7.916   5.428
 5684TIP3    H117009   8.174   7.950   5.440
 5684TIP3    H217010   8.255   7.851   5.359
 5685TIP3   OH217011   0.066   7.928   5.160
 5685TIP3    H117012   0.156   7.917   5.130
 5685TIP3    H217013   0.013   7.919   5.082
 5686TIP3   OH217014   8.429   7.916   4.918
 5686TIP3    H117015   8.352   7.899   4.863
 5686TIP3    H217016   8.485   7.972   4.865
 5687TIP3   OH217017   3.867   1.608   5.892
 5687TIP3    H117018   3.862   1.628   5.799
 5687TIP3    H217019   3.945   1.656   5.922
 5688TIP3   OH217020   2.827   0.699   6.324
 5688TIP3    H117021   2.907   0.726   6.369
 5688TIP3    H217022   2.759   0.707   6.391
 5689TIP3   OH217023   3.255   0.203   5.570
 5689TIP3    H117024   3.331   0.170   5.522
 5689TIP3    H217025   3.262   0.164   5.657
 5690TIP3   OH217026   3.267   0.111   5.826
 5690TIP3    H117027   3.179   0.120   5.863
 5690TIP3    H217028   3.324   0.152   5.891
 5691TIP3   OH217029   2.973   0.448   4.945
 5691TIP3    H117030   2.898   0.392   4.928
 5691TIP3    H217031   2.953   0.489   5.029
 5692TIP3   OH217032   3.868   0.703   5.561
 5692TIP3    H117033   3.898   0.753   5.485
 5692TIP3    H217034   3.783   0.668   5.535
 5693TIP3   OH217035   0.472   7.882   4.851
 5693TIP3    H117036   0.452   7.789   4.859
 5693TIP3    H217037   0.447   7.919   4.936
 5694TIP3   OH217038   3.385   0.782   5.963
 5694TIP3    H117039   3.425   0.779   6.049
 5694TIP3    H217040   3.340   0.867   5.960
 5695TIP3   OH217041   3.531   0.075   4.990
 5695TIP3    H117042   3.621   0.106   4.999
 5695TIP3    H217043   3.491   0.133   4.926
 5696TIP3   OH217044   2.654   0.377   5.596
 5696TIP3    H117045   2.696   0.401   5.513
 5696TIP3    H217046   2.724   0.383   5.660
 5697TIP3   OH217047   3.132   0.608   4.794
 5697TIP3    H117048   3.088   0.693   4.790
 5697TIP3    H217049   3.073   0.552   4.844
 5698TIP3   OH217050   2.560   0.383   6.234
 5698TIP3    H117051   2.559   0.357   6.326
 5698TIP3    H217052   2.479   0.348   6.198
 5699TIP3   OH217053   3.292   0.538   6.263
 5699TIP3    H117054   3.223   0.482   6.229
 5699TIP3    H217055   3.372   0.504   6.224
 5700TIP3   OH217056   3.533   1.056   5.854
 5700TIP3    H117057   3.438   1.047   5.860
 5700TIP3    H217058   3.558   1.102   5.935
 5701TIP3   OH217059   3.903   0.139   4.751
 5701TIP3    H117060   3.847   0.088   4.692
 5701TIP3    H217061   3.915   0.223   4.705
 5702TIP3   OH217062   4.174   0.987   5.824
 5702TIP3    H117063   4.079   0.975   5.819
 5702TIP3    H217064   4.206   0.953   5.740
 5703TIP3   OH217065   3.668   0.926   4.672
 5703TIP3    H117066   3.628   0.859   4.728
 5703TIP3    H217067   3.677   0.883   4.587
 5704TIP3   OH217068   3.623   0.589   5.475
 5704TIP3    H117069   3.533   0.567   5.500
 5704TIP3    H217070   3.656   0.510   5.432
 5705TIP3   OH217071   2.777   0.795   5.249
 5705TIP3    H117072   2.772   0.874   5.196
 5705TIP3    H217073   2.692   0.791   5.294
 5706TIP3   OH217074   2.351   0.079   4.962
 5706TIP3    H117075   2.398   0.160   4.978
 5706TIP3    H217076   2.273   0.084   5.017
 5707TIP3   OH217077   2.899   0.561   5.177
 5707TIP3    H117078   2.867   0.649   5.198
 5707TIP3    H217079   2.870   0.506   5.249
 5708TIP3   OH217080   3.066   1.126   5.724
 5708TIP3    H117081   3.104   1.196   5.671
 5708TIP3    H217082   3.141   1.085   5.767
 5709TIP3   OH217083   2.700   1.028   5.108
 5709TIP3    H117084   2.614   1.033   5.150
 5709TIP3    H217085   2.735   1.117   5.114
 5710TIP3   OH217086   3.432   0.776   5.691
 5710TIP3    H117087   3.421   0.772   5.786
 5710TIP3    H217088   3.512   0.726   5.674
 5711TIP3   OH217089   3.417   0.663   4.554
 5711TIP3    H117090   3.464   0.632   4.632
 5711TIP3    H217091   3.330   0.626   4.563
 5712TIP3   OH217092   3.683   1.288   5.730
 5712TIP3    H117093   3.607   1.230   5.737
 5712TIP3    H217094   3.661   1.348   5.658
 5713TIP3   OH217095   3.737   1.133   4.359
 5713TIP3    H117096   3.746   1.192   4.284
 5713TIP3    H217097   3.667   1.173   4.411
 5714TIP3   OH217098   3.581   0.566   4.751
 5714TIP3    H117099   3.568   0.523   4.836
 5714TIP3    H217100   3.676   0.583   4.748
 5715TIP3   OH217101   2.454   1.037   5.934
 5715TIP3    H117102   2.497   0.961   5.894
 5715TIP3    H217103   2.526   1.096   5.956
 5716TIP3   OH217104   2.781   0.633   4.574
 5716TIP3    H117105   2.788   0.542   4.547
 5716TIP3    H217106   2.760   0.629   4.667
 5717TIP3   OH217107   2.720   0.647   4.845
 5717TIP3    H117108   2.787   0.622   4.909
 5717TIP3    H217109   2.718   0.743   4.850
 5718TIP3   OH217110   2.446   0.332   5.048
 5718TIP3    H117111   2.382   0.378   5.102
 5718TIP3    H217112   2.466   0.393   4.978
 5719TIP3   OH217113   2.990   0.838   4.787
 5719TIP3    H117114   2.904   0.861   4.822
 5719TIP3    H217115   3.012   0.910   4.728
 5720TIP3   OH217116   0.350   7.899   5.140
 5720TIP3    H117117   0.392   7.984   5.151
 5720TIP3    H217118   0.347   7.862   5.228
 5721TIP3   OH217119   3.450   0.218   6.013
 5721TIP3    H117120   3.464   0.293   6.070
 5721TIP3    H217121   3.461   0.142   6.070
 5722TIP3   OH217122   2.735   0.919   4.859
 5722TIP3    H117123   2.714   0.988   4.797
 5722TIP3    H217124   2.721   0.958   4.945
 5723TIP3   OH217125   3.692   0.345   5.371
 5723TIP3    H117126   3.617   0.288   5.387
 5723TIP3    H217127   3.762   0.309   5.426
 5724TIP3   OH217128   2.471   0.524   4.844
 5724TIP3    H117129   2.542   0.588   4.853
 5724TIP3    H217130   2.504   0.461   4.779
 5725TIP3   OH217131   8.022   7.804   4.950
 5725TIP3    H117132   8.050   7.895   4.938
 5725TIP3    H217133   7.941   7.812   5.001
 5726TIP3   OH217134   3.711   1.276   5.308
 5726TIP3    H117135   3.667   1.327   5.241
 5726TIP3    H217136   3.805   1.290   5.291
 5727TIP3   OH217137   2.303   0.777   5.228
 5727TIP3    H117138   2.248   0.807   5.300
 5727TIP3    H217139   2.265   0.818   5.150
 5728TIP3   OH217140   2.516   1.316   6.302
 5728TIP3    H117141   2.590   1.340   6.358
 5728TIP3    H217142   2.529   1.223   6.283
 5729TIP3   OH217143   2.964   1.240   6.358
 5729TIP3    H117144   3.059   1.228   6.358
 5729TIP3    H217145   2.933   1.183   6.288
 5730TIP3   OH217146   2.934   0.835   4.467
 5730TIP3    H117147   2.887   0.763   4.509
 5730TIP3    H217148   3.007   0.793   4.422
 5731TIP3   OH217149   3.590   1.173   6.097
 5731TIP3    H117150   3.602   1.104   6.162
 5731TIP3    H217151   3.664   1.232   6.110
 5732TIP3   OH217152   3.370   0.878   4.387
 5732TIP3    H117153   3.406   0.811   4.445
 5732TIP3    H217154   3.427   0.875   4.310
 5733TIP3   OH217155   2.610   0.711   6.500
 5733TIP3    H117156   2.631   0.618   6.507
 5733TIP3    H217157   2.526   0.713   6.453
 5734TIP3   OH217158   2.605   0.335   4.701
 5734TIP3    H117159   2.657   0.310   4.777
 5734TIP3    H217160   2.670   0.348   4.631
 5735TIP3   OH217161   3.215   0.808   6.264
 5735TIP3    H117162   3.168   0.824   6.183
 5735TIP3    H217163   3.250   0.720   6.255
 5736TIP3   OH217164   3.159   0.552   4.526
 5736TIP3    H117165   3.136   0.567   4.617
 5736TIP3    H217166   3.138   0.460   4.510
 5737TIP3   OH217167   3.701   0.832   5.886
 5737TIP3    H117168   3.777   0.865   5.840
 5737TIP3    H217169   3.634   0.899   5.872
 5738TIP3   OH217170   2.723   0.461   6.496
 5738TIP3    H117171   2.795   0.433   6.439
 5738TIP3    H217172   2.764   0.470   6.583
 5739TIP3   OH217173   2.772   0.263   4.911
 5739TIP3    H117174   2.749   0.237   5.000
 5739TIP3    H217175   2.817   0.187   4.874
 5740TIP3   OH217176   3.094   0.376   6.154
 5740TIP3    H117177   3.005   0.410   6.154
 5740TIP3    H217178   3.129   0.398   6.068
 5741TIP3   OH217179   2.906   0.070   4.759
 5741TIP3    H117180   2.875   0.081   4.669
 5741TIP3    H217181   3.000   0.088   4.753
 5742TIP3   OH217182   3.582   0.724   6.258
 5742TIP3    H117183   3.640   0.678   6.199
 5742TIP3    H217184   3.575   0.667   6.335
 5743TIP3   OH217185   3.705   0.371   4.428
 5743TIP3    H117186   3.687   0.331   4.342
 5743TIP3    H217187   3.679   0.463   4.417
 5744TIP3   OH217188   3.144   0.137   6.270
 5744TIP3    H117189   3.112   0.074   6.205
 5744TIP3    H217190   3.127   0.223   6.231
 5745TIP3   OH217191   3.224   0.459   5.931
 5745TIP3    H117192   3.308   0.488   5.894
 5745TIP3    H217193   3.159   0.513   5.887
 5746TIP3   OH217194   3.787   0.406   6.312
 5746TIP3    H117195   3.820   0.353   6.385
 5746TIP3    H217196   3.865   0.448   6.276
 5747TIP3   OH217197   3.822   0.664   6.060
 5747TIP3    H117198   3.765   0.723   6.010
 5747TIP3    H217199   3.910   0.683   6.027
 5748TIP3   OH217200   3.047   0.257   6.512
 5748TIP3    H117201   2.967   0.219   6.548
 5748TIP3    H217202   3.066   0.205   6.434
 5749TIP3   OH217203   3.415   0.177   6.322
 5749TIP3    H117204   3.428   0.140   6.410
 5749TIP3    H217205   3.322   0.165   6.305
 5750TIP3   OH217206   2.725   1.124   4.674
 5750TIP3    H117207   2.817   1.108   4.650
 5750TIP3    H217208   2.688   1.169   4.599
 5751TIP3   OH217209   2.200   0.516   4.871
 5751TIP3    H117210   2.294   0.535   4.865
 5751TIP3    H217211   2.191   0.427   4.836
 5752TIP3   OH217212   2.097   1.095   5.315
 5752TIP3    H117213   2.037   1.037   5.268
 5752TIP3    H217214   2.144   1.036   5.375
 5753TIP3   OH217215   2.238   0.937   5.491
 5753TIP3    H117216   2.228   0.869   5.558
 5753TIP3    H217217   2.303   0.997   5.527
 5754TIP3   OH217218   3.981   1.330   5.293
 5754TIP3    H117219   3.999   1.364   5.381
 5754TIP3    H217220   4.031   1.387   5.235
 5755TIP3   OH217221   3.995   1.367   5.575
 5755TIP3    H117222   3.949   1.284   5.570
 5755TIP3    H217223   4.068   1.352   5.636
 5756TIP3   OH217224   4.054   1.058   6.150
 5756TIP3    H117225   3.980   1.069   6.209
 5756TIP3    H217226   4.098   1.144   6.150
 5757TIP3   OH217227   3.860   0.591   4.752
 5757TIP3    H117228   3.916   0.662   4.720
 5757TIP3    H217229   3.902   0.562   4.832
 5758TIP3   OH217230   3.990   0.482   4.966
 5758TIP3    H117231   3.923   0.461   5.031
 5758TIP3    H217232   4.061   0.522   5.016
 5759TIP3   OH217233   4.051   0.843   5.395
 5759TIP3    H117234   4.093   0.774   5.342
 5759TIP3    H217235   4.046   0.918   5.336
 5760TIP3   OH217236   3.858   1.124   5.586
 5760TIP3    H117237   3.789   1.170   5.634
 5760TIP3    H217238   3.813   1.083   5.512
 5761TIP3   OH217239   3.913   0.369   4.603
 5761TIP3    H117240   3.840   0.363   4.541
 5761TIP3    H217241   3.894   0.448   4.655
 5762TIP3   OH217242   3.756   0.049   4.541
 5762TIP3    H117243   3.823   0.080   4.480
 5762TIP3    H217244   3.696  -0.002   4.487
 5763TIP3   OH217245   3.793   0.376   5.121
 5763TIP3    H117246   3.799   0.284   5.097
 5763TIP3    H217247   3.760   0.376   5.211
 5764TIP3   OH217248   2.422   0.358   5.866
 5764TIP3    H117249   2.412   0.325   5.776
 5764TIP3    H217250   2.517   0.364   5.878
 5765TIP3   OH217251   4.071   0.718   5.957
 5765TIP3    H117252   4.143   0.657   5.939
 5765TIP3    H217253   4.077   0.783   5.886
 5766TIP3   OH217254   4.254   0.515   5.964
 5766TIP3    H117255   4.178   0.469   6.001
 5766TIP3    H217256   4.328   0.459   5.988
 5767TIP3   OH217257   3.798   0.129   5.003
 5767TIP3    H117258   3.855   0.062   5.043
 5767TIP3    H217259   3.829   0.135   4.912
 5768TIP3   OH217260   3.911   0.270   5.512
 5768TIP3    H117261   3.990   0.286   5.460
 5768TIP3    H217262   3.937   0.290   5.602
 5769TIP3   OH217263   4.017   0.361   5.748
 5769TIP3    H117264   3.940   0.390   5.797
 5769TIP3    H217265   4.053   0.441   5.710
 5770TIP3   OH217266   2.661   0.045   6.506
 5770TIP3    H117267   2.732   0.038   6.570
 5770TIP3    H217268   2.614  -0.038   6.512
 5771TIP3   OH217269   2.388   0.039   5.907
 5771TIP3    H117270   2.442   0.017   5.832
 5771TIP3    H217271   2.419   0.125   5.935
 5772TIP3   OH217272   3.558   1.239   4.943
 5772TIP3    H117273   3.605   1.227   4.860
 5772TIP3    H217274   3.595   1.319   4.980
 5773TIP3   OH217275   2.595   1.047   6.284
 5773TIP3    H117276   2.601   0.969   6.229
 5773TIP3    H217277   2.607   1.015   6.373
 5774TIP3   OH217278   2.849   1.125   5.900
 5774TIP3    H117279   2.801   1.192   5.852
 5774TIP3    H217280   2.923   1.102   5.843
 5775TIP3   OH217281   3.252   1.311   6.005
 5775TIP3    H117282   3.290   1.307   6.092
 5775TIP3    H217283   3.312   1.365   5.954
 5776TIP3   OH217284   3.438   1.469   5.876
 5776TIP3    H117285   3.501   1.419   5.824
 5776TIP3    H217286   3.492   1.525   5.932
 5777TIP3   OH217287   2.503   1.355   5.896
 5777TIP3    H117288   2.410   1.364   5.878
 5777TIP3    H217289   2.521   1.417   5.966
 5778TIP3   OH217290   2.737   1.328   5.755
 5778TIP3    H117291   2.653   1.336   5.800
 5778TIP3    H217292   2.718   1.345   5.663
 5779TIP3   OH217293   3.157   1.328   5.553
 5779TIP3    H117294   3.086   1.339   5.490
 5779TIP3    H217295   3.168   1.415   5.592
 5780TIP3   OH217296   3.422   1.265   5.607
 5780TIP3    H117297   3.329   1.282   5.587
 5780TIP3    H217298   3.469   1.331   5.556
 5781TIP3   OH217299   3.625   1.446   5.508
 5781TIP3    H117300   3.618   1.532   5.467
 5781TIP3    H217301   3.653   1.388   5.437
 5782TIP3   OH217302   2.415   1.107   5.642
 5782TIP3    H117303   2.442   1.093   5.733
 5782TIP3    H217304   2.486   1.069   5.591
 5783TIP3   OH217305   2.621   0.996   5.490
 5783TIP3    H117306   2.622   0.931   5.560
 5783TIP3    H217307   2.709   1.033   5.491
 5784TIP3   OH217308   2.888   1.090   5.508
 5784TIP3    H117309   2.915   1.001   5.486
 5784TIP3    H217310   2.930   1.108   5.592
 5785TIP3   OH217311   2.190   0.901   5.010
 5785TIP3    H117312   2.107   0.865   4.980
 5785TIP3    H217313   2.190   0.992   4.981
 5786TIP3   OH217314   2.986   1.060   4.612
 5786TIP3    H117315   3.067   1.092   4.573
 5786TIP3    H217316   2.958   0.990   4.553
 5787TIP3   OH217317   3.694   1.195   4.706
 5787TIP3    H117318   3.690   1.100   4.697
 5787TIP3    H217319   3.645   1.228   4.630
 5788TIP3   OH217320   2.281   0.896   4.667
 5788TIP3    H117321   2.284   0.907   4.762
 5788TIP3    H217322   2.364   0.852   4.645
 5789TIP3   OH217323   3.906   1.335   5.894
 5789TIP3    H117324   3.831   1.305   5.843
 5789TIP3    H217325   3.894   1.429   5.903
 5790TIP3   OH217326   5.168   0.708   4.662
 5790TIP3    H117327   5.154   0.801   4.647
 5790TIP3    H217328   5.097   0.664   4.615
 5791TIP3   OH217329   5.190   0.746   5.041
 5791TIP3    H117330   5.235   0.737   5.125
 5791TIP3    H217331   5.143   0.664   5.031
 5792TIP3   OH217332   4.472   0.623   5.408
 5792TIP3    H117333   4.500   0.563   5.477
 5792TIP3    H217334   4.538   0.692   5.408
 5793TIP3   OH217335   5.444   1.025   4.733
 5793TIP3    H117336   5.433   0.964   4.806
 5793TIP3    H217337   5.467   1.108   4.775
 5794TIP3   OH217338   4.470   1.011   5.109
 5794TIP3    H117339   4.453   0.917   5.114
 5794TIP3    H217340   4.564   1.018   5.094
 5795TIP3   OH217341   4.110   0.248   4.899
 5795TIP3    H117342   4.075   0.333   4.925
 5795TIP3    H217343   4.033   0.200   4.868
 5796TIP3   OH217344   4.226   0.565   5.080
 5796TIP3    H117345   4.290   0.498   5.104
 5796TIP3    H217346   4.279   0.641   5.056
 5797TIP3   OH217347   5.097   1.461   4.741
 5797TIP3    H117348   5.129   1.393   4.682
 5797TIP3    H217349   5.085   1.417   4.825
 5798TIP3   OH217350   4.985   0.947   5.069
 5798TIP3    H117351   5.027   0.870   5.030
 5798TIP3    H217352   5.057   1.000   5.103
 5799TIP3   OH217353   5.383   0.472   5.077
 5799TIP3    H117354   5.392   0.377   5.085
 5799TIP3    H217355   5.321   0.484   5.004
 5800TIP3   OH217356   4.817  -0.001   5.027
 5800TIP3    H117357   4.791   0.030   5.113
 5800TIP3    H217358   4.734  -0.014   4.980
 5801TIP3   OH217359   5.345   0.146   4.781
 5801TIP3    H117360   5.399   0.170   4.856
 5801TIP3    H217361   5.368   0.210   4.713
 5802TIP3   OH217362   4.414   0.392   5.168
 5802TIP3    H117363   4.455   0.371   5.252
 5802TIP3    H217364   4.474   0.359   5.102
 5803TIP3   OH217365   4.813   0.556   4.974
 5803TIP3    H117366   4.905   0.539   4.993
 5803TIP3    H217367   4.779   0.473   4.940
 5804TIP3   OH217368   5.973   0.439   5.315
 5804TIP3    H117369   5.915   0.502   5.272
 5804TIP3    H217370   6.050   0.491   5.340
 5805TIP3   OH217371   5.086   0.930   4.510
 5805TIP3    H117372   5.044   0.904   4.428
 5805TIP3    H217373   5.036   1.006   4.540
 5806TIP3   OH217374   4.829   0.873   5.286
 5806TIP3    H117375   4.771   0.941   5.321
 5806TIP3    H217376   4.873   0.915   5.211
 5807TIP3   OH217377   4.545   0.241   5.356
 5807TIP3    H117378   4.624   0.291   5.376
 5807TIP3    H217379   4.566   0.193   5.276
 5808TIP3   OH217380   4.665   1.065   5.392
 5808TIP3    H117381   4.649   1.154   5.360
 5808TIP3    H217382   4.588   1.045   5.446
 5809TIP3   OH217383   4.045   0.767   4.638
 5809TIP3    H117384   4.008   0.784   4.551
 5809TIP3    H217385   4.066   0.853   4.672
 5810TIP3   OH217386   5.491   1.266   4.873
 5810TIP3    H117387   5.406   1.258   4.916
 5810TIP3    H217388   5.487   1.351   4.829
 5811TIP3   OH217389   5.196   1.298   4.536
 5811TIP3    H117390   5.248   1.219   4.522
 5811TIP3    H217391   5.252   1.370   4.507
 5812TIP3   OH217392   5.339   1.071   4.482
 5812TIP3    H117393   5.270   1.004   4.476
 5812TIP3    H217394   5.385   1.050   4.563
 5813TIP3   OH217395   5.720   1.165   5.224
 5813TIP3    H117396   5.702   1.091   5.166
 5813TIP3    H217397   5.702   1.243   5.170
 5814TIP3   OH217398   5.000   0.580   4.484
 5814TIP3    H117399   4.916   0.622   4.467
 5814TIP3    H217400   5.045   0.579   4.399
 5815TIP3   OH217401   4.967   0.391   4.186
 5815TIP3    H117402   5.034   0.450   4.220
 5815TIP3    H217403   5.002   0.303   4.204
 5816TIP3   OH217404   5.908   0.849   5.092
 5816TIP3    H117405   5.822   0.890   5.090
 5816TIP3    H217406   5.938   0.850   5.001
 5817TIP3   OH217407   5.352   0.658   4.460
 5817TIP3    H117408   5.294   0.679   4.533
 5817TIP3    H217409   5.440   0.660   4.497
 5818TIP3   OH217410   5.595   0.719   5.384
 5818TIP3    H117411   5.574   0.795   5.438
 5818TIP3    H217412   5.513   0.699   5.338
 5819TIP3   OH217413   4.577   0.651   4.859
 5819TIP3    H117414   4.542   0.585   4.800
 5819TIP3    H217415   4.659   0.614   4.891
 5820TIP3   OH217416   4.728   1.053   5.001
 5820TIP3    H117417   4.705   1.039   4.909
 5820TIP3    H217418   4.816   1.018   5.009
 5821TIP3   OH217419   4.711   0.637   5.215
 5821TIP3    H117420   4.747   0.614   5.130
 5821TIP3    H217421   4.754   0.720   5.238
 5822TIP3   OH217422   5.259   1.255   5.012
 5822TIP3    H117423   5.240   1.337   5.058
 5822TIP3    H217424   5.239   1.187   5.076
 5823TIP3   OH217425   4.867   1.164   5.554
 5823TIP3    H117426   4.808   1.224   5.601
 5823TIP3    H217427   4.808   1.113   5.498
 5824TIP3   OH217428   5.186   0.536   4.277
 5824TIP3    H117429   5.246   0.594   4.324
 5824TIP3    H217430   5.218   0.537   4.187
 5825TIP3   OH217431   4.611   0.752   5.649
 5825TIP3    H117432   4.619   0.837   5.693
 5825TIP3    H217433   4.527   0.717   5.679
 5826TIP3   OH217434   4.952   1.171   4.550
 5826TIP3    H117435   5.031   1.224   4.552
 5826TIP3    H217436   4.887   1.225   4.504
 5827TIP3   OH217437   4.660   1.325   5.640
 5827TIP3    H117438   4.633   1.335   5.548
 5827TIP3    H217439   4.578   1.307   5.687
 5828TIP3   OH217440   4.443   0.466   4.674
 5828TIP3    H117441   4.384   0.528   4.630
 5828TIP3    H217442   4.388   0.389   4.690
 5829TIP3   OH217443   5.527   1.110   3.890
 5829TIP3    H117444   5.524   1.205   3.873
 5829TIP3    H217445   5.619   1.086   3.873
 5830TIP3   OH217446   4.249   0.869   5.589
 5830TIP3    H117447   4.177   0.866   5.526
 5830TIP3    H217448   4.279   0.779   5.596
 5831TIP3   OH217449   4.091   1.074   5.239
 5831TIP3    H117450   4.183   1.098   5.249
 5831TIP3    H217451   4.044   1.153   5.267
 5832TIP3   OH217452   5.955   1.526   5.286
 5832TIP3    H117453   5.960   1.432   5.299
 5832TIP3    H217454   5.874   1.552   5.331
 5833TIP3   OH217455   5.056   1.302   5.412
 5833TIP3    H117456   5.052   1.394   5.441
 5833TIP3    H217457   4.988   1.258   5.463
 5834TIP3   OH217458   4.838   1.413   4.367
 5834TIP3    H117459   4.789   1.393   4.287
 5834TIP3    H217460   4.801   1.496   4.398
 5835TIP3   OH217461   4.269   1.260   4.744
 5835TIP3    H117462   4.311   1.253   4.830
 5835TIP3    H217463   4.217   1.181   4.736
 5836TIP3   OH217464   5.038   1.338   3.997
 5836TIP3    H117465   5.089   1.265   3.961
 5836TIP3    H217466   5.072   1.350   4.085
 5837TIP3   OH217467   5.090   1.381   4.266
 5837TIP3    H117468   5.004   1.386   4.307
 5837TIP3    H217469   5.148   1.349   4.336
 5838TIP3   OH217470   5.827   0.682   5.550
 5838TIP3    H117471   5.746   0.715   5.511
 5838TIP3    H217472   5.818   0.586   5.547
 5839TIP3   OH217473   4.448   1.060   5.561
 5839TIP3    H117474   4.495   1.056   5.644
 5839TIP3    H217475   4.377   0.996   5.570
 5840TIP3   OH217476   5.747   0.414   5.491
 5840TIP3    H117477   5.685   0.406   5.563
 5840TIP3    H217478   5.692   0.428   5.413
 5841TIP3   OH217479   5.271   0.508   4.022
 5841TIP3    H117480   5.229   0.516   3.937
 5841TIP3    H217481   5.360   0.540   4.008
 5842TIP3   OH217482   4.735   0.441   5.405
 5842TIP3    H117483   4.686   0.474   5.480
 5842TIP3    H217484   4.721   0.506   5.336
 5843TIP3   OH217485   4.658   0.363   4.859
 5843TIP3    H117486   4.564   0.368   4.839
 5843TIP3    H217487   4.695   0.314   4.785
 5844TIP3   OH217488   5.131   0.390   4.625
 5844TIP3    H117489   5.076   0.458   4.585
 5844TIP3    H217490   5.184   0.357   4.552
 5845TIP3   OH217491   5.333   0.693   5.664
 5845TIP3    H117492   5.297   0.642   5.737
 5845TIP3    H217493   5.424   0.709   5.689
 5846TIP3   OH217494   5.266   0.512   4.831
 5846TIP3    H117495   5.230   0.588   4.787
 5846TIP3    H217496   5.201   0.443   4.817
 5847TIP3   OH217497   4.546   0.441   5.615
 5847TIP3    H117498   4.488   0.502   5.661
 5847TIP3    H217499   4.499   0.358   5.615
 5848TIP3   OH217500   4.237   0.138   4.687
 5848TIP3    H117501   4.240   0.055   4.734
 5848TIP3    H217502   4.183   0.195   4.742
 5849TIP3   OH217503   5.347   0.669   5.259
 5849TIP3    H117504   5.373   0.602   5.196
 5849TIP3    H217505   5.303   0.621   5.329
 5850TIP3   OH217506   4.393   0.238   4.899
 5850TIP3    H117507   4.301   0.253   4.917
 5850TIP3    H217508   4.394   0.178   4.824
 5851TIP3   OH217509   4.712   0.230   4.628
 5851TIP3    H117510   4.806   0.213   4.617
 5851TIP3    H217511   4.678   0.230   4.538
 5852TIP3   OH217512   4.577   0.187   4.400
 5852TIP3    H117513   4.492   0.167   4.362
 5852TIP3    H217514   4.623   0.237   4.332
 5853TIP3   OH217515   5.665   1.865   5.382
 5853TIP3    H117516   5.659   1.887   5.289
 5853TIP3    H217517   5.742   1.912   5.413
 5854TIP3   OH217518   4.607   0.987   5.797
 5854TIP3    H117519   4.688   1.004   5.845
 5854TIP3    H217520   4.539   0.990   5.865
 5855TIP3   OH217521   5.067   0.504   5.068
 5855TIP3    H117522   5.102   0.421   5.036
 5855TIP3    H217523   5.057   0.491   5.162
 5856TIP3   OH217524   5.002   0.440   5.326
 5856TIP3    H117525   4.919   0.433   5.373
 5856TIP3    H217526   5.054   0.502   5.377
 5857TIP3   OH217527   4.763   0.709   4.434
 5857TIP3    H117528   4.688   0.651   4.417
 5857TIP3    H217529   4.743   0.749   4.519
 5858TIP3   OH217530   5.666   0.965   5.046
 5858TIP3    H117531   5.697   1.014   4.970
 5858TIP3    H217532   5.582   0.927   5.017
 5859TIP3   OH217533   5.118   0.170   4.242
 5859TIP3    H117534   5.092   0.089   4.286
 5859TIP3    H217535   5.186   0.207   4.298
 5860TIP3   OH217536   5.176   1.032   5.454
 5860TIP3    H117537   5.225   1.030   5.536
 5860TIP3    H217538   5.135   1.119   5.453
 5861TIP3   OH217539   5.290   0.317   4.417
 5861TIP3    H117540   5.362   0.339   4.476
 5861TIP3    H217541   5.275   0.396   4.366
 5862TIP3   OH217542   4.460   0.730   5.096
 5862TIP3    H117543   4.498   0.712   5.010
 5862TIP3    H217544   4.519   0.687   5.158
 5863TIP3   OH217545   4.927   0.865   4.282
 5863TIP3    H117546   4.884   0.950   4.278
 5863TIP3    H217547   4.867   0.809   4.332
 5864TIP3   OH217548   4.366   0.620   5.722
 5864TIP3    H117549   4.365   0.615   5.817
 5864TIP3    H217550   4.278   0.592   5.696
 5865TIP3   OH217551   5.078   0.797   5.738
 5865TIP3    H117552   5.015   0.734   5.704
 5865TIP3    H217553   5.161   0.773   5.695
 5866TIP3   OH217554   5.328   1.314   5.338
 5866TIP3    H117555   5.232   1.306   5.345
 5866TIP3    H217556   5.354   1.359   5.418
 5867TIP3   OH217557   5.698   0.381   4.204
 5867TIP3    H117558   5.628   0.347   4.148
 5867TIP3    H217559   5.720   0.466   4.165
 5868TIP3   OH217560   5.967   1.244   5.310
 5868TIP3    H117561   5.872   1.235   5.302
 5868TIP3    H217562   6.000   1.212   5.226
 5869TIP3   OH217563   5.458   1.185   4.157
 5869TIP3    H117564   5.426   1.118   4.217
 5869TIP3    H217565   5.471   1.139   4.074
 5870TIP3   OH217566   5.435   0.843   4.945
 5870TIP3    H117567   5.345   0.821   4.970
 5870TIP3    H217568   5.470   0.762   4.907
 5871TIP3   OH217569   4.586   1.058   4.752
 5871TIP3    H117570   4.583   1.135   4.695
 5871TIP3    H217571   4.495   1.044   4.779
 5872TIP3   OH217572   4.138   0.367   4.449
 5872TIP3    H117573   4.192   0.444   4.465
 5872TIP3    H217574   4.063   0.378   4.508
 5873TIP3   OH217575   4.687   0.817   4.667
 5873TIP3    H117576   4.666   0.908   4.690
 5873TIP3    H217577   4.651   0.765   4.739
 5874TIP3   OH217578   4.868   1.379   5.207
 5874TIP3    H117579   4.904   1.452   5.157
 5874TIP3    H217580   4.943   1.346   5.258
 5875TIP3   OH217581   4.503   1.279   4.599
 5875TIP3    H117582   4.416   1.285   4.638
 5875TIP3    H217583   4.538   1.369   4.603
 5876TIP3   OH217584   5.227   1.034   5.183
 5876TIP3    H117585   5.213   1.030   5.277
 5876TIP3    H217586   5.309   0.989   5.168
 5877TIP3   OH217587   5.212   0.920   4.046
 5877TIP3    H117588   5.259   0.895   4.125
 5877TIP3    H217589   5.124   0.883   4.057
 5878TIP3   OH217590   5.478   1.544   5.216
 5878TIP3    H117591   5.403   1.486   5.224
 5878TIP3    H217592   5.456   1.604   5.145
 5879TIP3   OH217593   5.534   1.385   3.859
 5879TIP3    H117594   5.561   1.448   3.792
 5879TIP3    H217595   5.461   1.428   3.904
 5880TIP3   OH217596   5.376   0.837   4.248
 5880TIP3    H117597   5.365   0.787   4.328
 5880TIP3    H217598   5.470   0.850   4.239
 5881TIP3   OH217599   4.299   1.267   5.365
 5881TIP3    H117600   4.351   1.206   5.417
 5881TIP3    H217601   4.314   1.352   5.406
 5882TIP3   OH217602   4.577   0.892   4.058
 5882TIP3    H117603   4.583   0.800   4.033
 5882TIP3    H217604   4.555   0.889   4.152
 5883TIP3   OH217605   4.513   0.903   4.328
 5883TIP3    H117606   4.581   0.875   4.389
 5883TIP3    H217607   4.511   0.998   4.335
 5884TIP3   OH217608   4.249   0.607   4.538
 5884TIP3    H117609   4.182   0.651   4.590
 5884TIP3    H217610   4.266   0.667   4.466
 5885TIP3   OH217611   4.785   1.095   4.274
 5885TIP3    H117612   4.699   1.116   4.309
 5885TIP3    H217613   4.807   1.169   4.217
 5886TIP3   OH217614   4.981   0.172   4.617
 5886TIP3    H117615   5.033   0.252   4.623
 5886TIP3    H217616   4.960   0.150   4.708
 5887TIP3   OH217617   5.241   0.532   5.467
 5887TIP3    H117618   5.269   0.601   5.527
 5887TIP3    H217619   5.230   0.455   5.523
 5888TIP3   OH217620   4.531   1.173   4.347
 5888TIP3    H117621   4.508   1.243   4.285
 5888TIP3    H217622   4.518   1.213   4.434
 5889TIP3   OH217623   5.524   0.596   4.841
 5889TIP3    H117624   5.436   0.563   4.858
 5889TIP3    H217625   5.578   0.557   4.910
 5890TIP3   OH217626   4.258   0.784   4.322
 5890TIP3    H117627   4.326   0.851   4.330
 5890TIP3    H217628   4.294   0.721   4.260
 5891TIP3   OH217629   4.005   0.115   4.435
 5891TIP3    H117630   4.039   0.204   4.447
 5891TIP3    H217631   4.037   0.089   4.348
 5892TIP3   OH217632   5.508   1.533   4.794
 5892TIP3    H117633   5.465   1.583   4.725
 5892TIP3    H217634   5.602   1.547   4.779
 5893TIP3   OH217635   4.094   1.035   4.719
 5893TIP3    H117636   4.048   1.071   4.794
 5893TIP3    H217637   4.053   1.076   4.643
 5894TIP3   OH217638   4.289   1.573   5.788
 5894TIP3    H117639   4.371   1.576   5.836
 5894TIP3    H217640   4.269   1.479   5.780
 5895TIP3   OH217641   4.756   1.496   5.834
 5895TIP3    H117642   4.851   1.482   5.842
 5895TIP3    H217643   4.729   1.438   5.763
 5896TIP3   OH217644   4.731   1.091   3.950
 5896TIP3    H117645   4.683   1.021   3.994
 5896TIP3    H217646   4.805   1.047   3.909
 5897TIP3   OH217647   5.388   1.429   5.579
 5897TIP3    H117648   5.396   1.361   5.646
 5897TIP3    H217649   5.461   1.489   5.596
 5898TIP3   OH217650   5.168   1.130   3.874
 5898TIP3    H117651   5.201   1.064   3.936
 5898TIP3    H217652   5.227   1.124   3.800
 5899TIP3   OH217653   4.401   0.970   5.985
 5899TIP3    H117654   4.420   0.877   5.990
 5899TIP3    H217655   4.315   0.975   5.942
 5900TIP3   OH217656   4.392   0.590   4.186
 5900TIP3    H117657   4.443   0.567   4.263
 5900TIP3    H217658   4.457   0.604   4.117
 5901TIP3   OH217659   5.019   1.067   5.761
 5901TIP3    H117660   4.973   1.087   5.679
 5901TIP3    H217661   5.049   0.977   5.750
 5902TIP3   OH217662   4.951   0.815   4.012
 5902TIP3    H117663   4.929   0.825   4.105
 5902TIP3    H217664   4.934   0.722   3.994
 5903TIP3   OH217665   5.492   1.091   5.364
 5903TIP3    H117666   5.570   1.123   5.320
 5903TIP3    H217667   5.427   1.161   5.352
 5904TIP3   OH217668   4.538   0.711   5.973
 5904TIP3    H117669   4.625   0.683   5.944
 5904TIP3    H217670   4.551   0.738   6.064
 5905TIP3   OH217671   4.562   0.522   4.401
 5905TIP3    H117672   4.541   0.481   4.484
 5905TIP3    H217673   4.609   0.455   4.352
 5906TIP3   OH217674   4.863   0.630   5.620
 5906TIP3    H117675   4.779   0.676   5.627
 5906TIP3    H217676   4.903   0.666   5.541
 5907TIP3   OH217677   4.699   0.354   4.230
 5907TIP3    H117678   4.663   0.356   4.142
 5907TIP3    H217679   4.793   0.369   4.218
 5908TIP3   OH217680   5.379   0.985   5.740
 5908TIP3    H117681   5.446   0.945   5.684
 5908TIP3    H217682   5.374   0.928   5.816
 5909TIP3   OH217683   5.503   0.623   3.909
 5909TIP3    H117684   5.485   0.585   3.823
 5909TIP3    H217685   5.476   0.714   3.901
 5910TIP3   OH217686   4.954   0.408   5.750
 5910TIP3    H117687   5.017   0.356   5.699
 5910TIP3    H217688   4.932   0.482   5.694
 5911TIP3   OH217689   5.018   0.729   5.418
 5911TIP3    H117690   5.100   0.776   5.409
 5911TIP3    H217691   4.954   0.783   5.369
 5912TIP3   OH217692   5.588   0.683   5.755
 5912TIP3    H117693   5.587   0.651   5.845
 5912TIP3    H217694   5.665   0.739   5.750
 5913TIP3   OH217695   5.618   0.942   5.550
 5913TIP3    H117696   5.561   0.997   5.496
 5913TIP3    H217697   5.705   0.954   5.513
 5914TIP3   OH217698   4.813   0.570   6.007
 5914TIP3    H117699   4.747   0.502   6.020
 5914TIP3    H217700   4.870   0.536   5.938
 5915TIP3   OH217701   5.232   0.530   5.847
 5915TIP3    H117702   5.247   0.494   5.934
 5915TIP3    H217703   5.216   0.453   5.792
 5916TIP3   OH217704   4.520   1.375   4.159
 5916TIP3    H117705   4.611   1.362   4.133
 5916TIP3    H217706   4.481   1.425   4.087
 5917TIP3   OH217707   3.987   0.761   4.355
 5917TIP3    H117708   4.080   0.779   4.345
 5917TIP3    H217709   3.974   0.677   4.313
 5918TIP3   OH217710   3.899   1.352   4.796
 5918TIP3    H117711   3.834   1.299   4.750
 5918TIP3    H217712   3.943   1.291   4.855
 5919TIP3   OH217713   4.039   1.185   4.969
 5919TIP3    H117714   4.026   1.119   5.037
 5919TIP3    H217715   4.090   1.254   5.011
 5920TIP3   OH217716   5.779   1.587   4.780
 5920TIP3    H117717   5.796   1.622   4.868
 5920TIP3    H217718   5.830   1.642   4.722
 5921TIP3   OH217719   5.791   1.626   5.062
 5921TIP3    H117720   5.745   1.542   5.057
 5921TIP3    H217721   5.863   1.610   5.123
 5922TIP3   OH217722   5.846   1.314   5.637
 5922TIP3    H117723   5.772   1.325   5.697
 5922TIP3    H217724   5.889   1.399   5.637
 5923TIP3   OH217725   5.653   0.852   4.229
 5923TIP3    H117726   5.708   0.922   4.194
 5923TIP3    H217727   5.700   0.820   4.306
 5924TIP3   OH217728   5.798   0.747   4.432
 5924TIP3    H117729   5.728   0.729   4.495
 5924TIP3    H217730   5.867   0.787   4.484
 5925TIP3   OH217731   5.846   1.097   4.878
 5925TIP3    H117732   5.890   1.029   4.828
 5925TIP3    H217733   5.845   1.173   4.820
 5926TIP3   OH217734   5.653   1.382   5.070
 5926TIP3    H117735   5.585   1.428   5.120
 5926TIP3    H217736   5.607   1.342   4.997
 5927TIP3   OH217737   5.716   0.629   4.081
 5927TIP3    H117738   5.642   0.625   4.019
 5927TIP3    H217739   5.697   0.706   4.135
 5928TIP3   OH217740   5.510   0.314   4.010
 5928TIP3    H117741   5.571   0.371   3.964
 5928TIP3    H217742   5.473   0.258   3.941
 5929TIP3   OH217743   5.597   0.647   4.585
 5929TIP3    H117744   5.628   0.561   4.558
 5929TIP3    H217745   5.579   0.638   4.678
 5930TIP3   OH217746   4.209   0.605   5.351
 5930TIP3    H117747   4.197   0.591   5.257
 5930TIP3    H217748   4.303   0.620   5.361
 5931TIP3   OH217749   5.866   0.984   5.435
 5931TIP3    H117750   5.941   0.928   5.416
 5931TIP3    H217751   5.874   1.056   5.372
 5932TIP3   OH217752   6.062   0.793   5.463
 5932TIP3    H117753   5.978   0.764   5.499
 5932TIP3    H217754   6.117   0.714   5.465
 5933TIP3   OH217755   5.676   0.411   4.470
 5933TIP3    H117756   5.621   0.338   4.497
 5933TIP3    H217757   5.679   0.405   4.374
 5934TIP3   OH217758   5.714   0.505   5.012
 5934TIP3    H117759   5.786   0.530   4.955
 5934TIP3    H217760   5.733   0.548   5.095
 5935TIP3   OH217761   5.806   0.634   5.231
 5935TIP3    H117762   5.733   0.666   5.284
 5935TIP3    H217763   5.843   0.713   5.191
 5936TIP3   OH217764   4.356   0.264   6.045
 5936TIP3    H117765   4.406   0.194   6.002
 5936TIP3    H217766   4.305   0.219   6.112
 5937TIP3   OH217767   4.188   0.323   5.431
 5937TIP3    H117768   4.258   0.296   5.372
 5937TIP3    H217769   4.193   0.418   5.433
 5938TIP3   OH217770   5.341   1.494   4.425
 5938TIP3    H117771   5.396   1.486   4.347
 5938TIP3    H217772   5.380   1.566   4.475
 5939TIP3   OH217773   4.436   1.289   5.802
 5939TIP3    H117774   4.342   1.274   5.795
 5939TIP3    H217775   4.453   1.286   5.897
 5940TIP3   OH217776   4.640   1.339   5.356
 5940TIP3    H117777   4.587   1.411   5.323
 5940TIP3    H217778   4.724   1.348   5.312
 5941TIP3   OH217779   5.048   1.569   5.490
 5941TIP3    H117780   5.085   1.565   5.578
 5941TIP3    H217781   5.110   1.624   5.441
 5942TIP3   OH217782   5.237   1.726   5.364
 5942TIP3    H117783   5.303   1.676   5.315
 5942TIP3    H217784   5.289   1.783   5.421
 5943TIP3   OH217785   4.302   1.579   5.402
 5943TIP3    H117786   4.211   1.597   5.377
 5943TIP3    H217787   4.323   1.646   5.467
 5944TIP3   OH217788   4.531   1.567   5.249
 5944TIP3    H117789   4.448   1.574   5.296
 5944TIP3    H217790   4.511   1.595   5.160
 5945TIP3   OH217791   4.953   1.586   5.041
 5945TIP3    H117792   4.881   1.599   4.979
 5945TIP3    H217793   4.964   1.671   5.082
 5946TIP3   OH217794   5.218   1.520   5.089
 5946TIP3    H117795   5.126   1.540   5.072
 5946TIP3    H217796   5.266   1.589   5.044
 5947TIP3   OH217797   5.419   1.702   4.995
 5947TIP3    H117798   5.414   1.789   4.955
 5947TIP3    H217799   5.448   1.645   4.924
 5948TIP3   OH217800   4.211   1.362   5.116
 5948TIP3    H117801   4.236   1.338   5.206
 5948TIP3    H217802   4.283   1.330   5.062
 5949TIP3   OH217803   4.414   1.245   4.979
 5949TIP3    H117804   4.426   1.163   5.028
 5949TIP3    H217805   4.500   1.287   4.981
 5950TIP3   OH217806   4.682   1.332   5.001
 5950TIP3    H117807   4.701   1.239   4.988
 5950TIP3    H217808   4.735   1.357   5.077
 5951TIP3   OH217809   3.980   1.154   4.500
 5951TIP3    H117810   3.895   1.129   4.463
 5951TIP3    H217811   3.993   1.244   4.470
 5952TIP3   OH217812   4.781   1.315   4.097
 5952TIP3    H117813   4.865   1.344   4.060
 5952TIP3    H217814   4.753   1.244   4.039
 5953TIP3   OH217815   5.490   1.454   4.194
 5953TIP3    H117816   5.484   1.359   4.185
 5953TIP3    H217817   5.445   1.488   4.117
 5954TIP3   OH217818   4.072   1.150   4.148
 5954TIP3    H117819   4.069   1.183   4.238
 5954TIP3    H217820   4.158   1.110   4.139
 5955TIP3   OH217821   5.703   1.591   5.381
 5955TIP3    H117822   5.627   1.562   5.331
 5955TIP3    H217823   5.690   1.686   5.391
 5956TIP3   OH217824   6.964   0.963   4.156
 5956TIP3    H117825   6.951   1.057   4.140
 5956TIP3    H217826   6.894   0.920   4.107
 5957TIP3   OH217827   6.984   1.001   4.528
 5957TIP3    H117828   7.021   0.985   4.615
 5957TIP3    H217829   6.940   0.919   4.505
 5958TIP3   OH217830   6.265   0.866   4.875
 5958TIP3    H117831   6.299   0.814   4.948
 5958TIP3    H217832   6.344   0.900   4.831
 5959TIP3   OH217833   7.237   1.283   4.218
 5959TIP3    H117834   7.227   1.224   4.292
 5959TIP3    H217835   7.262   1.367   4.257
 5960TIP3   OH217836   6.263   1.271   4.599
 5960TIP3    H117837   6.244   1.177   4.596
 5960TIP3    H217838   6.357   1.277   4.582
 5961TIP3   OH217839   5.929   0.511   4.388
 5961TIP3    H117840   5.893   0.600   4.388
 5961TIP3    H217841   5.861   0.457   4.427
 5962TIP3   OH217842   6.023   0.827   4.564
 5962TIP3    H117843   6.087   0.760   4.585
 5962TIP3    H217844   6.075   0.905   4.543
 5963TIP3   OH217845   6.876   1.707   4.244
 5963TIP3    H117846   6.913   1.661   4.169
 5963TIP3    H217847   6.893   1.648   4.318
 5964TIP3   OH217848   6.779   1.202   4.559
 5964TIP3    H117849   6.823   1.127   4.517
 5964TIP3    H217850   6.851   1.257   4.590
 5965TIP3   OH217851   7.154   0.713   4.585
 5965TIP3    H117852   7.176   0.621   4.577
 5965TIP3    H217853   7.111   0.736   4.503
 5966TIP3   OH217854   6.612   0.263   4.510
 5966TIP3    H117855   6.594   0.321   4.584
 5966TIP3    H217856   6.527   0.247   4.470
 5967TIP3   OH217857   7.137   0.404   4.264
 5967TIP3    H117858   7.226   0.395   4.296
 5967TIP3    H217859   7.142   0.472   4.197
 5968TIP3   OH217860   6.206   0.651   4.654
 5968TIP3    H117861   6.240   0.650   4.743
 5968TIP3    H217862   6.272   0.603   4.603
 5969TIP3   OH217863   6.589   0.807   4.475
 5969TIP3    H117864   6.685   0.797   4.473
 5969TIP3    H217865   6.557   0.729   4.429
 5970TIP3   OH217866   7.823   0.714   4.737
 5970TIP3    H117867   7.741   0.763   4.732
 5970TIP3    H217868   7.868   0.750   4.813
 5971TIP3   OH217869   6.884   1.189   3.998
 5971TIP3    H117870   6.845   1.162   3.915
 5971TIP3    H217871   6.833   1.266   4.025
 5972TIP3   OH217872   6.632   1.126   4.781
 5972TIP3    H117873   6.574   1.195   4.813
 5972TIP3    H217874   6.676   1.165   4.705
 5973TIP3   OH217875   6.373   0.510   4.837
 5973TIP3    H117876   6.445   0.573   4.832
 5973TIP3    H217877   6.376   0.463   4.754
 5974TIP3   OH217878   6.463   1.320   4.878
 5974TIP3    H117879   6.448   1.408   4.844
 5974TIP3    H217880   6.386   1.301   4.930
 5975TIP3   OH217881   5.840   1.027   4.123
 5975TIP3    H117882   5.809   1.045   4.034
 5975TIP3    H217883   5.864   1.112   4.159
 5976TIP3   OH217884   7.285   1.527   4.358
 5976TIP3    H117885   7.199   1.518   4.399
 5976TIP3    H217886   7.279   1.610   4.310
 5977TIP3   OH217887   6.995   1.559   4.034
 5977TIP3    H117888   7.051   1.486   4.009
 5977TIP3    H217889   7.050   1.636   4.024
 5978TIP3   OH217890   7.130   1.323   3.964
 5978TIP3    H117891   7.052   1.267   3.969
 5978TIP3    H217892   7.178   1.304   4.045
 5979TIP3   OH217893   7.522   1.418   4.712
 5979TIP3    H117894   7.503   1.345   4.654
 5979TIP3    H217895   7.502   1.496   4.660
 5980TIP3   OH217896   6.799   0.834   3.975
 5980TIP3    H117897   6.716   0.878   3.955
 5980TIP3    H217898   6.846   0.833   3.892
 5981TIP3   OH217899   6.760   0.657   3.674
 5981TIP3    H117900   6.828   0.715   3.707
 5981TIP3    H217901   6.796   0.569   3.683
 5982TIP3   OH217902   7.694   1.081   4.560
 5982TIP3    H117903   7.611   1.127   4.558
 5982TIP3    H217904   7.729   1.091   4.471
 5983TIP3   OH217905   7.142   0.917   3.948
 5983TIP3    H117906   7.087   0.939   4.023
 5983TIP3    H217907   7.231   0.916   3.983
 5984TIP3   OH217908   7.387   0.989   4.854
 5984TIP3    H117909   7.365   1.067   4.905
 5984TIP3    H217910   7.304   0.964   4.813
 5985TIP3   OH217911   6.365   0.905   4.339
 5985TIP3    H117912   6.336   0.839   4.276
 5985TIP3    H217913   6.445   0.868   4.377
 5986TIP3   OH217914   6.520   1.307   4.489
 5986TIP3    H117915   6.498   1.296   4.397
 5986TIP3    H217916   6.609   1.273   4.497
 5987TIP3   OH217917   6.485   0.911   4.705
 5987TIP3    H117918   6.522   0.879   4.623
 5987TIP3    H217919   6.537   0.988   4.727
 5988TIP3   OH217920   7.051   1.514   4.497
 5988TIP3    H117921   7.037   1.595   4.546
 5988TIP3    H217922   7.034   1.445   4.561
 5989TIP3   OH217923   6.661   1.422   5.042
 5989TIP3    H117924   6.602   1.483   5.087
 5989TIP3    H217925   6.604   1.371   4.985
 5990TIP3   OH217926   6.984   0.789   3.766
 5990TIP3    H117927   7.043   0.847   3.814
 5990TIP3    H217928   7.017   0.790   3.676
 5991TIP3   OH217929   6.411   0.990   5.161
 5991TIP3    H117930   6.424   1.081   5.190
 5991TIP3    H217931   6.318   0.974   5.176
 5992TIP3   OH217932   6.749   1.430   4.034
 5992TIP3    H117933   6.830   1.482   4.042
 5992TIP3    H217934   6.691   1.486   3.983
 5993TIP3   OH217935   6.454   1.583   5.127
 5993TIP3    H117936   6.428   1.592   5.036
 5993TIP3    H217937   6.373   1.565   5.174
 5994TIP3   OH217938   6.244   0.726   4.139
 5994TIP3    H117939   6.178   0.784   4.101
 5994TIP3    H217940   6.195   0.651   4.172
 5995TIP3   OH217941   7.310   1.373   3.359
 5995TIP3    H117942   7.310   1.468   3.353
 5995TIP3    H217943   7.403   1.349   3.352
 5996TIP3   OH217944   6.044   1.133   5.074
 5996TIP3    H117945   5.974   1.122   5.010
 5996TIP3    H217946   6.076   1.045   5.090
 5997TIP3   OH217947   5.893   1.327   4.722
 5997TIP3    H117948   5.987   1.345   4.725
 5997TIP3    H217949   5.852   1.406   4.756
 5998TIP3   OH217950   7.754   1.797   4.766
 5998TIP3    H117951   7.762   1.702   4.772
 5998TIP3    H217952   7.671   1.816   4.811
 5999TIP3   OH217953   6.854   1.557   4.900
 5999TIP3    H117954   6.849   1.648   4.927
 5999TIP3    H217955   6.785   1.513   4.951
 6000TIP3   OH217956   6.637   1.651   3.856
 6000TIP3    H117957   6.595   1.634   3.772
 6000TIP3    H217958   6.607   1.738   3.881
 6001TIP3   OH217959   6.065   1.520   4.233
 6001TIP3    H117960   6.110   1.512   4.317
 6001TIP3    H217961   6.017   1.438   4.224
 6002TIP3   OH217962   6.833   1.597   3.491
 6002TIP3    H117963   6.887   1.526   3.455
 6002TIP3    H217964   6.870   1.614   3.578
 6003TIP3   OH217965   6.898   1.645   3.761
 6003TIP3    H117966   6.813   1.641   3.804
 6003TIP3    H217967   6.962   1.639   3.833
 6004TIP3   OH217968   7.611   0.922   5.013
 6004TIP3    H117969   7.541   0.972   4.972
 6004TIP3    H217970   7.602   0.834   4.977
 6005TIP3   OH217971   6.246   1.319   5.045
 6005TIP3    H117972   6.294   1.312   5.128
 6005TIP3    H217973   6.174   1.256   5.054
 6006TIP3   OH217974   7.534   0.662   4.980
 6006TIP3    H117975   7.452   0.647   5.027
 6006TIP3    H217976   7.511   0.653   4.888
 6007TIP3   OH217977   7.071   0.764   3.511
 6007TIP3    H117978   7.025   0.769   3.427
 6007TIP3    H217979   7.155   0.807   3.495
 6008TIP3   OH217980   6.558   0.710   4.872
 6008TIP3    H117981   6.510   0.726   4.954
 6008TIP3    H217982   6.529   0.780   4.814
 6009TIP3   OH217983   6.451   0.619   4.337
 6009TIP3    H117984   6.358   0.598   4.329
 6009TIP3    H217985   6.494   0.564   4.272
 6010TIP3   OH217986   6.914   0.638   4.122
 6010TIP3    H117987   6.865   0.710   4.083
 6010TIP3    H217988   6.974   0.609   4.052
 6011TIP3   OH217989   7.109   0.953   5.164
 6011TIP3    H117990   7.083   0.870   5.205
 6011TIP3    H217991   7.204   0.954   5.169
 6012TIP3   OH217992   7.073   0.759   4.317
 6012TIP3    H117993   7.038   0.839   4.277
 6012TIP3    H217994   7.008   0.692   4.297
 6013TIP3   OH217995   6.380   0.725   5.080
 6013TIP3    H117996   6.378   0.810   5.124
 6013TIP3    H217997   6.400   0.663   5.150
 6014TIP3   OH217998   5.998   0.424   4.138
 6014TIP3    H117999   6.082   0.382   4.156
 6014TIP3    H218000   5.966   0.452   4.224
 6015TIP3   OH218001   7.128   0.921   4.757
 6015TIP3    H118002   7.146   0.852   4.694
 6015TIP3    H218003   7.091   0.876   4.833
 6016TIP3   OH218004   6.202   0.486   4.360
 6016TIP3    H118005   6.109   0.499   4.375
 6016TIP3    H218006   6.208   0.403   4.313
 6017TIP3   OH218007   6.487   0.451   4.112
 6017TIP3    H118008   6.583   0.457   4.105
 6017TIP3    H218009   6.455   0.481   4.027
 6018TIP3   OH218010   6.350   0.450   3.879
 6018TIP3    H118011   6.282   0.425   3.816
 6018TIP3    H218012   6.413   0.499   3.827
 6019TIP3   OH218013   7.459   2.122   4.866
 6019TIP3    H118014   7.453   2.138   4.772
 6019TIP3    H218015   7.536   2.171   4.894
 6020TIP3   OH218016   6.407   1.244   5.279
 6020TIP3    H118017   6.487   1.262   5.328
 6020TIP3    H218018   6.337   1.251   5.344
 6021TIP3   OH218019   6.856   0.756   4.515
 6021TIP3    H118020   6.890   0.670   4.490
 6021TIP3    H218021   6.848   0.753   4.610
 6022TIP3   OH218022   6.810   0.733   4.779
 6022TIP3    H118023   6.727   0.726   4.828
 6022TIP3    H218024   6.866   0.787   4.835
 6023TIP3   OH218025   6.561   0.964   3.922
 6023TIP3    H118026   6.484   0.911   3.902
 6023TIP3    H218027   6.542   1.004   4.007
 6024TIP3   OH218028   7.461   1.222   4.533
 6024TIP3    H118029   7.496   1.268   4.457
 6024TIP3    H218030   7.377   1.187   4.503
 6025TIP3   OH218031   6.907   0.435   3.710
 6025TIP3    H118032   6.876   0.358   3.758
 6025TIP3    H218033   6.984   0.464   3.759
 6026TIP3   OH218034   6.972   1.280   4.943
 6026TIP3    H118035   7.027   1.284   5.021
 6026TIP3    H218036   6.934   1.368   4.936
 6027TIP3   OH218037   7.068   0.564   3.911
 6027TIP3    H118038   7.144   0.585   3.965
 6027TIP3    H218039   7.057   0.641   3.855
 6028TIP3   OH218040   6.247   0.994   4.569
 6028TIP3    H118041   6.282   0.973   4.482
 6028TIP3    H218042   6.312   0.957   4.630
 6029TIP3   OH218043   6.727   1.119   3.771
 6029TIP3    H118044   6.682   1.203   3.765
 6029TIP3    H218045   6.667   1.063   3.821
 6030TIP3   OH218046   6.153   0.902   5.212
 6030TIP3    H118047   6.153   0.883   5.306
 6030TIP3    H218048   6.073   0.861   5.180
 6031TIP3   OH218049   6.866   1.057   5.230
 6031TIP3    H118050   6.806   0.989   5.199
 6031TIP3    H218051   6.951   1.031   5.195
 6032TIP3   OH218052   7.124   1.569   4.826
 6032TIP3    H118053   7.029   1.563   4.832
 6032TIP3    H218054   7.150   1.616   4.906
 6033TIP3   OH218055   7.501   0.653   3.695
 6033TIP3    H118056   7.432   0.615   3.641
 6033TIP3    H218057   7.514   0.741   3.659
 6034TIP3   OH218058   7.769   1.519   4.785
 6034TIP3    H118059   7.676   1.496   4.784
 6034TIP3    H218060   7.803   1.485   4.701
 6035TIP3   OH218061   7.258   1.442   3.659
 6035TIP3    H118062   7.219   1.395   3.733
 6035TIP3    H218063   7.245   1.382   3.584
 6036TIP3   OH218064   7.227   1.107   4.436
 6036TIP3    H118065   7.138   1.080   4.459
 6036TIP3    H218066   7.265   1.029   4.396
 6037TIP3   OH218067   6.387   1.316   4.238
 6037TIP3    H118068   6.390   1.393   4.181
 6037TIP3    H218069   6.294   1.299   4.252
 6038TIP3   OH218070   5.933   0.621   3.912
 6038TIP3    H118071   5.993   0.694   3.925
 6038TIP3    H218072   5.869   0.629   3.982
 6039TIP3   OH218073   6.489   1.072   4.157
 6039TIP3    H118074   6.470   1.164   4.178
 6039TIP3    H218075   6.445   1.022   4.226
 6040TIP3   OH218076   6.664   1.632   4.695
 6040TIP3    H118077   6.698   1.705   4.644
 6040TIP3    H218078   6.740   1.599   4.744
 6041TIP3   OH218079   6.300   1.538   4.087
 6041TIP3    H118080   6.213   1.545   4.126
 6041TIP3    H218081   6.333   1.628   4.088
 6042TIP3   OH218082   7.021   1.293   4.668
 6042TIP3    H118083   7.014   1.283   4.763
 6042TIP3    H218084   7.100   1.244   4.645
 6043TIP3   OH218085   7.010   1.178   3.526
 6043TIP3    H118086   7.056   1.144   3.603
 6043TIP3    H218087   6.923   1.138   3.532
 6044TIP3   OH218088   7.275   1.806   4.697
 6044TIP3    H118089   7.197   1.751   4.702
 6044TIP3    H218090   7.259   1.866   4.624
 6045TIP3   OH218091   7.327   1.646   3.331
 6045TIP3    H118092   7.342   1.716   3.268
 6045TIP3    H218093   7.263   1.683   3.393
 6046TIP3   OH218094   7.168   1.073   3.721
 6046TIP3    H118095   7.155   1.035   3.807
 6046TIP3    H218096   7.262   1.093   3.717
 6047TIP3   OH218097   6.094   1.525   4.853
 6047TIP3    H118098   6.147   1.463   4.903
 6047TIP3    H218099   6.110   1.609   4.894
 6048TIP3   OH218100   6.362   1.154   3.545
 6048TIP3    H118101   6.358   1.066   3.507
 6048TIP3    H218102   6.344   1.141   3.638
 6049TIP3   OH218103   6.308   1.159   3.820
 6049TIP3    H118104   6.388   1.138   3.868
 6049TIP3    H218105   6.305   1.255   3.821
 6050TIP3   OH218106   6.040   0.862   4.019
 6050TIP3    H118107   5.973   0.906   4.073
 6050TIP3    H218108   6.059   0.923   3.949
 6051TIP3   OH218109   6.576   1.343   3.760
 6051TIP3    H118110   6.491   1.371   3.795
 6051TIP3    H218111   6.600   1.412   3.698
 6052TIP3   OH218112   6.757   0.423   4.095
 6052TIP3    H118113   6.809   0.503   4.101
 6052TIP3    H218114   6.744   0.395   4.185
 6053TIP3   OH218115   7.031   0.765   4.962
 6053TIP3    H118116   6.993   0.833   5.017
 6053TIP3    H218117   7.099   0.725   5.016
 6054TIP3   OH218118   6.325   1.431   3.834
 6054TIP3    H118119   6.304   1.500   3.771
 6054TIP3    H218120   6.315   1.473   3.919
 6055TIP3   OH218121   7.321   0.869   4.332
 6055TIP3    H118122   7.242   0.818   4.349
 6055TIP3    H218123   7.387   0.830   4.388
 6056TIP3   OH218124   6.057   1.041   3.808
 6056TIP3    H118125   6.127   1.105   3.819
 6056TIP3    H218126   6.091   0.979   3.742
 6057TIP3   OH218127   5.757   0.393   3.902
 6057TIP3    H118128   5.814   0.469   3.916
 6057TIP3    H218129   5.796   0.325   3.957
 6058TIP3   OH218130   7.290   1.791   4.266
 6058TIP3    H118131   7.242   1.801   4.184
 6058TIP3    H218132   7.382   1.806   4.243
 6059TIP3   OH218133   5.894   1.292   4.210
 6059TIP3    H118134   5.850   1.329   4.286
 6059TIP3    H218135   5.854   1.334   4.135
 6060TIP3   OH218136   6.086   1.829   5.274
 6060TIP3    H118137   6.169   1.832   5.322
 6060TIP3    H218138   6.066   1.736   5.267
 6061TIP3   OH218139   6.555   1.749   5.323
 6061TIP3    H118140   6.649   1.731   5.327
 6061TIP3    H218141   6.524   1.695   5.251
 6062TIP3   OH218142   6.527   1.343   3.432
 6062TIP3    H118143   6.474   1.274   3.472
 6062TIP3    H218144   6.595   1.297   3.383
 6063TIP3   OH218145   7.182   1.687   5.068
 6063TIP3    H118146   7.193   1.620   5.135
 6063TIP3    H218147   7.256   1.747   5.081
 6064TIP3   OH218148   6.970   1.393   3.365
 6064TIP3    H118149   6.996   1.326   3.428
 6064TIP3    H218150   7.036   1.389   3.296
 6065TIP3   OH218151   6.197   1.235   5.466
 6065TIP3    H118152   6.221   1.143   5.468
 6065TIP3    H218153   6.110   1.237   5.425
 6066TIP3   OH218154   6.187   0.852   3.659
 6066TIP3    H118155   6.246   0.832   3.733
 6066TIP3    H218156   6.246   0.866   3.585
 6067TIP3   OH218157   6.812   1.326   5.248
 6067TIP3    H118158   6.767   1.348   5.167
 6067TIP3    H218159   6.841   1.236   5.236
 6068TIP3   OH218160   6.757   1.069   3.500
 6068TIP3    H118161   6.733   1.080   3.593
 6068TIP3    H218162   6.733   0.979   3.479
 6069TIP3   OH218163   7.291   1.350   4.855
 6069TIP3    H118164   7.369   1.378   4.808
 6069TIP3    H218165   7.227   1.419   4.840
 6070TIP3   OH218166   6.339   0.992   5.454
 6070TIP3    H118167   6.418   0.963   5.409
 6070TIP3    H218168   6.369   1.019   5.541
 6071TIP3   OH218169   6.354   0.786   3.878
 6071TIP3    H118170   6.331   0.750   3.963
 6071TIP3    H218171   6.404   0.717   3.835
 6072TIP3   OH218172   6.669   0.876   5.113
 6072TIP3    H118173   6.586   0.921   5.129
 6072TIP3    H218174   6.707   0.922   5.038
 6073TIP3   OH218175   6.498   0.608   3.724
 6073TIP3    H118176   6.462   0.612   3.635
 6073TIP3    H218177   6.591   0.627   3.712
 6074TIP3   OH218178   7.171   1.249   5.216
 6074TIP3    H118179   7.238   1.210   5.161
 6074TIP3    H218180   7.166   1.191   5.293
 6075TIP3   OH218181   7.292   0.882   3.388
 6075TIP3    H118182   7.274   0.846   3.302
 6075TIP3    H218183   7.267   0.974   3.381
 6076TIP3   OH218184   6.778   0.624   5.155
 6076TIP3    H118185   6.727   0.564   5.100
 6076TIP3    H218186   6.740   0.710   5.136
 6077TIP3   OH218187   6.830   0.999   4.922
 6077TIP3    H118188   6.900   1.065   4.927
 6077TIP3    H218189   6.762   1.041   4.870
 6078TIP3   OH218190   7.374   0.902   5.216
 6078TIP3    H118191   7.367   0.894   5.312
 6078TIP3    H218192   7.442   0.969   5.203
 6079TIP3   OH218193   7.412   1.200   5.042
 6079TIP3    H118194   7.359   1.257   4.987
 6079TIP3    H218195   7.501   1.209   5.006
 6080TIP3   OH218196   6.627   0.826   5.441
 6080TIP3    H118197   6.589   0.798   5.525
 6080TIP3    H218198   6.706   0.773   5.432
 6081TIP3   OH218199   7.025   0.715   5.253
 6081TIP3    H118200   7.040   0.690   5.344
 6081TIP3    H218201   6.944   0.670   5.229
 6082TIP3   OH218202   6.316   1.637   3.648
 6082TIP3    H118203   6.407   1.618   3.624
 6082TIP3    H218204   6.281   1.684   3.573
 6083TIP3   OH218205   5.786   1.022   3.843
 6083TIP3    H118206   5.879   1.040   3.830
 6083TIP3    H218207   5.772   0.938   3.800
 6084TIP3   OH218208   5.695   1.610   4.287
 6084TIP3    H118209   5.630   1.556   4.241
 6084TIP3    H218210   5.739   1.548   4.346
 6085TIP3   OH218211   5.834   1.442   4.458
 6085TIP3    H118212   5.822   1.376   4.527
 6085TIP3    H218213   5.886   1.511   4.500
 6086TIP3   OH218214   7.566   1.837   4.258
 6086TIP3    H118215   7.584   1.870   4.345
 6086TIP3    H218216   7.625   1.886   4.201
 6087TIP3   OH218217   7.587   1.879   4.540
 6087TIP3    H118218   7.542   1.795   4.538
 6087TIP3    H218219   7.664   1.864   4.595
 6088TIP3   OH218220   7.641   1.572   5.126
 6088TIP3    H118221   7.568   1.583   5.187
 6088TIP3    H218222   7.683   1.658   5.123
 6089TIP3   OH218223   7.443   1.107   3.718
 6089TIP3    H118224   7.500   1.173   3.680
 6089TIP3    H218225   7.487   1.080   3.798
 6090TIP3   OH218226   7.582   1.019   3.933
 6090TIP3    H118227   7.509   0.990   3.986
 6090TIP3    H218228   7.648   1.049   3.995
 6091TIP3   OH218229   7.641   1.341   4.360
 6091TIP3    H118230   7.689   1.278   4.306
 6091TIP3    H218231   7.643   1.422   4.309
 6092TIP3   OH218232   7.448   1.636   4.559
 6092TIP3    H118233   7.380   1.684   4.605
 6092TIP3    H218234   7.404   1.597   4.483
 6093TIP3   OH218235   7.500   0.889   3.564
 6093TIP3    H118236   7.428   0.886   3.501
 6093TIP3    H218237   7.482   0.966   3.618
 6094TIP3   OH218238   7.324   0.568   3.502
 6094TIP3    H118239   7.319   0.634   3.433
 6094TIP3    H218240   7.318   0.485   3.455
 6095TIP3   OH218241   7.386   0.901   4.071
 6095TIP3    H118242   7.421   0.815   4.047
 6095TIP3    H218243   7.373   0.895   4.166
 6096TIP3   OH218244   6.001   0.860   4.834
 6096TIP3    H118245   5.991   0.850   4.740
 6096TIP3    H218246   6.095   0.875   4.847
 6097TIP3   OH218247   7.660   1.236   4.922
 6097TIP3    H118248   7.733   1.177   4.903
 6097TIP3    H218249   7.656   1.295   4.847
 6098TIP3   OH218250   7.849   1.036   4.926
 6098TIP3    H118251   7.768   0.990   4.949
 6098TIP3    H218252   7.919   0.979   4.958
 6099TIP3   OH218253   7.456   0.661   3.964
 6099TIP3    H118254   7.425   0.571   3.966
 6099TIP3    H218255   7.487   0.674   3.874
 6100TIP3   OH218256   7.521   0.778   4.482
 6100TIP3    H118257   7.604   0.798   4.439
 6100TIP3    H218258   7.537   0.795   4.575
 6101TIP3   OH218259   7.603   0.877   4.723
 6101TIP3    H118260   7.524   0.913   4.763
 6101TIP3    H218261   7.639   0.950   4.672
 6102TIP3   OH218262   6.160   0.542   5.490
 6102TIP3    H118263   6.210   0.466   5.461
 6102TIP3    H218264   6.102   0.508   5.559
 6103TIP3   OH218265   5.981   0.579   4.903
 6103TIP3    H118266   6.029   0.544   4.828
 6103TIP3    H218267   5.997   0.673   4.900
 6104TIP3   OH218268   6.232   1.544   5.291
 6104TIP3    H118269   6.138   1.530   5.282
 6104TIP3    H218270   6.248   1.542   5.385
 6105TIP3   OH218271   6.436   1.595   4.844
 6105TIP3    H118272   6.383   1.668   4.811
 6105TIP3    H218273   6.520   1.604   4.800
 6106TIP3   OH218274   6.844   1.824   4.978
 6106TIP3    H118275   6.882   1.821   5.066
 6106TIP3    H218276   6.905   1.878   4.927
 6107TIP3   OH218277   7.030   1.982   4.849
 6107TIP3    H118278   7.092   1.935   4.793
 6107TIP3    H218279   7.085   2.037   4.904
 6108TIP3   OH218280   6.097   1.836   4.889
 6108TIP3    H118281   6.006   1.854   4.865
 6108TIP3    H218282   6.119   1.903   4.954
 6109TIP3   OH218283   6.328   1.824   4.737
 6109TIP3    H118284   6.244   1.831   4.784
 6109TIP3    H218285   6.308   1.851   4.648
 6110TIP3   OH218286   6.749   1.838   4.533
 6110TIP3    H118287   6.690   1.847   4.458
 6110TIP3    H218288   6.758   1.926   4.568
 6111TIP3   OH218289   7.016   1.779   4.579
 6111TIP3    H118290   6.924   1.795   4.561
 6111TIP3    H218291   7.062   1.841   4.522
 6112TIP3   OH218292   7.221   1.960   4.472
 6112TIP3    H118293   7.209   2.047   4.434
 6112TIP3    H218294   7.242   1.904   4.397
 6113TIP3   OH218295   6.007   1.619   4.604
 6113TIP3    H118296   6.032   1.595   4.694
 6113TIP3    H218297   6.079   1.587   4.550
 6114TIP3   OH218298   6.210   1.504   4.467
 6114TIP3    H118299   6.221   1.422   4.515
 6114TIP3    H218300   6.296   1.545   4.468
 6115TIP3   OH218301   6.477   1.587   4.489
 6115TIP3    H118302   6.497   1.495   4.474
 6115TIP3    H218303   6.531   1.612   4.564
 6116TIP3   OH218304   5.778   1.414   3.995
 6116TIP3    H118305   5.694   1.381   3.963
 6116TIP3    H218306   5.782   1.504   3.962
 6117TIP3   OH218307   6.575   1.566   3.584
 6117TIP3    H118308   6.660   1.595   3.550
 6117TIP3    H218309   6.548   1.497   3.524
 6118TIP3   OH218310   7.343   1.704   3.633
 6118TIP3    H118311   7.315   1.615   3.655
 6118TIP3    H218312   7.265   1.744   3.592
 6119TIP3   OH218313   5.871   1.397   3.644
 6119TIP3    H118314   5.879   1.429   3.734
 6119TIP3    H218315   5.958   1.362   3.623
 6120TIP3   OH218316   7.499   1.848   4.866
 6120TIP3    H118317   7.424   1.819   4.814
 6120TIP3    H218318   7.485   1.943   4.875
 6121TIP3   OH218319   8.054   1.527   4.113
 6121TIP3    H118320   8.034   1.434   4.101
 6121TIP3    H218321   8.139   1.527   4.157
 6122TIP3   OH218322   7.750   0.786   3.932
 6122TIP3    H118323   7.673   0.833   3.897
 6122TIP3    H218324   7.792   0.748   3.855
 6123TIP3   OH218325   7.847   1.009   4.057
 6123TIP3    H118326   7.815   0.925   4.023
 6123TIP3    H218327   7.900   1.045   3.986
 6124TIP3   OH218328   7.631   1.268   3.600
 6124TIP3    H118329   7.592   1.292   3.517
 6124TIP3    H218330   7.648   1.351   3.645
 6125TIP3   OH218331   8.266   1.887   4.668
 6125TIP3    H118332   8.259   1.862   4.576
 6125TIP3    H218333   8.181   1.866   4.706
 6126TIP3   OH218334   7.842   1.402   4.548
 6126TIP3    H118335   7.771   1.376   4.490
 6126TIP3    H218336   7.873   1.320   4.587
 6127TIP3   OH218337   7.688   1.583   4.228
 6127TIP3    H118338   7.776   1.617   4.243
 6127TIP3    H218339   7.631   1.658   4.244
 6128TIP3   OH218340   7.840   1.793   3.748
 6128TIP3    H118341   7.918   1.779   3.802
 6128TIP3    H218342   7.777   1.729   3.780
 6129TIP3   OH218343   8.020   1.611   4.526
 6129TIP3    H118344   8.095   1.578   4.575
 6129TIP3    H218345   7.958   1.538   4.526
 6130TIP3   OH218346   7.851   0.662   3.708
 6130TIP3    H118347   7.860   0.639   3.616
 6130TIP3    H218348   7.841   0.578   3.753
 6131TIP3   OH218349   8.205   1.496   4.729
 6131TIP3    H118350   8.176   1.566   4.787
 6131TIP3    H218351   8.177   1.416   4.773
 6132TIP3   OH218352   7.913   1.181   4.692
 6132TIP3    H118353   7.933   1.147   4.779
 6132TIP3    H218354   7.846   1.123   4.657
 6133TIP3   OH218355   7.730   0.857   3.420
 6133TIP3    H118356   7.786   0.931   3.442
 6133TIP3    H218357   7.653   0.868   3.476
 6134TIP3   OH218358   7.885   1.781   4.342
 6134TIP3    H118359   7.939   1.725   4.397
 6134TIP3    H218360   7.900   1.869   4.376
 6135TIP3   OH218361   7.826   1.104   3.486
 6135TIP3    H118362   7.768   1.147   3.549
 6135TIP3    H218363   7.841   1.169   3.418
 6136TIP3   OH218364   7.840   1.294   3.277
 6136TIP3    H118365   7.899   1.364   3.305
 6136TIP3    H218366   7.884   1.254   3.202
 6137TIP3   OH218367   7.627   0.617   3.337
 6137TIP3    H118368   7.662   0.700   3.368
 6137TIP3    H218369   7.634   0.558   3.412
 6138TIP3   OH218370   7.661   1.523   3.695
 6138TIP3    H118371   7.626   1.575   3.766
 6138TIP3    H218372   7.644   1.574   3.616
 6139TIP3   OH218373   7.871   2.074   4.760
 6139TIP3    H118374   7.953   2.073   4.809
 6139TIP3    H218375   7.845   1.982   4.757
 6140TIP3   OH218376   7.982   1.499   4.964
 6140TIP3    H118377   8.025   1.416   4.944
 6140TIP3    H218378   7.903   1.499   4.910
 6141TIP3   OH218379   8.137   1.272   4.887
 6141TIP3    H118380   8.191   1.216   4.831
 6141TIP3    H218381   8.117   1.218   4.963
 6142TIP3   OH218382   7.568   1.278   3.320
 6142TIP3    H118383   7.663   1.286   3.314
 6142TIP3    H218384   7.549   1.192   3.282
 6143TIP3   OH218385   7.483   1.890   3.781
 6143TIP3    H118386   7.421   1.839   3.728
 6143TIP3    H218387   7.516   1.827   3.846
 6144TIP3   OH218388   7.633   1.700   3.932
 6144TIP3    H118389   7.596   1.638   3.994
 6144TIP3    H218390   7.686   1.759   3.987
 6145TIP3   OH218391   7.823   1.123   4.309
 6145TIP3    H118392   7.821   1.078   4.225
 6145TIP3    H218393   7.913   1.155   4.317
 6146TIP3   OH218394   7.944   0.779   4.999
 6146TIP3    H118395   7.994   0.713   4.951
 6146TIP3    H218396   7.911   0.732   5.076
 6147TIP3   OH218397   7.779   0.830   4.393
 6147TIP3    H118398   7.828   0.797   4.318
 6147TIP3    H218399   7.828   0.908   4.422
 6148TIP3   OH218400   8.039   1.797   4.810
 6148TIP3    H118401   7.956   1.781   4.764
 6148TIP3    H218402   8.020   1.775   4.902
 6149TIP3   OH218403   7.878   2.072   4.387
 6149TIP3    H118404   7.791   2.099   4.359
 6149TIP3    H218405   7.907   2.140   4.447
 6150TIP3   OH218406   8.110   2.041   4.237
 6150TIP3    H118407   8.032   2.049   4.291
 6150TIP3    H218408   8.095   2.100   4.163
 6151TIP3   OH218409   7.804   1.865   4.090
 6151TIP3    H118410   7.831   1.843   4.179
 6151TIP3    H218411   7.877   1.836   4.035
 6152TIP3   OH218412   8.017   1.753   3.961
 6152TIP3    H118413   8.023   1.669   4.007
 6152TIP3    H218414   8.098   1.798   3.984
 6153TIP3   OH218415   7.592   1.651   3.457
 6153TIP3    H118416   7.498   1.633   3.454
 6153TIP3    H218417   7.598   1.747   3.453
 6154TIP3   OH218418   7.631   1.695   3.171
 6154TIP3    H118419   7.592   1.771   3.215
 6154TIP3    H218420   7.655   1.636   3.243
 6155TIP3   OH218421   1.227   2.019   5.324
 6155TIP3    H118422   1.197   2.106   5.300
 6155TIP3    H218423   1.161   1.959   5.289
 6156TIP3   OH218424   0.529   1.912   6.069
 6156TIP3    H118425   0.558   1.844   6.130
 6156TIP3    H218426   0.606   1.929   6.014
 6157TIP3   OH218427   1.492   2.340   5.365
 6157TIP3    H118428   1.533   2.268   5.413
 6157TIP3    H218429   1.510   2.417   5.419
 6158TIP3   OH218430   0.503   2.309   5.784
 6158TIP3    H118431   0.491   2.214   5.780
 6158TIP3    H218432   0.598   2.321   5.782
 6159TIP3   OH218433   0.257   1.812   5.791
 6159TIP3    H118434   0.313   1.736   5.808
 6159TIP3    H218435   0.304   1.862   5.723
 6160TIP3   OH218436   1.138   2.766   5.405
 6160TIP3    H118437   1.170   2.699   5.344
 6160TIP3    H218438   1.122   2.718   5.486
 6161TIP3   OH218439   1.023   2.255   5.732
 6161TIP3    H118440   1.045   2.206   5.652
 6161TIP3    H218441   1.108   2.278   5.769
 6162TIP3   OH218442   2.056   1.560   5.737
 6162TIP3    H118443   2.078   1.643   5.781
 6162TIP3    H218444   2.090   1.571   5.648
 6163TIP3   OH218445   1.436   1.663   5.752
 6163TIP3    H118446   1.489   1.597   5.796
 6163TIP3    H218447   1.419   1.628   5.665
 6164TIP3   OH218448   0.813   1.413   5.732
 6164TIP3    H118449   0.789   1.483   5.671
 6164TIP3    H218450   0.778   1.334   5.692
 6165TIP3   OH218451   1.496   1.485   5.349
 6165TIP3    H118452   1.560   1.479   5.419
 6165TIP3    H218453   1.546   1.515   5.273
 6166TIP3   OH218454   0.439   1.604   5.826
 6166TIP3    H118455   0.504   1.579   5.891
 6166TIP3    H218456   0.452   1.543   5.753
 6167TIP3   OH218457   0.857   1.808   5.669
 6167TIP3    H118458   0.951   1.794   5.666
 6167TIP3    H218459   0.820   1.728   5.632
 6168TIP3   OH218460   2.123   1.770   5.913
 6168TIP3    H118461   2.035   1.807   5.909
 6168TIP3    H218462   2.162   1.808   5.992
 6169TIP3   OH218463   0.788   1.372   6.165
 6169TIP3    H118464   0.731   1.416   6.101
 6169TIP3    H218465   0.731   1.355   6.240
 6170TIP3   OH218466   1.097   2.224   5.196
 6170TIP3    H118467   1.076   2.209   5.104
 6170TIP3    H218468   1.057   2.309   5.216
 6171TIP3   OH218469   0.869   2.169   5.951
 6171TIP3    H118470   0.811   2.235   5.989
 6171TIP3    H218471   0.914   2.215   5.880
 6172TIP3   OH218472   1.664   1.516   5.561
 6172TIP3    H118473   1.691   1.450   5.624
 6172TIP3    H218474   1.713   1.595   5.586
 6173TIP3   OH218475   0.675   1.508   5.953
 6173TIP3    H118476   0.730   1.582   5.977
 6173TIP3    H218477   0.720   1.467   5.879
 6174TIP3   OH218478   0.702   2.360   6.065
 6174TIP3    H118479   0.691   2.450   6.034
 6174TIP3    H218480   0.624   2.343   6.117
 6175TIP3   OH218481   0.119   2.056   5.296
 6175TIP3    H118482   0.065   2.077   5.220
 6175TIP3    H218483   0.139   2.141   5.335
 6176TIP3   OH218484   1.533   2.562   5.536
 6176TIP3    H118485   1.449   2.555   5.582
 6176TIP3    H218486   1.530   2.647   5.492
 6177TIP3   OH218487   1.857   1.457   5.919
 6177TIP3    H118488   1.767   1.460   5.888
 6177TIP3    H218489   1.910   1.481   5.843
 6178TIP3   OH218490   1.157   1.107   5.894
 6178TIP3    H118491   1.143   1.013   5.905
 6178TIP3    H218492   1.080   1.148   5.934
 6179TIP3   OH218493   1.235   2.603   5.200
 6179TIP3    H118494   1.281   2.522   5.179
 6179TIP3    H218495   1.293   2.673   5.170
 6180TIP3   OH218496   1.375   2.385   5.120
 6180TIP3    H118497   1.382   2.306   5.066
 6180TIP3    H218498   1.416   2.362   5.203
 6181TIP3   OH218499   1.762   2.479   5.895
 6181TIP3    H118500   1.764   2.404   5.835
 6181TIP3    H218501   1.747   2.555   5.838
 6182TIP3   OH218502   1.058   1.873   5.156
 6182TIP3    H118503   0.978   1.921   5.139
 6182TIP3    H218504   1.103   1.869   5.072
 6183TIP3   OH218505   1.029   1.664   4.853
 6183TIP3    H118506   1.095   1.716   4.899
 6183TIP3    H218507   1.079   1.597   4.807
 6184TIP3   OH218508   1.957   2.108   5.747
 6184TIP3    H118509   1.879   2.164   5.749
 6184TIP3    H218510   1.996   2.125   5.662
 6185TIP3   OH218511   1.410   1.956   5.126
 6185TIP3    H118512   1.355   1.982   5.200
 6185TIP3    H218513   1.490   1.922   5.167
 6186TIP3   OH218514   1.652   1.984   6.059
 6186TIP3    H118515   1.655   2.065   6.109
 6186TIP3    H218516   1.581   1.996   5.996
 6187TIP3   OH218517   0.640   1.932   5.532
 6187TIP3    H118518   0.604   1.873   5.466
 6187TIP3    H218519   0.716   1.885   5.567
 6188TIP3   OH218520   0.765   2.365   5.670
 6188TIP3    H118521   0.743   2.343   5.580
 6188TIP3    H218522   0.853   2.329   5.683
 6189TIP3   OH218523   0.750   1.927   5.898
 6189TIP3    H118524   0.787   1.894   5.816
 6189TIP3    H218525   0.794   2.011   5.912
 6190TIP3   OH218526   1.309   2.553   5.689
 6190TIP3    H118527   1.288   2.640   5.723
 6190TIP3    H218528   1.287   2.494   5.761
 6191TIP3   OH218529   0.908   2.466   6.219
 6191TIP3    H118530   0.852   2.526   6.267
 6191TIP3    H218531   0.848   2.414   6.166
 6192TIP3   OH218532   1.244   1.819   4.950
 6192TIP3    H118533   1.304   1.875   4.999
 6192TIP3    H218534   1.270   1.830   4.859
 6193TIP3   OH218535   0.687   2.024   6.332
 6193TIP3    H118536   0.691   2.110   6.373
 6193TIP3    H218537   0.594   2.010   6.315
 6194TIP3   OH218538   0.988   2.482   5.219
 6194TIP3    H118539   1.072   2.527   5.218
 6194TIP3    H218540   0.931   2.535   5.163
 6195TIP3   OH218541   0.703   2.634   6.305
 6195TIP3    H118542   0.683   2.640   6.212
 6195TIP3    H218543   0.617   2.631   6.348
 6196TIP3   OH218544   1.758   1.036   5.004
 6196TIP3    H118545   1.675   1.050   5.051
 6196TIP3    H218546   1.769   1.114   4.950
 6197TIP3   OH218547   0.522   1.777   5.327
 6197TIP3    H118548   0.445   1.820   5.289
 6197TIP3    H218549   0.501   1.683   5.323
 6198TIP3   OH218550   1.576   2.416   4.554
 6198TIP3    H118551   1.576   2.509   4.533
 6198TIP3    H218552   1.666   2.387   4.535
 6199TIP3   OH218553   0.322   2.146   6.232
 6199TIP3    H118554   0.285   2.105   6.154
 6199TIP3    H218555   0.353   2.073   6.285
 6200TIP3   OH218556   0.178   2.328   5.843
 6200TIP3    H118557   0.273   2.327   5.851
 6200TIP3    H218558   0.147   2.381   5.916
 6201TIP3   OH218559   1.995   2.817   5.950
 6201TIP3    H118560   2.002   2.723   5.966
 6201TIP3    H218561   1.915   2.844   5.995
 6202TIP3   OH218562   1.098   2.603   6.076
 6202TIP3    H118563   1.097   2.694   6.106
 6202TIP3    H218564   1.030   2.560   6.128
 6203TIP3   OH218565   0.881   2.710   5.033
 6203TIP3    H118566   0.837   2.690   4.950
 6203TIP3    H218567   0.847   2.795   5.058
 6204TIP3   OH218568   0.321   2.559   5.400
 6204TIP3    H118569   0.367   2.550   5.484
 6204TIP3    H218570   0.275   2.476   5.391
 6205TIP3   OH218571   1.080   2.635   4.659
 6205TIP3    H118572   1.131   2.562   4.623
 6205TIP3    H218573   1.116   2.649   4.747
 6206TIP3   OH218574   1.134   2.683   4.928
 6206TIP3    H118575   1.050   2.685   4.973
 6206TIP3    H218576   1.195   2.647   4.993
 6207TIP3   OH218577   1.892   1.934   6.225
 6207TIP3    H118578   1.808   1.942   6.179
 6207TIP3    H218579   1.912   1.840   6.221
 6208TIP3   OH218580   0.487   2.366   6.253
 6208TIP3    H118581   0.549   2.333   6.318
 6208TIP3    H218582   0.423   2.296   6.242
 6209TIP3   OH218583   0.917   1.181   6.008
 6209TIP3    H118584   0.838   1.137   5.976
 6209TIP3    H218585   0.884   1.250   6.066
 6210TIP3   OH218586   1.432   1.301   6.214
 6210TIP3    H118587   1.497   1.278   6.281
 6210TIP3    H218588   1.348   1.281   6.255
 6211TIP3   OH218589   1.640   1.720   6.142
 6211TIP3    H118590   1.607   1.715   6.232
 6211TIP3    H218591   1.634   1.813   6.120
 6212TIP3   OH218592   1.323   1.831   4.692
 6212TIP3    H118593   1.278   1.816   4.609
 6212TIP3    H218594   1.408   1.869   4.667
 6213TIP3   OH218595   1.038   1.232   4.996
 6213TIP3    H118596   1.002   1.232   5.085
 6213TIP3    H218597   1.006   1.151   4.957
 6214TIP3   OH218598   0.833   1.712   6.049
 6214TIP3    H118599   0.781   1.719   6.129
 6214TIP3    H218600   0.811   1.791   5.999
 6215TIP3   OH218601   0.715   1.599   5.556
 6215TIP3    H118602   0.627   1.571   5.580
 6215TIP3    H218603   0.728   1.565   5.468
 6216TIP3   OH218604   1.181   1.662   5.279
 6216TIP3    H118605   1.133   1.735   5.239
 6216TIP3    H218606   1.239   1.631   5.210
 6217TIP3   OH218607   1.371   1.937   6.358
 6217TIP3    H118608   1.344   1.865   6.415
 6217TIP3    H218609   1.462   1.955   6.383
 6218TIP3   OH218610   1.358   1.678   5.487
 6218TIP3    H118611   1.283   1.692   5.429
 6218TIP3    H218612   1.406   1.605   5.446
 6219TIP3   OH218613   0.651   1.740   6.254
 6219TIP3    H118614   0.681   1.811   6.311
 6219TIP3    H218615   0.598   1.684   6.311
 6220TIP3   OH218616   0.707   1.197   4.990
 6220TIP3    H118617   0.687   1.188   5.084
 6220TIP3    H218618   0.631   1.243   4.954
 6221TIP3   OH218619   1.385   1.906   5.892
 6221TIP3    H118620   1.417   1.824   5.929
 6221TIP3    H218621   1.328   1.942   5.961
 6222TIP3   OH218622   1.082   1.457   5.640
 6222TIP3    H118623   1.004   1.429   5.687
 6222TIP3    H218624   1.153   1.404   5.676
 6223TIP3   OH218625   0.497   1.430   5.613
 6223TIP3    H118626   0.414   1.400   5.577
 6223TIP3    H218627   0.556   1.355   5.605
 6224TIP3   OH218628   0.728   1.473   5.314
 6224TIP3    H118629   0.822   1.475   5.299
 6224TIP3    H218630   0.689   1.489   5.228
 6225TIP3   OH218631   1.554   1.440   5.854
 6225TIP3    H118632   1.509   1.464   5.935
 6225TIP3    H218633   1.495   1.379   5.811
 6226TIP3   OH218634   0.593   1.510   5.078
 6226TIP3    H118635   0.542   1.447   5.027
 6226TIP3    H218636   0.652   1.550   5.014
 6227TIP3   OH218637   1.708   3.166   6.043
 6227TIP3    H118638   1.704   3.184   5.950
 6227TIP3    H218639   1.787   3.211   6.074
 6228TIP3   OH218640   0.655   2.274   6.458
 6228TIP3    H118641   0.736   2.298   6.504
 6228TIP3    H218642   0.587   2.278   6.526
 6229TIP3   OH218643   1.163   1.745   5.720
 6229TIP3    H118644   1.151   1.666   5.669
 6229TIP3    H218645   1.138   1.721   5.809
 6230TIP3   OH218646   0.695   1.210   5.578
 6230TIP3    H118647   0.664   1.171   5.497
 6230TIP3    H218648   0.780   1.169   5.593
 6231TIP3   OH218649   1.096   1.667   5.979
 6231TIP3    H118650   1.008   1.690   6.008
 6231TIP3    H218651   1.154   1.716   6.036
 6232TIP3   OH218652   0.820   2.010   5.101
 6232TIP3    H118653   0.747   1.952   5.081
 6232TIP3    H218654   0.799   2.046   5.187
 6233TIP3   OH218655   1.737   2.275   5.713
 6233TIP3    H118656   1.781   2.320   5.641
 6233TIP3    H218657   1.646   2.266   5.683
 6234TIP3   OH218658   1.289   1.330   4.993
 6234TIP3    H118659   1.196   1.308   4.990
 6234TIP3    H218660   1.290   1.425   5.006
 6235TIP3   OH218661   1.206   2.323   6.118
 6235TIP3    H118662   1.254   2.319   6.201
 6235TIP3    H218663   1.170   2.412   6.116
 6236TIP3   OH218664   1.350   1.590   5.071
 6236TIP3    H118665   1.446   1.590   5.073
 6236TIP3    H218666   1.328   1.665   5.015
 6237TIP3   OH218667   0.512   2.035   5.754
 6237TIP3    H118668   0.551   2.007   5.671
 6237TIP3    H218669   0.558   1.983   5.820
 6238TIP3   OH218670   0.977   2.165   4.941
 6238TIP3    H118671   0.931   2.249   4.940
 6238TIP3    H218672   0.922   2.109   4.995
 6239TIP3   OH218673   0.420   1.951   6.404
 6239TIP3    H118674   0.465   1.962   6.488
 6239TIP3    H218675   0.355   1.882   6.421
 6240TIP3   OH218676   1.133   2.080   6.407
 6240TIP3    H118677   1.068   2.014   6.382
 6240TIP3    H218678   1.217   2.042   6.380
 6241TIP3   OH218679   1.366   2.599   6.001
 6241TIP3    H118680   1.272   2.599   6.014
 6241TIP3    H218681   1.400   2.649   6.075
 6242TIP3   OH218682   1.769   1.671   4.892
 6242TIP3    H118683   1.712   1.625   4.831
 6242TIP3    H218684   1.775   1.760   4.857
 6243TIP3   OH218685   2.015   2.532   5.981
 6243TIP3    H118686   1.919   2.526   5.976
 6243TIP3    H218687   2.045   2.506   5.894
 6244TIP3   OH218688   1.499   2.487   4.815
 6244TIP3    H118689   1.467   2.415   4.869
 6244TIP3    H218690   1.518   2.446   4.730
 6245TIP3   OH218691   0.635   2.354   5.415
 6245TIP3    H118692   0.636   2.429   5.355
 6245TIP3    H218693   0.545   2.353   5.449
 6246TIP3   OH218694   0.171   1.643   5.131
 6246TIP3    H118695   0.225   1.721   5.143
 6246TIP3    H218696   0.109   1.645   5.203
 6247TIP3   OH218697   0.736   2.109   5.338
 6247TIP3    H118698   0.710   2.198   5.361
 6247TIP3    H218699   0.702   2.056   5.411
 6248TIP3   OH218700   0.916   2.684   5.872
 6248TIP3    H118701   0.952   2.757   5.822
 6248TIP3    H218702   0.989   2.651   5.924
 6249TIP3   OH218703   0.554   2.584   5.258
 6249TIP3    H118704   0.469   2.585   5.301
 6249TIP3    H218705   0.585   2.674   5.264
 6250TIP3   OH218706   1.278   2.295   5.856
 6250TIP3    H118707   1.245   2.297   5.946
 6250TIP3    H218708   1.373   2.298   5.864
 6251TIP3   OH218709   1.263   2.222   4.722
 6251TIP3    H118710   1.307   2.202   4.805
 6251TIP3    H218711   1.178   2.180   4.730
 6252TIP3   OH218712   1.516   2.849   5.880
 6252TIP3    H118713   1.440   2.792   5.879
 6252TIP3    H218714   1.502   2.911   5.808
 6253TIP3   OH218715   1.585   2.691   4.524
 6253TIP3    H118716   1.626   2.761   4.473
 6253TIP3    H218717   1.508   2.731   4.563
 6254TIP3   OH218718   1.430   2.168   4.945
 6254TIP3    H118719   1.415   2.094   5.004
 6254TIP3    H218720   1.523   2.162   4.922
 6255TIP3   OH218721   0.372   2.568   6.005
 6255TIP3    H118722   0.396   2.502   6.070
 6255TIP3    H218723   0.378   2.652   6.051
 6256TIP3   OH218724   0.613   2.188   4.721
 6256TIP3    H118725   0.623   2.097   4.693
 6256TIP3    H218726   0.596   2.182   4.815
 6257TIP3   OH218727   0.558   2.202   4.994
 6257TIP3    H118728   0.631   2.174   5.049
 6257TIP3    H218729   0.558   2.297   5.001
 6258TIP3   OH218730   0.300   1.881   5.194
 6258TIP3    H118731   0.240   1.933   5.247
 6258TIP3    H218732   0.324   1.940   5.122
 6259TIP3   OH218733   1.440   1.541   6.085
 6259TIP3    H118734   1.520   1.584   6.115
 6259TIP3    H218735   1.435   1.462   6.139
 6260TIP3   OH218736   1.336   1.276   5.259
 6260TIP3    H118737   1.318   1.294   5.166
 6260TIP3    H218738   1.385   1.352   5.289
 6261TIP3   OH218739   0.830   2.394   4.941
 6261TIP3    H118740   0.744   2.417   4.974
 6261TIP3    H218741   0.853   2.465   4.881
 6262TIP3   OH218742   1.008   1.470   5.369
 6262TIP3    H118743   1.068   1.535   5.333
 6262TIP3    H218744   1.031   1.465   5.462
 6263TIP3   OH218745   1.299   1.783   6.131
 6263TIP3    H118746   1.324   1.827   6.213
 6263TIP3    H218747   1.342   1.698   6.136
 6264TIP3   OH218748   1.174   1.169   5.451
 6264TIP3    H118749   1.195   1.230   5.522
 6264TIP3    H218750   1.231   1.197   5.379
 6265TIP3   OH218751   0.575   2.475   5.008
 6265TIP3    H118752   0.554   2.546   4.948
 6265TIP3    H218753   0.567   2.514   5.095
 6266TIP3   OH218754   0.686   1.198   5.274
 6266TIP3    H118755   0.688   1.291   5.296
 6266TIP3    H218756   0.779   1.174   5.266
 6267TIP3   OH218757   1.905   1.665   6.125
 6267TIP3    H118758   1.810   1.671   6.138
 6267TIP3    H218759   1.915   1.617   6.043
 6268TIP3   OH218760   1.510   1.885   5.594
 6268TIP3    H118761   1.485   1.836   5.516
 6268TIP3    H218762   1.602   1.861   5.609
 6269TIP3   OH218763   0.307   2.074   4.985
 6269TIP3    H118764   0.375   2.140   4.999
 6269TIP3    H218765   0.345   2.014   4.921
 6270TIP3   OH218766   0.261   1.393   5.025
 6270TIP3    H118767   0.248   1.475   5.072
 6270TIP3    H218768   0.252   1.325   5.092
 6271TIP3   OH218769   1.552   2.831   5.457
 6271TIP3    H118770   1.509   2.881   5.387
 6271TIP3    H218771   1.645   2.847   5.445
 6272TIP3   OH218772   0.161   2.324   5.377
 6272TIP3    H118773   0.131   2.357   5.461
 6272TIP3    H218774   0.099   2.359   5.313
 6273TIP3   OH218775   0.364   2.897   6.453
 6273TIP3    H118776   0.435   2.909   6.515
 6273TIP3    H218777   0.365   2.804   6.432
 6274TIP3   OH218778   0.810   2.804   6.495
 6274TIP3    H118779   0.899   2.772   6.511
 6274TIP3    H218780   0.776   2.747   6.426
 6275TIP3   OH218781   0.773   2.388   4.619
 6275TIP3    H118782   0.724   2.317   4.660
 6275TIP3    H218783   0.847   2.346   4.577
 6276TIP3   OH218784   1.435   2.728   6.232
 6276TIP3    H118785   1.438   2.660   6.298
 6276TIP3    H218786   1.509   2.785   6.254
 6277TIP3   OH218787   1.211   2.425   4.541
 6277TIP3    H118788   1.246   2.362   4.603
 6277TIP3    H218789   1.270   2.420   4.465
 6278TIP3   OH218790   0.436   2.245   6.629
 6278TIP3    H118791   0.467   2.154   6.631
 6278TIP3    H218792   0.349   2.239   6.590
 6279TIP3   OH218793   0.440   1.884   4.843
 6279TIP3    H118794   0.493   1.861   4.920
 6279TIP3    H218795   0.503   1.896   4.773
 6280TIP3   OH218796   1.068   2.359   6.418
 6280TIP3    H118797   1.022   2.378   6.337
 6280TIP3    H218798   1.099   2.269   6.408
 6281TIP3   OH218799   0.995   2.107   4.673
 6281TIP3    H118800   0.977   2.118   4.766
 6281TIP3    H218801   0.983   2.013   4.657
 6282TIP3   OH218802   1.528   2.374   5.994
 6282TIP3    H118803   1.610   2.413   5.966
 6282TIP3    H218804   1.467   2.448   6.002
 6283TIP3   OH218805   0.547   1.985   6.648
 6283TIP3    H118806   0.598   1.905   6.660
 6283TIP3    H218807   0.561   2.034   6.729
 6284TIP3   OH218808   0.618   1.827   5.052
 6284TIP3    H118809   0.600   1.790   5.139
 6284TIP3    H218810   0.667   1.759   5.006
 6285TIP3   OH218811   0.931   1.899   6.303
 6285TIP3    H118812   0.850   1.949   6.313
 6285TIP3    H218813   0.964   1.924   6.217
 6286TIP3   OH218814   0.754   1.641   4.899
 6286TIP3    H118815   0.724   1.639   4.809
 6286TIP3    H218816   0.849   1.642   4.893
 6287TIP3   OH218817   1.423   2.280   6.410
 6287TIP3    H118818   1.505   2.252   6.370
 6287TIP3    H218819   1.414   2.225   6.488
 6288TIP3   OH218820   1.552   1.934   4.574
 6288TIP3    H118821   1.537   1.890   4.491
 6288TIP3    H218822   1.525   2.024   4.558
 6289TIP3   OH218823   1.023   1.664   6.407
 6289TIP3    H118824   1.032   1.594   6.342
 6289TIP3    H218825   0.993   1.740   6.358
 6290TIP3   OH218826   1.042   1.476   6.196
 6290TIP3    H118827   1.070   1.515   6.114
 6290TIP3    H218828   0.953   1.447   6.181
 6291TIP3   OH218829   1.043   1.999   6.077
 6291TIP3    H118830   1.122   2.052   6.088
 6291TIP3    H218831   0.981   2.058   6.034
 6292TIP3   OH218832   1.635   1.963   6.466
 6292TIP3    H118833   1.669   1.874   6.476
 6292TIP3    H218834   1.714   2.017   6.457
 6293TIP3   OH218835   1.672   2.230   6.183
 6293TIP3    H118836   1.613   2.283   6.129
 6293TIP3    H218837   1.760   2.252   6.153
 6294TIP3   OH218838   0.927   1.774   6.650
 6294TIP3    H118839   0.835   1.759   6.671
 6294TIP3    H218840   0.939   1.736   6.563
 6295TIP3   OH218841   1.169   1.239   6.271
 6295TIP3    H118842   1.125   1.321   6.250
 6295TIP3    H218843   1.102   1.171   6.256
 6296TIP3   OH218844   1.284   1.721   6.497
 6296TIP3    H118845   1.284   1.704   6.591
 6296TIP3    H218846   1.198   1.693   6.467
 6297TIP3   OH218847   1.538   1.676   6.386
 6297TIP3    H118848   1.458   1.673   6.437
 6297TIP3    H218849   1.606   1.642   6.445
 6298TIP3   OH218850   1.775   1.619   6.527
 6298TIP3    H118851   1.789   1.524   6.534
 6298TIP3    H218852   1.766   1.649   6.617
 6299TIP3   OH218853   1.264   1.220   6.527
 6299TIP3    H118854   1.319   1.142   6.527
 6299TIP3    H218855   1.219   1.219   6.443
 6300TIP3   OH218856   1.338   1.439   6.664
 6300TIP3    H118857   1.312   1.363   6.612
 6300TIP3    H218858   1.259   1.492   6.670
 6301TIP3   OH218859   0.566   2.684   4.827
 6301TIP3    H118860   0.657   2.664   4.804
 6301TIP3    H218861   0.532   2.728   4.749
 6302TIP3   OH218862   0.033   2.042   5.010
 6302TIP3    H118863   0.127   2.060   5.004
 6302TIP3    H218864   0.020   1.961   4.962
 6303TIP3   OH218865   8.467   2.603   5.426
 6303TIP3    H118866   8.420   2.536   5.376
 6303TIP3    H218867   8.513   2.553   5.494
 6304TIP3   OH218868   0.115   2.466   5.611
 6304TIP3    H118869   0.125   2.399   5.679
 6304TIP3    H218870   0.136   2.548   5.655
 6305TIP3   OH218871   1.815   2.905   5.443
 6305TIP3    H118872   1.845   2.935   5.528
 6305TIP3    H218873   1.877   2.943   5.380
 6306TIP3   OH218874   1.841   2.927   5.729
 6306TIP3    H118875   1.794   2.844   5.718
 6306TIP3    H218876   1.912   2.907   5.789
 6307TIP3   OH218877   1.881   2.619   6.296
 6307TIP3    H118878   1.811   2.628   6.361
 6307TIP3    H218879   1.929   2.702   6.301
 6308TIP3   OH218880   1.705   2.137   4.910
 6308TIP3    H118881   1.765   2.204   4.877
 6308TIP3    H218882   1.752   2.097   4.983
 6309TIP3   OH218883   1.832   1.993   5.110
 6309TIP3    H118884   1.768   1.952   5.168
 6309TIP3    H218885   1.900   2.025   5.169
 6310TIP3   OH218886   1.893   2.395   5.528
 6310TIP3    H118887   1.949   2.327   5.492
 6310TIP3    H218888   1.901   2.468   5.467
 6311TIP3   OH218889   1.696   2.688   5.731
 6311TIP3    H118890   1.626   2.733   5.780
 6311TIP3    H218891   1.651   2.646   5.658
 6312TIP3   OH218892   1.755   1.912   4.757
 6312TIP3    H118893   1.687   1.909   4.690
 6312TIP3    H218894   1.735   1.990   4.809
 6313TIP3   OH218895   1.607   1.567   4.700
 6313TIP3    H118896   1.569   1.603   4.620
 6313TIP3    H218897   1.599   1.472   4.690
 6314TIP3   OH218898   1.637   1.836   5.253
 6314TIP3    H118899   1.640   1.749   5.212
 6314TIP3    H218900   1.671   1.821   5.341
 6315TIP3   OH218901   0.261   1.965   6.018
 6315TIP3    H118902   0.251   1.915   5.937
 6315TIP3    H218903   0.353   1.953   6.042
 6316TIP3   OH218904   1.931   2.280   6.103
 6316TIP3    H118905   1.994   2.208   6.092
 6316TIP3    H218906   1.966   2.351   6.049
 6317TIP3   OH218907   2.098   2.064   6.103
 6317TIP3    H118908   2.028   2.018   6.150
 6317TIP3    H218909   2.176   2.011   6.120
 6318TIP3   OH218910   1.575   1.297   4.671
 6318TIP3    H118911   1.638   1.265   4.735
 6318TIP3    H218912   1.492   1.256   4.696
 6319TIP3   OH218913   1.646   1.578   5.128
 6319TIP3    H118914   1.688   1.494   5.144
 6319TIP3    H218915   1.688   1.612   5.049
 6320TIP3   OH218916   1.774   1.770   5.635
 6320TIP3    H118917   1.857   1.783   5.589
 6320TIP3    H218918   1.793   1.793   5.726
 6321TIP3   OH218919   1.865   1.884   5.877
 6321TIP3    H118920   1.802   1.918   5.941
 6321TIP3    H218921   1.901   1.962   5.835
 6322TIP3   OH218922   2.288   1.439   6.402
 6322TIP3    H118923   2.368   1.400   6.368
 6322TIP3    H218924   2.265   1.507   6.339
 6323TIP3   OH218925   1.749   1.326   5.189
 6323TIP3    H118926   1.792   1.303   5.272
 6323TIP3    H218927   1.686   1.255   5.175
 6324TIP3   OH218928   2.174   1.623   6.238
 6324TIP3    H118929   2.110   1.666   6.296
 6324TIP3    H218930   2.121   1.564   6.185
 6325TIP3   OH218931   1.804   1.243   4.827
 6325TIP3    H118932   1.848   1.181   4.769
 6325TIP3    H218933   1.861   1.319   4.828
 6326TIP3   OH218934   1.383   2.798   5.088
 6326TIP3    H118935   1.437   2.786   5.010
 6326TIP3    H218936   1.428   2.865   5.138
 6327TIP3   OH218937   0.456   2.613   6.442
 6327TIP3    H118938   0.441   2.528   6.401
 6327TIP3    H218939   0.463   2.593   6.536
 6328TIP3   OH218940   0.693   2.632   6.025
 6328TIP3    H118941   0.634   2.699   5.991
 6328TIP3    H218942   0.776   2.647   5.978
 6329TIP3   OH218943   1.101   2.869   6.155
 6329TIP3    H118944   1.138   2.861   6.242
 6329TIP3    H218945   1.164   2.922   6.106
 6330TIP3   OH218946   1.290   3.025   6.026
 6330TIP3    H118947   1.357   2.972   5.983
 6330TIP3    H218948   1.339   3.084   6.083
 6331TIP3   OH218949   2.065   1.393   6.106
 6331TIP3    H118950   1.982   1.413   6.064
 6331TIP3    H218951   2.092   1.309   6.067
 6332TIP3   OH218952   0.395   2.842   6.081
 6332TIP3    H118953   0.307   2.848   6.044
 6332TIP3    H218954   0.402   2.920   6.136
 6333TIP3   OH218955   0.602   2.867   5.905
 6333TIP3    H118956   0.523   2.863   5.959
 6333TIP3    H218957   0.570   2.884   5.816
 6334TIP3   OH218958   1.000   2.888   5.703
 6334TIP3    H118959   0.930   2.901   5.639
 6334TIP3    H218960   1.011   2.974   5.744
 6335TIP3   OH218961   1.264   2.820   5.747
 6335TIP3    H118962   1.172   2.841   5.730
 6335TIP3    H218963   1.313   2.890   5.702
 6336TIP3   OH218964   1.466   3.004   5.655
 6336TIP3    H118965   1.461   3.090   5.615
 6336TIP3    H218966   1.496   2.946   5.585
 6337TIP3   OH218967   0.276   2.652   5.755
 6337TIP3    H118968   0.284   2.631   5.848
 6337TIP3    H218969   0.349   2.606   5.713
 6338TIP3   OH218970   0.479   2.527   5.622
 6338TIP3    H118971   0.485   2.452   5.681
 6338TIP3    H218972   0.562   2.573   5.633
 6339TIP3   OH218973   0.736   2.640   5.662
 6339TIP3    H118974   0.755   2.547   5.653
 6339TIP3    H218975   0.783   2.667   5.741
 6340TIP3   OH218976   1.289   1.281   5.713
 6340TIP3    H118977   1.256   1.218   5.777
 6340TIP3    H218978   1.366   1.238   5.676
 6341TIP3   OH218979   1.783   1.231   5.668
 6341TIP3    H118980   1.827   1.246   5.585
 6341TIP3    H218981   1.695   1.202   5.644
 6342TIP3   OH218982   1.903   1.258   5.419
 6342TIP3    H118983   1.973   1.203   5.383
 6342TIP3    H218984   1.935   1.347   5.407
 6343TIP3   OH218985   0.951   1.113   5.615
 6343TIP3    H118986   1.016   1.122   5.545
 6343TIP3    H218987   0.998   1.067   5.685
 6344TIP3   OH218988   1.514   1.153   5.600
 6344TIP3    H118989   1.526   1.111   5.515
 6344TIP3    H218990   1.508   1.080   5.662
 6345TIP3   OH218991   1.560   1.123   5.181
 6345TIP3    H118992   1.476   1.168   5.190
 6345TIP3    H218993   1.550   1.044   5.234
 6346TIP3   OH218994   8.497   2.425   5.180
 6346TIP3    H118995   8.471   2.368   5.108
 6346TIP3    H218996   8.525   2.506   5.138
 6347TIP3   OH218997   0.962   1.223   5.261
 6347TIP3    H118998   1.022   1.165   5.309
 6347TIP3    H218999   0.981   1.310   5.296
 6348TIP3   OH219000   0.825   2.614   4.763
 6348TIP3    H119001   0.909   2.642   4.726
 6348TIP3    H219002   0.796   2.543   4.707
 6349TIP3   OH219003   1.532   2.754   4.857
 6349TIP3    H119004   1.526   2.659   4.847
 6349TIP3    H219005   1.490   2.790   4.779
 6350TIP3   OH219006   0.135   2.467   4.829
 6350TIP3    H119007   0.153   2.503   4.916
 6350TIP3    H219008   0.213   2.417   4.807
 6351TIP3   OH219009   1.847   1.343   6.517
 6351TIP3    H119010   1.850   1.316   6.608
 6351TIP3    H219011   1.934   1.323   6.483
 6352TIP3   OH219012   1.745   2.891   6.045
 6352TIP3    H119013   1.669   2.862   5.995
 6352TIP3    H219014   1.733   2.986   6.054
 6353TIP3   OH219015   3.018   2.276   4.801
 6353TIP3    H119016   2.985   2.363   4.779
 6353TIP3    H219017   2.951   2.215   4.768
 6354TIP3   OH219018   3.022   2.274   5.211
 6354TIP3    H119019   3.072   2.252   5.290
 6354TIP3    H219020   2.980   2.192   5.186
 6355TIP3   OH219021   2.322   2.141   5.562
 6355TIP3    H119022   2.358   2.088   5.633
 6355TIP3    H219023   2.398   2.167   5.510
 6356TIP3   OH219024   3.282   2.579   4.884
 6356TIP3    H119025   3.272   2.511   4.951
 6356TIP3    H219026   3.307   2.657   4.932
 6357TIP3   OH219027   2.303   2.566   5.260
 6357TIP3    H119028   2.290   2.471   5.262
 6357TIP3    H219029   2.398   2.577   5.247
 6358TIP3   OH219030   1.995   1.767   5.040
 6358TIP3    H119031   1.955   1.852   5.058
 6358TIP3    H219032   1.927   1.717   4.994
 6359TIP3   OH219033   2.064   2.065   5.250
 6359TIP3    H119034   2.115   1.988   5.276
 6359TIP3    H219035   2.129   2.124   5.210
 6360TIP3   OH219036   2.941   3.011   4.896
 6360TIP3    H119037   2.969   2.947   4.831
 6360TIP3    H219038   2.937   2.962   4.978
 6361TIP3   OH219039   2.823   2.496   5.223
 6361TIP3    H119040   2.865   2.417   5.188
 6361TIP3    H219041   2.896   2.552   5.251
 6362TIP3   OH219042   3.858   1.812   5.230
 6362TIP3    H119043   3.876   1.899   5.268
 6362TIP3    H219044   3.880   1.821   5.137
 6363TIP3   OH219045   3.237   1.983   5.256
 6363TIP3    H119046   3.277   1.899   5.280
 6363TIP3    H219047   3.201   1.969   5.169
 6364TIP3   OH219048   2.588   1.645   5.218
 6364TIP3    H119049   2.570   1.718   5.158
 6364TIP3    H219050   2.537   1.572   5.184
 6365TIP3   OH219051   3.286   1.746   4.853
 6365TIP3    H119052   3.354   1.736   4.919
 6365TIP3    H219053   3.332   1.778   4.775
 6366TIP3   OH219054   2.212   1.850   5.340
 6366TIP3    H119055   2.296   1.835   5.384
 6366TIP3    H219056   2.218   1.800   5.259
 6367TIP3   OH219057   2.637   2.054   5.158
 6367TIP3    H119058   2.732   2.039   5.163
 6367TIP3    H219059   2.602   1.973   5.121
 6368TIP3   OH219060   3.919   2.032   5.403
 6368TIP3    H119061   3.832   2.070   5.391
 6368TIP3    H219062   3.951   2.070   5.484
 6369TIP3   OH219063   2.571   1.641   5.664
 6369TIP3    H119064   2.519   1.677   5.592
 6369TIP3    H219065   2.518   1.655   5.742
 6370TIP3   OH219066   2.882   2.483   4.680
 6370TIP3    H119067   2.870   2.472   4.585
 6370TIP3    H219068   2.842   2.568   4.699
 6371TIP3   OH219069   2.671   2.418   5.440
 6371TIP3    H119070   2.615   2.488   5.474
 6371TIP3    H219071   2.718   2.457   5.367
 6372TIP3   OH219072   3.458   1.758   5.065
 6372TIP3    H119073   3.419   1.738   5.150
 6372TIP3    H219074   3.514   1.834   5.082
 6373TIP3   OH219075   2.455   1.750   5.438
 6373TIP3    H119076   2.511   1.825   5.461
 6373TIP3    H219077   2.502   1.707   5.366
 6374TIP3   OH219078   2.509   2.620   5.542
 6374TIP3    H119079   2.492   2.708   5.509
 6374TIP3    H219080   2.432   2.599   5.595
 6375TIP3   OH219081   1.885   2.317   4.791
 6375TIP3    H119082   1.853   2.334   4.702
 6375TIP3    H219083   1.911   2.403   4.824
 6376TIP3   OH219084   3.330   2.827   5.030
 6376TIP3    H119085   3.242   2.819   5.067
 6376TIP3    H219086   3.328   2.910   4.982
 6377TIP3   OH219087   3.653   1.708   5.401
 6377TIP3    H119088   3.566   1.729   5.366
 6377TIP3    H219089   3.713   1.735   5.331
 6378TIP3   OH219090   2.917   1.343   5.387
 6378TIP3    H119091   2.909   1.251   5.414
 6378TIP3    H219092   2.840   1.386   5.425
 6379TIP3   OH219093   3.030   2.858   4.682
 6379TIP3    H119094   3.080   2.776   4.671
 6379TIP3    H219095   3.090   2.926   4.653
 6380TIP3   OH219096   3.180   2.638   4.631
 6380TIP3    H119097   3.186   2.564   4.571
 6380TIP3    H219098   3.219   2.607   4.713
 6381TIP3   OH219099   3.563   2.718   5.373
 6381TIP3    H119100   3.546   2.644   5.315
 6381TIP3    H219101   3.547   2.795   5.318
 6382TIP3   OH219102   2.850   2.120   4.641
 6382TIP3    H119103   2.771   2.171   4.620
 6382TIP3    H219104   2.899   2.116   4.559
 6383TIP3   OH219105   2.820   1.919   4.336
 6383TIP3    H119106   2.885   1.971   4.384
 6383TIP3    H219107   2.872   1.854   4.290
 6384TIP3   OH219108   3.748   2.376   5.235
 6384TIP3    H119109   3.664   2.421   5.234
 6384TIP3    H219110   3.783   2.390   5.147
 6385TIP3   OH219111   3.199   2.209   4.605
 6385TIP3    H119112   3.148   2.235   4.682
 6385TIP3    H219113   3.283   2.181   4.640
 6386TIP3   OH219114   3.437   2.238   5.541
 6386TIP3    H119115   3.433   2.321   5.589
 6386TIP3    H219116   3.355   2.235   5.492
 6387TIP3   OH219117   2.434   2.190   5.016
 6387TIP3    H119118   2.398   2.131   4.949
 6387TIP3    H219119   2.508   2.142   5.052
 6388TIP3   OH219120   2.565   2.612   5.155
 6388TIP3    H119121   2.542   2.596   5.063
 6388TIP3    H219122   2.652   2.574   5.165
 6389TIP3   OH219123   2.538   2.184   5.384
 6389TIP3    H119124   2.576   2.148   5.304
 6389TIP3    H219125   2.589   2.263   5.401
 6390TIP3   OH219126   3.091   2.820   5.160
 6390TIP3    H119127   3.080   2.898   5.215
 6390TIP3    H219128   3.078   2.746   5.219
 6391TIP3   OH219129   2.709   2.723   5.705
 6391TIP3    H119130   2.648   2.782   5.751
 6391TIP3    H219131   2.652   2.670   5.649
 6392TIP3   OH219132   3.033   2.077   4.432
 6392TIP3    H119133   3.094   2.131   4.482
 6392TIP3    H219134   3.062   2.085   4.341
 6393TIP3   OH219135   2.471   2.284   5.825
 6393TIP3    H119136   2.474   2.373   5.860
 6393TIP3    H219137   2.378   2.262   5.824
 6394TIP3   OH219138   2.779   2.745   4.699
 6394TIP3    H119139   2.866   2.785   4.700
 6394TIP3    H219140   2.726   2.805   4.648
 6395TIP3   OH219141   2.498   2.884   5.787
 6395TIP3    H119142   2.473   2.891   5.695
 6395TIP3    H219143   2.415   2.868   5.833
 6396TIP3   OH219144   3.554   1.293   4.489
 6396TIP3    H119145   3.474   1.320   4.532
 6396TIP3    H219146   3.587   1.372   4.446
 6397TIP3   OH219147   2.310   2.034   4.813
 6397TIP3    H119148   2.234   2.079   4.776
 6397TIP3    H219149   2.282   1.943   4.822
 6398TIP3   OH219150   3.371   2.677   4.035
 6398TIP3    H119151   3.371   2.771   4.015
 6398TIP3    H219152   3.459   2.647   4.012
 6399TIP3   OH219153   2.087   2.432   5.739
 6399TIP3    H119154   2.028   2.409   5.667
 6399TIP3    H219155   2.127   2.349   5.765
 6400TIP3   OH219156   1.961   2.617   5.373
 6400TIP3    H119157   2.055   2.614   5.354
 6400TIP3    H219158   1.950   2.695   5.427
 6401TIP3   OH219159   3.795   3.081   5.436
 6401TIP3    H119160   3.800   2.986   5.447
 6401TIP3    H219161   3.714   3.105   5.483
 6402TIP3   OH219162   2.899   2.861   5.563
 6402TIP3    H119163   2.893   2.953   5.591
 6402TIP3    H219164   2.832   2.816   5.613
 6403TIP3   OH219165   2.676   2.968   4.519
 6403TIP3    H119166   2.628   2.950   4.438
 6403TIP3    H219167   2.640   3.051   4.551
 6404TIP3   OH219168   2.109   2.821   4.899
 6404TIP3    H119169   2.154   2.814   4.982
 6404TIP3    H219170   2.062   2.739   4.889
 6405TIP3   OH219171   2.877   2.890   4.146
 6405TIP3    H119172   2.928   2.817   4.111
 6405TIP3    H219173   2.912   2.905   4.233
 6406TIP3   OH219174   2.929   2.940   4.414
 6406TIP3    H119175   2.844   2.945   4.457
 6406TIP3    H219176   2.986   2.899   4.479
 6407TIP3   OH219177   3.681   2.198   5.708
 6407TIP3    H119178   3.601   2.208   5.657
 6407TIP3    H219179   3.701   2.104   5.703
 6408TIP3   OH219180   2.291   2.617   5.712
 6408TIP3    H119181   2.343   2.604   5.791
 6408TIP3    H219182   2.219   2.555   5.720
 6409TIP3   OH219183   2.676   1.433   5.508
 6409TIP3    H119184   2.592   1.398   5.478
 6409TIP3    H219185   2.653   1.511   5.558
 6410TIP3   OH219186   3.220   1.548   5.714
 6410TIP3    H119187   3.289   1.523   5.776
 6410TIP3    H219188   3.138   1.531   5.761
 6411TIP3   OH219189   3.444   1.973   5.633
 6411TIP3    H119190   3.402   1.971   5.719
 6411TIP3    H219191   3.427   2.061   5.600
 6412TIP3   OH219192   3.118   2.083   4.174
 6412TIP3    H119193   3.082   2.066   4.087
 6412TIP3    H219194   3.203   2.123   4.157
 6413TIP3   OH219195   2.811   1.477   4.469
 6413TIP3    H119196   2.787   1.485   4.562
 6413TIP3    H219197   2.783   1.389   4.445
 6414TIP3   OH219198   2.614   1.958   5.527
 6414TIP3    H119199   2.570   1.969   5.611
 6414TIP3    H219200   2.594   2.039   5.480
 6415TIP3   OH219201   2.497   1.840   5.048
 6415TIP3    H119202   2.407   1.814   5.071
 6415TIP3    H219203   2.509   1.807   4.959
 6416TIP3   OH219204   2.978   1.917   4.776
 6416TIP3    H119205   2.930   1.988   4.735
 6416TIP3    H219206   3.039   1.886   4.709
 6417TIP3   OH219207   3.164   2.187   5.853
 6417TIP3    H119208   3.136   2.117   5.913
 6417TIP3    H219209   3.256   2.200   5.872
 6418TIP3   OH219210   3.144   1.934   5.002
 6418TIP3    H119211   3.078   1.958   4.938
 6418TIP3    H219212   3.190   1.860   4.963
 6419TIP3   OH219213   2.448   1.974   5.749
 6419TIP3    H119214   2.495   2.027   5.812
 6419TIP3    H219215   2.432   1.891   5.794
 6420TIP3   OH219216   2.484   1.446   4.459
 6420TIP3    H119217   2.478   1.452   4.554
 6420TIP3    H219218   2.410   1.497   4.426
 6421TIP3   OH219219   2.027   1.486   5.340
 6421TIP3    H119220   2.103   1.524   5.384
 6421TIP3    H219221   2.058   1.464   5.252
 6422TIP3   OH219222   1.961   1.474   4.839
 6422TIP3    H119223   2.007   1.506   4.761
 6422TIP3    H219224   1.898   1.543   4.858
 6423TIP3   OH219225   3.179   2.183   5.428
 6423TIP3    H119226   3.206   2.117   5.365
 6423TIP3    H219227   3.138   2.133   5.499
 6424TIP3   OH219228   2.857   1.636   5.103
 6424TIP3    H119229   2.780   1.636   5.160
 6424TIP3    H219230   2.931   1.627   5.162
 6425TIP3   OH219231   2.259   1.712   5.109
 6425TIP3    H119232   2.170   1.715   5.073
 6425TIP3    H219233   2.289   1.623   5.092
 6426TIP3   OH219234   2.513   1.716   4.803
 6426TIP3    H119235   2.608   1.726   4.792
 6426TIP3    H219236   2.477   1.735   4.717
 6427TIP3   OH219237   3.321   1.723   5.313
 6427TIP3    H119238   3.295   1.741   5.403
 6427TIP3    H219239   3.256   1.661   5.280
 6428TIP3   OH219240   2.391   1.744   4.559
 6428TIP3    H119241   2.327   1.696   4.506
 6428TIP3    H219242   2.446   1.788   4.495
 6429TIP3   OH219243   3.505   3.423   5.532
 6429TIP3    H119244   3.503   3.435   5.437
 6429TIP3    H219245   3.584   3.468   5.560
 6430TIP3   OH219246   2.450   2.541   5.943
 6430TIP3    H119247   2.532   2.557   5.989
 6430TIP3    H219248   2.383   2.542   6.011
 6431TIP3   OH219249   2.910   1.998   5.206
 6431TIP3    H119250   2.976   1.950   5.154
 6431TIP3    H219251   2.911   1.954   5.291
 6432TIP3   OH219252   2.407   1.467   5.095
 6432TIP3    H119253   2.377   1.391   5.145
 6432TIP3    H219254   2.441   1.430   5.013
 6433TIP3   OH219255   2.882   1.899   5.475
 6433TIP3    H119256   2.794   1.931   5.496
 6433TIP3    H219257   2.940   1.952   5.528
 6434TIP3   OH219258   2.615   2.266   4.580
 6434TIP3    H119259   2.543   2.206   4.560
 6434TIP3    H219260   2.594   2.303   4.665
 6435TIP3   OH219261   3.510   2.512   5.197
 6435TIP3    H119262   3.544   2.560   5.121
 6435TIP3    H219263   3.430   2.470   5.165
 6436TIP3   OH219264   3.067   1.579   4.519
 6436TIP3    H119265   2.983   1.555   4.478
 6436TIP3    H219266   3.076   1.673   4.502
 6437TIP3   OH219267   3.023   2.594   5.596
 6437TIP3    H119268   3.070   2.585   5.679
 6437TIP3    H219269   2.983   2.681   5.601
 6438TIP3   OH219270   3.145   1.850   4.562
 6438TIP3    H119271   3.241   1.847   4.568
 6438TIP3    H219272   3.127   1.925   4.505
 6439TIP3   OH219273   2.308   2.282   5.244
 6439TIP3    H119274   2.344   2.261   5.158
 6439TIP3    H219275   2.373   2.248   5.306
 6440TIP3   OH219276   2.771   2.422   4.416
 6440TIP3    H119277   2.724   2.506   4.419
 6440TIP3    H219278   2.720   2.364   4.472
 6441TIP3   OH219279   2.201   2.222   5.881
 6441TIP3    H119280   2.228   2.219   5.973
 6441TIP3    H219281   2.139   2.151   5.872
 6442TIP3   OH219282   2.931   2.339   5.889
 6442TIP3    H119283   2.865   2.283   5.848
 6442TIP3    H219284   3.015   2.300   5.863
 6443TIP3   OH219285   3.171   2.877   5.485
 6443TIP3    H119286   3.076   2.864   5.492
 6443TIP3    H219287   3.195   2.917   5.568
 6444TIP3   OH219288   3.562   1.905   4.387
 6444TIP3    H119289   3.507   1.853   4.329
 6444TIP3    H219290   3.563   1.992   4.348
 6445TIP3   OH219291   3.810   2.802   5.460
 6445TIP3    H119292   3.716   2.786   5.458
 6445TIP3    H219293   3.842   2.769   5.376
 6446TIP3   OH219294   3.291   2.738   4.298
 6446TIP3    H119295   3.286   2.663   4.357
 6446TIP3    H219296   3.319   2.700   4.214
 6447TIP3   OH219297   3.279   2.376   5.097
 6447TIP3    H119298   3.188   2.353   5.117
 6447TIP3    H219299   3.316   2.297   5.059
 6448TIP3   OH219300   2.431   2.612   4.904
 6448TIP3    H119301   2.433   2.689   4.847
 6448TIP3    H219302   2.338   2.591   4.912
 6449TIP3   OH219303   1.990   1.898   4.611
 6449TIP3    H119304   2.035   1.981   4.631
 6449TIP3    H219305   1.910   1.901   4.663
 6450TIP3   OH219306   2.522   2.365   4.814
 6450TIP3    H119307   2.509   2.455   4.843
 6450TIP3    H219308   2.496   2.312   4.890
 6451TIP3   OH219309   2.708   2.937   5.358
 6451TIP3    H119310   2.744   3.010   5.308
 6451TIP3    H219311   2.783   2.901   5.406
 6452TIP3   OH219312   2.342   2.837   4.750
 6452TIP3    H119313   2.256   2.843   4.790
 6452TIP3    H219314   2.377   2.926   4.754
 6453TIP3   OH219315   3.066   2.594   5.323
 6453TIP3    H119316   3.056   2.588   5.418
 6453TIP3    H219317   3.136   2.532   5.302
 6454TIP3   OH219318   3.056   2.478   4.216
 6454TIP3    H119319   3.109   2.465   4.294
 6454TIP3    H219320   2.971   2.439   4.237
 6455TIP3   OH219321   3.322   3.103   5.370
 6455TIP3    H119322   3.249   3.043   5.378
 6455TIP3    H219323   3.298   3.162   5.298
 6456TIP3   OH219324   3.383   2.956   4.007
 6456TIP3    H119325   3.434   3.034   3.983
 6456TIP3    H219326   3.302   2.991   4.044
 6457TIP3   OH219327   2.404   1.722   5.873
 6457TIP3    H119328   2.309   1.730   5.883
 6457TIP3    H219329   2.435   1.697   5.960
 6458TIP3   OH219330   3.215   2.430   4.438
 6458TIP3    H119331   3.199   2.353   4.492
 6458TIP3    H219332   3.309   2.430   4.422
 6459TIP3   OH219333   2.130   2.826   5.521
 6459TIP3    H119334   2.184   2.762   5.568
 6459TIP3    H219335   2.153   2.910   5.561
 6460TIP3   OH219336   2.404   2.445   4.209
 6460TIP3    H119337   2.418   2.354   4.182
 6460TIP3    H219338   2.390   2.440   4.303
 6461TIP3   OH219339   2.354   2.459   4.482
 6461TIP3    H119340   2.427   2.430   4.535
 6461TIP3    H219341   2.355   2.554   4.489
 6462TIP3   OH219342   2.087   2.149   4.692
 6462TIP3    H119343   2.021   2.195   4.743
 6462TIP3    H219344   2.107   2.208   4.620
 6463TIP3   OH219345   3.247   1.785   5.573
 6463TIP3    H119346   3.327   1.826   5.605
 6463TIP3    H219347   3.239   1.705   5.626
 6464TIP3   OH219348   3.140   1.523   4.771
 6464TIP3    H119349   3.112   1.540   4.681
 6464TIP3    H219350   3.184   1.603   4.798
 6465TIP3   OH219351   2.623   2.650   4.424
 6465TIP3    H119352   2.538   2.673   4.461
 6465TIP3    H219353   2.647   2.725   4.369
 6466TIP3   OH219354   2.793   1.724   4.846
 6466TIP3    H119355   2.856   1.790   4.818
 6466TIP3    H219356   2.815   1.706   4.937
 6467TIP3   OH219357   3.086   2.018   5.628
 6467TIP3    H119358   3.113   2.060   5.709
 6467TIP3    H219359   3.136   1.937   5.625
 6468TIP3   OH219360   2.948   1.424   4.939
 6468TIP3    H119361   2.924   1.502   4.989
 6468TIP3    H219362   3.019   1.453   4.881
 6469TIP3   OH219363   2.370   2.732   4.497
 6469TIP3    H119364   2.348   2.802   4.435
 6469TIP3    H219365   2.358   2.772   4.583
 6470TIP3   OH219366   2.469   1.444   4.739
 6470TIP3    H119367   2.460   1.534   4.769
 6470TIP3    H219368   2.564   1.428   4.740
 6471TIP3   OH219369   3.711   1.926   5.621
 6471TIP3    H119370   3.615   1.929   5.631
 6471TIP3    H219371   3.725   1.879   5.539
 6472TIP3   OH219372   3.371   2.120   5.005
 6472TIP3    H119373   3.294   2.063   5.013
 6472TIP3    H219374   3.439   2.077   5.056
 6473TIP3   OH219375   2.104   2.333   4.479
 6473TIP3    H119376   2.175   2.396   4.489
 6473TIP3    H219377   2.138   2.269   4.415
 6474TIP3   OH219378   2.018   1.621   4.615
 6474TIP3    H119379   2.028   1.716   4.617
 6474TIP3    H219380   1.963   1.604   4.538
 6475TIP3   OH219381   3.348   3.098   4.948
 6475TIP3    H119382   3.304   3.148   4.880
 6475TIP3    H219383   3.441   3.115   4.934
 6476TIP3   OH219384   2.410   1.343   5.482
 6476TIP3    H119385   2.384   1.309   5.396
 6476TIP3    H219386   2.407   1.266   5.539
 6477TIP3   OH219387   1.942   2.588   4.873
 6477TIP3    H119388   1.895   2.625   4.948
 6477TIP3    H219389   1.903   2.631   4.797
 6478TIP3   OH219390   2.136   3.134   5.942
 6478TIP3    H119391   2.218   3.140   5.990
 6478TIP3    H219392   2.124   3.040   5.927
 6479TIP3   OH219393   2.601   3.052   5.981
 6479TIP3    H119394   2.693   3.028   5.990
 6479TIP3    H219395   2.569   2.997   5.909
 6480TIP3   OH219396   2.569   2.641   4.103
 6480TIP3    H119397   2.519   2.572   4.148
 6480TIP3    H219398   2.645   2.596   4.067
 6481TIP3   OH219399   3.225   2.986   5.732
 6481TIP3    H119400   3.235   2.915   5.796
 6481TIP3    H219401   3.300   3.043   5.747
 6482TIP3   OH219402   3.010   2.679   4.031
 6482TIP3    H119403   3.040   2.617   4.097
 6482TIP3    H219404   3.075   2.671   3.960
 6483TIP3   OH219405   2.246   2.532   6.134
 6483TIP3    H119406   2.270   2.440   6.141
 6483TIP3    H219407   2.160   2.531   6.092
 6484TIP3   OH219408   2.232   2.142   4.332
 6484TIP3    H119409   2.284   2.117   4.408
 6484TIP3    H219410   2.296   2.153   4.262
 6485TIP3   OH219411   2.861   2.614   5.909
 6485TIP3    H119412   2.817   2.635   5.826
 6485TIP3    H219413   2.896   2.526   5.896
 6486TIP3   OH219414   2.760   2.363   4.147
 6486TIP3    H119415   2.756   2.376   4.241
 6486TIP3    H219416   2.760   2.268   4.136
 6487TIP3   OH219417   3.342   2.652   5.527
 6487TIP3    H119418   3.418   2.680   5.478
 6487TIP3    H219419   3.275   2.717   5.507
 6488TIP3   OH219420   2.352   2.273   6.133
 6488TIP3    H119421   2.416   2.208   6.106
 6488TIP3    H219422   2.373   2.291   6.225
 6489TIP3   OH219423   2.411   2.079   4.540
 6489TIP3    H119424   2.393   2.046   4.628
 6489TIP3    H219425   2.459   2.008   4.497
 6490TIP3   OH219426   2.699   2.139   5.781
 6490TIP3    H119427   2.626   2.198   5.794
 6490TIP3    H219428   2.746   2.174   5.705
 6491TIP3   OH219429   2.546   1.891   4.386
 6491TIP3    H119430   2.519   1.893   4.294
 6491TIP3    H219431   2.642   1.895   4.382
 6492TIP3   OH219432   3.221   2.535   5.890
 6492TIP3    H119433   3.288   2.496   5.835
 6492TIP3    H219434   3.217   2.478   5.967
 6493TIP3   OH219435   3.348   2.199   4.067
 6493TIP3    H119436   3.333   2.152   3.984
 6493TIP3    H219437   3.318   2.288   4.049
 6494TIP3   OH219438   2.823   1.925   5.898
 6494TIP3    H119439   2.828   1.852   5.836
 6494TIP3    H219440   2.783   1.996   5.849
 6495TIP3   OH219441   2.832   1.724   5.700
 6495TIP3    H119442   2.859   1.761   5.616
 6495TIP3    H219443   2.741   1.696   5.686
 6496TIP3   OH219444   2.842   2.257   5.585
 6496TIP3    H119445   2.932   2.279   5.558
 6496TIP3    H219446   2.787   2.318   5.535
 6497TIP3   OH219447   3.431   2.214   5.951
 6497TIP3    H119448   3.467   2.126   5.957
 6497TIP3    H219449   3.506   2.269   5.925
 6498TIP3   OH219450   3.464   2.477   5.695
 6498TIP3    H119451   3.410   2.538   5.644
 6498TIP3    H219452   3.553   2.491   5.663
 6499TIP3   OH219453   2.715   2.023   6.142
 6499TIP3    H119454   2.634   1.978   6.166
 6499TIP3    H219455   2.736   1.989   6.055
 6500TIP3   OH219456   2.958   1.495   5.797
 6500TIP3    H119457   2.917   1.576   5.766
 6500TIP3    H219458   2.892   1.427   5.783
 6501TIP3   OH219459   3.079   1.970   5.998
 6501TIP3    H119460   3.066   1.959   6.093
 6501TIP3    H219461   2.994   1.949   5.960
 6502TIP3   OH219462   3.328   1.931   5.873
 6502TIP3    H119463   3.248   1.928   5.926
 6502TIP3    H219464   3.397   1.901   5.931
 6503TIP3   OH219465   3.562   1.884   6.021
 6503TIP3    H119466   3.575   1.790   6.029
 6503TIP3    H219467   3.557   1.915   6.112
 6504TIP3   OH219468   2.539   1.794   6.194
 6504TIP3    H119469   2.546   1.703   6.166
 6504TIP3    H219470   2.576   1.796   6.282
 6505TIP3   OH219471   3.027   1.474   6.062
 6505TIP3    H119472   3.095   1.407   6.055
 6505TIP3    H219473   2.995   1.484   5.972
 6506TIP3   OH219474   3.117   1.694   6.204
 6506TIP3    H119475   3.086   1.622   6.148
 6506TIP3    H219476   3.044   1.756   6.204
 6507TIP3   OH219477   2.361   2.937   4.308
 6507TIP3    H119478   2.451   2.918   4.284
 6507TIP3    H219479   2.326   2.987   4.234
 6508TIP3   OH219480   1.831   2.317   4.505
 6508TIP3    H119481   1.925   2.332   4.496
 6508TIP3    H219482   1.817   2.231   4.464
 6509TIP3   OH219483   1.740   2.909   4.949
 6509TIP3    H119484   1.676   2.855   4.903
 6509TIP3    H219485   1.785   2.848   5.008
 6510TIP3   OH219486   1.879   2.742   5.123
 6510TIP3    H119487   1.871   2.676   5.192
 6510TIP3    H219488   1.929   2.813   5.164
 6511TIP3   OH219489   3.608   3.180   4.930
 6511TIP3    H119490   3.644   3.195   5.018
 6511TIP3    H219491   3.680   3.200   4.871
 6512TIP3   OH219492   3.645   3.179   5.214
 6512TIP3    H119493   3.595   3.099   5.204
 6512TIP3    H219494   3.713   3.157   5.277
 6513TIP3   OH219495   3.685   2.876   5.785
 6513TIP3    H119496   3.614   2.884   5.849
 6513TIP3    H219497   3.730   2.961   5.789
 6514TIP3   OH219498   3.484   2.422   4.416
 6514TIP3    H119499   3.550   2.476   4.373
 6514TIP3    H219500   3.533   2.353   4.460
 6515TIP3   OH219501   3.624   2.245   4.591
 6515TIP3    H119502   3.552   2.205   4.642
 6515TIP3    H219503   3.682   2.282   4.657
 6516TIP3   OH219504   3.687   2.647   5.027
 6516TIP3    H119505   3.738   2.577   4.986
 6516TIP3    H219506   3.687   2.717   4.963
 6517TIP3   OH219507   3.498   2.941   5.222
 6517TIP3    H119508   3.430   2.985   5.272
 6517TIP3    H219509   3.452   2.899   5.150
 6518TIP3   OH219510   3.560   2.134   4.243
 6518TIP3    H119511   3.488   2.167   4.189
 6518TIP3    H219512   3.638   2.177   4.207
 6519TIP3   OH219513   3.406   1.765   4.203
 6519TIP3    H119514   3.374   1.803   4.121
 6519TIP3    H219515   3.375   1.675   4.201
 6520TIP3   OH219516   3.426   2.108   4.731
 6520TIP3    H119517   3.435   2.013   4.717
 6520TIP3    H219518   3.413   2.116   4.826
 6521TIP3   OH219519   2.061   2.180   5.501
 6521TIP3    H119520   2.052   2.141   5.413
 6521TIP3    H219521   2.155   2.176   5.519
 6522TIP3   OH219522   3.719   2.528   5.596
 6522TIP3    H119523   3.786   2.462   5.580
 6522TIP3    H219524   3.727   2.589   5.522
 6523TIP3   OH219525   3.897   2.319   5.590
 6523TIP3    H119526   3.823   2.277   5.633
 6523TIP3    H219527   3.972   2.263   5.612
 6524TIP3   OH219528   3.433   1.833   4.626
 6524TIP3    H119529   3.474   1.748   4.641
 6524TIP3    H219530   3.477   1.868   4.549
 6525TIP3   OH219531   3.587   1.995   5.140
 6525TIP3    H119532   3.668   2.013   5.091
 6525TIP3    H219533   3.601   2.035   5.226
 6526TIP3   OH219534   3.662   2.147   5.367
 6526TIP3    H119535   3.586   2.177   5.418
 6526TIP3    H219536   3.693   2.226   5.322
 6527TIP3   OH219537   2.275   1.855   6.135
 6527TIP3    H119538   2.366   1.867   6.161
 6527TIP3    H219539   2.246   1.777   6.182
 6528TIP3   OH219540   4.117   1.748   5.910
 6528TIP3    H119541   4.179   1.688   5.867
 6528TIP3    H219542   4.079   1.798   5.838
 6529TIP3   OH219543   3.539   1.582   4.678
 6529TIP3    H119544   3.586   1.561   4.759
 6529TIP3    H219545   3.477   1.509   4.668
 6530TIP3   OH219546   2.244   1.564   5.506
 6530TIP3    H119547   2.298   1.485   5.506
 6530TIP3    H219548   2.305   1.635   5.485
 6531TIP3   OH219549   2.028   1.836   5.551
 6531TIP3    H119550   2.081   1.826   5.472
 6531TIP3    H219551   2.073   1.903   5.603
 6532TIP3   OH219552   3.969   1.864   5.713
 6532TIP3    H119553   3.885   1.905   5.732
 6532TIP3    H219554   3.947   1.789   5.658
 6533TIP3   OH219555   3.686   1.490   4.349
 6533TIP3    H119556   3.695   1.439   4.268
 6533TIP3    H219557   3.708   1.580   4.324
 6534TIP3   OH219558   2.021   1.350   5.075
 6534TIP3    H119559   1.932   1.330   5.104
 6534TIP3    H219560   2.009   1.399   4.994
 6535TIP3   OH219561   3.180   3.056   4.575
 6535TIP3    H119562   3.229   3.037   4.494
 6535TIP3    H219563   3.239   3.113   4.625
 6536TIP3   OH219564   2.226   1.393   5.875
 6536TIP3    H119565   2.200   1.430   5.959
 6536TIP3    H219566   2.178   1.444   5.810
 6537TIP3   OH219567   2.271   2.857   5.950
 6537TIP3    H119568   2.178   2.832   5.944
 6537TIP3    H219569   2.295   2.836   6.041
 6538TIP3   OH219570   2.478   2.896   5.505
 6538TIP3    H119571   2.428   2.970   5.471
 6538TIP3    H219572   2.564   2.903   5.462
 6539TIP3   OH219573   2.888   3.128   5.644
 6539TIP3    H119574   2.927   3.122   5.731
 6539TIP3    H219575   2.950   3.182   5.594
 6540TIP3   OH219576   3.075   3.284   5.512
 6540TIP3    H119577   3.136   3.230   5.462
 6540TIP3    H219578   3.132   3.338   5.568
 6541TIP3   OH219579   3.879   1.621   5.601
 6541TIP3    H119580   3.792   1.619   5.560
 6541TIP3    H219581   3.911   1.532   5.594
 6542TIP3   OH219582   2.144   3.138   5.552
 6542TIP3    H119583   2.053   3.158   5.529
 6542TIP3    H219584   2.167   3.204   5.618
 6543TIP3   OH219585   2.372   3.127   5.397
 6543TIP3    H119586   2.289   3.132   5.445
 6543TIP3    H219587   2.352   3.158   5.309
 6544TIP3   OH219588   2.793   3.144   5.193
 6544TIP3    H119589   2.725   3.155   5.127
 6544TIP3    H219590   2.805   3.231   5.230
 6545TIP3   OH219591   3.060   3.088   5.246
 6545TIP3    H119592   2.967   3.100   5.226
 6545TIP3    H219593   3.106   3.151   5.190
 6546TIP3   OH219594   3.274   3.271   5.149
 6546TIP3    H119595   3.258   3.354   5.104
 6546TIP3    H219596   3.300   3.211   5.080
 6547TIP3   OH219597   2.049   2.922   5.271
 6547TIP3    H119598   2.076   2.897   5.360
 6547TIP3    H219599   2.121   2.891   5.216
 6548TIP3   OH219600   2.253   2.805   5.134
 6548TIP3    H119601   2.266   2.721   5.178
 6548TIP3    H219602   2.340   2.846   5.134
 6549TIP3   OH219603   2.522   2.891   5.152
 6549TIP3    H119604   2.541   2.798   5.137
 6549TIP3    H219605   2.575   2.915   5.228
 6550TIP3   OH219606   3.086   1.546   5.240
 6550TIP3    H119607   3.046   1.472   5.287
 6550TIP3    H219608   3.155   1.506   5.188
 6551TIP3   OH219609   3.590   1.455   5.140
 6551TIP3    H119610   3.628   1.500   5.064
 6551TIP3    H219611   3.496   1.472   5.134
 6552TIP3   OH219612   3.702   1.519   4.898
 6552TIP3    H119613   3.773   1.466   4.861
 6552TIP3    H219614   3.733   1.609   4.889
 6553TIP3   OH219615   2.326   1.242   5.238
 6553TIP3    H119616   2.236   1.209   5.244
 6553TIP3    H219617   2.380   1.163   5.231
 6554TIP3   OH219618   2.140   1.147   4.893
 6554TIP3    H119619   2.169   1.195   4.816
 6554TIP3    H219620   2.110   1.215   4.954
 6555TIP3   OH219621   2.796   1.284   5.131
 6555TIP3    H119622   2.845   1.328   5.062
 6555TIP3    H219623   2.840   1.310   5.212
 6556TIP3   OH219624   3.305   1.438   5.109
 6556TIP3    H119625   3.306   1.409   5.017
 6556TIP3    H219626   3.306   1.356   5.159
 6557TIP3   OH219627   3.359   1.370   4.673
 6557TIP3    H119628   3.276   1.416   4.688
 6557TIP3    H219629   3.345   1.283   4.711
 6558TIP3   OH219630   1.828   2.713   4.659
 6558TIP3    H119631   1.744   2.679   4.629
 6558TIP3    H219632   1.831   2.803   4.625
 6559TIP3   OH219633   2.254   1.277   4.657
 6559TIP3    H119634   2.299   1.216   4.598
 6559TIP3    H219635   2.325   1.333   4.690
 6560TIP3   OH219636   2.746   1.474   4.742
 6560TIP3    H119637   2.805   1.421   4.795
 6560TIP3    H219638   2.763   1.564   4.770
 6561TIP3   OH219639   2.620   2.869   4.246
 6561TIP3    H119640   2.705   2.896   4.210
 6561TIP3    H219641   2.593   2.796   4.191
 6562TIP3   OH219642   3.318   3.005   4.340
 6562TIP3    H119643   3.313   2.910   4.330
 6562TIP3    H219644   3.277   3.040   4.260
 6563TIP3   OH219645   2.551   1.523   6.118
 6563TIP3    H119646   2.522   1.454   6.177
 6563TIP3    H219647   2.645   1.532   6.136
 6564TIP3   OH219648   2.804   1.528   6.229
 6564TIP3    H119649   2.883   1.506   6.179
 6564TIP3    H219650   2.803   1.464   6.301
 6565TIP3   OH219651   1.924   2.715   4.303
 6565TIP3    H119652   1.928   2.728   4.398
 6565TIP3    H219653   2.006   2.669   4.283
 6566TIP3   OH219654   3.624   1.612   6.031
 6566TIP3    H119655   3.641   1.584   6.121
 6566TIP3    H219656   3.710   1.608   5.988
 6567TIP3   OH219657   3.544   3.148   5.535
 6567TIP3    H119658   3.470   3.118   5.483
 6567TIP3    H219659   3.531   3.243   5.544
 6568TIP3   OH219660   4.823   2.532   4.281
 6568TIP3    H119661   4.793   2.620   4.257
 6568TIP3    H219662   4.752   2.474   4.253
 6569TIP3   OH219663   4.824   2.528   4.696
 6569TIP3    H119664   4.870   2.507   4.777
 6569TIP3    H219665   4.777   2.448   4.674
 6570TIP3   OH219666   4.122   2.402   5.045
 6570TIP3    H119667   4.156   2.344   5.113
 6570TIP3    H219668   4.197   2.423   4.990
 6571TIP3   OH219669   5.084   2.833   4.372
 6571TIP3    H119670   5.069   2.768   4.441
 6571TIP3    H219671   5.106   2.913   4.419
 6572TIP3   OH219672   4.103   2.834   4.754
 6572TIP3    H119673   4.090   2.739   4.753
 6572TIP3    H219674   4.196   2.846   4.736
 6573TIP3   OH219675   3.787   2.024   4.528
 6573TIP3    H119676   3.743   2.108   4.540
 6573TIP3    H219677   3.722   1.969   4.486
 6574TIP3   OH219678   3.853   2.318   4.739
 6574TIP3    H119679   3.905   2.241   4.764
 6574TIP3    H219680   3.899   2.355   4.664
 6575TIP3   OH219681   4.735   3.270   4.380
 6575TIP3    H119682   4.764   3.204   4.317
 6575TIP3    H219683   4.720   3.221   4.461
 6576TIP3   OH219684   4.617   2.754   4.708
 6576TIP3    H119685   4.657   2.677   4.667
 6576TIP3    H219686   4.692   2.806   4.738
 6577TIP3   OH219687   5.654   2.071   4.719
 6577TIP3    H119688   5.672   2.156   4.761
 6577TIP3    H219689   5.677   2.084   4.627
 6578TIP3   OH219690   5.036   2.241   4.742
 6578TIP3    H119691   5.071   2.156   4.768
 6578TIP3    H219692   4.997   2.226   4.656
 6579TIP3   OH219693   4.387   1.901   4.698
 6579TIP3    H119694   4.363   1.975   4.642
 6579TIP3    H219695   4.334   1.828   4.666
 6580TIP3   OH219696   5.082   2.000   4.336
 6580TIP3    H119697   5.147   1.991   4.405
 6580TIP3    H219698   5.131   2.035   4.261
 6581TIP3   OH219699   4.008   2.106   4.829
 6581TIP3    H119700   4.093   2.090   4.871
 6581TIP3    H219701   4.011   2.056   4.747
 6582TIP3   OH219702   4.430   2.311   4.642
 6582TIP3    H119703   4.524   2.294   4.646
 6582TIP3    H219704   4.393   2.231   4.606
 6583TIP3   OH219705   5.714   2.289   4.889
 6583TIP3    H119706   5.626   2.327   4.880
 6583TIP3    H219707   5.746   2.325   4.972
 6584TIP3   OH219708   4.367   1.901   5.154
 6584TIP3    H119709   4.316   1.934   5.079
 6584TIP3    H219710   4.311   1.918   5.230
 6585TIP3   OH219711   4.708   2.745   4.150
 6585TIP3    H119712   4.671   2.724   4.065
 6585TIP3    H219713   4.660   2.823   4.178
 6586TIP3   OH219714   4.466   2.675   4.925
 6586TIP3    H119715   4.409   2.745   4.959
 6586TIP3    H219716   4.511   2.715   4.851
 6587TIP3   OH219717   5.250   2.016   4.552
 6587TIP3    H119718   5.208   1.995   4.635
 6587TIP3    H219719   5.305   2.091   4.571
 6588TIP3   OH219720   4.257   2.006   4.922
 6588TIP3    H119721   4.313   2.081   4.945
 6588TIP3    H219722   4.302   1.964   4.848
 6589TIP3   OH219723   4.306   2.877   5.030
 6589TIP3    H119724   4.288   2.964   4.995
 6589TIP3    H219725   4.229   2.855   5.081
 6590TIP3   OH219726   3.682   2.571   4.293
 6590TIP3    H119727   3.718   2.522   4.220
 6590TIP3    H219728   3.735   2.650   4.298
 6591TIP3   OH219729   5.128   3.081   4.514
 6591TIP3    H119730   5.042   3.072   4.554
 6591TIP3    H219731   5.125   3.164   4.467
 6592TIP3   OH219732   5.450   1.963   4.887
 6592TIP3    H119733   5.364   1.987   4.854
 6592TIP3    H219734   5.511   1.991   4.819
 6593TIP3   OH219735   4.712   1.597   4.880
 6593TIP3    H119736   4.701   1.505   4.902
 6593TIP3    H219737   4.637   1.641   4.920
 6594TIP3   OH219738   4.829   3.117   4.167
 6594TIP3    H119739   4.880   3.036   4.157
 6594TIP3    H219740   4.890   3.186   4.139
 6595TIP3   OH219741   4.981   2.897   4.121
 6595TIP3    H119742   4.947   2.817   4.081
 6595TIP3    H219743   5.021   2.867   4.203
 6596TIP3   OH219744   5.360   2.974   4.860
 6596TIP3    H119745   5.343   2.900   4.803
 6596TIP3    H219746   5.344   3.051   4.805
 6597TIP3   OH219747   4.650   2.376   4.128
 6597TIP3    H119748   4.568   2.424   4.115
 6597TIP3    H219749   4.692   2.377   4.042
 6598TIP3   OH219750   4.612   2.174   3.824
 6598TIP3    H119751   4.676   2.225   3.874
 6598TIP3    H219752   4.664   2.109   3.777
 6599TIP3   OH219753   5.544   2.632   4.721
 6599TIP3    H119754   5.460   2.677   4.721
 6599TIP3    H219755   5.579   2.647   4.633
 6600TIP3   OH219756   5.003   2.462   4.087
 6600TIP3    H119757   4.948   2.490   4.160
 6600TIP3    H219758   5.086   2.437   4.128
 6601TIP3   OH219759   5.234   2.496   5.028
 6601TIP3    H119760   5.231   2.578   5.076
 6601TIP3    H219761   5.151   2.493   4.980
 6602TIP3   OH219762   4.211   2.443   4.496
 6602TIP3    H119763   4.166   2.390   4.430
 6602TIP3    H219764   4.284   2.388   4.525
 6603TIP3   OH219765   4.360   2.873   4.638
 6603TIP3    H119766   4.334   2.853   4.549
 6603TIP3    H219767   4.446   2.833   4.648
 6604TIP3   OH219768   4.340   2.436   4.872
 6604TIP3    H119769   4.373   2.402   4.789
 6604TIP3    H219770   4.387   2.517   4.887
 6605TIP3   OH219771   4.893   3.074   4.649
 6605TIP3    H119772   4.877   3.152   4.702
 6605TIP3    H219773   4.876   3.001   4.709
 6606TIP3   OH219774   4.505   2.980   5.192
 6606TIP3    H119775   4.445   3.039   5.238
 6606TIP3    H219776   4.448   2.928   5.135
 6607TIP3   OH219777   4.838   2.320   3.918
 6607TIP3    H119778   4.895   2.379   3.965
 6607TIP3    H219779   4.863   2.331   3.826
 6608TIP3   OH219780   4.261   2.523   5.333
 6608TIP3    H119781   4.265   2.617   5.352
 6608TIP3    H219782   4.167   2.505   5.324
 6609TIP3   OH219783   4.583   2.992   4.192
 6609TIP3    H119784   4.665   3.042   4.187
 6609TIP3    H219785   4.523   3.038   4.134
 6610TIP3   OH219786   4.294   3.141   5.275
 6610TIP3    H119787   4.269   3.147   5.183
 6610TIP3    H219788   4.212   3.123   5.321
 6611TIP3   OH219789   5.348   1.552   3.977
 6611TIP3    H119790   5.271   1.573   4.029
 6611TIP3    H219791   5.362   1.630   3.922
 6612TIP3   OH219792   4.063   2.289   4.297
 6612TIP3    H119793   3.991   2.315   4.240
 6612TIP3    H219794   4.046   2.197   4.318
 6613TIP3   OH219795   5.154   2.931   3.526
 6613TIP3    H119796   5.154   3.025   3.504
 6613TIP3    H219797   5.245   2.905   3.516
 6614TIP3   OH219798   3.885   2.688   5.224
 6614TIP3    H119799   3.817   2.671   5.159
 6614TIP3    H219800   3.921   2.602   5.245
 6615TIP3   OH219801   3.758   2.869   4.862
 6615TIP3    H119802   3.848   2.854   4.831
 6615TIP3    H219803   3.766   2.943   4.923
 6616TIP3   OH219804   5.591   3.340   4.922
 6616TIP3    H119805   5.597   3.245   4.932
 6616TIP3    H219806   5.511   3.364   4.969
 6617TIP3   OH219807   4.696   3.117   5.050
 6617TIP3    H119808   4.690   3.209   5.078
 6617TIP3    H219809   4.628   3.072   5.100
 6618TIP3   OH219810   4.473   3.233   3.997
 6618TIP3    H119811   4.433   3.205   3.915
 6618TIP3    H219812   4.425   3.312   4.022
 6619TIP3   OH219813   3.912   3.089   4.385
 6619TIP3    H119814   3.953   3.079   4.470
 6619TIP3    H219815   3.864   3.007   4.372
 6620TIP3   OH219816   4.673   3.145   3.635
 6620TIP3    H119817   4.722   3.073   3.595
 6620TIP3    H219818   4.710   3.155   3.722
 6621TIP3   OH219819   4.728   3.194   3.905
 6621TIP3    H119820   4.640   3.204   3.942
 6621TIP3    H219821   4.778   3.151   3.975
 6622TIP3   OH219822   5.481   2.454   5.194
 6622TIP3    H119823   5.398   2.464   5.147
 6622TIP3    H219824   5.499   2.360   5.191
 6623TIP3   OH219825   4.087   2.873   5.198
 6623TIP3    H119826   4.138   2.859   5.278
 6623TIP3    H219827   4.016   2.810   5.204
 6624TIP3   OH219828   4.476   1.688   5.007
 6624TIP3    H119829   4.393   1.655   4.973
 6624TIP3    H219830   4.453   1.769   5.054
 6625TIP3   OH219831   5.016   1.802   5.203
 6625TIP3    H119832   5.085   1.780   5.266
 6625TIP3    H219833   4.935   1.787   5.251
 6626TIP3   OH219834   5.241   2.232   5.119
 6626TIP3    H119835   5.198   2.228   5.204
 6626TIP3    H219836   5.223   2.320   5.087
 6627TIP3   OH219837   4.914   2.318   3.654
 6627TIP3    H119838   4.865   2.331   3.573
 6627TIP3    H219839   4.997   2.362   3.640
 6628TIP3   OH219840   4.627   1.724   3.973
 6628TIP3    H119841   4.591   1.732   4.061
 6628TIP3    H219842   4.586   1.645   3.937
 6629TIP3   OH219843   4.415   2.213   5.018
 6629TIP3    H119844   4.366   2.222   5.100
 6629TIP3    H219845   4.395   2.293   4.970
 6630TIP3   OH219846   4.288   2.098   4.535
 6630TIP3    H119847   4.198   2.073   4.558
 6630TIP3    H219848   4.301   2.063   4.448
 6631TIP3   OH219849   4.779   2.175   4.263
 6631TIP3    H119850   4.729   2.246   4.222
 6631TIP3    H219851   4.835   2.142   4.193
 6632TIP3   OH219852   4.961   2.441   5.341
 6632TIP3    H119853   4.933   2.373   5.401
 6632TIP3    H219854   5.053   2.455   5.361
 6633TIP3   OH219855   4.942   2.190   4.490
 6633TIP3    H119856   4.875   2.216   4.426
 6633TIP3    H219857   4.986   2.115   4.450
 6634TIP3   OH219858   4.246   2.233   5.234
 6634TIP3    H119859   4.258   2.297   5.304
 6634TIP3    H219860   4.226   2.151   5.280
 6635TIP3   OH219861   4.287   1.713   3.946
 6635TIP3    H119862   4.279   1.718   4.041
 6635TIP3    H219863   4.211   1.760   3.912
 6636TIP3   OH219864   3.819   1.754   4.838
 6636TIP3    H119865   3.901   1.789   4.872
 6636TIP3    H219866   3.836   1.736   4.746
 6637TIP3   OH219867   3.782   1.749   4.320
 6637TIP3    H119868   3.822   1.794   4.246
 6637TIP3    H219869   3.708   1.804   4.345
 6638TIP3   OH219870   4.976   2.440   4.917
 6638TIP3    H119871   5.003   2.373   4.853
 6638TIP3    H219872   4.935   2.390   4.987
 6639TIP3   OH219873   4.654   1.890   4.588
 6639TIP3    H119874   4.573   1.892   4.640
 6639TIP3    H219875   4.724   1.886   4.653
 6640TIP3   OH219876   4.050   1.971   4.594
 6640TIP3    H119877   3.960   1.978   4.562
 6640TIP3    H219878   4.074   1.880   4.576
 6641TIP3   OH219879   4.317   1.972   4.295
 6641TIP3    H119880   4.410   1.985   4.279
 6641TIP3    H219881   4.275   1.989   4.211
 6642TIP3   OH219882   5.112   1.978   4.796
 6642TIP3    H119883   5.092   1.996   4.888
 6642TIP3    H219884   5.042   1.919   4.767
 6643TIP3   OH219885   4.191   1.990   4.055
 6643TIP3    H119886   4.112   1.957   4.013
 6643TIP3    H219887   4.240   2.034   3.985
 6644TIP3   OH219888   5.301   3.680   5.019
 6644TIP3    H119889   5.296   3.698   4.925
 6644TIP3    H219890   5.379   3.726   5.048
 6645TIP3   OH219891   4.245   2.789   5.431
 6645TIP3    H119892   4.325   2.811   5.478
 6645TIP3    H219893   4.176   2.795   5.497
 6646TIP3   OH219894   4.705   2.254   4.694
 6646TIP3    H119895   4.771   2.205   4.645
 6646TIP3    H219896   4.704   2.213   4.781
 6647TIP3   OH219897   4.209   1.723   4.578
 6647TIP3    H119898   4.175   1.649   4.629
 6647TIP3    H219899   4.222   1.688   4.490
 6648TIP3   OH219900   4.681   2.156   4.963
 6648TIP3    H119901   4.593   2.187   4.985
 6648TIP3    H219902   4.740   2.210   5.017
 6649TIP3   OH219903   4.417   2.522   4.083
 6649TIP3    H119904   4.348   2.459   4.066
 6649TIP3    H219905   4.394   2.560   4.168
 6650TIP3   OH219906   5.306   2.768   4.684
 6650TIP3    H119907   5.339   2.817   4.609
 6650TIP3    H219908   5.225   2.727   4.653
 6651TIP3   OH219909   4.878   1.830   3.970
 6651TIP3    H119910   4.785   1.809   3.968
 6651TIP3    H219911   4.881   1.925   3.984
 6652TIP3   OH219912   4.820   2.851   5.084
 6652TIP3    H119913   4.865   2.842   5.168
 6652TIP3    H219914   4.779   2.937   5.088
 6653TIP3   OH219915   4.939   2.093   4.045
 6653TIP3    H119916   5.033   2.100   4.055
 6653TIP3    H219917   4.914   2.170   3.994
 6654TIP3   OH219918   4.118   2.559   4.731
 6654TIP3    H119919   4.141   2.527   4.644
 6654TIP3    H219920   4.173   2.509   4.790
 6655TIP3   OH219921   4.566   2.675   3.914
 6655TIP3    H119922   4.521   2.759   3.912
 6655TIP3    H219923   4.511   2.620   3.969
 6656TIP3   OH219924   3.988   2.459   5.358
 6656TIP3    H119925   3.991   2.435   5.451
 6656TIP3    H219926   3.914   2.410   5.323
 6657TIP3   OH219927   4.725   2.593   5.379
 6657TIP3    H119928   4.657   2.534   5.347
 6657TIP3    H219929   4.807   2.554   5.349
 6658TIP3   OH219930   4.968   3.133   4.973
 6658TIP3    H119931   4.873   3.120   4.979
 6658TIP3    H219932   4.992   3.173   5.056
 6659TIP3   OH219933   5.363   2.179   3.871
 6659TIP3    H119934   5.308   2.134   3.807
 6659TIP3    H219935   5.366   2.270   3.840
 6660TIP3   OH219936   5.607   3.061   4.947
 6660TIP3    H119937   5.512   3.045   4.945
 6660TIP3    H219938   5.638   3.027   4.863
 6661TIP3   OH219939   5.097   2.996   3.793
 6661TIP3    H119940   5.055   2.928   3.846
 6661TIP3    H219941   5.102   2.958   3.706
 6662TIP3   OH219942   5.075   2.633   4.586
 6662TIP3    H119943   4.985   2.610   4.608
 6662TIP3    H219944   5.111   2.554   4.546
 6663TIP3   OH219945   4.217   2.869   4.389
 6663TIP3    H119946   4.219   2.948   4.334
 6663TIP3    H219947   4.124   2.845   4.393
 6664TIP3   OH219948   4.332   2.625   4.319
 6664TIP3    H119949   4.304   2.714   4.341
 6664TIP3    H219950   4.289   2.570   4.385
 6665TIP3   OH219951   4.504   3.194   4.846
 6665TIP3    H119952   4.540   3.266   4.795
 6665TIP3    H219953   4.579   3.158   4.894
 6666TIP3   OH219954   4.145   3.104   4.238
 6666TIP3    H119955   4.058   3.109   4.277
 6666TIP3    H219956   4.177   3.194   4.239
 6667TIP3   OH219957   4.861   2.848   4.811
 6667TIP3    H119958   4.851   2.843   4.907
 6667TIP3    H219959   4.931   2.786   4.792
 6668TIP3   OH219960   4.843   2.758   3.704
 6668TIP3    H119961   4.899   2.723   3.774
 6668TIP3    H219962   4.761   2.710   3.714
 6669TIP3   OH219963   5.118   3.357   4.857
 6669TIP3    H119964   5.045   3.296   4.867
 6669TIP3    H219965   5.091   3.415   4.785
 6670TIP3   OH219966   5.178   3.207   3.494
 6670TIP3    H119967   5.210   3.277   3.437
 6670TIP3    H219968   5.101   3.245   3.538
 6671TIP3   OH219969   4.194   1.980   5.360
 6671TIP3    H119970   4.099   1.988   5.363
 6671TIP3    H219971   4.217   1.927   5.436
 6672TIP3   OH219972   5.020   2.669   3.902
 6672TIP3    H119973   5.007   2.599   3.966
 6672TIP3    H219974   5.115   2.670   3.887
 6673TIP3   OH219975   3.924   3.071   5.013
 6673TIP3    H119976   3.979   3.005   5.054
 6673TIP3    H219977   3.948   3.153   5.058
 6674TIP3   OH219978   4.199   2.702   3.694
 6674TIP3    H119979   4.213   2.611   3.670
 6674TIP3    H219980   4.182   2.700   3.788
 6675TIP3   OH219981   4.152   2.722   3.965
 6675TIP3    H119982   4.218   2.687   4.025
 6675TIP3    H219983   4.158   2.817   3.977
 6676TIP3   OH219984   5.050   2.036   5.057
 6676TIP3    H119985   5.126   2.081   5.094
 6676TIP3    H219986   5.039   1.959   5.113
 6677TIP3   OH219987   4.935   1.782   4.241
 6677TIP3    H119988   4.913   1.801   4.149
 6677TIP3    H219989   4.976   1.862   4.272
 6678TIP3   OH219990   4.429   2.910   3.914
 6678TIP3    H119991   4.343   2.935   3.947
 6678TIP3    H219992   4.446   2.971   3.842
 6679TIP3   OH219993   4.598   1.977   4.329
 6679TIP3    H119994   4.659   2.048   4.306
 6679TIP3    H219995   4.616   1.961   4.422
 6680TIP3   OH219996   4.885   2.275   5.118
 6680TIP3    H119997   4.909   2.321   5.198
 6680TIP3    H219998   4.936   2.194   5.120
 6681TIP3   OH219999   4.750   1.682   4.424
 6681TIP3    H120000   4.726   1.759   4.474
 6681TIP3    H220001   4.817   1.714   4.363
 6682TIP3   OH220002   4.177   2.996   3.986
 6682TIP3    H120003   4.151   3.064   3.925
 6682TIP3    H220004   4.163   3.034   4.073
 6683TIP3   OH220005   4.265   1.700   4.225
 6683TIP3    H120006   4.252   1.790   4.255
 6683TIP3    H220007   4.360   1.687   4.232
 6684TIP3   OH220008   5.506   2.180   5.106
 6684TIP3    H120009   5.411   2.187   5.117
 6684TIP3    H220010   5.517   2.129   5.026
 6685TIP3   OH220011   5.167   2.377   4.491
 6685TIP3    H120012   5.089   2.323   4.502
 6685TIP3    H220013   5.233   2.335   4.545
 6686TIP3   OH220014   3.889   2.634   3.936
 6686TIP3    H120015   3.972   2.677   3.955
 6686TIP3    H220016   3.914   2.553   3.891
 6687TIP3   OH220017   3.827   1.921   4.108
 6687TIP3    H120018   3.844   2.014   4.118
 6687TIP3    H220019   3.751   1.916   4.050
 6688TIP3   OH220020   5.147   3.351   4.435
 6688TIP3    H120021   5.106   3.404   4.367
 6688TIP3    H220022   5.241   3.361   4.420
 6689TIP3   OH220023   4.216   1.601   4.965
 6689TIP3    H120024   4.186   1.572   4.879
 6689TIP3    H220025   4.203   1.526   5.022
 6690TIP3   OH220026   3.767   2.855   4.348
 6690TIP3    H120027   3.698   2.853   4.414
 6690TIP3    H220028   3.724   2.887   4.268
 6691TIP3   OH220029   3.930   3.388   5.427
 6691TIP3    H120030   4.013   3.391   5.474
 6691TIP3    H220031   3.912   3.295   5.416
 6692TIP3   OH220032   4.398   3.308   5.468
 6692TIP3    H120033   4.490   3.283   5.476
 6692TIP3    H220034   4.365   3.253   5.397
 6693TIP3   OH220035   4.354   2.910   3.602
 6693TIP3    H120036   4.307   2.835   3.638
 6693TIP3    H220037   4.430   2.872   3.557
 6694TIP3   OH220038   5.022   3.243   5.219
 6694TIP3    H120039   5.031   3.172   5.283
 6694TIP3    H220040   5.097   3.300   5.235
 6695TIP3   OH220041   4.809   2.945   3.509
 6695TIP3    H120042   4.834   2.878   3.573
 6695TIP3    H220043   4.874   2.934   3.438
 6696TIP3   OH220044   4.038   2.786   5.619
 6696TIP3    H120045   4.057   2.693   5.629
 6696TIP3    H220046   3.952   2.789   5.577
 6697TIP3   OH220047   4.000   2.412   3.811
 6697TIP3    H120048   4.014   2.364   3.893
 6697TIP3    H220049   4.086   2.415   3.770
 6698TIP3   OH220050   4.656   2.870   5.396
 6698TIP3    H120051   4.612   2.891   5.313
 6698TIP3    H220052   4.690   2.782   5.382
 6699TIP3   OH220053   4.569   2.616   3.643
 6699TIP3    H120054   4.556   2.627   3.737
 6699TIP3    H220055   4.557   2.522   3.628
 6700TIP3   OH220056   5.138   2.908   5.014
 6700TIP3    H120057   5.215   2.937   4.965
 6700TIP3    H220058   5.071   2.973   4.995
 6701TIP3   OH220059   4.155   2.531   5.622
 6701TIP3    H120060   4.230   2.511   5.566
 6701TIP3    H220061   4.194   2.551   5.707
 6702TIP3   OH220062   4.227   2.331   4.047
 6702TIP3    H120063   4.171   2.295   4.115
 6702TIP3    H220064   4.255   2.255   3.996
 6703TIP3   OH220065   4.516   2.414   5.283
 6703TIP3    H120066   4.431   2.456   5.290
 6703TIP3    H220067   4.549   2.442   5.197
 6704TIP3   OH220068   4.337   2.136   3.873
 6704TIP3    H120069   4.306   2.145   3.783
 6704TIP3    H220070   4.431   2.148   3.868
 6705TIP3   OH220071   5.017   2.792   5.378
 6705TIP3    H120072   5.084   2.752   5.323
 6705TIP3    H220073   5.013   2.737   5.456
 6706TIP3   OH220074   5.148   2.432   3.552
 6706TIP3    H120075   5.128   2.388   3.469
 6706TIP3    H220076   5.123   2.523   3.538
 6707TIP3   OH220077   4.621   2.185   5.391
 6707TIP3    H120078   4.623   2.113   5.328
 6707TIP3    H220079   4.586   2.259   5.342
 6708TIP3   OH220080   4.628   1.981   5.190
 6708TIP3    H120081   4.655   2.020   5.107
 6708TIP3    H220082   4.536   1.957   5.177
 6709TIP3   OH220083   4.639   2.512   5.062
 6709TIP3    H120084   4.728   2.541   5.040
 6709TIP3    H220085   4.582   2.573   5.015
 6710TIP3   OH220086   5.227   2.469   5.444
 6710TIP3    H120087   5.269   2.388   5.474
 6710TIP3    H220088   5.299   2.524   5.416
 6711TIP3   OH220089   5.261   2.733   5.182
 6711TIP3    H120090   5.207   2.794   5.131
 6711TIP3    H220091   5.350   2.748   5.150
 6712TIP3   OH220092   4.504   2.275   5.632
 6712TIP3    H120093   4.434   2.212   5.651
 6712TIP3    H220094   4.533   2.252   5.544
 6713TIP3   OH220095   4.750   1.747   5.284
 6713TIP3    H120096   4.709   1.828   5.253
 6713TIP3    H220097   4.683   1.680   5.271
 6714TIP3   OH220098   4.878   2.227   5.490
 6714TIP3    H120099   4.867   2.215   5.585
 6714TIP3    H220100   4.792   2.206   5.454
 6715TIP3   OH220101   5.117   2.177   5.352
 6715TIP3    H120102   5.041   2.179   5.410
 6715TIP3    H220103   5.191   2.153   5.409
 6716TIP3   OH220104   5.358   2.137   5.495
 6716TIP3    H120105   5.371   2.044   5.510
 6716TIP3    H220106   5.349   2.175   5.582
 6717TIP3   OH220107   4.337   2.054   5.695
 6717TIP3    H120108   4.343   1.965   5.658
 6717TIP3    H220109   4.377   2.046   5.782
 6718TIP3   OH220110   4.823   1.734   5.549
 6718TIP3    H120111   4.892   1.668   5.543
 6718TIP3    H220112   4.790   1.742   5.460
 6719TIP3   OH220113   4.913   1.951   5.694
 6719TIP3    H120114   4.884   1.880   5.637
 6719TIP3    H220115   4.840   2.013   5.694
 6720TIP3   OH220116   4.158   3.205   3.802
 6720TIP3    H120117   4.249   3.187   3.778
 6720TIP3    H220118   4.120   3.246   3.724
 6721TIP3   OH220119   3.620   2.599   3.948
 6721TIP3    H120120   3.713   2.618   3.961
 6721TIP3    H220121   3.618   2.506   3.924
 6722TIP3   OH220122   3.519   3.162   4.441
 6722TIP3    H120123   3.459   3.104   4.395
 6722TIP3    H220124   3.568   3.105   4.500
 6723TIP3   OH220125   3.662   3.013   4.623
 6723TIP3    H120126   3.657   2.942   4.686
 6723TIP3    H220127   3.718   3.078   4.665
 6724TIP3   OH220128   5.417   3.404   4.418
 6724TIP3    H120129   5.440   3.435   4.505
 6724TIP3    H220130   5.476   3.450   4.359
 6725TIP3   OH220131   5.436   3.435   4.699
 6725TIP3    H120132   5.387   3.354   4.692
 6725TIP3    H220133   5.505   3.416   4.763
 6726TIP3   OH220134   5.480   3.133   5.271
 6726TIP3    H120135   5.409   3.140   5.335
 6726TIP3    H220136   5.525   3.217   5.275
 6727TIP3   OH220137   5.300   2.646   3.885
 6727TIP3    H120138   5.358   2.717   3.857
 6727TIP3    H220139   5.344   2.608   3.961
 6728TIP3   OH220140   5.428   2.503   4.085
 6728TIP3    H120141   5.360   2.464   4.140
 6728TIP3    H220142   5.492   2.538   4.147
 6729TIP3   OH220143   5.482   2.906   4.516
 6729TIP3    H120144   5.534   2.837   4.474
 6729TIP3    H220145   5.480   2.977   4.452
 6730TIP3   OH220146   5.293   3.196   4.708
 6730TIP3    H120147   5.224   3.239   4.759
 6730TIP3    H220148   5.246   3.154   4.636
 6731TIP3   OH220149   5.349   2.419   3.737
 6731TIP3    H120150   5.278   2.415   3.673
 6731TIP3    H220151   5.330   2.497   3.789
 6732TIP3   OH220152   5.218   2.077   3.663
 6732TIP3    H120153   5.165   2.117   3.594
 6732TIP3    H220154   5.202   1.983   3.655
 6733TIP3   OH220155   5.229   2.365   4.222
 6733TIP3    H120156   5.233   2.270   4.210
 6733TIP3    H220157   5.211   2.376   4.315
 6734TIP3   OH220158   3.856   2.429   4.989
 6734TIP3    H120159   3.846   2.396   4.899
 6734TIP3    H220160   3.951   2.430   5.003
 6735TIP3   OH220161   5.516   2.785   5.082
 6735TIP3    H120162   5.583   2.719   5.066
 6735TIP3    H220163   5.523   2.846   5.009
 6736TIP3   OH220164   5.695   2.576   5.075
 6736TIP3    H120165   5.620   2.535   5.119
 6736TIP3    H220166   5.769   2.520   5.097
 6737TIP3   OH220167   5.162   1.810   3.648
 6737TIP3    H120168   5.226   1.779   3.712
 6737TIP3    H220169   5.081   1.767   3.673
 6738TIP3   OH220170   5.229   2.089   4.108
 6738TIP3    H120171   5.272   2.005   4.121
 6738TIP3    H220172   5.273   2.128   4.033
 6739TIP3   OH220173   5.382   2.250   4.627
 6739TIP3    H120174   5.463   2.269   4.579
 6739TIP3    H220175   5.395   2.291   4.713
 6740TIP3   OH220176   5.455   2.404   4.853
 6740TIP3    H120177   5.382   2.433   4.906
 6740TIP3    H220178   5.487   2.483   4.810
 6741TIP3   OH220179   4.072   2.112   5.642
 6741TIP3    H120180   4.167   2.108   5.656
 6741TIP3    H220181   4.039   2.031   5.679
 6742TIP3   OH220182   5.916   2.003   5.398
 6742TIP3    H120183   5.977   1.944   5.355
 6742TIP3    H220184   5.877   2.054   5.328
 6743TIP3   OH220185   5.342   1.838   4.157
 6743TIP3    H120186   5.386   1.822   4.241
 6743TIP3    H220187   5.278   1.766   4.150
 6744TIP3   OH220188   4.047   1.822   4.988
 6744TIP3    H120189   4.102   1.744   4.989
 6744TIP3    H220190   4.108   1.894   4.968
 6745TIP3   OH220191   3.831   2.089   5.049
 6745TIP3    H120192   3.880   2.073   4.968
 6745TIP3    H220193   3.852   2.179   5.073
 6746TIP3   OH220194   5.768   2.123   5.204
 6746TIP3    H120195   5.688   2.164   5.235
 6746TIP3    H220196   5.738   2.052   5.147
 6747TIP3   OH220197   5.396   1.756   3.798
 6747TIP3    H120198   5.440   1.694   3.740
 6747TIP3    H220199   5.453   1.832   3.799
 6748TIP3   OH220200   3.818   1.649   4.579
 6748TIP3    H120201   3.732   1.609   4.587
 6748TIP3    H220202   3.822   1.680   4.489
 6749TIP3   OH220203   4.986   3.313   4.066
 6749TIP3    H120204   5.031   3.294   3.984
 6749TIP3    H220205   5.041   3.378   4.110
 6750TIP3   OH220206   4.039   1.652   5.367
 6750TIP3    H120207   3.989   1.651   5.448
 6750TIP3    H220208   3.984   1.701   5.305
 6751TIP3   OH220209   4.070   3.109   5.441
 6751TIP3    H120210   3.978   3.088   5.431
 6751TIP3    H220211   4.089   3.091   5.533
 6752TIP3   OH220212   4.274   3.153   4.993
 6752TIP3    H120213   4.222   3.225   4.959
 6752TIP3    H220214   4.359   3.161   4.950
 6753TIP3   OH220215   4.685   3.384   5.131
 6753TIP3    H120216   4.724   3.378   5.218
 6753TIP3    H220217   4.747   3.438   5.081
 6754TIP3   OH220218   4.872   3.541   4.999
 6754TIP3    H120219   4.933   3.487   4.949
 6754TIP3    H220220   4.928   3.595   5.054
 6755TIP3   OH220221   5.675   1.880   5.089
 6755TIP3    H120222   5.588   1.877   5.049
 6755TIP3    H220223   5.708   1.791   5.083
 6756TIP3   OH220224   3.938   3.406   5.036
 6756TIP3    H120225   3.847   3.426   5.015
 6756TIP3    H220226   3.962   3.468   5.104
 6757TIP3   OH220227   4.167   3.382   4.883
 6757TIP3    H120228   4.084   3.391   4.930
 6757TIP3    H220229   4.147   3.408   4.793
 6758TIP3   OH220230   4.588   3.399   4.677
 6758TIP3    H120231   4.517   3.408   4.614
 6758TIP3    H220232   4.597   3.486   4.716
 6759TIP3   OH220233   4.854   3.341   4.733
 6759TIP3    H120234   4.762   3.355   4.711
 6759TIP3    H220235   4.902   3.405   4.680
 6760TIP3   OH220236   5.063   3.521   4.636
 6760TIP3    H120237   5.052   3.606   4.593
 6760TIP3    H220238   5.091   3.462   4.565
 6761TIP3   OH220239   3.846   3.179   4.769
 6761TIP3    H120240   3.874   3.149   4.855
 6761TIP3    H220241   3.914   3.149   4.709
 6762TIP3   OH220242   4.048   3.070   4.625
 6762TIP3    H120243   4.060   2.985   4.667
 6762TIP3    H220244   4.136   3.108   4.622
 6763TIP3   OH220245   4.319   3.149   4.639
 6763TIP3    H120246   4.337   3.056   4.622
 6763TIP3    H220247   4.372   3.170   4.716
 6764TIP3   OH220248   4.887   1.804   4.728
 6764TIP3    H120249   4.846   1.731   4.776
 6764TIP3    H220250   4.954   1.762   4.674
 6765TIP3   OH220251   5.388   1.702   4.614
 6765TIP3    H120252   5.425   1.752   4.542
 6765TIP3    H220253   5.295   1.727   4.616
 6766TIP3   OH220254   5.500   1.784   4.379
 6766TIP3    H120255   5.570   1.726   4.349
 6766TIP3    H220256   5.536   1.872   4.366
 6767TIP3   OH220257   4.128   1.501   4.724
 6767TIP3    H120258   4.036   1.473   4.727
 6767TIP3    H220259   4.177   1.419   4.714
 6768TIP3   OH220260   3.967   1.397   4.371
 6768TIP3    H120261   3.990   1.444   4.291
 6768TIP3    H220262   3.887   1.440   4.402
 6769TIP3   OH220263   4.601   1.535   4.616
 6769TIP3    H120264   4.645   1.585   4.547
 6769TIP3    H220265   4.635   1.571   4.698
 6770TIP3   OH220266   5.101   1.689   4.593
 6770TIP3    H120267   5.105   1.657   4.503
 6770TIP3    H220268   5.102   1.610   4.648
 6771TIP3   OH220269   5.155   1.628   4.160
 6771TIP3    H120270   5.075   1.676   4.182
 6771TIP3    H220271   5.143   1.542   4.199
 6772TIP3   OH220272   3.634   2.966   4.135
 6772TIP3    H120273   3.553   2.922   4.110
 6772TIP3    H220274   3.622   3.057   4.107
 6773TIP3   OH220275   4.055   1.533   4.138
 6773TIP3    H120276   4.100   1.477   4.075
 6773TIP3    H220277   4.123   1.591   4.172
 6774TIP3   OH220278   4.541   1.727   4.236
 6774TIP3    H120279   4.599   1.677   4.293
 6774TIP3    H220280   4.555   1.818   4.262
 6775TIP3   OH220281   4.416   3.138   3.734
 6775TIP3    H120282   4.501   3.160   3.697
 6775TIP3    H220283   4.383   3.066   3.680
 6776TIP3   OH220284   5.126   3.264   3.832
 6776TIP3    H120285   5.121   3.169   3.822
 6776TIP3    H220286   5.082   3.298   3.754
 6777TIP3   OH220287   4.346   1.780   5.608
 6777TIP3    H120288   4.310   1.713   5.667
 6777TIP3    H220289   4.438   1.786   5.633
 6778TIP3   OH220290   4.596   1.785   5.728
 6778TIP3    H120291   4.676   1.765   5.679
 6778TIP3    H220292   4.590   1.715   5.793
 6779TIP3   OH220293   3.728   2.969   3.800
 6779TIP3    H120294   3.726   2.953   3.894
 6779TIP3    H220295   3.807   2.925   3.770
 6780TIP3   OH220296   5.421   1.867   5.521
 6780TIP3    H120297   5.436   1.840   5.612
 6780TIP3    H220298   5.507   1.862   5.480
 6781TIP3   OH220299   5.341   3.406   5.021
 6781TIP3    H120300   5.266   3.375   4.970
 6781TIP3    H220301   5.326   3.500   5.030
 6782TIP3   OH220302   6.617   2.794   3.769
 6782TIP3    H120303   6.586   2.881   3.742
 6782TIP3    H220304   6.547   2.734   3.742
 6783TIP3   OH220305   6.616   2.785   4.186
 6783TIP3    H120306   6.668   2.764   4.264
 6783TIP3    H220307   6.574   2.702   4.162
 6784TIP3   OH220308   5.916   2.657   4.531
 6784TIP3    H120309   5.949   2.601   4.601
 6784TIP3    H220310   5.993   2.680   4.480
 6785TIP3   OH220311   6.877   3.094   3.855
 6785TIP3    H120312   6.863   3.025   3.919
 6785TIP3    H220313   6.901   3.171   3.906
 6786TIP3   OH220314   5.904   3.085   4.234
 6786TIP3    H120315   5.887   2.991   4.238
 6786TIP3    H220316   5.998   3.092   4.220
 6787TIP3   OH220317   5.590   2.282   4.011
 6787TIP3    H120318   5.549   2.365   4.035
 6787TIP3    H220319   5.519   2.230   3.972
 6788TIP3   OH220320   5.658   2.579   4.224
 6788TIP3    H120321   5.709   2.503   4.251
 6788TIP3    H220322   5.722   2.635   4.179
 6789TIP3   OH220323   6.533   3.529   3.866
 6789TIP3    H120324   6.562   3.460   3.807
 6789TIP3    H220325   6.518   3.484   3.949
 6790TIP3   OH220326   6.417   3.009   4.194
 6790TIP3    H120327   6.458   2.928   4.162
 6790TIP3    H220328   6.491   3.063   4.222
 6791TIP3   OH220329   7.441   2.323   4.204
 6791TIP3    H120330   7.455   2.413   4.233
 6791TIP3    H220331   7.469   2.323   4.112
 6792TIP3   OH220332   6.842   2.495   4.233
 6792TIP3    H120333   6.896   2.418   4.253
 6792TIP3    H220334   6.800   2.473   4.149
 6793TIP3   OH220335   6.169   2.159   4.197
 6793TIP3    H120336   6.153   2.231   4.135
 6793TIP3    H220337   6.119   2.086   4.160
 6794TIP3   OH220338   6.868   2.254   3.819
 6794TIP3    H120339   6.933   2.243   3.888
 6794TIP3    H220340   6.917   2.288   3.744
 6795TIP3   OH220341   5.805   2.365   4.316
 6795TIP3    H120342   5.887   2.348   4.361
 6795TIP3    H220343   5.811   2.314   4.235
 6796TIP3   OH220344   6.232   2.567   4.130
 6796TIP3    H120345   6.326   2.551   4.137
 6796TIP3    H220346   6.196   2.485   4.094
 6797TIP3   OH220347   7.501   2.546   4.377
 6797TIP3    H120348   7.416   2.583   4.356
 6797TIP3    H220349   7.513   2.565   4.470
 6798TIP3   OH220350   6.163   2.156   4.642
 6798TIP3    H120351   6.113   2.191   4.569
 6798TIP3    H220352   6.108   2.173   4.719
 6799TIP3   OH220353   6.503   3.007   3.636
 6799TIP3    H120354   6.467   2.984   3.550
 6799TIP3    H220355   6.454   3.085   3.662
 6800TIP3   OH220356   6.263   2.933   4.411
 6800TIP3    H120357   6.207   3.003   4.445
 6800TIP3    H220358   6.309   2.973   4.337
 6801TIP3   OH220359   7.066   2.270   4.002
 6801TIP3    H120360   7.135   2.210   3.974
 6801TIP3    H220361   7.113   2.342   4.044
 6802TIP3   OH220362   6.047   2.266   4.417
 6802TIP3    H120363   6.104   2.340   4.439
 6802TIP3    H220364   6.091   2.224   4.344
 6803TIP3   OH220365   6.102   3.134   4.515
 6803TIP3    H120366   6.084   3.222   4.481
 6803TIP3    H220367   6.025   3.112   4.567
 6804TIP3   OH220368   5.482   2.831   3.775
 6804TIP3    H120369   5.443   2.845   3.689
 6804TIP3    H220370   5.504   2.919   3.806
 6805TIP3   OH220371   6.924   3.339   4.002
 6805TIP3    H120372   6.837   3.330   4.042
 6805TIP3    H220373   6.920   3.423   3.956
 6806TIP3   OH220374   7.235   2.228   4.377
 6806TIP3    H120375   7.146   2.245   4.348
 6806TIP3    H220376   7.290   2.252   4.303
 6807TIP3   OH220377   6.504   1.849   4.363
 6807TIP3    H120378   6.497   1.757   4.388
 6807TIP3    H220379   6.429   1.892   4.405
 6808TIP3   OH220380   6.626   3.371   3.654
 6808TIP3    H120381   6.675   3.289   3.646
 6808TIP3    H220382   6.688   3.439   3.626
 6809TIP3   OH220383   6.783   3.156   3.599
 6809TIP3    H120384   6.752   3.075   3.559
 6809TIP3    H220385   6.820   3.128   3.683
 6810TIP3   OH220386   7.156   3.230   4.347
 6810TIP3    H120387   7.137   3.155   4.290
 6810TIP3    H220388   7.141   3.307   4.292
 6811TIP3   OH220389   6.445   2.636   3.614
 6811TIP3    H120390   6.364   2.683   3.595
 6811TIP3    H220391   6.491   2.632   3.531
 6812TIP3   OH220392   6.412   2.433   3.311
 6812TIP3    H120393   6.477   2.483   3.360
 6812TIP3    H220394   6.462   2.367   3.264
 6813TIP3   OH220395   7.337   2.892   4.206
 6813TIP3    H120396   7.252   2.936   4.207
 6813TIP3    H220397   7.368   2.902   4.116
 6814TIP3   OH220398   6.797   2.721   3.577
 6814TIP3    H120399   6.744   2.748   3.652
 6814TIP3    H220400   6.879   2.691   3.615
 6815TIP3   OH220401   7.030   2.752   4.514
 6815TIP3    H120402   7.025   2.834   4.563
 6815TIP3    H220403   6.948   2.747   4.465
 6816TIP3   OH220404   6.029   2.702   3.989
 6816TIP3    H120405   5.992   2.644   3.923
 6816TIP3    H220406   6.102   2.653   4.026
 6817TIP3   OH220407   6.162   3.129   4.124
 6817TIP3    H120408   6.137   3.109   4.034
 6817TIP3    H220409   6.248   3.088   4.134
 6818TIP3   OH220410   6.136   2.695   4.358
 6818TIP3    H120411   6.173   2.659   4.277
 6818TIP3    H220412   6.185   2.775   4.374
 6819TIP3   OH220413   6.689   3.332   4.136
 6819TIP3    H120414   6.674   3.409   4.191
 6819TIP3    H220415   6.674   3.258   4.194
 6820TIP3   OH220416   6.301   3.237   4.678
 6820TIP3    H120417   6.241   3.295   4.725
 6820TIP3    H220418   6.244   3.184   4.622
 6821TIP3   OH220419   6.631   2.582   3.408
 6821TIP3    H120420   6.691   2.638   3.457
 6821TIP3    H220421   6.658   2.592   3.316
 6822TIP3   OH220422   6.056   2.782   4.816
 6822TIP3    H120423   6.060   2.876   4.837
 6822TIP3    H220424   5.962   2.764   4.809
 6823TIP3   OH220425   6.376   3.253   3.675
 6823TIP3    H120426   6.459   3.301   3.674
 6823TIP3    H220427   6.317   3.306   3.621
 6824TIP3   OH220428   6.090   3.397   4.763
 6824TIP3    H120429   6.063   3.403   4.671
 6824TIP3    H220430   6.009   3.378   4.810
 6825TIP3   OH220431   7.144   1.809   3.464
 6825TIP3    H120432   7.069   1.828   3.520
 6825TIP3    H220433   7.156   1.888   3.412
 6826TIP3   OH220434   5.902   2.548   3.786
 6826TIP3    H120435   5.826   2.595   3.752
 6826TIP3    H220436   5.871   2.459   3.803
 6827TIP3   OH220437   6.963   3.192   3.020
 6827TIP3    H120438   6.962   3.278   2.979
 6827TIP3    H220439   7.052   3.159   3.005
 6828TIP3   OH220440   5.682   2.946   4.712
 6828TIP3    H120441   5.613   2.929   4.647
 6828TIP3    H220442   5.716   2.859   4.733
 6829TIP3   OH220443   5.531   3.135   4.353
 6829TIP3    H120444   5.626   3.146   4.355
 6829TIP3    H220445   5.496   3.213   4.395
 6830TIP3   OH220446   7.385   3.599   4.407
 6830TIP3    H120447   7.392   3.504   4.416
 6830TIP3    H220448   7.306   3.622   4.455
 6831TIP3   OH220449   6.491   3.375   4.536
 6831TIP3    H120450   6.485   3.466   4.565
 6831TIP3    H220451   6.423   3.329   4.586
 6832TIP3   OH220452   6.270   3.483   3.488
 6832TIP3    H120453   6.220   3.462   3.409
 6832TIP3    H220454   6.231   3.564   3.520
 6833TIP3   OH220455   5.703   3.333   3.870
 6833TIP3    H120456   5.746   3.325   3.956
 6833TIP3    H220457   5.652   3.252   3.861
 6834TIP3   OH220458   6.475   3.406   3.121
 6834TIP3    H120459   6.523   3.332   3.082
 6834TIP3    H220460   6.505   3.410   3.211
 6835TIP3   OH220461   6.522   3.439   3.394
 6835TIP3    H120462   6.433   3.447   3.429
 6835TIP3    H220463   6.571   3.398   3.465
 6836TIP3   OH220464   7.273   2.706   4.674
 6836TIP3    H120465   7.192   2.718   4.625
 6836TIP3    H220466   7.291   2.612   4.669
 6837TIP3   OH220467   5.884   3.130   4.684
 6837TIP3    H120468   5.934   3.117   4.765
 6837TIP3    H220469   5.812   3.068   4.690
 6838TIP3   OH220470   6.270   1.942   4.495
 6838TIP3    H120471   6.187   1.911   4.460
 6838TIP3    H220472   6.248   2.023   4.541
 6839TIP3   OH220473   6.810   2.061   4.690
 6839TIP3    H120474   6.879   2.036   4.751
 6839TIP3    H220475   6.729   2.043   4.737
 6840TIP3   OH220476   7.036   2.487   4.610
 6840TIP3    H120477   6.994   2.486   4.696
 6840TIP3    H220478   7.016   2.574   4.575
 6841TIP3   OH220479   6.710   2.590   3.147
 6841TIP3    H120480   6.669   2.581   3.061
 6841TIP3    H220481   6.794   2.632   3.130
 6842TIP3   OH220482   6.420   1.989   3.465
 6842TIP3    H120483   6.389   1.993   3.556
 6842TIP3    H220484   6.383   1.908   3.431
 6843TIP3   OH220485   6.208   2.473   4.507
 6843TIP3    H120486   6.160   2.482   4.589
 6843TIP3    H220487   6.189   2.553   4.459
 6844TIP3   OH220488   6.088   2.355   4.022
 6844TIP3    H120489   5.999   2.329   4.045
 6844TIP3    H220490   6.101   2.319   3.934
 6845TIP3   OH220491   6.573   2.433   3.751
 6845TIP3    H120492   6.526   2.504   3.708
 6845TIP3    H220493   6.632   2.399   3.683
 6846TIP3   OH220494   6.752   2.700   4.828
 6846TIP3    H120495   6.726   2.630   4.888
 6846TIP3    H220496   6.845   2.715   4.847
 6847TIP3   OH220497   6.740   2.446   3.978
 6847TIP3    H120498   6.672   2.470   3.915
 6847TIP3    H220499   6.783   2.369   3.940
 6848TIP3   OH220500   6.039   2.490   4.722
 6848TIP3    H120501   6.053   2.553   4.793
 6848TIP3    H220502   6.020   2.407   4.768
 6849TIP3   OH220503   6.084   1.973   3.436
 6849TIP3    H120504   6.075   1.974   3.531
 6849TIP3    H220505   6.006   2.018   3.404
 6850TIP3   OH220506   5.630   2.008   4.303
 6850TIP3    H120507   5.702   2.044   4.355
 6850TIP3    H220508   5.669   1.988   4.218
 6851TIP3   OH220509   5.556   1.986   3.810
 6851TIP3    H120510   5.601   2.021   3.734
 6851TIP3    H220511   5.493   2.054   3.835
 6852TIP3   OH220512   6.775   2.696   4.401
 6852TIP3    H120513   6.802   2.628   4.338
 6852TIP3    H220514   6.732   2.647   4.471
 6853TIP3   OH220515   6.427   2.203   4.086
 6853TIP3    H120516   6.353   2.181   4.142
 6853TIP3    H220517   6.499   2.148   4.117
 6854TIP3   OH220518   5.851   2.227   4.083
 6854TIP3    H120519   5.762   2.232   4.048
 6854TIP3    H220520   5.879   2.138   4.064
 6855TIP3   OH220521   6.104   2.227   3.778
 6855TIP3    H120522   6.199   2.239   3.767
 6855TIP3    H220523   6.067   2.247   3.693
 6856TIP3   OH220524   6.959   2.247   4.308
 6856TIP3    H120525   6.891   2.246   4.375
 6856TIP3    H220526   6.934   2.179   4.246
 6857TIP3   OH220527   5.981   2.258   3.535
 6857TIP3    H120528   5.916   2.210   3.483
 6857TIP3    H220529   6.037   2.300   3.469
 6858TIP3   OH220530   7.096   3.938   4.506
 6858TIP3    H120531   7.094   3.952   4.411
 6858TIP3    H220532   7.175   3.984   4.535
 6859TIP3   OH220533   6.042   3.047   4.917
 6859TIP3    H120534   6.122   3.068   4.965
 6859TIP3    H220535   5.972   3.052   4.983
 6860TIP3   OH220536   6.504   2.513   4.184
 6860TIP3    H120537   6.554   2.455   4.127
 6860TIP3    H220538   6.501   2.468   4.268
 6861TIP3   OH220539   5.997   1.980   4.065
 6861TIP3    H120540   5.968   1.904   4.115
 6861TIP3    H220541   6.033   1.943   3.984
 6862TIP3   OH220542   6.473   2.410   4.452
 6862TIP3    H120543   6.385   2.442   4.473
 6862TIP3    H220544   6.532   2.466   4.503
 6863TIP3   OH220545   6.208   2.778   3.561
 6863TIP3    H120546   6.137   2.716   3.542
 6863TIP3    H220547   6.185   2.815   3.646
 6864TIP3   OH220548   7.099   3.027   4.170
 6864TIP3    H120549   7.130   3.075   4.094
 6864TIP3    H220550   7.019   2.983   4.139
 6865TIP3   OH220551   6.670   2.095   3.443
 6865TIP3    H120552   6.577   2.073   3.450
 6865TIP3    H220553   6.674   2.188   3.466
 6866TIP3   OH220554   6.619   3.111   4.568
 6866TIP3    H120555   6.660   3.098   4.653
 6866TIP3    H220556   6.575   3.196   4.575
 6867TIP3   OH220557   6.734   2.351   3.533
 6867TIP3    H120558   6.829   2.353   3.542
 6867TIP3    H220559   6.714   2.429   3.480
 6868TIP3   OH220560   5.909   2.803   4.217
 6868TIP3    H120561   5.943   2.778   4.131
 6868TIP3    H220562   5.970   2.763   4.280
 6869TIP3   OH220563   6.360   2.937   3.403
 6869TIP3    H120564   6.313   3.021   3.401
 6869TIP3    H220565   6.305   2.880   3.456
 6870TIP3   OH220566   5.783   2.716   4.844
 6870TIP3    H120567   5.787   2.692   4.936
 6870TIP3    H220568   5.710   2.666   4.809
 6871TIP3   OH220569   6.518   2.851   4.866
 6871TIP3    H120570   6.450   2.792   4.834
 6871TIP3    H220571   6.600   2.811   4.837
 6872TIP3   OH220572   6.763   3.394   4.456
 6872TIP3    H120573   6.669   3.378   4.463
 6872TIP3    H220574   6.788   3.430   4.541
 6873TIP3   OH220575   7.158   2.426   3.361
 6873TIP3    H120576   7.098   2.377   3.304
 6873TIP3    H220577   7.155   2.515   3.328
 6874TIP3   OH220578   7.401   3.322   4.431
 6874TIP3    H120579   7.308   3.302   4.434
 6874TIP3    H220580   7.431   3.285   4.347
 6875TIP3   OH220581   6.905   3.256   3.291
 6875TIP3    H120582   6.867   3.195   3.355
 6875TIP3    H220583   6.907   3.207   3.209
 6876TIP3   OH220584   6.871   2.888   4.070
 6876TIP3    H120585   6.781   2.864   4.092
 6876TIP3    H220586   6.908   2.807   4.033
 6877TIP3   OH220587   6.017   3.125   3.877
 6877TIP3    H120588   6.015   3.201   3.819
 6877TIP3    H220589   5.925   3.107   3.896
 6878TIP3   OH220590   5.581   2.415   3.589
 6878TIP3    H120591   5.625   2.496   3.613
 6878TIP3    H220592   5.502   2.414   3.644
 6879TIP3   OH220593   6.119   2.881   3.794
 6879TIP3    H120594   6.096   2.970   3.820
 6879TIP3    H220595   6.091   2.826   3.867
 6880TIP3   OH220596   6.300   3.451   4.332
 6880TIP3    H120597   6.339   3.523   4.281
 6880TIP3    H220598   6.374   3.415   4.381
 6881TIP3   OH220599   5.936   3.351   3.723
 6881TIP3    H120600   5.849   3.357   3.763
 6881TIP3    H220601   5.970   3.440   3.725
 6882TIP3   OH220602   6.660   3.105   4.296
 6882TIP3    H120603   6.650   3.101   4.391
 6882TIP3    H220604   6.726   3.038   4.276
 6883TIP3   OH220605   6.649   2.992   3.175
 6883TIP3    H120606   6.693   2.971   3.257
 6883TIP3    H220607   6.565   2.947   3.180
 6884TIP3   OH220608   6.916   3.611   4.346
 6884TIP3    H120609   6.845   3.548   4.361
 6884TIP3    H220610   6.883   3.666   4.274
 6885TIP3   OH220611   6.957   3.479   2.965
 6885TIP3    H120612   6.955   3.512   2.875
 6885TIP3    H220613   6.867   3.488   2.997
 6886TIP3   OH220614   5.990   2.237   4.847
 6886TIP3    H120615   5.895   2.245   4.852
 6886TIP3    H220616   6.013   2.185   4.924
 6887TIP3   OH220617   6.808   2.931   3.395
 6887TIP3    H120618   6.791   2.860   3.457
 6887TIP3    H220619   6.902   2.928   3.380
 6888TIP3   OH220620   5.730   3.332   4.493
 6888TIP3    H120621   5.780   3.265   4.540
 6888TIP3    H220622   5.747   3.413   4.541
 6889TIP3   OH220623   5.995   2.956   3.179
 6889TIP3    H120624   6.006   2.865   3.150
 6889TIP3    H220625   5.983   2.949   3.274
 6890TIP3   OH220626   5.948   2.971   3.453
 6890TIP3    H120627   6.016   2.942   3.514
 6890TIP3    H220628   5.949   3.067   3.461
 6891TIP3   OH220629   5.678   2.664   3.669
 6891TIP3    H120630   5.613   2.709   3.724
 6891TIP3    H220631   5.694   2.724   3.597
 6892TIP3   OH220632   6.826   2.304   4.558
 6892TIP3    H120633   6.913   2.340   4.576
 6892TIP3    H220634   6.823   2.222   4.606
 6893TIP3   OH220635   6.724   2.039   3.716
 6893TIP3    H120636   6.710   2.061   3.624
 6893TIP3    H220637   6.766   2.117   3.752
 6894TIP3   OH220638   6.219   3.168   3.400
 6894TIP3    H120639   6.132   3.189   3.435
 6894TIP3    H220640   6.236   3.237   3.336
 6895TIP3   OH220641   6.383   2.244   3.817
 6895TIP3    H120642   6.448   2.309   3.791
 6895TIP3    H220643   6.397   2.233   3.911
 6896TIP3   OH220644   6.674   2.537   4.601
 6896TIP3    H120645   6.702   2.577   4.683
 6896TIP3    H220646   6.723   2.455   4.597
 6897TIP3   OH220647   6.560   1.922   3.904
 6897TIP3    H120648   6.586   1.967   3.985
 6897TIP3    H220649   6.617   1.959   3.837
 6898TIP3   OH220650   5.964   3.244   3.471
 6898TIP3    H120651   5.941   3.313   3.409
 6898TIP3    H220652   5.950   3.284   3.557
 6899TIP3   OH220653   6.065   1.955   3.714
 6899TIP3    H120654   6.054   2.045   3.745
 6899TIP3    H220655   6.159   1.938   3.720
 6900TIP3   OH220656   7.299   2.430   4.585
 6900TIP3    H120657   7.205   2.441   4.600
 6900TIP3    H220658   7.305   2.372   4.509
 6901TIP3   OH220659   6.962   2.632   3.979
 6901TIP3    H120660   6.885   2.576   3.990
 6901TIP3    H220661   7.031   2.588   4.028
 6902TIP3   OH220662   5.692   2.847   3.456
 6902TIP3    H120663   5.755   2.918   3.469
 6902TIP3    H220664   5.737   2.786   3.397
 6903TIP3   OH220665   5.607   2.138   3.586
 6903TIP3    H120666   5.619   2.232   3.591
 6903TIP3    H220667   5.524   2.127   3.540
 6904TIP3   OH220668   6.943   3.609   3.923
 6904TIP3    H120669   6.901   3.658   3.852
 6904TIP3    H220670   7.037   3.621   3.908
 6905TIP3   OH220671   6.008   1.858   4.452
 6905TIP3    H120672   5.980   1.827   4.367
 6905TIP3    H220673   5.998   1.782   4.510
 6906TIP3   OH220674   5.534   3.105   3.844
 6906TIP3    H120675   5.482   3.138   3.917
 6906TIP3    H220676   5.495   3.146   3.767
 6907TIP3   OH220677   5.724   3.645   4.913
 6907TIP3    H120678   5.808   3.646   4.960
 6907TIP3    H220679   5.704   3.551   4.904
 6908TIP3   OH220680   6.194   3.566   4.954
 6908TIP3    H120681   6.286   3.540   4.964
 6908TIP3    H220682   6.161   3.510   4.884
 6909TIP3   OH220683   6.163   3.156   3.084
 6909TIP3    H120684   6.114   3.083   3.123
 6909TIP3    H220685   6.235   3.114   3.038
 6910TIP3   OH220686   6.820   3.498   4.704
 6910TIP3    H120687   6.829   3.427   4.769
 6910TIP3    H220688   6.895   3.555   4.721
 6911TIP3   OH220689   6.605   3.199   2.997
 6911TIP3    H120690   6.636   3.130   3.056
 6911TIP3    H220691   6.653   3.184   2.916
 6912TIP3   OH220692   5.835   3.043   5.105
 6912TIP3    H120693   5.854   2.950   5.115
 6912TIP3    H220694   5.749   3.047   5.064
 6913TIP3   OH220695   5.845   2.672   3.313
 6913TIP3    H120696   5.899   2.645   3.387
 6913TIP3    H220697   5.906   2.675   3.239
 6914TIP3   OH220698   6.453   3.127   4.882
 6914TIP3    H120699   6.407   3.148   4.800
 6914TIP3    H220700   6.485   3.038   4.870
 6915TIP3   OH220701   6.393   2.873   3.139
 6915TIP3    H120702   6.371   2.886   3.231
 6915TIP3    H220703   6.375   2.781   3.122
 6916TIP3   OH220704   6.935   3.165   4.503
 6916TIP3    H120705   7.011   3.195   4.453
 6916TIP3    H220706   6.866   3.228   4.481
 6917TIP3   OH220707   5.952   2.788   5.109
 6917TIP3    H120708   6.028   2.764   5.056
 6917TIP3    H220709   5.988   2.808   5.196
 6918TIP3   OH220710   6.010   2.590   3.521
 6918TIP3    H120711   5.985   2.558   3.608
 6918TIP3    H220712   6.053   2.515   3.479
 6919TIP3   OH220713   6.308   2.669   4.771
 6919TIP3    H120714   6.224   2.713   4.778
 6919TIP3    H220715   6.343   2.698   4.686
 6920TIP3   OH220716   6.138   2.401   3.360
 6920TIP3    H120717   6.108   2.405   3.269
 6920TIP3    H220718   6.233   2.407   3.355
 6921TIP3   OH220719   6.815   3.049   4.865
 6921TIP3    H120720   6.881   3.008   4.810
 6921TIP3    H220721   6.809   2.992   4.942
 6922TIP3   OH220722   6.938   2.705   3.041
 6922TIP3    H120723   6.933   2.660   2.956
 6922TIP3    H220724   6.914   2.795   3.021
 6923TIP3   OH220725   6.417   2.440   4.876
 6923TIP3    H120726   6.419   2.368   4.813
 6923TIP3    H220727   6.380   2.514   4.827
 6924TIP3   OH220728   6.424   2.237   4.678
 6924TIP3    H120729   6.451   2.275   4.594
 6924TIP3    H220730   6.332   2.212   4.663
 6925TIP3   OH220731   6.431   2.767   4.551
 6925TIP3    H120732   6.521   2.785   4.524
 6925TIP3    H220733   6.378   2.831   4.503
 6926TIP3   OH220734   7.020   2.731   4.925
 6926TIP3    H120735   7.048   2.639   4.922
 6926TIP3    H220736   7.099   2.780   4.899
 6927TIP3   OH220737   7.056   2.990   4.670
 6927TIP3    H120738   7.003   3.051   4.620
 6927TIP3    H220739   7.145   3.004   4.638
 6928TIP3   OH220740   6.300   2.531   5.118
 6928TIP3    H120741   6.230   2.469   5.137
 6928TIP3    H220742   6.328   2.508   5.029
 6929TIP3   OH220743   6.546   2.004   4.773
 6929TIP3    H120744   6.506   2.085   4.741
 6929TIP3    H220745   6.480   1.936   4.759
 6930TIP3   OH220746   6.673   2.483   4.976
 6930TIP3    H120747   6.659   2.471   5.070
 6930TIP3    H220748   6.588   2.462   4.937
 6931TIP3   OH220749   6.926   2.454   4.855
 6931TIP3    H120750   6.845   2.445   4.905
 6931TIP3    H220751   6.994   2.416   4.911
 6932TIP3   OH220752   7.159   2.396   4.998
 6932TIP3    H120753   7.170   2.301   5.006
 6932TIP3    H220754   7.153   2.426   5.089
 6933TIP3   OH220755   6.134   2.311   5.180
 6933TIP3    H120756   6.139   2.222   5.144
 6933TIP3    H220757   6.172   2.303   5.268
 6934TIP3   OH220758   6.619   1.988   5.037
 6934TIP3    H120759   6.688   1.922   5.030
 6934TIP3    H220760   6.585   1.998   4.948
 6935TIP3   OH220761   6.707   2.206   5.182
 6935TIP3    H120762   6.678   2.134   5.125
 6935TIP3    H220763   6.634   2.268   5.181
 6936TIP3   OH220764   5.954   3.447   3.282
 6936TIP3    H120765   6.045   3.432   3.256
 6936TIP3    H220766   5.915   3.495   3.209
 6937TIP3   OH220767   5.416   2.833   3.502
 6937TIP3    H120768   5.508   2.847   3.479
 6937TIP3    H220769   5.390   2.755   3.453
 6938TIP3   OH220770   5.328   3.423   3.926
 6938TIP3    H120771   5.265   3.369   3.879
 6938TIP3    H220772   5.374   3.362   3.984
 6939TIP3   OH220773   5.470   3.258   4.097
 6939TIP3    H120774   5.459   3.189   4.162
 6939TIP3    H220775   5.521   3.326   4.141
 6940TIP3   OH220776   7.211   3.667   3.905
 6940TIP3    H120777   7.231   3.690   3.996
 6940TIP3    H220778   7.271   3.721   3.854
 6941TIP3   OH220779   7.233   3.691   4.185
 6941TIP3    H120780   7.183   3.609   4.180
 6941TIP3    H220781   7.301   3.673   4.250
 6942TIP3   OH220782   7.273   3.388   4.755
 6942TIP3    H120783   7.201   3.394   4.819
 6942TIP3    H220784   7.315   3.474   4.759
 6943TIP3   OH220785   7.082   2.901   3.379
 6943TIP3    H120786   7.150   2.954   3.338
 6943TIP3    H220787   7.125   2.858   3.453
 6944TIP3   OH220788   7.213   2.763   3.577
 6944TIP3    H120789   7.147   2.717   3.629
 6944TIP3    H220790   7.278   2.793   3.640
 6945TIP3   OH220791   7.270   3.168   3.999
 6945TIP3    H120792   7.320   3.095   3.961
 6945TIP3    H220793   7.269   3.234   3.930
 6946TIP3   OH220794   7.090   3.452   4.195
 6946TIP3    H120795   7.022   3.494   4.247
 6946TIP3    H220796   7.043   3.409   4.124
 6947TIP3   OH220797   7.123   2.664   3.242
 6947TIP3    H120798   7.073   2.668   3.161
 6947TIP3    H220799   7.105   2.747   3.286
 6948TIP3   OH220800   6.994   2.318   3.172
 6948TIP3    H120801   6.963   2.367   3.096
 6948TIP3    H220802   6.981   2.226   3.148
 6949TIP3   OH220803   7.020   2.615   3.709
 6949TIP3    H120804   7.026   2.520   3.695
 6949TIP3    H220805   7.004   2.625   3.802
 6950TIP3   OH220806   5.651   2.688   4.475
 6950TIP3    H120807   5.641   2.654   4.386
 6950TIP3    H220808   5.746   2.688   4.490
 6951TIP3   OH220809   7.309   3.042   4.568
 6951TIP3    H120810   7.378   2.976   4.554
 6951TIP3    H220811   7.311   3.095   4.488
 6952TIP3   OH220812   7.489   2.835   4.566
 6952TIP3    H120813   7.413   2.791   4.605
 6952TIP3    H220814   7.563   2.780   4.590
 6953TIP3   OH220815   6.959   2.046   3.125
 6953TIP3    H120816   7.020   2.029   3.197
 6953TIP3    H220817   6.875   2.012   3.156
 6954TIP3   OH220818   7.022   2.341   3.596
 6954TIP3    H120819   7.065   2.257   3.611
 6954TIP3    H220820   7.068   2.379   3.521
 6955TIP3   OH220821   7.181   2.508   4.107
 6955TIP3    H120822   7.264   2.529   4.064
 6955TIP3    H220823   7.190   2.543   4.195
 6956TIP3   OH220824   7.250   2.662   4.336
 6956TIP3    H120825   7.175   2.690   4.388
 6956TIP3    H220826   7.280   2.742   4.292
 6957TIP3   OH220827   5.869   2.369   5.126
 6957TIP3    H120828   5.964   2.366   5.141
 6957TIP3    H220829   5.836   2.288   5.165
 6958TIP3   OH220830   7.713   2.259   4.882
 6958TIP3    H120831   7.770   2.197   4.837
 6958TIP3    H220832   7.672   2.310   4.811
 6959TIP3   OH220833   7.139   2.094   3.645
 6959TIP3    H120834   7.172   2.097   3.735
 6959TIP3    H220835   7.079   2.019   3.644
 6960TIP3   OH220836   5.839   2.078   4.474
 6960TIP3    H120837   5.895   2.001   4.477
 6960TIP3    H220838   5.900   2.151   4.460
 6961TIP3   OH220839   5.626   2.342   4.534
 6961TIP3    H120840   5.677   2.333   4.453
 6961TIP3    H220841   5.650   2.429   4.568
 6962TIP3   OH220842   7.559   2.375   4.686
 6962TIP3    H120843   7.476   2.414   4.710
 6962TIP3    H220844   7.536   2.301   4.630
 6963TIP3   OH220845   7.190   2.012   3.280
 6963TIP3    H120846   7.241   1.952   3.226
 6963TIP3    H220847   7.244   2.091   3.286
 6964TIP3   OH220848   5.613   1.849   4.039
 6964TIP3    H120849   5.526   1.839   4.076
 6964TIP3    H220850   5.601   1.904   3.962
 6965TIP3   OH220851   6.789   3.560   3.551
 6965TIP3    H120852   6.848   3.557   3.476
 6965TIP3    H220853   6.823   3.631   3.606
 6966TIP3   OH220854   5.835   1.909   4.855
 6966TIP3    H120855   5.786   1.909   4.937
 6966TIP3    H220856   5.779   1.958   4.794
 6967TIP3   OH220857   5.868   3.363   4.930
 6967TIP3    H120858   5.775   3.345   4.919
 6967TIP3    H220859   5.885   3.346   5.022
 6968TIP3   OH220860   6.070   3.411   4.480
 6968TIP3    H120861   6.018   3.483   4.446
 6968TIP3    H220862   6.155   3.420   4.436
 6969TIP3   OH220863   6.480   3.642   4.615
 6969TIP3    H120864   6.518   3.634   4.703
 6969TIP3    H220865   6.543   3.696   4.567
 6970TIP3   OH220866   6.666   3.800   4.484
 6970TIP3    H120867   6.725   3.743   4.436
 6970TIP3    H220868   6.723   3.853   4.540
 6971TIP3   OH220869   7.468   2.129   4.577
 6971TIP3    H120870   7.381   2.124   4.537
 6971TIP3    H220871   7.503   2.040   4.567
 6972TIP3   OH220872   5.734   3.658   4.523
 6972TIP3    H120873   5.643   3.678   4.500
 6972TIP3    H220874   5.755   3.722   4.592
 6973TIP3   OH220875   5.963   3.642   4.370
 6973TIP3    H120876   5.881   3.648   4.418
 6973TIP3    H220877   5.941   3.668   4.281
 6974TIP3   OH220878   6.385   3.659   4.164
 6974TIP3    H120879   6.311   3.667   4.104
 6974TIP3    H220880   6.393   3.745   4.204
 6975TIP3   OH220881   6.651   3.601   4.220
 6975TIP3    H120882   6.559   3.615   4.198
 6975TIP3    H220883   6.698   3.666   4.168
 6976TIP3   OH220884   6.859   3.778   4.124
 6976TIP3    H120885   6.850   3.863   4.080
 6976TIP3    H220886   6.888   3.719   4.055
 6977TIP3   OH220887   5.645   3.433   4.247
 6977TIP3    H120888   5.672   3.405   4.335
 6977TIP3    H220889   5.716   3.402   4.190
 6978TIP3   OH220890   5.847   3.320   4.106
 6978TIP3    H120891   5.859   3.236   4.152
 6978TIP3    H220892   5.934   3.360   4.106
 6979TIP3   OH220893   6.117   3.406   4.124
 6979TIP3    H120894   6.135   3.313   4.108
 6979TIP3    H220895   6.168   3.428   4.202
 6980TIP3   OH220896   6.622   2.019   4.159
 6980TIP3    H120897   6.601   1.966   4.237
 6980TIP3    H220898   6.717   2.009   4.149
 6981TIP3   OH220899   7.264   2.118   3.890
 6981TIP3    H120900   7.284   2.026   3.908
 6981TIP3    H220901   7.341   2.152   3.844
 6982TIP3   OH220902   5.921   1.756   4.210
 6982TIP3    H120903   5.831   1.724   4.218
 6982TIP3    H220904   5.974   1.677   4.203
 6983TIP3   OH220905   5.736   1.655   3.865
 6983TIP3    H120906   5.764   1.706   3.789
 6983TIP3    H220907   5.701   1.720   3.926
 6984TIP3   OH220908   6.388   1.797   4.098
 6984TIP3    H120909   6.436   1.840   4.028
 6984TIP3    H220910   6.431   1.827   4.178
 6985TIP3   OH220911   6.890   1.961   4.134
 6985TIP3    H120912   6.964   1.954   4.074
 6985TIP3    H220913   6.884   1.875   4.176
 6986TIP3   OH220914   6.949   1.888   3.641
 6986TIP3    H120915   6.870   1.935   3.667
 6986TIP3    H220916   6.947   1.807   3.691
 6987TIP3   OH220917   5.423   3.228   3.626
 6987TIP3    H120918   5.339   3.193   3.597
 6987TIP3    H220919   5.424   3.319   3.595
 6988TIP3   OH220920   5.849   1.788   3.630
 6988TIP3    H120921   5.892   1.726   3.571
 6988TIP3    H220922   5.920   1.843   3.663
 6989TIP3   OH220923   6.342   1.987   3.732
 6989TIP3    H120924   6.404   1.938   3.786
 6989TIP3    H220925   6.355   2.078   3.758
 6990TIP3   OH220926   6.215   3.386   3.218
 6990TIP3    H120927   6.297   3.416   3.179
 6990TIP3    H220928   6.187   3.313   3.163
 6991TIP3   OH220929   6.966   3.515   3.252
 6991TIP3    H120930   6.950   3.424   3.277
 6991TIP3    H220931   6.880   3.548   3.225
 6992TIP3   OH220932   6.142   2.037   5.095
 6992TIP3    H120933   6.106   1.970   5.153
 6992TIP3    H220934   6.234   2.044   5.120
 6993TIP3   OH220935   6.392   2.042   5.216
 6993TIP3    H120936   6.471   2.020   5.167
 6993TIP3    H220937   6.384   1.972   5.281
 6994TIP3   OH220938   5.518   3.215   3.265
 6994TIP3    H120939   5.517   3.227   3.360
 6994TIP3    H220940   5.602   3.173   3.247
 6995TIP3   OH220941   7.216   2.123   5.005
 6995TIP3    H120942   7.234   2.095   5.095
 6995TIP3    H220943   7.302   2.119   4.962
 6996TIP3   OH220944   7.138   3.664   4.507
 6996TIP3    H120945   7.062   3.633   4.457
 6996TIP3    H220946   7.121   3.758   4.518
 6997TIP3   OH220947   7.676   2.903   4.046
 6997TIP3    H120948   7.713   2.859   4.122
 6997TIP3    H220949   7.751   2.923   3.990
 6998TIP3   OH220950   7.681   3.351   3.732
 6998TIP3    H120951   7.662   3.257   3.733
 6998TIP3    H220952   7.776   3.356   3.738
 6999TIP3   OH220953   7.379   2.550   3.491
 6999TIP3    H120954   7.332   2.631   3.513
 6999TIP3    H220955   7.311   2.491   3.459
 7000TIP3   OH220956   7.448   2.830   3.708
 7000TIP3    H120957   7.498   2.753   3.736
 7000TIP3    H220958   7.504   2.871   3.641
 7001TIP3   OH220959   8.371   3.833   3.398
 7001TIP3    H120960   8.446   3.776   3.416
 7001TIP3    H220961   8.298   3.789   3.442
 7002TIP3   OH220962   8.233   3.241   3.747
 7002TIP3    H120963   8.209   3.160   3.702
 7002TIP3    H220964   8.326   3.252   3.726
 7003TIP3   OH220965   7.948   2.375   3.687
 7003TIP3    H120966   7.949   2.439   3.615
 7003TIP3    H220967   7.893   2.304   3.656
 7004TIP3   OH220968   7.594   2.614   3.795
 7004TIP3    H120969   7.676   2.592   3.840
 7004TIP3    H220970   7.595   2.561   3.716
 7005TIP3   OH220971   7.951   2.823   3.511
 7005TIP3    H120972   7.964   2.799   3.603
 7005TIP3    H220973   7.912   2.744   3.472
 7006TIP3   OH220974   7.930   2.402   4.150
 7006TIP3    H120975   7.884   2.437   4.074
 7006TIP3    H220976   7.868   2.414   4.222
 7007TIP3   OH220977   8.010   3.173   3.907
 7007TIP3    H120978   7.950   3.240   3.941
 7007TIP3    H220979   8.047   3.211   3.828
 7008TIP3   OH220980   7.819   2.484   3.914
 7008TIP3    H120981   7.869   2.565   3.925
 7008TIP3    H220982   7.865   2.437   3.844
 7009TIP3   OH220983   7.864   3.384   3.993
 7009TIP3    H120984   7.850   3.475   3.965
 7009TIP3    H220985   7.789   3.365   4.050
 7010TIP3   OH220986   7.266   3.063   3.254
 7010TIP3    H120987   7.239   3.071   3.162
 7010TIP3    H220988   7.257   3.151   3.289
 7011TIP3   OH220989   7.731   2.972   3.471
 7011TIP3    H120990   7.693   2.917   3.403
 7011TIP3    H220991   7.815   2.931   3.491
 7012TIP3   OH220992   7.947   3.415   3.591
 7012TIP3    H120993   7.903   3.408   3.507
 7012TIP3    H220994   7.974   3.326   3.612
 7013TIP3   OH220995   7.877   2.936   3.865
 7013TIP3    H120996   7.913   2.882   3.795
 7013TIP3    H220997   7.929   3.017   3.862
 7014TIP3   OH220998   8.047   3.481   4.175
 7014TIP3    H120999   7.994   3.552   4.211
 7014TIP3    H221000   7.988   3.435   4.115
 7015TIP3   OH221001   7.836   3.062   4.286
 7015TIP3    H121002   7.835   3.151   4.321
 7015TIP3    H221003   7.745   3.033   4.293
 7016TIP3   OH221004   8.044   3.540   3.189
 7016TIP3    H121005   8.133   3.565   3.214
 7016TIP3    H221006   8.017   3.607   3.126
 7017TIP3   OH221007   7.865   3.670   4.249
 7017TIP3    H121008   7.833   3.669   4.159
 7017TIP3    H221009   7.789   3.649   4.302
 7018TIP3   OH221010   7.677   2.782   3.271
 7018TIP3    H121011   7.618   2.845   3.230
 7018TIP3    H221012   7.625   2.702   3.278
 7019TIP3   OH221013   7.470   3.203   4.196
 7019TIP3    H121014   7.402   3.184   4.132
 7019TIP3    H221015   7.504   3.117   4.221
 7020TIP3   OH221016   7.327   3.395   3.828
 7020TIP3    H121017   7.423   3.398   3.838
 7020TIP3    H221018   7.295   3.470   3.878
 7021TIP3   OH221019   8.238   3.601   4.017
 7021TIP3    H121020   8.212   3.678   4.068
 7021TIP3    H221021   8.189   3.529   4.057
 7022TIP3   OH221022   8.006   3.737   2.984
 7022TIP3    H121023   8.057   3.759   2.907
 7022TIP3    H221024   7.969   3.820   3.014
 7023TIP3   OH221025   7.473   3.590   3.378
 7023TIP3    H121026   7.540   3.587   3.447
 7023TIP3    H221027   7.396   3.549   3.419
 7024TIP3   OH221028   8.390   3.714   2.988
 7024TIP3    H121029   8.334   3.783   2.953
 7024TIP3    H221030   8.469   3.718   2.935
 7025TIP3   OH221031   7.662   3.395   4.175
 7025TIP3    H121032   7.712   3.383   4.255
 7025TIP3    H221033   7.593   3.329   4.180
 7026TIP3   OH221034   8.026   2.188   4.017
 7026TIP3    H121035   7.946   2.153   3.978
 7026TIP3    H221036   7.997   2.264   4.067
 7027TIP3   OH221037   7.957   2.706   4.020
 7027TIP3    H121038   7.901   2.718   4.097
 7027TIP3    H221039   7.931   2.777   3.961
 7028TIP3   OH221040   7.879   2.559   3.491
 7028TIP3    H121041   7.788   2.534   3.505
 7028TIP3    H221042   7.900   2.527   3.404
 7029TIP3   OH221043   7.800   2.738   4.238
 7029TIP3    H121044   7.872   2.777   4.288
 7029TIP3    H221045   7.776   2.660   4.288
 7030TIP3   OH221046   7.866   2.148   2.918
 7030TIP3    H121047   7.834   2.200   2.991
 7030TIP3    H221048   7.832   2.192   2.840
 7031TIP3   OH221049   7.451   2.266   3.744
 7031TIP3    H121050   7.507   2.289   3.818
 7031TIP3    H221051   7.503   2.205   3.692
 7032TIP3   OH221052   7.353   2.243   3.289
 7032TIP3    H121053   7.404   2.279   3.216
 7032TIP3    H221054   7.291   2.312   3.312
 7033TIP3   OH221055   7.633   2.474   3.559
 7033TIP3    H121056   7.542   2.488   3.533
 7033TIP3    H221057   7.647   2.380   3.548
 7034TIP3   OH221058   7.938   2.475   3.239
 7034TIP3    H121059   8.022   2.502   3.202
 7034TIP3    H221060   7.874   2.497   3.171
 7035TIP3   OH221061   7.774   2.513   3.029
 7035TIP3    H121062   7.713   2.457   2.982
 7035TIP3    H221063   7.825   2.557   2.960
 7036TIP3   OH221064   7.815   3.316   4.404
 7036TIP3    H121065   7.894   3.330   4.457
 7036TIP3    H221066   7.744   3.315   4.468
 7037TIP3   OH221067   7.773   2.226   3.529
 7037TIP3    H121068   7.745   2.151   3.582
 7037TIP3    H221069   7.794   2.188   3.443
 7038TIP3   OH221070   8.225   2.696   4.071
 7038TIP3    H121071   8.129   2.694   4.069
 7038TIP3    H221072   8.250   2.729   3.984
 7039TIP3   OH221073   8.012   2.981   3.055
 7039TIP3    H121074   7.929   2.937   3.037
 7039TIP3    H221075   7.999   3.021   3.141
 7040TIP3   OH221076   0.044   3.337   3.975
 7040TIP3    H121077  -0.019   3.283   4.022
 7040TIP3    H221078  -0.009   3.401   3.927
 7041TIP3   OH221079   7.673   3.077   3.722
 7041TIP3    H121080   7.691   3.048   3.633
 7041TIP3    H221081   7.726   3.020   3.777
 7042TIP3   OH221082   8.124   3.099   2.840
 7042TIP3    H121083   8.133   3.189   2.870
 7042TIP3    H221084   8.076   3.054   2.910
 7043TIP3   OH221085   7.570   2.982   4.337
 7043TIP3    H121086   7.579   2.950   4.427
 7043TIP3    H221087   7.502   2.927   4.299
 7044TIP3   OH221088   8.265   3.100   4.331
 7044TIP3    H121089   8.182   3.069   4.367
 7044TIP3    H221090   8.320   3.022   4.325
 7045TIP3   OH221091   7.806   3.386   3.362
 7045TIP3    H121092   7.793   3.460   3.303
 7045TIP3    H221093   7.724   3.337   3.357
 7046TIP3   OH221094   7.953   3.097   3.340
 7046TIP3    H121095   7.949   3.171   3.280
 7046TIP3    H221096   7.862   3.073   3.354
 7047TIP3   OH221097   8.067   3.699   3.827
 7047TIP3    H121098   8.101   3.786   3.805
 7047TIP3    H221099   8.139   3.657   3.876
 7048TIP3   OH221100   7.697   3.593   3.210
 7048TIP3    H121101   7.615   3.599   3.259
 7048TIP3    H221102   7.731   3.682   3.209
 7049TIP3   OH221103   7.769   2.469   4.368
 7049TIP3    H121104   7.675   2.490   4.364
 7049TIP3    H221105   7.774   2.392   4.424
 7050TIP3   OH221106   7.520   3.588   3.984
 7050TIP3    H121107   7.567   3.520   4.032
 7050TIP3    H221108   7.531   3.667   4.037
 7051TIP3   OH221109   7.771   3.222   2.676
 7051TIP3    H121110   7.779   3.132   2.645
 7051TIP3    H221111   7.764   3.214   2.771
 7052TIP3   OH221112   7.746   3.241   2.951
 7052TIP3    H121113   7.819   3.239   3.013
 7052TIP3    H221114   7.713   3.331   2.955
 7053TIP3   OH221115   7.512   2.966   3.168
 7053TIP3    H121116   7.426   2.983   3.208
 7053TIP3    H221117   7.508   3.012   3.084
 7054TIP3   OH221118   8.177   3.359   2.935
 7054TIP3    H121119   8.097   3.411   2.946
 7054TIP3    H221120   8.199   3.367   2.842
 7055TIP3   OH221121   7.646   3.496   2.957
 7055TIP3    H121122   7.664   3.570   2.898
 7055TIP3    H221123   7.665   3.531   3.044
 7056TIP3   OH221124   7.853   2.211   3.201
 7056TIP3    H121125   7.868   2.303   3.224
 7056TIP3    H221126   7.939   2.178   3.178
 7057TIP3   OH221127   7.491   3.118   2.932
 7057TIP3    H121128   7.567   3.176   2.942
 7057TIP3    H221129   7.520   3.051   2.870
 7058TIP3   OH221130   7.776   2.102   3.944
 7058TIP3    H121131   7.755   2.073   3.855
 7058TIP3    H221132   7.776   2.022   3.996
 7059TIP3   OH221133   7.517   3.901   4.403
 7059TIP3    H121134   7.597   3.905   4.456
 7059TIP3    H221135   7.497   3.808   4.396
 7060TIP3   OH221136   7.970   3.851   4.426
 7060TIP3    H121137   8.043   3.801   4.462
 7060TIP3    H221138   7.937   3.798   4.354
 7061TIP3   OH221139   7.926   3.421   2.572
 7061TIP3    H121140   7.865   3.354   2.603
 7061TIP3    H221141   8.012   3.389   2.599
 7062TIP3   OH221142   7.620   3.298   4.598
 7062TIP3    H121143   7.642   3.205   4.604
 7062TIP3    H221144   7.535   3.300   4.554
 7063TIP3   OH221145   7.625   2.928   2.789
 7063TIP3    H121146   7.665   2.890   2.867
 7063TIP3    H221147   7.696   2.930   2.724
 7064TIP3   OH221148   8.165   3.351   4.377
 7064TIP3    H121149   8.126   3.392   4.300
 7064TIP3    H221150   8.199   3.267   4.345
 7065TIP3   OH221151   8.077   3.036   2.577
 7065TIP3    H121152   8.106   3.039   2.669
 7065TIP3    H221153   7.985   3.009   2.582
 7066TIP3   OH221154   7.751   3.049   4.591
 7066TIP3    H121155   7.830   3.041   4.538
 7066TIP3    H221156   7.783   3.066   4.680
 7067TIP3   OH221157   7.788   2.830   3.001
 7067TIP3    H121158   7.752   2.791   3.080
 7067TIP3    H221159   7.830   2.758   2.955
 7068TIP3   OH221160   8.050   2.896   4.257
 7068TIP3    H121161   7.980   2.960   4.270
 7068TIP3    H221162   8.086   2.918   4.171
 7069TIP3   OH221163   7.926   2.644   2.844
 7069TIP3    H121164   7.893   2.653   2.754
 7069TIP3    H221165   8.015   2.610   2.833
 7070TIP3   OH221166   8.206   2.756   4.429
 7070TIP3    H121167   8.175   2.667   4.410
 7070TIP3    H221168   8.157   2.811   4.368
 7071TIP3   OH221169   8.213   2.441   4.178
 7071TIP3    H121170   8.227   2.519   4.123
 7071TIP3    H221171   8.139   2.397   4.136
 7072TIP3   OH221172   8.165   2.981   4.020
 7072TIP3    H121173   8.242   2.991   3.964
 7072TIP3    H221174   8.101   3.041   3.983
 7073TIP3   OH221175   8.035   2.802   4.630
 7073TIP3    H121176   7.980   2.728   4.655
 7073TIP3    H221177   8.084   2.772   4.553
 7074TIP3   OH221178   7.915   2.557   4.675
 7074TIP3    H121179   7.919   2.472   4.630
 7074TIP3    H221180   7.951   2.539   4.762
 7075TIP3   OH221181   7.737   3.691   2.777
 7075TIP3    H121182   7.829   3.699   2.752
 7075TIP3    H221183   7.690   3.737   2.707
 7076TIP3   OH221184   7.221   3.103   2.987
 7076TIP3    H121185   7.311   3.121   2.961
 7076TIP3    H221186   7.199   3.023   2.941
 7077TIP3   OH221187   7.138   3.673   3.393
 7077TIP3    H121188   7.075   3.610   3.358
 7077TIP3    H221189   7.183   3.625   3.463
 7078TIP3   OH221190   7.279   3.536   3.582
 7078TIP3    H121191   7.266   3.458   3.636
 7078TIP3    H221192   7.322   3.599   3.640
 7079TIP3   OH221193   7.428   2.950   3.952
 7079TIP3    H121194   7.426   2.914   3.864
 7079TIP3    H221195   7.520   2.944   3.978
 7080TIP3   OH221196   7.657   2.633   4.639
 7080TIP3    H121197   7.752   2.622   4.643
 7080TIP3    H221198   7.622   2.549   4.670
 7081TIP3   OH221199   7.605   2.315   3.971
 7081TIP3    H121200   7.659   2.236   3.974
 7081TIP3    H221201   7.668   2.386   3.958
 7082TIP3   OH221202   7.429   2.602   4.026
 7082TIP3    H121203   7.471   2.590   3.940
 7082TIP3    H221204   7.464   2.685   4.058
 7083TIP3   OH221205   7.410   2.082   3.506
 7083TIP3    H121206   7.331   2.080   3.560
 7083TIP3    H221207   7.393   2.149   3.440
 7084TIP3   OH221208   7.631   2.188   4.353
 7084TIP3    H121209   7.576   2.171   4.430
 7084TIP3    H221210   7.571   2.227   4.289
 7085TIP3   OH221211   7.659   3.622   4.424
 7085TIP3    H121212   7.566   3.603   4.412
 7085TIP3    H221213   7.676   3.603   4.517
 7086TIP3   OH221214   7.839   3.657   3.970
 7086TIP3    H121215   7.785   3.726   3.932
 7086TIP3    H221216   7.924   3.666   3.928
 7087TIP3   OH221217   8.218   3.855   4.125
 7087TIP3    H121218   8.285   3.817   4.182
 7087TIP3    H221219   8.267   3.900   4.056
 7088TIP3   OH221220   0.078   4.129   3.998
 7088TIP3    H121221   0.082   4.119   3.903
 7088TIP3    H221222   0.064   4.222   4.012
 7089TIP3   OH221223   7.522   3.915   4.017
 7089TIP3    H121224   7.431   3.935   3.995
 7089TIP3    H221225   7.546   3.978   4.084
 7090TIP3   OH221226   7.735   3.881   3.853
 7090TIP3    H121227   7.654   3.890   3.903
 7090TIP3    H221228   7.713   3.910   3.765
 7091TIP3   OH221229   8.125   3.949   3.742
 7091TIP3    H121230   8.107   3.976   3.652
 7091TIP3    H221231   8.061   3.997   3.795
 7092TIP3   OH221232   8.381   3.803   3.707
 7092TIP3    H121233   8.318   3.873   3.691
 7092TIP3    H221234   8.440   3.807   3.632
 7093TIP3   OH221235   7.445   3.701   3.740
 7093TIP3    H121236   7.467   3.669   3.828
 7093TIP3    H221237   7.514   3.666   3.684
 7094TIP3   OH221238   7.635   3.579   3.593
 7094TIP3    H121239   7.645   3.495   3.638
 7094TIP3    H221240   7.721   3.620   3.599
 7095TIP3   OH221241   7.886   3.678   3.621
 7095TIP3    H121242   7.913   3.589   3.600
 7095TIP3    H221243   7.939   3.702   3.697
 7096TIP3   OH221244   7.702   2.019   3.689
 7096TIP3    H121245   7.615   1.984   3.706
 7096TIP3    H221246   7.760   1.943   3.693
 7097TIP3   OH221247   7.531   1.907   3.324
 7097TIP3    H121248   7.550   1.975   3.260
 7097TIP3    H221249   7.489   1.954   3.397
 7098TIP3   OH221250   7.626   2.070   3.118
 7098TIP3    H121251   7.665   2.008   3.057
 7098TIP3    H221252   7.701   2.120   3.152
 7099TIP3   OH221253   7.994   3.666   2.671
 7099TIP3    H121254   8.071   3.630   2.716
 7099TIP3    H221255   7.955   3.591   2.626
 7100TIP3   OH221256   7.912   2.283   4.577
 7100TIP3    H121257   7.880   2.214   4.635
 7100TIP3    H221258   8.004   2.294   4.603
 7101TIP3   OH221259   8.149   2.307   4.713
 7101TIP3    H121260   8.240   2.330   4.692
 7101TIP3    H221261   8.156   2.231   4.771
 7102TIP3   OH221262   7.302   3.480   2.795
 7102TIP3    H121263   7.346   3.547   2.848
 7102TIP3    H221264   7.374   3.430   2.756
 7103TIP3   OH221265   0.871   3.845   4.965
 7103TIP3    H121266   0.830   3.926   4.936
 7103TIP3    H221267   0.811   3.776   4.935
 7104TIP3   OH221268   0.884   3.809   5.354
 7104TIP3    H121269   0.930   3.788   5.436
 7104TIP3    H221270   0.842   3.727   5.329
 7105TIP3   OH221271   0.173   3.779   5.636
 7105TIP3    H121272   0.127   3.706   5.679
 7105TIP3    H221273   0.263   3.773   5.667
 7106TIP3   OH221274   1.111   4.144   5.049
 7106TIP3    H121275   1.054   4.067   5.044
 7106TIP3    H221276   1.172   4.124   5.120
 7107TIP3   OH221277   0.109   4.144   5.289
 7107TIP3    H121278   0.082   4.052   5.290
 7107TIP3    H221279   0.164   4.154   5.367
 7108TIP3   OH221280   8.429   3.606   5.417
 7108TIP3    H121281   8.441   3.515   5.444
 7108TIP3    H221282   8.477   3.614   5.334
 7109TIP3   OH221283   0.784   4.591   5.091
 7109TIP3    H121284   0.806   4.554   5.005
 7109TIP3    H221285   0.801   4.519   5.152
 7110TIP3   OH221286   0.739   4.036   5.389
 7110TIP3    H121287   0.778   3.953   5.362
 7110TIP3    H221288   0.814   4.089   5.416
 7111TIP3   OH221289   1.698   3.370   5.383
 7111TIP3    H121290   1.717   3.454   5.424
 7111TIP3    H221291   1.735   3.378   5.295
 7112TIP3   OH221292   1.083   3.543   5.409
 7112TIP3    H121293   1.119   3.458   5.434
 7112TIP3    H221294   1.049   3.530   5.320
 7113TIP3   OH221295   0.447   3.199   5.352
 7113TIP3    H121296   0.423   3.272   5.294
 7113TIP3    H221297   0.396   3.125   5.320
 7114TIP3   OH221298   1.128   3.301   4.996
 7114TIP3    H121299   1.194   3.292   5.065
 7114TIP3    H221300   1.177   3.336   4.921
 7115TIP3   OH221301   0.102   3.420   5.530
 7115TIP3    H121302   0.175   3.368   5.564
 7115TIP3    H221303   0.144   3.481   5.468
 7116TIP3   OH221304   0.526   3.613   5.244
 7116TIP3    H121305   0.614   3.587   5.269
 7116TIP3    H221306   0.481   3.530   5.225
 7117TIP3   OH221307   1.760   3.586   5.552
 7117TIP3    H121308   1.673   3.626   5.547
 7117TIP3    H221309   1.799   3.625   5.631
 7118TIP3   OH221310   0.464   3.192   5.806
 7118TIP3    H121311   0.408   3.233   5.740
 7118TIP3    H221312   0.418   3.205   5.889
 7119TIP3   OH221313   0.728   4.042   4.840
 7119TIP3    H121314   0.675   4.001   4.773
 7119TIP3    H221315   0.708   4.136   4.834
 7120TIP3   OH221316   0.546   3.961   5.566
 7120TIP3    H121317   0.507   4.031   5.618
 7120TIP3    H221318   0.612   4.005   5.512
 7121TIP3   OH221319   1.292   3.321   5.214
 7121TIP3    H121320   1.255   3.298   5.299
 7121TIP3    H221321   1.352   3.394   5.232
 7122TIP3   OH221322   0.348   3.299   5.582
 7122TIP3    H121323   0.399   3.379   5.601
 7122TIP3    H221324   0.390   3.261   5.505
 7123TIP3   OH221325   0.403   4.157   5.700
 7123TIP3    H121326   0.369   4.187   5.616
 7123TIP3    H221327   0.332   4.106   5.738
 7124TIP3   OH221328   1.145   4.425   5.157
 7124TIP3    H121329   1.066   4.406   5.208
 7124TIP3    H221330   1.153   4.351   5.097
 7125TIP3   OH221331   1.494   3.264   5.549
 7125TIP3    H121332   1.409   3.289   5.514
 7125TIP3    H221333   1.557   3.291   5.481
 7126TIP3   OH221334   0.767   2.892   5.532
 7126TIP3    H121335   0.761   2.800   5.558
 7126TIP3    H221336   0.690   2.933   5.573
 7127TIP3   OH221337   0.900   4.452   4.872
 7127TIP3    H121338   0.935   4.365   4.852
 7127TIP3    H221339   0.964   4.512   4.834
 7128TIP3   OH221340   1.029   4.226   4.787
 7128TIP3    H121341   1.048   4.162   4.718
 7128TIP3    H221342   1.063   4.185   4.867
 7129TIP3   OH221343   1.402   4.285   5.516
 7129TIP3    H121344   1.389   4.206   5.463
 7129TIP3    H221345   1.388   4.357   5.455
 7130TIP3   OH221346   0.712   3.679   4.801
 7130TIP3    H121347   0.637   3.734   4.778
 7130TIP3    H221348   0.759   3.666   4.719
 7131TIP3   OH221349   0.659   3.460   4.509
 7131TIP3    H121350   0.723   3.523   4.542
 7131TIP3    H221351   0.709   3.405   4.449
 7132TIP3   OH221352   1.592   3.929   5.387
 7132TIP3    H121353   1.509   3.976   5.385
 7132TIP3    H221354   1.629   3.940   5.299
 7133TIP3   OH221355   1.032   3.712   4.779
 7133TIP3    H121356   0.991   3.767   4.846
 7133TIP3    H221357   1.125   3.715   4.800
 7134TIP3   OH221358   1.280   3.795   5.694
 7134TIP3    H121359   1.277   3.877   5.744
 7134TIP3    H221360   1.197   3.792   5.648
 7135TIP3   OH221361   0.312   3.756   5.161
 7135TIP3    H121362   0.273   3.705   5.090
 7135TIP3    H221363   0.395   3.714   5.180
 7136TIP3   OH221364   0.512   4.134   5.286
 7136TIP3    H121365   0.462   4.070   5.337
 7136TIP3    H221366   0.603   4.109   5.298
 7137TIP3   OH221367   0.438   3.723   5.482
 7137TIP3    H121368   0.489   3.710   5.402
 7137TIP3    H221369   0.469   3.806   5.517
 7138TIP3   OH221370   0.926   4.374   5.315
 7138TIP3    H121371   0.933   4.450   5.373
 7138TIP3    H221372   0.934   4.298   5.373
 7139TIP3   OH221373   0.581   4.277   5.865
 7139TIP3    H121374   0.540   4.363   5.874
 7139TIP3    H221375   0.518   4.225   5.815
 7140TIP3   OH221376   0.871   3.629   4.579
 7140TIP3    H121377   0.936   3.675   4.631
 7140TIP3    H221378   0.900   3.640   4.488
 7141TIP3   OH221379   0.269   3.857   5.981
 7141TIP3    H121380   0.307   3.939   6.011
 7141TIP3    H221381   0.175   3.874   5.978
 7142TIP3   OH221382   0.669   4.310   4.813
 7142TIP3    H121383   0.738   4.365   4.850
 7142TIP3    H221384   0.590   4.337   4.861
 7143TIP3   OH221385   0.300   4.568   5.955
 7143TIP3    H121386   0.348   4.545   5.875
 7143TIP3    H221387   0.246   4.491   5.973
 7144TIP3   OH221388   1.393   2.856   4.639
 7144TIP3    H121389   1.316   2.877   4.692
 7144TIP3    H221390   1.406   2.932   4.583
 7145TIP3   OH221391   0.186   3.613   4.966
 7145TIP3    H121392   0.111   3.673   4.968
 7145TIP3    H221393   0.146   3.526   4.957
 7146TIP3   OH221394   1.210   4.236   4.153
 7146TIP3    H121395   1.217   4.330   4.138
 7146TIP3    H221396   1.298   4.202   4.135
 7147TIP3   OH221397   1.636   4.632   5.583
 7147TIP3    H121398   1.642   4.537   5.599
 7147TIP3    H221399   1.559   4.660   5.632
 7148TIP3   OH221400   0.765   4.398   5.700
 7148TIP3    H121401   0.771   4.488   5.732
 7148TIP3    H221402   0.699   4.356   5.755
 7149TIP3   OH221403   0.503   4.522   4.636
 7149TIP3    H121404   0.467   4.528   4.548
 7149TIP3    H221405   0.499   4.611   4.670
 7150TIP3   OH221406   0.745   4.453   4.305
 7150TIP3    H121407   0.793   4.381   4.266
 7150TIP3    H221408   0.769   4.450   4.398
 7151TIP3   OH221409   0.772   4.475   4.583
 7151TIP3    H121410   0.682   4.485   4.615
 7151TIP3    H221411   0.807   4.400   4.631
 7152TIP3   OH221412   1.520   3.755   5.863
 7152TIP3    H121413   1.441   3.762   5.809
 7152TIP3    H221414   1.542   3.662   5.861
 7153TIP3   OH221415   0.535   2.974   5.657
 7153TIP3    H121416   0.449   2.943   5.631
 7153TIP3    H221417   0.518   3.055   5.706
 7154TIP3   OH221418   1.070   3.104   5.867
 7154TIP3    H121419   1.141   3.079   5.926
 7154TIP3    H221420   0.990   3.084   5.915
 7155TIP3   OH221421   1.285   3.528   5.780
 7155TIP3    H121422   1.245   3.524   5.867
 7155TIP3    H221423   1.270   3.618   5.750
 7156TIP3   OH221424   0.951   3.625   4.317
 7156TIP3    H121425   0.913   3.618   4.229
 7156TIP3    H221426   1.033   3.673   4.303
 7157TIP3   OH221427   0.668   3.032   4.634
 7157TIP3    H121428   0.634   3.037   4.724
 7157TIP3    H221429   0.638   2.948   4.601
 7158TIP3   OH221430   0.492   3.516   5.654
 7158TIP3    H121431   0.451   3.529   5.740
 7158TIP3    H221432   0.473   3.597   5.607
 7159TIP3   OH221433   0.358   3.398   5.186
 7159TIP3    H121434   0.268   3.378   5.213
 7159TIP3    H221435   0.364   3.364   5.097
 7160TIP3   OH221436   0.829   3.471   4.930
 7160TIP3    H121437   0.783   3.545   4.891
 7160TIP3    H221438   0.889   3.441   4.862
 7161TIP3   OH221439   1.021   3.738   6.001
 7161TIP3    H121440   0.991   3.671   6.063
 7161TIP3    H221441   1.114   3.751   6.022
 7162TIP3   OH221442   0.993   3.490   5.153
 7162TIP3    H121443   0.927   3.513   5.089
 7162TIP3    H221444   1.040   3.416   5.115
 7163TIP3   OH221445   0.362   3.522   5.896
 7163TIP3    H121446   0.323   3.577   5.964
 7163TIP3    H221447   0.373   3.437   5.938
 7164TIP3   OH221448   0.349   3.003   4.618
 7164TIP3    H121449   0.338   3.013   4.713
 7164TIP3    H221450   0.273   3.048   4.581
 7165TIP3   OH221451   8.398   3.046   5.477
 7165TIP3    H121452   8.482   3.076   5.513
 7165TIP3    H221453   8.421   3.005   5.394
 7166TIP3   OH221454   8.408   3.192   5.076
 7166TIP3    H121455   8.439   3.168   4.989
 7166TIP3    H221456   8.315   3.212   5.064
 7167TIP3   OH221457   1.024   3.739   5.585
 7167TIP3    H121458   1.052   3.671   5.523
 7167TIP3    H221459   0.983   3.690   5.657
 7168TIP3   OH221460   0.708   3.195   5.248
 7168TIP3    H121461   0.628   3.194   5.301
 7168TIP3    H221462   0.779   3.184   5.311
 7169TIP3   OH221463   0.127   3.245   5.233
 7169TIP3    H121464   0.054   3.231   5.173
 7169TIP3    H221465   0.175   3.162   5.234
 7170TIP3   OH221466   0.365   3.273   4.944
 7170TIP3    H121467   0.459   3.284   4.933
 7170TIP3    H221468   0.329   3.286   4.857
 7171TIP3   OH221469   1.158   3.280   5.461
 7171TIP3    H121470   1.134   3.296   5.552
 7171TIP3    H221471   1.093   3.217   5.430
 7172TIP3   OH221472   0.234   3.279   4.704
 7172TIP3    H121473   0.184   3.234   4.636
 7172TIP3    H221474   0.285   3.345   4.656
 7173TIP3   OH221475   1.347   4.986   5.688
 7173TIP3    H121476   1.349   4.996   5.593
 7173TIP3    H221477   1.426   5.029   5.719
 7174TIP3   OH221478   0.315   4.127   6.060
 7174TIP3    H121479   0.398   4.092   6.093
 7174TIP3    H221480   0.253   4.110   6.131
 7175TIP3   OH221481   0.771   3.544   5.348
 7175TIP3    H121482   0.837   3.495   5.299
 7175TIP3    H221483   0.771   3.504   5.435
 7176TIP3   OH221484   0.278   3.008   5.241
 7176TIP3    H121485   0.238   2.938   5.293
 7176TIP3    H221486   0.323   2.963   5.170
 7177TIP3   OH221487   0.753   3.450   5.612
 7177TIP3    H121488   0.664   3.479   5.630
 7177TIP3    H221489   0.808   3.504   5.671
 7178TIP3   OH221490   0.511   3.850   4.726
 7178TIP3    H121491   0.448   3.779   4.715
 7178TIP3    H221492   0.486   3.893   4.808
 7179TIP3   OH221493   1.355   4.071   5.349
 7179TIP3    H121494   1.391   4.112   5.270
 7179TIP3    H221495   1.280   4.021   5.318
 7180TIP3   OH221496   0.921   3.137   4.631
 7180TIP3    H121497   0.827   3.118   4.629
 7180TIP3    H221498   0.927   3.231   4.645
 7181TIP3   OH221499   0.887   4.142   5.748
 7181TIP3    H121500   0.920   4.126   5.836
 7181TIP3    H221501   0.844   4.227   5.754
 7182TIP3   OH221502   0.987   3.398   4.708
 7182TIP3    H121503   1.081   3.404   4.720
 7182TIP3    H221504   0.964   3.478   4.661
 7183TIP3   OH221505   0.202   3.910   5.397
 7183TIP3    H121506   0.240   3.846   5.337
 7183TIP3    H221507   0.191   3.863   5.480
 7184TIP3   OH221508   0.590   3.950   4.475
 7184TIP3    H121509   0.575   4.043   4.490
 7184TIP3    H221510   0.567   3.909   4.559
 7185TIP3   OH221511   0.807   3.905   6.041
 7185TIP3    H121512   0.738   3.841   6.019
 7185TIP3    H221513   0.888   3.862   6.014
 7186TIP3   OH221514   1.027   4.438   5.621
 7186TIP3    H121515   0.936   4.411   5.629
 7186TIP3    H221516   1.050   4.472   5.708
 7187TIP3   OH221517   1.405   3.489   4.530
 7187TIP3    H121518   1.351   3.446   4.464
 7187TIP3    H221519   1.401   3.582   4.508
 7188TIP3   OH221520   1.649   4.352   5.612
 7188TIP3    H121521   1.554   4.339   5.608
 7188TIP3    H221522   1.681   4.322   5.528
 7189TIP3   OH221523   1.150   4.301   4.419
 7189TIP3    H121524   1.150   4.217   4.464
 7189TIP3    H221525   1.165   4.280   4.327
 7190TIP3   OH221526   1.130   3.929   5.257
 7190TIP3    H121527   1.040   3.906   5.278
 7190TIP3    H221528   1.167   3.850   5.217
 7191TIP3   OH221529   0.196   4.126   4.937
 7191TIP3    H121530   0.153   4.191   4.881
 7191TIP3    H221531   0.232   4.177   5.009
 7192TIP3   OH221532   8.282   3.523   4.685
 7192TIP3    H121533   8.321   3.580   4.751
 7192TIP3    H221534   8.246   3.450   4.735
 7193TIP3   OH221535   0.391   3.934   4.961
 7193TIP3    H121536   0.319   3.996   4.971
 7193TIP3    H221537   0.379   3.872   5.033
 7194TIP3   OH221538   0.582   4.475   5.496
 7194TIP3    H121539   0.620   4.554   5.457
 7194TIP3    H221540   0.653   4.435   5.545
 7195TIP3   OH221541   0.181   4.412   4.870
 7195TIP3    H121542   0.093   4.414   4.907
 7195TIP3    H221543   0.216   4.500   4.886
 7196TIP3   OH221544   0.964   4.152   5.484
 7196TIP3    H121545   0.943   4.143   5.577
 7196TIP3    H221546   1.041   4.096   5.471
 7197TIP3   OH221547   0.877   4.023   4.356
 7197TIP3    H121548   0.956   4.014   4.409
 7197TIP3    H221549   0.808   3.983   4.408
 7198TIP3   OH221550   1.168   4.662   5.534
 7198TIP3    H121551   1.109   4.589   5.552
 7198TIP3    H221552   1.130   4.706   5.458
 7199TIP3   OH221553   1.231   4.510   4.150
 7199TIP3    H121554   1.269   4.584   4.102
 7199TIP3    H221555   1.153   4.546   4.192
 7200TIP3   OH221556   0.327   3.274   6.030
 7200TIP3    H121557   0.251   3.236   5.985
 7200TIP3    H221558   0.336   3.222   6.110
 7201TIP3   OH221559   0.194   4.013   4.558
 7201TIP3    H121560   0.281   3.974   4.562
 7201TIP3    H221561   0.209   4.107   4.570
 7202TIP3   OH221562   8.367   3.711   4.863
 7202TIP3    H121563   8.337   3.721   4.953
 7202TIP3    H221564   8.438   3.774   4.854
 7203TIP3   OH221565   1.090   3.338   5.723
 7203TIP3    H121566   1.170   3.381   5.753
 7203TIP3    H221567   1.083   3.259   5.777
 7204TIP3   OH221568   0.978   3.085   4.901
 7204TIP3    H121569   0.959   3.103   4.809
 7204TIP3    H221570   1.022   3.164   4.933
 7205TIP3   OH221571   0.529   4.218   4.523
 7205TIP3    H121572   0.496   4.185   4.606
 7205TIP3    H221573   0.538   4.313   4.537
 7206TIP3   OH221574   0.641   3.281   4.993
 7206TIP3    H121575   0.704   3.348   4.967
 7206TIP3    H221576   0.663   3.262   5.084
 7207TIP3   OH221577   0.935   3.573   5.783
 7207TIP3    H121578   0.962   3.618   5.863
 7207TIP3    H221579   0.986   3.491   5.783
 7208TIP3   OH221580   0.798   2.982   5.085
 7208TIP3    H121581   0.777   3.059   5.137
 7208TIP3    H221582   0.866   3.012   5.024
 7209TIP3   OH221583   0.210   4.289   4.618
 7209TIP3    H121584   0.217   4.353   4.548
 7209TIP3    H221585   0.188   4.340   4.696
 7210TIP3   OH221586   0.317   3.000   4.897
 7210TIP3    H121587   0.305   3.091   4.927
 7210TIP3    H221588   0.411   2.987   4.899
 7211TIP3   OH221589   1.553   3.485   5.774
 7211TIP3    H121590   1.457   3.486   5.781
 7211TIP3    H221591   1.570   3.438   5.692
 7212TIP3   OH221592   1.214   3.681   5.158
 7212TIP3    H121593   1.139   3.622   5.162
 7212TIP3    H221594   1.282   3.636   5.209
 7213TIP3   OH221595   8.359   3.974   4.738
 7213TIP3    H121596   8.390   4.064   4.749
 7213TIP3    H221597   8.267   3.984   4.713
 7214TIP3   OH221598  -0.001   3.170   4.820
 7214TIP3    H121599   0.077   3.225   4.813
 7214TIP3    H221600  -0.027   3.153   4.730
 7215TIP3   OH221601   1.168   4.720   5.034
 7215TIP3    H121602   1.154   4.630   5.065
 7215TIP3    H221603   1.261   4.736   5.048
 7216TIP3   OH221604   0.277   2.887   5.618
 7216TIP3    H121605   0.246   2.850   5.536
 7216TIP3    H221606   0.269   2.815   5.682
 7217TIP3   OH221607   0.559   4.672   6.014
 7217TIP3    H121608   0.615   4.608   6.058
 7217TIP3    H221609   0.470   4.650   6.042
 7218TIP3   OH221610   0.464   4.212   4.256
 7218TIP3    H121611   0.475   4.199   4.350
 7218TIP3    H221612   0.529   4.154   4.216
 7219TIP3   OH221613   1.080   4.539   5.867
 7219TIP3    H121614   1.077   4.468   5.931
 7219TIP3    H221615   1.155   4.592   5.892
 7220TIP3   OH221616   0.870   4.245   4.181
 7220TIP3    H121617   0.896   4.176   4.242
 7220TIP3    H221618   0.930   4.236   4.107
 7221TIP3   OH221619   0.245   3.723   4.401
 7221TIP3    H121620   0.240   3.751   4.493
 7221TIP3    H221621   0.173   3.660   4.392
 7222TIP3   OH221622   0.762   4.179   6.043
 7222TIP3    H121623   0.701   4.191   5.970
 7222TIP3    H221624   0.787   4.087   6.037
 7223TIP3   OH221625   1.192   4.208   5.676
 7223TIP3    H121626   1.270   4.239   5.629
 7223TIP3    H221627   1.124   4.271   5.654
 7224TIP3   OH221628   0.318   3.788   6.299
 7224TIP3    H121629   0.235   3.787   6.252
 7224TIP3    H221630   0.307   3.857   6.365
 7225TIP3   OH221631   0.329   3.656   4.721
 7225TIP3    H121632   0.282   3.633   4.801
 7225TIP3    H221633   0.330   3.575   4.670
 7226TIP3   OH221634   0.605   3.718   5.971
 7226TIP3    H121635   0.556   3.791   6.009
 7226TIP3    H221636   0.633   3.750   5.885
 7227TIP3   OH221637   0.390   3.443   4.550
 7227TIP3    H121638   0.368   3.451   4.458
 7227TIP3    H221639   0.486   3.443   4.552
 7228TIP3   OH221640   1.073   4.093   6.038
 7228TIP3    H121641   1.146   4.056   5.988
 7228TIP3    H221642   1.067   4.038   6.116
 7229TIP3   OH221643   1.179   3.748   4.215
 7229TIP3    H121644   1.165   3.715   4.126
 7229TIP3    H221645   1.160   3.842   4.209
 7230TIP3   OH221646   0.687   3.472   6.053
 7230TIP3    H121647   0.697   3.404   5.987
 7230TIP3    H221648   0.658   3.549   6.005
 7231TIP3   OH221649   0.714   3.285   5.846
 7231TIP3    H121650   0.745   3.319   5.762
 7231TIP3    H221651   0.626   3.253   5.828
 7232TIP3   OH221652   0.705   3.812   5.738
 7232TIP3    H121653   0.787   3.838   5.696
 7232TIP3    H221654   0.637   3.852   5.684
 7233TIP3   OH221655   1.283   3.765   6.105
 7233TIP3    H121656   1.317   3.677   6.119
 7233TIP3    H221657   1.358   3.816   6.074
 7234TIP3   OH221658   1.311   4.034   5.846
 7234TIP3    H121659   1.258   4.095   5.795
 7234TIP3    H221660   1.400   4.047   5.814
 7235TIP3   OH221661   0.573   3.574   6.291
 7235TIP3    H121662   0.527   3.491   6.302
 7235TIP3    H221663   0.606   3.572   6.201
 7236TIP3   OH221664   0.811   3.044   5.950
 7236TIP3    H121665   0.773   3.126   5.916
 7236TIP3    H221666   0.744   2.978   5.933
 7237TIP3   OH221667   0.935   3.531   6.158
 7237TIP3    H121668   0.928   3.519   6.253
 7237TIP3    H221669   0.850   3.502   6.124
 7238TIP3   OH221670   1.171   3.480   6.019
 7238TIP3    H121671   1.094   3.481   6.076
 7238TIP3    H221672   1.243   3.453   6.076
 7239TIP3   OH221673   1.401   3.441   6.171
 7239TIP3    H121674   1.416   3.347   6.179
 7239TIP3    H221675   1.397   3.473   6.261
 7240TIP3   OH221676   0.443   3.336   6.341
 7240TIP3    H121677   0.436   3.252   6.296
 7240TIP3    H221678   0.476   3.314   6.428
 7241TIP3   OH221679   0.877   3.029   6.215
 7241TIP3    H121680   0.947   2.963   6.209
 7241TIP3    H221681   0.844   3.037   6.125
 7242TIP3   OH221682   0.967   3.252   6.348
 7242TIP3    H121683   0.936   3.178   6.296
 7242TIP3    H221684   0.892   3.311   6.353
 7243TIP3   OH221685   0.211   4.494   4.436
 7243TIP3    H121686   0.299   4.494   4.399
 7243TIP3    H221687   0.155   4.524   4.364
 7244TIP3   OH221688   1.430   4.761   5.080
 7244TIP3    H121689   1.468   4.757   5.168
 7244TIP3    H221690   1.506   4.767   5.022
 7245TIP3   OH221691   1.493   4.728   5.356
 7245TIP3    H121692   1.442   4.647   5.350
 7245TIP3    H221693   1.561   4.709   5.420
 7246TIP3   OH221694   1.518   4.437   5.934
 7246TIP3    H121695   1.450   4.443   6.001
 7246TIP3    H221696   1.565   4.520   5.941
 7247TIP3   OH221697   1.494   3.786   4.744
 7247TIP3    H121698   1.414   3.763   4.791
 7247TIP3    H221699   1.545   3.837   4.806
 7248TIP3   OH221700   1.514   4.203   5.164
 7248TIP3    H121701   1.575   4.135   5.136
 7248TIP3    H221702   1.532   4.277   5.105
 7249TIP3   OH221703   1.329   4.504   5.359
 7249TIP3    H121704   1.268   4.541   5.422
 7249TIP3    H221705   1.274   4.473   5.287
 7250TIP3   OH221706   1.370   3.741   4.415
 7250TIP3    H121707   1.303   3.739   4.347
 7250TIP3    H221708   1.344   3.813   4.473
 7251TIP3   OH221709   1.259   3.378   4.327
 7251TIP3    H121710   1.208   3.418   4.256
 7251TIP3    H221711   1.244   3.284   4.316
 7252TIP3   OH221712   1.284   3.673   4.889
 7252TIP3    H121713   1.292   3.579   4.874
 7252TIP3    H221714   1.267   3.681   4.983
 7253TIP3   OH221715   1.566   4.087   5.745
 7253TIP3    H121716   1.629   4.016   5.735
 7253TIP3    H221717   1.590   4.151   5.678
 7254TIP3   OH221718   1.737   3.875   5.746
 7254TIP3    H121719   1.664   3.830   5.789
 7254TIP3    H221720   1.812   3.818   5.762
 7255TIP3   OH221721   1.207   3.107   4.301
 7255TIP3    H121722   1.274   3.082   4.364
 7255TIP3    H221723   1.127   3.065   4.332
 7256TIP3   OH221724   1.275   3.393   4.770
 7256TIP3    H121725   1.319   3.309   4.783
 7256TIP3    H221726   1.319   3.432   4.695
 7257TIP3   OH221727   1.426   3.555   5.291
 7257TIP3    H121728   1.507   3.575   5.244
 7257TIP3    H221729   1.441   3.590   5.379
 7258TIP3   OH221730   1.503   3.703   5.521
 7258TIP3    H121731   1.429   3.735   5.572
 7258TIP3    H221732   1.536   3.780   5.475
 7259TIP3   OH221733   0.024   3.434   6.355
 7259TIP3    H121734   0.112   3.456   6.325
 7259TIP3    H221735   0.032   3.427   6.450
 7260TIP3   OH221736   1.957   3.304   6.060
 7260TIP3    H121737   2.020   3.245   6.020
 7260TIP3    H221738   1.920   3.354   5.987
 7261TIP3   OH221739   1.385   3.143   4.825
 7261TIP3    H121740   1.434   3.126   4.905
 7261TIP3    H221741   1.325   3.069   4.818
 7262TIP3   OH221742   0.145   3.114   5.562
 7262TIP3    H121743   0.194   3.032   5.574
 7262TIP3    H221744   0.212   3.181   5.556
 7263TIP3   OH221745   1.810   3.420   5.861
 7263TIP3    H121746   1.724   3.460   5.874
 7263TIP3    H221747   1.792   3.341   5.808
 7264TIP3   OH221748   1.434   3.059   4.455
 7264TIP3    H121749   1.481   2.995   4.400
 7264TIP3    H221750   1.494   3.133   4.462
 7265TIP3   OH221751   8.393   2.882   5.255
 7265TIP3    H121752   8.332   2.811   5.270
 7265TIP3    H221753   8.393   2.894   5.160
 7266TIP3   OH221754   1.076   4.643   4.751
 7266TIP3    H121755   1.025   4.622   4.673
 7266TIP3    H221756   1.165   4.615   4.730
 7267TIP3   OH221757   8.474   3.010   6.140
 7267TIP3    H121758   8.384   2.981   6.156
 7267TIP3    H221759   8.489   2.990   6.048
 7268TIP3   OH221760   0.292   4.439   5.678
 7268TIP3    H121761   0.295   4.503   5.608
 7268TIP3    H221762   0.383   4.426   5.703
 7269TIP3   OH221763   0.782   4.662   5.775
 7269TIP3    H121764   0.809   4.662   5.867
 7269TIP3    H221765   0.849   4.713   5.730
 7270TIP3   OH221766   0.963   4.833   5.654
 7270TIP3    H121767   1.037   4.778   5.630
 7270TIP3    H221768   0.999   4.897   5.716
 7271TIP3   OH221769   1.721   3.177   5.753
 7271TIP3    H121770   1.635   3.170   5.712
 7271TIP3    H221771   1.758   3.089   5.747
 7272TIP3   OH221772   0.300   4.628   5.465
 7272TIP3    H121773   0.208   4.626   5.491
 7272TIP3    H221774   0.306   4.568   5.390
 7273TIP3   OH221775   0.663   4.695   5.343
 7273TIP3    H121776   0.685   4.706   5.250
 7273TIP3    H221777   0.674   4.782   5.380
 7274TIP3   OH221778   0.927   4.642   5.392
 7274TIP3    H121779   0.832   4.650   5.383
 7274TIP3    H221780   0.962   4.722   5.352
 7275TIP3   OH221781   1.110   4.844   5.298
 7275TIP3    H121782   1.063   4.923   5.271
 7275TIP3    H221783   1.139   4.804   5.217
 7276TIP3   OH221784   0.111   4.419   5.228
 7276TIP3    H121785   0.063   4.337   5.235
 7276TIP3    H221786   0.200   4.393   5.203
 7277TIP3   OH221787   0.421   4.468   5.277
 7277TIP3    H121788   0.437   4.391   5.223
 7277TIP3    H221789   0.487   4.464   5.345
 7278TIP3   OH221790   0.930   3.099   5.389
 7278TIP3    H121791   0.890   3.024   5.434
 7278TIP3    H221792   0.999   3.060   5.335
 7279TIP3   OH221793   1.437   3.004   5.275
 7279TIP3    H121794   1.478   3.054   5.204
 7279TIP3    H221795   1.345   3.032   5.274
 7280TIP3   OH221796   1.553   3.091   5.040
 7280TIP3    H121797   1.619   3.029   5.010
 7280TIP3    H221798   1.593   3.177   5.025
 7281TIP3   OH221799   0.176   2.789   5.379
 7281TIP3    H121800   0.087   2.757   5.385
 7281TIP3    H221801   0.231   2.711   5.378
 7282TIP3   OH221802   0.056   2.660   5.048
 7282TIP3    H121803   0.076   2.712   4.970
 7282TIP3    H221804   0.050   2.724   5.118
 7283TIP3   OH221805   0.637   2.846   5.277
 7283TIP3    H121806   0.690   2.889   5.210
 7283TIP3    H221807   0.681   2.868   5.359
 7284TIP3   OH221808   1.147   2.992   5.255
 7284TIP3    H121809   1.161   2.958   5.166
 7284TIP3    H221810   1.149   2.914   5.311
 7285TIP3   OH221811   1.200   2.930   4.823
 7285TIP3    H121812   1.119   2.977   4.845
 7285TIP3    H221813   1.189   2.843   4.862
 7286TIP3   OH221814   0.117   2.823   4.823
 7286TIP3    H121815   0.160   2.765   4.761
 7286TIP3    H221816   0.185   2.886   4.848
 7287TIP3   OH221817   0.589   3.029   4.901
 7287TIP3    H121818   0.650   2.977   4.953
 7287TIP3    H221819   0.606   3.120   4.926
 7288TIP3   OH221820   0.474   4.470   4.361
 7288TIP3    H121821   0.565   4.486   4.337
 7288TIP3    H221822   0.450   4.390   4.313
 7289TIP3   OH221823   1.160   4.559   4.494
 7289TIP3    H121824   1.160   4.465   4.480
 7289TIP3    H221825   1.123   4.595   4.413
 7290TIP3   OH221826   0.444   3.070   6.250
 7290TIP3    H121827   0.395   3.017   6.314
 7290TIP3    H221828   0.533   3.074   6.285
 7291TIP3   OH221829   0.674   3.081   6.404
 7291TIP3    H121830   0.750   3.055   6.352
 7291TIP3    H221831   0.665   3.013   6.470
 7292TIP3   OH221832   1.467   3.172   6.184
 7292TIP3    H121833   1.483   3.142   6.274
 7292TIP3    H221834   1.552   3.166   6.141
 7293TIP3   OH221835   1.394   4.712   5.689
 7293TIP3    H121836   1.318   4.682   5.639
 7293TIP3    H221837   1.379   4.806   5.702
 7294TIP3   OH221838   1.969   3.977   5.190
 7294TIP3    H121839   1.989   3.908   5.253
 7294TIP3    H221840   2.055   4.011   5.164
 7295TIP3   OH221841   2.940   4.385   4.506
 7295TIP3    H121842   2.980   4.312   4.553
 7295TIP3    H221843   2.952   4.461   4.563
 7296TIP3   OH221844   1.931   4.370   4.926
 7296TIP3    H121845   1.937   4.278   4.901
 7296TIP3    H221846   1.999   4.381   4.993
 7297TIP3   OH221847   1.644   3.575   4.658
 7297TIP3    H121848   1.606   3.658   4.687
 7297TIP3    H221849   1.572   3.528   4.615
 7298TIP3   OH221850   1.713   3.888   4.893
 7298TIP3    H121851   1.754   3.806   4.922
 7298TIP3    H221852   1.770   3.922   4.825
 7299TIP3   OH221853   2.580   4.830   4.527
 7299TIP3    H121854   2.609   4.758   4.471
 7299TIP3    H221855   2.592   4.798   4.616
 7300TIP3   OH221856   3.483   3.632   4.867
 7300TIP3    H121857   3.518   3.707   4.914
 7300TIP3    H221858   3.529   3.631   4.783
 7301TIP3   OH221859   2.920   3.869   4.931
 7301TIP3    H121860   2.916   3.773   4.920
 7301TIP3    H221861   2.880   3.903   4.851
 7302TIP3   OH221862   2.228   3.508   4.829
 7302TIP3    H121863   2.200   3.594   4.800
 7302TIP3    H221864   2.168   3.447   4.786
 7303TIP3   OH221865   2.920   3.536   4.471
 7303TIP3    H121866   2.972   3.537   4.551
 7303TIP3    H221867   2.973   3.584   4.407
 7304TIP3   OH221868   1.844   3.666   4.991
 7304TIP3    H121869   1.936   3.674   5.014
 7304TIP3    H221870   1.842   3.598   4.923
 7305TIP3   OH221871   3.569   3.837   5.044
 7305TIP3    H121872   3.478   3.862   5.060
 7305TIP3    H221873   3.615   3.863   5.123
 7306TIP3   OH221874   2.212   3.486   5.281
 7306TIP3    H121875   2.172   3.539   5.212
 7306TIP3    H221876   2.150   3.494   5.354
 7307TIP3   OH221877   2.567   4.308   4.336
 7307TIP3    H121878   2.514   4.244   4.287
 7307TIP3    H221879   2.508   4.382   4.349
 7308TIP3   OH221880   2.304   4.193   5.171
 7308TIP3    H121881   2.245   4.268   5.160
 7308TIP3    H221882   2.339   4.178   5.083
 7309TIP3   OH221883   3.084   3.541   4.690
 7309TIP3    H121884   3.041   3.538   4.775
 7309TIP3    H221885   3.175   3.515   4.708
 7310TIP3   OH221886   2.113   3.616   5.057
 7310TIP3    H121887   2.133   3.701   5.019
 7310TIP3    H221888   2.153   3.553   4.996
 7311TIP3   OH221889   2.128   4.432   5.162
 7311TIP3    H121890   2.124   4.526   5.145
 7311TIP3    H221891   2.058   4.415   5.224
 7312TIP3   OH221892   1.501   4.097   4.428
 7312TIP3    H121893   1.410   4.070   4.446
 7312TIP3    H221894   1.514   4.175   4.481
 7313TIP3   OH221895   2.963   4.632   4.658
 7313TIP3    H121896   2.881   4.622   4.705
 7313TIP3    H221897   2.957   4.719   4.619
 7314TIP3   OH221898   3.277   3.530   5.034
 7314TIP3    H121899   3.191   3.550   4.997
 7314TIP3    H221900   3.339   3.555   4.965
 7315TIP3   OH221901   2.549   3.155   5.031
 7315TIP3    H121902   2.540   3.062   5.054
 7315TIP3    H221903   2.474   3.197   5.071
 7316TIP3   OH221904   2.678   4.658   4.319
 7316TIP3    H121905   2.732   4.580   4.305
 7316TIP3    H221906   2.734   4.731   4.292
 7317TIP3   OH221907   2.812   4.403   4.263
 7317TIP3    H121908   2.727   4.367   4.287
 7317TIP3    H221909   2.864   4.398   4.343
 7318TIP3   OH221910   3.192   4.533   5.018
 7318TIP3    H121911   3.181   4.457   4.961
 7318TIP3    H221912   3.176   4.609   4.961
 7319TIP3   OH221913   2.518   3.964   4.261
 7319TIP3    H121914   2.448   3.986   4.322
 7319TIP3    H221915   2.480   3.980   4.174
 7320TIP3   OH221916   2.448   3.735   3.991
 7320TIP3    H121917   2.503   3.755   4.067
 7320TIP3    H221918   2.501   3.675   3.938
 7321TIP3   OH221919   3.070   4.035   5.179
 7321TIP3    H121920   3.045   4.125   5.200
 7321TIP3    H221921   3.025   4.016   5.097
 7322TIP3   OH221922   2.735   4.625   4.807
 7322TIP3    H121923   2.719   4.715   4.834
 7322TIP3    H221924   2.714   4.572   4.884
 7323TIP3   OH221925   2.342   4.525   5.339
 7323TIP3    H121926   2.280   4.583   5.383
 7323TIP3    H221927   2.287   4.471   5.282
 7324TIP3   OH221928   2.726   3.867   4.050
 7324TIP3    H121929   2.729   3.954   4.090
 7324TIP3    H221930   2.724   3.884   3.956
 7325TIP3   OH221931   2.107   4.087   5.489
 7325TIP3    H121932   2.105   4.181   5.505
 7325TIP3    H221933   2.016   4.063   5.475
 7326TIP3   OH221934   2.426   4.548   4.354
 7326TIP3    H121935   2.508   4.597   4.345
 7326TIP3    H221936   2.365   4.593   4.295
 7327TIP3   OH221937   2.136   4.693   5.422
 7327TIP3    H121938   2.111   4.705   5.330
 7327TIP3    H221939   2.053   4.680   5.468
 7328TIP3   OH221940   3.184   3.114   4.121
 7328TIP3    H121941   3.108   3.135   4.175
 7328TIP3    H221942   3.197   3.192   4.066
 7329TIP3   OH221943   1.942   3.842   4.400
 7329TIP3    H121944   1.855   3.878   4.385
 7329TIP3    H221945   1.933   3.788   4.478
 7330TIP3   OH221946   3.008   4.483   3.683
 7330TIP3    H121947   3.010   4.576   3.662
 7330TIP3    H221948   3.098   4.453   3.670
 7331TIP3   OH221949   1.722   4.248   5.371
 7331TIP3    H121950   1.659   4.219   5.305
 7331TIP3    H221951   1.761   4.166   5.404
 7332TIP3   OH221952   1.622   4.422   5.008
 7332TIP3    H121953   1.703   4.390   4.969
 7332TIP3    H221954   1.651   4.489   5.070
 7333TIP3   OH221955   3.430   4.899   5.071
 7333TIP3    H121956   3.436   4.804   5.079
 7333TIP3    H221957   3.351   4.922   5.119
 7334TIP3   OH221958   2.499   4.686   5.176
 7334TIP3    H121959   2.514   4.772   5.216
 7334TIP3    H221960   2.456   4.635   5.245
 7335TIP3   OH221961   2.315   4.786   4.153
 7335TIP3    H121962   2.265   4.764   4.075
 7335TIP3    H221963   2.278   4.870   4.182
 7336TIP3   OH221964   1.748   4.649   4.550
 7336TIP3    H121965   1.797   4.633   4.630
 7336TIP3    H221966   1.700   4.567   4.534
 7337TIP3   OH221967   2.514   4.706   3.784
 7337TIP3    H121968   2.565   4.633   3.749
 7337TIP3    H221969   2.549   4.720   3.872
 7338TIP3   OH221970   2.567   4.753   4.053
 7338TIP3    H121971   2.481   4.759   4.095
 7338TIP3    H221972   2.625   4.719   4.121
 7339TIP3   OH221973   3.305   4.003   5.341
 7339TIP3    H121974   3.226   4.017   5.289
 7339TIP3    H221975   3.322   3.909   5.333
 7340TIP3   OH221976   1.923   4.434   5.346
 7340TIP3    H121977   1.976   4.422   5.425
 7340TIP3    H221978   1.854   4.368   5.353
 7341TIP3   OH221979   2.311   3.252   5.158
 7341TIP3    H121980   2.227   3.218   5.126
 7341TIP3    H221981   2.289   3.337   5.196
 7342TIP3   OH221982   2.857   3.366   5.351
 7342TIP3    H121983   2.927   3.340   5.411
 7342TIP3    H221984   2.776   3.347   5.398
 7343TIP3   OH221985   3.076   3.777   5.278
 7343TIP3    H121986   3.040   3.781   5.367
 7343TIP3    H221987   3.061   3.864   5.242
 7344TIP3   OH221988   2.724   3.900   3.774
 7344TIP3    H121989   2.716   3.853   3.691
 7344TIP3    H221990   2.809   3.943   3.770
 7345TIP3   OH221991   2.477   3.282   4.128
 7345TIP3    H121992   2.442   3.289   4.217
 7345TIP3    H221993   2.436   3.202   4.093
 7346TIP3   OH221994   2.595   3.715   4.372
 7346TIP3    H121995   2.579   3.806   4.347
 7346TIP3    H221996   2.670   3.689   4.319
 7347TIP3   OH221997   2.797   4.011   5.496
 7347TIP3    H121998   2.774   3.939   5.555
 7347TIP3    H221999   2.890   4.026   5.511
 7348TIP3   OH222000   2.044   3.795   5.387
 7348TIP3    H122001   2.115   3.840   5.434
 7348TIP3    H222002   2.045   3.706   5.422
 7349TIP3   OH222003   2.130   3.274   4.090
 7349TIP3    H122004   2.124   3.269   4.185
 7349TIP3    H222005   2.053   3.324   4.063
 7350TIP3   OH222006   1.688   3.317   4.975
 7350TIP3    H122007   1.748   3.348   5.043
 7350TIP3    H222008   1.725   3.349   4.893
 7351TIP3   OH222009   1.595   3.289   4.471
 7351TIP3    H122010   1.644   3.324   4.396
 7351TIP3    H222011   1.534   3.359   4.494
 7352TIP3   OH222012   2.488   3.445   4.736
 7352TIP3    H122013   2.404   3.463   4.780
 7352TIP3    H222014   2.554   3.459   4.804
 7353TIP3   OH222015   1.856   3.472   4.801
 7353TIP3    H122016   1.797   3.503   4.732
 7353TIP3    H222017   1.921   3.420   4.755
 7354TIP3   OH222018   2.136   3.496   4.447
 7354TIP3    H122019   2.224   3.535   4.452
 7354TIP3    H222020   2.097   3.536   4.369
 7355TIP3   OH222021   2.952   3.548   4.940
 7355TIP3    H122022   2.929   3.571   5.030
 7355TIP3    H222023   2.883   3.489   4.911
 7356TIP3   OH222024   2.020   3.552   4.199
 7356TIP3    H122025   1.953   3.508   4.146
 7356TIP3    H222026   2.074   3.599   4.136
 7357TIP3   OH222027   3.141   5.240   5.169
 7357TIP3    H122028   3.138   5.256   5.075
 7357TIP3    H222029   3.220   5.285   5.198
 7358TIP3   OH222030   2.081   4.356   5.577
 7358TIP3    H122031   2.163   4.373   5.624
 7358TIP3    H222032   2.014   4.357   5.646
 7359TIP3   OH222033   2.060   3.296   4.728
 7359TIP3    H122034   2.032   3.218   4.776
 7359TIP3    H222035   2.094   3.262   4.646
 7360TIP3   OH222036   2.246   4.099   4.237
 7360TIP3    H122037   2.182   4.030   4.218
 7360TIP3    H222038   2.233   4.117   4.330
 7361TIP3   OH222039   3.173   4.330   4.831
 7361TIP3    H122040   3.221   4.373   4.761
 7361TIP3    H222041   3.128   4.257   4.788
 7362TIP3   OH222042   2.688   3.421   4.029
 7362TIP3    H122043   2.614   3.378   4.073
 7362TIP3    H222044   2.719   3.485   4.094
 7363TIP3   OH222045   2.708   4.465   5.220
 7363TIP3    H122046   2.709   4.417   5.303
 7363TIP3    H222047   2.617   4.459   5.189
 7364TIP3   OH222048   2.788   3.634   4.181
 7364TIP3    H122049   2.880   3.634   4.206
 7364TIP3    H222050   2.776   3.715   4.133
 7365TIP3   OH222051   1.980   4.098   4.905
 7365TIP3    H122052   2.062   4.073   4.862
 7365TIP3    H222053   1.964   4.027   4.967
 7366TIP3   OH222054   2.394   4.226   4.048
 7366TIP3    H122055   2.363   4.316   4.057
 7366TIP3    H222056   2.342   4.177   4.111
 7367TIP3   OH222057   1.826   4.038   5.519
 7367TIP3    H122058   1.847   4.016   5.610
 7367TIP3    H222059   1.765   3.970   5.491
 7368TIP3   OH222060   2.561   4.154   5.525
 7368TIP3    H122061   2.494   4.100   5.483
 7368TIP3    H222062   2.644   4.112   5.502
 7369TIP3   OH222063   2.801   4.720   5.113
 7369TIP3    H122064   2.736   4.651   5.129
 7369TIP3    H222065   2.829   4.748   5.200
 7370TIP3   OH222066   3.202   3.750   4.030
 7370TIP3    H122067   3.145   3.702   3.970
 7370TIP3    H222068   3.212   3.836   3.990
 7371TIP3   OH222069   3.445   4.622   5.091
 7371TIP3    H122070   3.352   4.601   5.097
 7371TIP3    H222071   3.473   4.581   5.009
 7372TIP3   OH222072   2.924   4.560   3.942
 7372TIP3    H122073   2.903   4.486   3.999
 7372TIP3    H222074   2.950   4.519   3.859
 7373TIP3   OH222075   2.072   4.439   4.549
 7373TIP3    H122076   2.057   4.508   4.483
 7373TIP3    H222077   1.991   4.388   4.549
 7374TIP3   OH222078   1.595   3.714   4.249
 7374TIP3    H122079   1.646   3.793   4.264
 7374TIP3    H222080   1.522   3.721   4.310
 7375TIP3   OH222081   2.212   4.165   4.502
 7375TIP3    H122082   2.175   4.243   4.542
 7375TIP3    H222083   2.228   4.106   4.575
 7376TIP3   OH222084   2.336   4.735   4.963
 7376TIP3    H122085   2.374   4.813   4.923
 7376TIP3    H222086   2.401   4.707   5.028
 7377TIP3   OH222087   1.974   4.657   4.386
 7377TIP3    H122088   1.890   4.663   4.432
 7377TIP3    H222089   2.009   4.746   4.389
 7378TIP3   OH222090   2.689   4.284   3.844
 7378TIP3    H122091   2.743   4.258   3.919
 7378TIP3    H222092   2.601   4.257   3.867
 7379TIP3   OH222093   2.957   4.918   5.005
 7379TIP3    H122094   2.892   4.851   5.025
 7379TIP3    H222095   2.919   4.966   4.931
 7380TIP3   OH222096   3.019   4.759   3.650
 7380TIP3    H122097   3.058   4.828   3.597
 7380TIP3    H222098   2.941   4.800   3.689
 7381TIP3   OH222099   2.038   3.533   5.500
 7381TIP3    H122100   1.943   3.536   5.510
 7381TIP3    H222101   2.068   3.476   5.570
 7382TIP3   OH222102   2.855   4.216   4.054
 7382TIP3    H122103   2.843   4.274   4.129
 7382TIP3    H222104   2.949   4.199   4.051
 7383TIP3   OH222105   1.762   4.622   5.169
 7383TIP3    H122106   1.815   4.559   5.218
 7383TIP3    H222107   1.780   4.706   5.210
 7384TIP3   OH222108   2.046   4.257   3.843
 7384TIP3    H122109   2.060   4.166   3.818
 7384TIP3    H222110   2.029   4.253   3.938
 7385TIP3   OH222111   1.998   4.273   4.115
 7385TIP3    H122112   2.066   4.237   4.171
 7385TIP3    H222113   2.003   4.368   4.129
 7386TIP3   OH222114   1.706   3.961   4.309
 7386TIP3    H122115   1.635   4.000   4.359
 7386TIP3    H222116   1.728   4.028   4.243
 7387TIP3   OH222117   2.878   3.601   5.202
 7387TIP3    H122118   2.956   3.646   5.233
 7387TIP3    H222119   2.874   3.521   5.255
 7388TIP3   OH222120   2.762   3.334   4.387
 7388TIP3    H122121   2.713   3.375   4.316
 7388TIP3    H222122   2.815   3.405   4.424
 7389TIP3   OH222123   2.276   4.472   4.070
 7389TIP3    H122124   2.188   4.489   4.104
 7389TIP3    H222125   2.292   4.543   4.008
 7390TIP3   OH222126   2.418   3.537   4.480
 7390TIP3    H122127   2.477   3.604   4.447
 7390TIP3    H222128   2.444   3.524   4.571
 7391TIP3   OH222129   2.693   3.770   5.342
 7391TIP3    H122130   2.742   3.849   5.365
 7391TIP3    H222131   2.753   3.720   5.287
 7392TIP3   OH222132   2.586   3.237   4.579
 7392TIP3    H122133   2.562   3.314   4.631
 7392TIP3    H222134   2.655   3.268   4.520
 7393TIP3   OH222135   2.018   4.548   4.137
 7393TIP3    H122136   1.993   4.616   4.075
 7393TIP3    H222137   2.000   4.585   4.223
 7394TIP3   OH222138   2.111   3.237   4.365
 7394TIP3    H122139   2.099   3.326   4.399
 7394TIP3    H222140   2.205   3.220   4.374
 7395TIP3   OH222141   3.338   3.734   5.226
 7395TIP3    H122142   3.245   3.741   5.249
 7395TIP3    H222143   3.342   3.659   5.166
 7396TIP3   OH222144   1.743   4.155   4.109
 7396TIP3    H122145   1.818   4.213   4.122
 7396TIP3    H222146   1.774   4.090   4.045
 7397TIP3   OH222147   1.651   3.439   4.245
 7397TIP3    H122148   1.661   3.533   4.259
 7397TIP3    H222149   1.567   3.431   4.199
 7398TIP3   OH222150   2.982   4.904   4.582
 7398TIP3    H122151   2.941   4.954   4.512
 7398TIP3    H222152   3.076   4.917   4.570
 7399TIP3   OH222153   2.048   3.166   5.118
 7399TIP3    H122154   2.022   3.137   5.030
 7399TIP3    H222155   2.037   3.088   5.173
 7400TIP3   OH222156   1.590   4.428   4.513
 7400TIP3    H122157   1.514   4.427   4.570
 7400TIP3    H222158   1.555   4.451   4.427
 7401TIP3   OH222159   1.775   4.950   5.577
 7401TIP3    H122160   1.856   4.958   5.626
 7401TIP3    H222161   1.764   4.856   5.565
 7402TIP3   OH222162   2.237   4.865   5.614
 7402TIP3    H122163   2.329   4.843   5.627
 7402TIP3    H222164   2.208   4.807   5.543
 7403TIP3   OH222165   2.206   4.456   3.741
 7403TIP3    H122166   2.156   4.387   3.783
 7403TIP3    H222167   2.281   4.411   3.702
 7404TIP3   OH222168   2.864   4.801   5.368
 7404TIP3    H122169   2.872   4.728   5.429
 7404TIP3    H222170   2.941   4.856   5.386
 7405TIP3   OH222171   2.646   4.495   3.667
 7405TIP3    H122172   2.680   4.431   3.729
 7405TIP3    H222173   2.706   4.492   3.592
 7406TIP3   OH222174   1.879   4.345   5.769
 7406TIP3    H122175   1.901   4.253   5.779
 7406TIP3    H222176   1.792   4.345   5.728
 7407TIP3   OH222177   1.875   3.963   3.962
 7407TIP3    H122178   1.923   3.939   4.041
 7407TIP3    H222179   1.942   3.973   3.895
 7408TIP3   OH222180   2.493   4.427   5.548
 7408TIP3    H122181   2.450   4.446   5.464
 7408TIP3    H222182   2.527   4.338   5.537
 7409TIP3   OH222183   2.400   4.178   3.779
 7409TIP3    H122184   2.386   4.193   3.873
 7409TIP3    H222185   2.400   4.083   3.769
 7410TIP3   OH222186   2.976   4.408   5.168
 7410TIP3    H122187   3.024   4.474   5.118
 7410TIP3    H222188   2.886   4.441   5.170
 7411TIP3   OH222189   1.995   4.090   5.767
 7411TIP3    H122190   2.070   4.066   5.712
 7411TIP3    H222191   2.033   4.107   5.853
 7412TIP3   OH222192   2.060   3.905   4.165
 7412TIP3    H122193   2.023   3.878   4.249
 7412TIP3    H222194   2.098   3.825   4.129
 7413TIP3   OH222195   2.357   4.012   5.390
 7413TIP3    H122196   2.273   4.033   5.430
 7413TIP3    H222197   2.355   4.056   5.306
 7414TIP3   OH222198   2.173   3.697   4.020
 7414TIP3    H122199   2.149   3.702   3.928
 7414TIP3    H222200   2.269   3.703   4.020
 7415TIP3   OH222201   2.865   4.351   5.535
 7415TIP3    H122202   2.935   4.313   5.481
 7415TIP3    H222203   2.858   4.292   5.610
 7416TIP3   OH222204   2.973   4.005   3.705
 7416TIP3    H122205   2.969   3.961   3.620
 7416TIP3    H222206   2.950   4.096   3.687
 7417TIP3   OH222207   2.446   3.770   5.537
 7417TIP3    H122208   2.462   3.691   5.486
 7417TIP3    H222209   2.435   3.839   5.471
 7418TIP3   OH222210   2.468   3.541   5.367
 7418TIP3    H122211   2.512   3.592   5.299
 7418TIP3    H222212   2.381   3.525   5.332
 7419TIP3   OH222213   3.066   4.036   5.589
 7419TIP3    H122214   3.078   3.941   5.582
 7419TIP3    H222215   3.141   4.073   5.543
 7420TIP3   OH222216   3.116   4.288   5.361
 7420TIP3    H122217   3.060   4.333   5.299
 7420TIP3    H222218   3.204   4.293   5.323
 7421TIP3   OH222219   2.340   3.836   5.783
 7421TIP3    H122220   2.274   3.769   5.799
 7421TIP3    H222221   2.369   3.820   5.694
 7422TIP3   OH222222   2.594   3.303   5.437
 7422TIP3    H122223   2.549   3.385   5.414
 7422TIP3    H222224   2.528   3.235   5.421
 7423TIP3   OH222225   2.720   3.793   5.644
 7423TIP3    H122226   2.690   3.774   5.733
 7423TIP3    H222227   2.645   3.772   5.589
 7424TIP3   OH222228   2.978   3.769   5.529
 7424TIP3    H122229   2.895   3.756   5.576
 7424TIP3    H222230   3.042   3.722   5.583
 7425TIP3   OH222231   3.212   3.695   5.663
 7425TIP3    H122232   3.221   3.600   5.672
 7425TIP3    H222233   3.204   3.727   5.753
 7426TIP3   OH222234   2.177   3.613   5.845
 7426TIP3    H122235   2.183   3.525   5.806
 7426TIP3    H222236   2.217   3.603   5.932
 7427TIP3   OH222237   2.664   3.291   5.702
 7427TIP3    H122238   2.733   3.225   5.697
 7427TIP3    H222239   2.632   3.299   5.611
 7428TIP3   OH222240   2.751   3.509   5.846
 7428TIP3    H122241   2.725   3.437   5.790
 7428TIP3    H222242   2.678   3.571   5.842
 7429TIP3   OH222243   2.001   4.756   3.951
 7429TIP3    H122244   2.091   4.735   3.925
 7429TIP3    H222245   1.964   4.802   3.875
 7430TIP3   OH222246   1.464   4.149   4.079
 7430TIP3    H122247   1.553   4.161   4.112
 7430TIP3    H222248   1.456   4.055   4.065
 7431TIP3   OH222249   1.333   4.727   4.623
 7431TIP3    H122250   1.290   4.667   4.562
 7431TIP3    H222251   1.395   4.672   4.671
 7432TIP3   OH222252   1.491   4.577   4.790
 7432TIP3    H122253   1.502   4.499   4.845
 7432TIP3    H222254   1.557   4.638   4.822
 7433TIP3   OH222255   3.251   4.961   4.569
 7433TIP3    H122256   3.272   4.992   4.658
 7433TIP3    H222257   3.307   5.014   4.512
 7434TIP3   OH222258   3.271   4.994   4.850
 7434TIP3    H122259   3.224   4.911   4.845
 7434TIP3    H222260   3.342   4.977   4.912
 7435TIP3   OH222261   3.322   4.693   5.421
 7435TIP3    H122262   3.252   4.699   5.485
 7435TIP3    H222263   3.367   4.778   5.426
 7436TIP3   OH222264   3.138   4.199   4.057
 7436TIP3    H122265   3.187   4.268   4.013
 7436TIP3    H222266   3.179   4.193   4.144
 7437TIP3   OH222267   3.320   4.457   4.632
 7437TIP3    H122268   3.282   4.414   4.555
 7437TIP3    H222269   3.331   4.548   4.606
 7438TIP3   OH222270   3.130   4.752   4.855
 7438TIP3    H122271   3.062   4.797   4.906
 7438TIP3    H222272   3.081   4.708   4.785
 7439TIP3   OH222273   3.187   3.988   3.883
 7439TIP3    H122274   3.112   3.987   3.824
 7439TIP3    H222275   3.170   4.060   3.944
 7440TIP3   OH222276   3.051   3.637   3.826
 7440TIP3    H122277   3.069   3.671   3.738
 7440TIP3    H222278   3.038   3.543   3.813
 7441TIP3   OH222279   1.701   4.004   5.141
 7441TIP3    H122280   1.693   3.964   5.054
 7441TIP3    H222281   1.795   4.002   5.159
 7442TIP3   OH222282   3.363   4.335   5.238
 7442TIP3    H122283   3.424   4.265   5.216
 7442TIP3    H222284   3.355   4.387   5.158
 7443TIP3   OH222285   3.521   4.108   5.211
 7443TIP3    H122286   3.448   4.072   5.261
 7443TIP3    H222287   3.597   4.056   5.239
 7444TIP3   OH222288   3.014   3.362   3.770
 7444TIP3    H122289   3.077   3.339   3.838
 7444TIP3    H222290   2.932   3.320   3.797
 7445TIP3   OH222291   3.064   3.639   4.252
 7445TIP3    H122292   3.110   3.557   4.267
 7445TIP3    H222293   3.116   3.684   4.185
 7446TIP3   OH222294   1.912   3.667   5.787
 7446TIP3    H122295   2.007   3.664   5.800
 7446TIP3    H222296   1.880   3.585   5.826
 7447TIP3   OH222297   3.755   3.562   5.545
 7447TIP3    H122298   3.817   3.501   5.505
 7447TIP3    H222299   3.716   3.609   5.472
 7448TIP3   OH222300   3.182   3.393   4.307
 7448TIP3    H122301   3.224   3.380   4.392
 7448TIP3    H222302   3.117   3.323   4.301
 7449TIP3   OH222303   1.883   3.389   5.161
 7449TIP3    H122304   1.942   3.314   5.152
 7449TIP3    H222305   1.934   3.463   5.127
 7450TIP3   OH222306   1.670   3.651   5.207
 7450TIP3    H122307   1.717   3.644   5.124
 7450TIP3    H222308   1.725   3.708   5.261
 7451TIP3   OH222309   3.603   3.678   5.351
 7451TIP3    H122310   3.525   3.717   5.392
 7451TIP3    H222311   3.568   3.609   5.295
 7452TIP3   OH222312   3.231   3.318   3.936
 7452TIP3    H122313   3.279   3.254   3.883
 7452TIP3    H222314   3.293   3.390   3.947
 7453TIP3   OH222315   1.649   3.128   4.685
 7453TIP3    H122316   1.568   3.135   4.736
 7453TIP3    H222317   1.642   3.196   4.619
 7454TIP3   OH222318   2.817   4.862   4.214
 7454TIP3    H122319   2.872   4.858   4.135
 7454TIP3    H222320   2.856   4.933   4.266
 7455TIP3   OH222321   1.884   3.220   5.524
 7455TIP3    H122322   1.831   3.213   5.603
 7455TIP3    H222323   1.827   3.262   5.460
 7456TIP3   OH222324   1.909   4.672   5.585
 7456TIP3    H122325   1.817   4.646   5.580
 7456TIP3    H222326   1.936   4.652   5.674
 7457TIP3   OH222327   2.118   4.709   5.137
 7457TIP3    H122328   2.069   4.786   5.108
 7457TIP3    H222329   2.201   4.714   5.088
 7458TIP3   OH222330   2.526   4.947   5.282
 7458TIP3    H122331   2.566   4.935   5.368
 7458TIP3    H222332   2.593   4.993   5.231
 7459TIP3   OH222333   2.722   5.092   5.148
 7459TIP3    H122334   2.787   5.033   5.110
 7459TIP3    H222335   2.772   5.151   5.203
 7460TIP3   OH222336   3.515   3.422   5.245
 7460TIP3    H122337   3.426   3.400   5.215
 7460TIP3    H222338   3.564   3.341   5.238
 7461TIP3   OH222339   1.779   4.957   5.186
 7461TIP3    H122340   1.688   4.982   5.168
 7461TIP3    H222341   1.807   5.018   5.255
 7462TIP3   OH222342   2.010   4.942   5.035
 7462TIP3    H122343   1.926   4.948   5.081
 7462TIP3    H222344   1.990   4.968   4.945
 7463TIP3   OH222345   2.422   4.963   4.826
 7463TIP3    H122346   2.351   4.982   4.765
 7463TIP3    H222347   2.437   5.045   4.873
 7464TIP3   OH222348   2.690   4.892   4.842
 7464TIP3    H122349   2.599   4.920   4.839
 7464TIP3    H222350   2.739   4.970   4.815
 7465TIP3   OH222351   2.892   5.077   4.779
 7465TIP3    H122352   2.893   5.163   4.738
 7465TIP3    H222353   2.924   5.018   4.711
 7466TIP3   OH222354   1.687   4.734   4.920
 7466TIP3    H122355   1.710   4.707   5.009
 7466TIP3    H222356   1.757   4.698   4.865
 7467TIP3   OH222357   1.889   4.610   4.785
 7467TIP3    H122358   1.905   4.524   4.824
 7467TIP3    H222359   1.976   4.649   4.775
 7468TIP3   OH222360   2.151   4.714   4.758
 7468TIP3    H122361   2.187   4.646   4.702
 7468TIP3    H222362   2.209   4.717   4.834
 7469TIP3   OH222363   2.740   3.361   4.881
 7469TIP3    H122364   2.691   3.289   4.921
 7469TIP3    H222365   2.805   3.318   4.825
 7470TIP3   OH222366   3.229   3.271   4.770
 7470TIP3    H122367   3.265   3.306   4.688
 7470TIP3    H222368   3.134   3.274   4.759
 7471TIP3   OH222369   3.339   3.349   4.533
 7471TIP3    H122370   3.403   3.285   4.502
 7471TIP3    H222371   3.380   3.434   4.516
 7472TIP3   OH222372   1.972   3.064   4.871
 7472TIP3    H122373   1.880   3.036   4.874
 7472TIP3    H222374   2.021   2.982   4.866
 7473TIP3   OH222375   1.769   2.943   4.515
 7473TIP3    H122376   1.801   2.998   4.444
 7473TIP3    H222377   1.733   3.006   4.579
 7474TIP3   OH222378   2.435   3.094   4.770
 7474TIP3    H122379   2.480   3.143   4.701
 7474TIP3    H222380   2.472   3.127   4.851
 7475TIP3   OH222381   2.949   3.235   4.741
 7475TIP3    H122382   2.955   3.197   4.653
 7475TIP3    H222383   2.947   3.159   4.799
 7476TIP3   OH222384   2.990   3.188   4.306
 7476TIP3    H122385   2.908   3.233   4.328
 7476TIP3    H222386   2.982   3.102   4.346
 7477TIP3   OH222387   1.471   4.533   4.289
 7477TIP3    H122388   1.392   4.487   4.258
 7477TIP3    H222389   1.464   4.620   4.251
 7478TIP3   OH222390   1.887   3.087   4.289
 7478TIP3    H122391   1.932   3.026   4.230
 7478TIP3    H222392   1.958   3.141   4.324
 7479TIP3   OH222393   2.386   3.281   4.387
 7479TIP3    H122394   2.444   3.238   4.450
 7479TIP3    H222395   2.384   3.373   4.414
 7480TIP3   OH222396   2.257   4.684   3.884
 7480TIP3    H122397   2.341   4.711   3.846
 7480TIP3    H222398   2.229   4.611   3.828
 7481TIP3   OH222399   2.964   4.827   3.980
 7481TIP3    H122400   2.956   4.733   3.971
 7481TIP3    H222401   2.922   4.863   3.902
 7482TIP3   OH222402   2.188   3.339   5.759
 7482TIP3    H122403   2.153   3.272   5.818
 7482TIP3    H222404   2.280   3.346   5.782
 7483TIP3   OH222405   2.438   3.345   5.879
 7483TIP3    H122406   2.517   3.324   5.829
 7483TIP3    H222407   2.432   3.276   5.945
 7484TIP3   OH222408   1.565   4.528   3.945
 7484TIP3    H122409   1.564   4.517   4.040
 7484TIP3    H222410   1.645   4.482   3.917
 7485TIP3   OH222411   3.262   3.423   5.670
 7485TIP3    H122412   3.279   3.393   5.759
 7485TIP3    H222413   3.348   3.419   5.627
 7486TIP3   OH222414   3.181   4.966   5.171
 7486TIP3    H122415   3.106   4.936   5.118
 7486TIP3    H222416   3.167   5.060   5.180
 7487TIP3   OH222417   3.778   4.276   4.735
 7487TIP3    H122418   3.798   4.189   4.772
 7487TIP3    H222419   3.819   4.276   4.649
 7488TIP3   OH222420   3.751   4.642   4.395
 7488TIP3    H122421   3.770   4.607   4.482
 7488TIP3    H222422   3.837   4.647   4.353
 7489TIP3   OH222423   3.456   3.856   4.201
 7489TIP3    H122424   3.445   3.931   4.260
 7489TIP3    H222425   3.367   3.831   4.178
 7490TIP3   OH222426   4.365   5.098   4.015
 7490TIP3    H122427   4.379   5.020   3.961
 7490TIP3    H222428   4.334   5.064   4.099
 7491TIP3   OH222429   5.278   3.885   4.354
 7491TIP3    H122430   5.303   3.963   4.403
 7491TIP3    H222431   5.327   3.891   4.272
 7492TIP3   OH222432   4.669   4.082   4.370
 7492TIP3    H122433   4.696   3.991   4.382
 7492TIP3    H222434   4.658   4.091   4.275
 7493TIP3   OH222435   4.697   3.785   3.964
 7493TIP3    H122436   4.766   3.802   4.029
 7493TIP3    H222437   4.649   3.867   3.958
 7494TIP3   OH222438   5.343   4.082   4.547
 7494TIP3    H122439   5.256   4.121   4.551
 7494TIP3    H222440   5.389   4.120   4.621
 7495TIP3   OH222441   3.998   3.717   4.772
 7495TIP3    H122442   3.946   3.746   4.697
 7495TIP3    H222443   3.943   3.735   4.848
 7496TIP3   OH222444   4.119   4.509   4.591
 7496TIP3    H122445   4.045   4.561   4.623
 7496TIP3    H222446   4.153   4.559   4.517
 7497TIP3   OH222447   4.884   3.829   4.169
 7497TIP3    H122448   4.848   3.809   4.255
 7497TIP3    H222449   4.977   3.804   4.176
 7498TIP3   OH222450   3.852   3.816   4.552
 7498TIP3    H122451   3.912   3.890   4.551
 7498TIP3    H222452   3.811   3.817   4.466
 7499TIP3   OH222453   3.925   4.691   4.668
 7499TIP3    H122454   3.917   4.782   4.640
 7499TIP3    H222455   3.851   4.677   4.728
 7500TIP3   OH222456   3.288   4.390   3.928
 7500TIP3    H122457   3.283   4.391   3.833
 7500TIP3    H222458   3.330   4.473   3.950
 7501TIP3   OH222459   4.774   4.917   4.169
 7501TIP3    H122460   4.687   4.887   4.195
 7501TIP3    H222461   4.758   4.998   4.122
 7502TIP3   OH222462   5.079   3.783   4.528
 7502TIP3    H122463   4.992   3.808   4.496
 7502TIP3    H222464   5.139   3.809   4.459
 7503TIP3   OH222465   4.348   3.404   4.516
 7503TIP3    H122466   4.338   3.312   4.541
 7503TIP3    H222467   4.272   3.448   4.553
 7504TIP3   OH222468   4.462   4.912   3.818
 7504TIP3    H122469   4.518   4.847   3.861
 7504TIP3    H222470   4.524   4.978   3.787
 7505TIP3   OH222471   4.995   4.784   4.497
 7505TIP3    H122472   4.989   4.718   4.428
 7505TIP3    H222473   4.983   4.867   4.451
 7506TIP3   OH222474   4.277   4.164   3.740
 7506TIP3    H122475   4.213   4.230   3.712
 7506TIP3    H222476   4.347   4.169   3.675
 7507TIP3   OH222477   4.252   3.984   3.455
 7507TIP3    H122478   4.305   4.019   3.527
 7507TIP3    H222479   4.310   3.922   3.411
 7508TIP3   OH222480   4.864   4.309   4.686
 7508TIP3    H122481   4.861   4.392   4.733
 7508TIP3    H222482   4.782   4.306   4.637
 7509TIP3   OH222483   3.988   4.678   4.254
 7509TIP3    H122484   3.941   4.680   4.171
 7509TIP3    H222485   4.060   4.617   4.240
 7510TIP3   OH222486   4.528   4.860   4.277
 7510TIP3    H122487   4.512   4.940   4.328
 7510TIP3    H222488   4.513   4.789   4.339
 7511TIP3   OH222489   4.139   4.794   4.826
 7511TIP3    H122490   4.080   4.853   4.873
 7511TIP3    H222491   4.081   4.739   4.773
 7512TIP3   OH222492   4.486   4.140   3.558
 7512TIP3    H122493   4.562   4.183   3.596
 7512TIP3    H222494   4.498   4.148   3.464
 7513TIP3   OH222495   3.918   4.363   4.963
 7513TIP3    H122496   3.902   4.454   4.990
 7513TIP3    H222497   3.853   4.347   4.895
 7514TIP3   OH222498   4.189   4.872   3.856
 7514TIP3    H122499   4.282   4.874   3.832
 7514TIP3    H222500   4.145   4.920   3.786
 7515TIP3   OH222501   3.932   4.955   4.913
 7515TIP3    H122502   3.906   4.966   4.821
 7515TIP3    H222503   3.850   4.939   4.959
 7516TIP3   OH222504   4.989   3.369   3.615
 7516TIP3    H122505   4.911   3.388   3.667
 7516TIP3    H222506   4.999   3.445   3.558
 7517TIP3   OH222507   4.807   4.745   3.166
 7517TIP3    H122508   4.807   4.837   3.142
 7517TIP3    H222509   4.896   4.715   3.145
 7518TIP3   OH222510   3.516   4.493   4.857
 7518TIP3    H122511   3.456   4.462   4.789
 7518TIP3    H222512   3.550   4.413   4.897
 7519TIP3   OH222513   3.366   4.709   4.519
 7519TIP3    H122514   3.457   4.735   4.535
 7519TIP3    H222515   3.314   4.785   4.546
 7520TIP3   OH222516   5.229   5.168   4.559
 7520TIP3    H122517   5.236   5.073   4.569
 7520TIP3    H222518   5.147   5.191   4.604
 7521TIP3   OH222519   4.329   4.935   4.685
 7521TIP3    H122520   4.326   5.026   4.715
 7521TIP3    H222521   4.262   4.890   4.736
 7522TIP3   OH222522   4.109   5.049   3.642
 7522TIP3    H122523   4.059   5.027   3.563
 7522TIP3    H222524   4.072   5.132   3.671
 7523TIP3   OH222525   3.545   4.892   4.023
 7523TIP3    H122526   3.592   4.884   4.105
 7523TIP3    H222527   3.500   4.808   4.012
 7524TIP3   OH222528   4.310   4.968   3.273
 7524TIP3    H122529   4.360   4.896   3.235
 7524TIP3    H222530   4.345   4.979   3.362
 7525TIP3   OH222531   4.363   5.010   3.546
 7525TIP3    H122532   4.276   5.018   3.583
 7525TIP3    H222533   4.415   4.970   3.615
 7526TIP3   OH222534   5.107   4.266   4.854
 7526TIP3    H122535   5.029   4.270   4.799
 7526TIP3    H222536   5.130   4.173   4.857
 7527TIP3   OH222537   3.710   4.689   4.837
 7527TIP3    H122538   3.758   4.681   4.920
 7527TIP3    H222539   3.642   4.622   4.843
 7528TIP3   OH222540   4.109   3.499   4.638
 7528TIP3    H122541   4.023   3.465   4.612
 7528TIP3    H222542   4.090   3.582   4.681
 7529TIP3   OH222543   4.652   3.620   4.839
 7529TIP3    H122544   4.722   3.594   4.899
 7529TIP3    H222545   4.571   3.598   4.885
 7530TIP3   OH222546   4.875   4.042   4.765
 7530TIP3    H122547   4.833   4.036   4.851
 7530TIP3    H222548   4.853   4.130   4.734
 7531TIP3   OH222549   4.554   4.170   3.299
 7531TIP3    H122550   4.509   4.150   3.217
 7531TIP3    H222551   4.639   4.203   3.272
 7532TIP3   OH222552   4.245   3.557   3.619
 7532TIP3    H122553   4.214   3.570   3.709
 7532TIP3    H222554   4.212   3.470   3.595
 7533TIP3   OH222555   4.026   4.037   4.593
 7533TIP3    H122556   3.982   4.053   4.676
 7533TIP3    H222557   3.993   4.105   4.534
 7534TIP3   OH222558   4.488   3.984   3.901
 7534TIP3    H122559   4.412   4.043   3.900
 7534TIP3    H222560   4.487   3.941   3.816
 7535TIP3   OH222561   4.597   4.258   4.980
 7535TIP3    H122562   4.570   4.187   5.039
 7535TIP3    H222563   4.690   4.271   4.999
 7536TIP3   OH222564   3.894   4.047   4.846
 7536TIP3    H122565   3.958   4.089   4.904
 7536TIP3    H222566   3.872   3.965   4.890
 7537TIP3   OH222567   3.918   3.526   3.573
 7537TIP3    H122568   3.914   3.523   3.669
 7537TIP3    H222569   3.840   3.574   3.547
 7538TIP3   OH222570   3.470   3.573   4.458
 7538TIP3    H122571   3.540   3.608   4.512
 7538TIP3    H222572   3.512   3.548   4.376
 7539TIP3   OH222573   3.391   3.550   3.967
 7539TIP3    H122574   3.432   3.582   3.887
 7539TIP3    H222575   3.338   3.623   3.999
 7540TIP3   OH222576   4.621   4.272   4.562
 7540TIP3    H122577   4.635   4.217   4.485
 7540TIP3    H222578   4.576   4.214   4.624
 7541TIP3   OH222579   3.702   3.740   4.285
 7541TIP3    H122580   3.629   3.800   4.266
 7541TIP3    H222581   3.686   3.664   4.229
 7542TIP3   OH222582   4.740   3.808   4.421
 7542TIP3    H122583   4.716   3.822   4.513
 7542TIP3    H222584   4.672   3.749   4.388
 7543TIP3   OH222585   3.774   3.854   3.668
 7543TIP3    H122586   3.728   3.785   3.621
 7543TIP3    H222587   3.853   3.871   3.616
 7544TIP3   OH222588   4.937   5.497   4.655
 7544TIP3    H122589   4.933   5.518   4.562
 7544TIP3    H222590   5.016   5.543   4.686
 7545TIP3   OH222591   3.875   4.618   5.069
 7545TIP3    H122592   3.956   4.634   5.116
 7545TIP3    H222593   3.807   4.620   5.137
 7546TIP3   OH222594   4.294   3.956   4.652
 7546TIP3    H122595   4.213   4.001   4.627
 7546TIP3    H222596   4.356   4.027   4.670
 7547TIP3   OH222597   4.034   4.342   3.714
 7547TIP3    H122598   3.970   4.272   3.699
 7547TIP3    H222599   4.046   4.342   3.809
 7548TIP3   OH222600   4.980   4.587   4.304
 7548TIP3    H122601   5.000   4.578   4.211
 7548TIP3    H222602   4.898   4.539   4.316
 7549TIP3   OH222603   4.505   3.630   3.591
 7549TIP3    H122604   4.411   3.618   3.599
 7549TIP3    H222605   4.519   3.724   3.607
 7550TIP3   OH222606   4.441   4.665   4.709
 7550TIP3    H122607   4.491   4.653   4.790
 7550TIP3    H222608   4.407   4.755   4.715
 7551TIP3   OH222609   4.572   3.887   3.651
 7551TIP3    H122610   4.665   3.888   3.673
 7551TIP3    H222611   4.556   3.971   3.608
 7552TIP3   OH222612   4.192   4.483   3.534
 7552TIP3    H122613   4.159   4.573   3.542
 7552TIP3    H222614   4.140   4.433   3.598
 7553TIP3   OH222615   3.609   4.300   5.034
 7553TIP3    H122616   3.680   4.327   5.092
 7553TIP3    H222617   3.576   4.219   5.072
 7554TIP3   OH222618   4.363   4.407   5.013
 7554TIP3    H122619   4.298   4.347   4.977
 7554TIP3    H222620   4.447   4.369   4.988
 7555TIP3   OH222621   4.604   4.938   4.611
 7555TIP3    H122622   4.508   4.933   4.616
 7555TIP3    H222623   4.630   4.983   4.691
 7556TIP3   OH222624   5.020   4.005   3.500
 7556TIP3    H122625   4.958   3.958   3.444
 7556TIP3    H222626   5.023   4.094   3.464
 7557TIP3   OH222627   5.243   4.892   4.592
 7557TIP3    H122628   5.151   4.874   4.612
 7557TIP3    H222629   5.259   4.846   4.510
 7558TIP3   OH222630   4.726   4.795   3.427
 7558TIP3    H122631   4.696   4.712   3.464
 7558TIP3    H222632   4.749   4.773   3.337
 7559TIP3   OH222633   3.842   4.695   4.027
 7559TIP3    H122634   3.847   4.771   3.969
 7559TIP3    H222635   3.764   4.648   3.996
 7560TIP3   OH222636   3.405   3.958   3.714
 7560TIP3    H122637   3.467   4.028   3.736
 7560TIP3    H222638   3.334   3.969   3.778
 7561TIP3   OH222639   4.142   5.007   4.479
 7561TIP3    H122640   4.176   5.081   4.428
 7561TIP3    H222641   4.216   4.977   4.530
 7562TIP3   OH222642   3.771   4.916   3.865
 7562TIP3    H122643   3.687   4.921   3.911
 7562TIP3    H222644   3.807   5.004   3.872
 7563TIP3   OH222645   4.512   4.623   4.447
 7563TIP3    H122646   4.476   4.634   4.535
 7563TIP3    H222647   4.600   4.590   4.461
 7564TIP3   OH222648   4.478   4.552   3.311
 7564TIP3    H122649   4.531   4.540   3.390
 7564TIP3    H222650   4.396   4.506   3.331
 7565TIP3   OH222651   4.746   5.177   4.497
 7565TIP3    H122652   4.674   5.114   4.498
 7565TIP3    H222653   4.726   5.234   4.423
 7566TIP3   OH222654   4.812   5.018   3.132
 7566TIP3    H122655   4.833   5.078   3.061
 7566TIP3    H222656   4.740   5.060   3.179
 7567TIP3   OH222657   3.842   3.797   4.987
 7567TIP3    H122658   3.747   3.800   4.994
 7567TIP3    H222659   3.869   3.738   5.058
 7568TIP3   OH222660   4.674   4.524   3.512
 7568TIP3    H122661   4.637   4.458   3.572
 7568TIP3    H222662   4.768   4.506   3.511
 7569TIP3   OH222663   3.571   4.894   4.646
 7569TIP3    H122664   3.617   4.834   4.704
 7569TIP3    H222665   3.587   4.981   4.683
 7570TIP3   OH222666   3.841   4.515   3.330
 7570TIP3    H122667   3.851   4.423   3.304
 7570TIP3    H222668   3.822   4.511   3.424
 7571TIP3   OH222669   3.790   4.526   3.602
 7571TIP3    H122670   3.869   4.494   3.646
 7571TIP3    H222671   3.794   4.621   3.612
 7572TIP3   OH222672   4.680   3.854   4.691
 7572TIP3    H122673   4.760   3.896   4.724
 7572TIP3    H222674   4.670   3.776   4.744
 7573TIP3   OH222675   4.560   3.576   3.860
 7573TIP3    H122676   4.543   3.594   3.768
 7573TIP3    H222677   4.608   3.652   3.892
 7574TIP3   OH222678   4.066   4.725   3.552
 7574TIP3    H122679   3.981   4.746   3.591
 7574TIP3    H222680   4.083   4.798   3.492
 7575TIP3   OH222681   4.524   4.094   4.746
 7575TIP3    H122682   4.552   4.128   4.831
 7575TIP3    H222683   4.568   4.009   4.739
 7576TIP3   OH222684   4.392   3.525   4.073
 7576TIP3    H122685   4.432   3.574   4.145
 7576TIP3    H222686   4.452   3.538   3.999
 7577TIP3   OH222687   3.808   4.799   3.621
 7577TIP3    H122688   3.785   4.867   3.557
 7577TIP3    H222689   3.795   4.840   3.706
 7578TIP3   OH222690   3.905   3.520   3.846
 7578TIP3    H122691   3.877   3.602   3.888
 7578TIP3    H222692   3.999   3.514   3.866
 7579TIP3   OH222693   5.139   3.984   4.763
 7579TIP3    H122694   5.045   3.996   4.770
 7579TIP3    H222695   5.152   3.936   4.681
 7580TIP3   OH222696   3.522   4.428   3.570
 7580TIP3    H122697   3.596   4.485   3.591
 7580TIP3    H222698   3.563   4.352   3.528
 7581TIP3   OH222699   3.448   3.681   3.735
 7581TIP3    H122700   3.454   3.777   3.729
 7581TIP3    H222701   3.397   3.656   3.658
 7582TIP3   OH222702   4.773   5.174   4.066
 7582TIP3    H122703   4.730   5.219   3.994
 7582TIP3    H222704   4.867   5.190   4.052
 7583TIP3   OH222705   3.840   3.421   4.622
 7583TIP3    H122706   3.810   3.392   4.536
 7583TIP3    H222707   3.833   3.344   4.677
 7584TIP3   OH222708   3.381   4.659   3.996
 7584TIP3    H122709   3.334   4.696   4.071
 7584TIP3    H222710   3.341   4.701   3.920
 7585TIP3   OH222711   3.566   5.203   5.064
 7585TIP3    H122712   3.649   5.207   5.111
 7585TIP3    H222713   3.548   5.109   5.053
 7586TIP3   OH222714   4.034   5.123   5.107
 7586TIP3    H122715   4.127   5.102   5.116
 7586TIP3    H222716   4.003   5.067   5.035
 7587TIP3   OH222717   4.001   4.715   3.228
 7587TIP3    H122718   3.952   4.644   3.270
 7587TIP3    H222719   4.075   4.672   3.185
 7588TIP3   OH222720   4.659   5.056   4.853
 7588TIP3    H122721   4.668   4.986   4.918
 7588TIP3    H222722   4.734   5.114   4.870
 7589TIP3   OH222723   4.437   4.763   3.144
 7589TIP3    H122724   4.467   4.694   3.203
 7589TIP3    H222725   4.493   4.756   3.068
 7590TIP3   OH222726   3.669   4.607   5.257
 7590TIP3    H122727   3.688   4.514   5.268
 7590TIP3    H222728   3.584   4.610   5.213
 7591TIP3   OH222729   3.663   4.216   3.464
 7591TIP3    H122730   3.716   4.189   3.540
 7591TIP3    H222731   3.727   4.226   3.393
 7592TIP3   OH222732   4.291   4.683   5.031
 7592TIP3    H122733   4.249   4.704   4.948
 7592TIP3    H222734   4.327   4.595   5.018
 7593TIP3   OH222735   4.209   4.429   3.267
 7593TIP3    H122736   4.191   4.442   3.360
 7593TIP3    H222737   4.203   4.335   3.254
 7594TIP3   OH222738   4.768   4.709   4.633
 7594TIP3    H122739   4.847   4.740   4.589
 7594TIP3    H222740   4.705   4.780   4.623
 7595TIP3   OH222741   3.796   4.352   5.240
 7595TIP3    H122742   3.874   4.328   5.190
 7595TIP3    H222743   3.828   4.367   5.329
 7596TIP3   OH222744   3.852   4.131   3.667
 7596TIP3    H122745   3.807   4.061   3.715
 7596TIP3    H222746   3.908   4.085   3.604
 7597TIP3   OH222747   4.140   4.209   4.913
 7597TIP3    H122748   4.070   4.272   4.930
 7597TIP3    H222749   4.181   4.240   4.833
 7598TIP3   OH222750   3.977   3.955   3.498
 7598TIP3    H122751   3.950   3.954   3.406
 7598TIP3    H222752   4.073   3.954   3.496
 7599TIP3   OH222753   4.658   4.606   5.016
 7599TIP3    H122754   4.725   4.568   4.960
 7599TIP3    H222755   4.654   4.548   5.092
 7600TIP3   OH222756   4.788   4.267   3.187
 7600TIP3    H122757   4.775   4.219   3.105
 7600TIP3    H222758   4.759   4.356   3.167
 7601TIP3   OH222759   4.258   3.994   5.035
 7601TIP3    H122760   4.257   3.916   4.980
 7601TIP3    H222761   4.221   4.063   4.980
 7602TIP3   OH222762   4.253   3.780   4.854
 7602TIP3    H122763   4.282   3.832   4.779
 7602TIP3    H222764   4.163   3.754   4.831
 7603TIP3   OH222765   4.275   4.314   4.703
 7603TIP3    H122766   4.365   4.338   4.681
 7603TIP3    H222767   4.222   4.383   4.662
 7604TIP3   OH222768   4.866   4.283   5.076
 7604TIP3    H122769   4.893   4.191   5.082
 7604TIP3    H222770   4.944   4.329   5.046
 7605TIP3   OH222771   4.893   4.556   4.822
 7605TIP3    H122772   4.839   4.611   4.765
 7605TIP3    H222773   4.982   4.568   4.790
 7606TIP3   OH222774   4.140   4.090   5.271
 7606TIP3    H122775   4.072   4.026   5.291
 7606TIP3    H222776   4.171   4.066   5.184
 7607TIP3   OH222777   4.391   3.552   4.922
 7607TIP3    H122778   4.346   3.632   4.898
 7607TIP3    H222779   4.326   3.483   4.908
 7608TIP3   OH222780   4.514   4.043   5.129
 7608TIP3    H122781   4.503   4.030   5.223
 7608TIP3    H222782   4.429   4.020   5.092
 7609TIP3   OH222783   4.762   4.004   5.005
 7609TIP3    H122784   4.682   3.999   5.058
 7609TIP3    H222785   4.830   3.969   5.062
 7610TIP3   OH222786   4.997   3.953   5.148
 7610TIP3    H122787   5.010   3.859   5.155
 7610TIP3    H222788   4.993   3.984   5.238
 7611TIP3   OH222789   3.976   3.869   5.334
 7611TIP3    H122790   3.981   3.782   5.295
 7611TIP3    H222791   4.016   3.859   5.421
 7612TIP3   OH222792   4.460   3.547   5.188
 7612TIP3    H122793   4.529   3.481   5.184
 7612TIP3    H222794   4.428   3.553   5.098
 7613TIP3   OH222795   4.549   3.765   5.332
 7613TIP3    H122796   4.521   3.692   5.276
 7613TIP3    H222797   4.475   3.826   5.330
 7614TIP3   OH222798   3.793   5.004   3.434
 7614TIP3    H122799   3.884   4.988   3.409
 7614TIP3    H222800   3.757   5.054   3.360
 7615TIP3   OH222801   3.264   4.379   3.642
 7615TIP3    H122802   3.354   4.405   3.623
 7615TIP3    H222803   3.252   4.296   3.596
 7616TIP3   OH222804   3.172   4.980   4.075
 7616TIP3    H122805   3.108   4.926   4.029
 7616TIP3    H222806   3.217   4.919   4.133
 7617TIP3   OH222807   3.313   4.815   4.248
 7617TIP3    H122808   3.304   4.750   4.318
 7617TIP3    H222809   3.366   4.885   4.287
 7618TIP3   OH222810   5.039   5.239   4.049
 7618TIP3    H122811   5.060   5.257   4.141
 7618TIP3    H222812   5.096   5.298   3.999
 7619TIP3   OH222813   5.073   5.256   4.331
 7619TIP3    H122814   5.025   5.173   4.333
 7619TIP3    H222815   5.144   5.244   4.395
 7620TIP3   OH222816   5.114   4.948   4.905
 7620TIP3    H122817   5.045   4.955   4.971
 7620TIP3    H222818   5.160   5.032   4.909
 7621TIP3   OH222819   4.948   4.472   3.541
 7621TIP3    H122820   4.999   4.534   3.489
 7621TIP3    H222821   4.995   4.464   3.624
 7622TIP3   OH222822   4.936   5.018   4.363
 7622TIP3    H122823   4.867   5.061   4.413
 7622TIP3    H222824   4.890   4.977   4.289
 7623TIP3   OH222825   4.991   4.250   3.373
 7623TIP3    H122826   4.922   4.247   3.307
 7623TIP3    H222827   4.969   4.325   3.428
 7624TIP3   OH222828   4.848   3.901   3.312
 7624TIP3    H122829   4.809   3.931   3.229
 7624TIP3    H222830   4.832   3.807   3.314
 7625TIP3   OH222831   5.150   4.596   4.721
 7625TIP3    H122832   5.212   4.525   4.707
 7625TIP3    H222833   5.153   4.647   4.640
 7626TIP3   OH222834   5.317   4.373   4.711
 7626TIP3    H122835   5.242   4.334   4.756
 7626TIP3    H222836   5.391   4.319   4.735
 7627TIP3   OH222837   4.794   3.634   3.293
 7627TIP3    H122838   4.864   3.598   3.348
 7627TIP3    H222839   4.718   3.579   3.312
 7628TIP3   OH222840   4.846   3.900   3.703
 7628TIP3    H122841   4.880   3.821   3.747
 7628TIP3    H222842   4.917   3.928   3.646
 7629TIP3   OH222843   5.086   4.206   4.540
 7629TIP3    H122844   5.007   4.233   4.588
 7629TIP3    H222845   5.068   4.229   4.449
 7630TIP3   OH222846   3.711   3.921   5.279
 7630TIP3    H122847   3.806   3.918   5.293
 7630TIP3    H222848   3.679   3.840   5.319
 7631TIP3   OH222849   5.552   3.819   5.035
 7631TIP3    H122850   5.613   3.759   4.993
 7631TIP3    H222851   5.512   3.867   4.962
 7632TIP3   OH222852   4.978   3.654   3.791
 7632TIP3    H122853   5.019   3.641   3.877
 7632TIP3    H222854   4.912   3.584   3.785
 7633TIP3   OH222855   3.666   3.637   4.654
 7633TIP3    H122856   3.722   3.559   4.651
 7633TIP3    H222857   3.722   3.708   4.623
 7634TIP3   OH222858   5.402   3.929   4.835
 7634TIP3    H122859   5.316   3.967   4.851
 7634TIP3    H222860   5.385   3.853   4.781
 7635TIP3   OH222861   5.031   3.570   3.430
 7635TIP3    H122862   5.074   3.507   3.371
 7635TIP3    H222863   5.092   3.644   3.434
 7636TIP3   OH222864   3.449   3.405   4.190
 7636TIP3    H122865   3.362   3.396   4.229
 7636TIP3    H222866   3.435   3.463   4.115
 7637TIP3   OH222867   4.630   5.093   3.713
 7637TIP3    H122868   4.681   5.095   3.632
 7637TIP3    H222869   4.653   5.175   3.758
 7638TIP3   OH222870   3.677   3.492   5.020
 7638TIP3    H122871   3.623   3.473   5.096
 7638TIP3    H222872   3.615   3.520   4.952
 7639TIP3   OH222873   3.707   4.923   5.074
 7639TIP3    H122874   3.614   4.903   5.067
 7639TIP3    H222875   3.727   4.908   5.167
 7640TIP3   OH222876   3.914   4.964   4.629
 7640TIP3    H122877   3.861   5.037   4.596
 7640TIP3    H222878   3.999   4.974   4.586
 7641TIP3   OH222879   4.324   5.200   4.768
 7641TIP3    H122880   4.362   5.193   4.855
 7641TIP3    H222881   4.387   5.253   4.718
 7642TIP3   OH222882   4.515   5.352   4.637
 7642TIP3    H122883   4.581   5.300   4.592
 7642TIP3    H222884   4.565   5.411   4.693
 7643TIP3   OH222885   5.315   3.684   4.728
 7643TIP3    H122886   5.225   3.672   4.696
 7643TIP3    H222887   5.354   3.597   4.722
 7644TIP3   OH222888   3.575   5.203   4.677
 7644TIP3    H122889   3.484   5.224   4.652
 7644TIP3    H222890   3.598   5.271   4.740
 7645TIP3   OH222891   3.804   5.191   4.521
 7645TIP3    H122892   3.721   5.200   4.568
 7645TIP3    H222893   3.785   5.222   4.432
 7646TIP3   OH222894   4.228   5.213   4.310
 7646TIP3    H122895   4.156   5.228   4.248
 7646TIP3    H222896   4.243   5.298   4.350
 7647TIP3   OH222897   4.492   5.137   4.356
 7647TIP3    H122898   4.400   5.158   4.340
 7647TIP3    H222899   4.541   5.207   4.313
 7648TIP3   OH222900   4.694   5.334   4.274
 7648TIP3    H122901   4.684   5.421   4.235
 7648TIP3    H222902   4.721   5.278   4.201
 7649TIP3   OH222903   3.484   4.994   4.397
 7649TIP3    H122904   3.510   4.970   4.486
 7649TIP3    H222905   3.556   4.962   4.342
 7650TIP3   OH222906   3.686   4.877   4.260
 7650TIP3    H122907   3.700   4.793   4.303
 7650TIP3    H222908   3.773   4.917   4.257
 7651TIP3   OH222909   3.955   4.963   4.272
 7651TIP3    H122910   3.978   4.872   4.251
 7651TIP3    H222911   4.009   4.983   4.349
 7652TIP3   OH222912   4.527   3.601   4.323
 7652TIP3    H122913   4.492   3.538   4.386
 7652TIP3    H222914   4.609   3.561   4.292
 7653TIP3   OH222915   5.036   3.531   4.259
 7653TIP3    H122916   5.070   3.568   4.178
 7653TIP3    H222917   4.941   3.531   4.248
 7654TIP3   OH222918   5.140   3.605   4.018
 7654TIP3    H122919   5.204   3.543   3.984
 7654TIP3    H222920   5.178   3.691   3.999
 7655TIP3   OH222921   3.749   3.315   4.389
 7655TIP3    H122922   3.661   3.276   4.386
 7655TIP3    H222923   3.808   3.243   4.368
 7656TIP3   OH222924   3.539   3.202   4.009
 7656TIP3    H122925   3.586   3.251   3.942
 7656TIP3    H222926   3.520   3.267   4.077
 7657TIP3   OH222927   4.240   3.366   4.251
 7657TIP3    H122928   4.292   3.416   4.187
 7657TIP3    H222929   4.282   3.384   4.335
 7658TIP3   OH222930   4.761   3.490   4.225
 7658TIP3    H122931   4.766   3.455   4.136
 7658TIP3    H222932   4.755   3.413   4.281
 7659TIP3   OH222933   4.794   3.439   3.798
 7659TIP3    H122934   4.710   3.482   3.814
 7659TIP3    H222935   4.784   3.352   3.836
 7660TIP3   OH222936   3.262   4.785   3.784
 7660TIP3    H122937   3.179   4.749   3.755
 7660TIP3    H222938   3.263   4.875   3.751
 7661TIP3   OH222939   3.689   3.343   3.779
 7661TIP3    H122940   3.733   3.277   3.726
 7661TIP3    H222941   3.760   3.398   3.812
 7662TIP3   OH222942   4.177   3.596   3.891
 7662TIP3    H122943   4.250   3.558   3.941
 7662TIP3    H222944   4.174   3.688   3.919
 7663TIP3   OH222945   4.053   4.942   3.371
 7663TIP3    H122946   4.136   4.971   3.334
 7663TIP3    H222947   4.026   4.870   3.315
 7664TIP3   OH222948   4.766   5.066   3.470
 7664TIP3    H122949   4.754   4.972   3.460
 7664TIP3    H222950   4.720   5.105   3.395
 7665TIP3   OH222951   3.985   3.597   5.248
 7665TIP3    H122952   3.948   3.529   5.305
 7665TIP3    H222953   4.077   3.603   5.273
 7666TIP3   OH222954   4.235   3.602   5.368
 7666TIP3    H122955   4.313   3.579   5.317
 7666TIP3    H222956   4.227   3.531   5.432
 7667TIP3   OH222957   3.358   4.785   3.430
 7667TIP3    H122958   3.363   4.797   3.524
 7667TIP3    H222959   3.439   4.740   3.406
 7668TIP3   OH222960   5.058   3.682   5.156
 7668TIP3    H122961   5.074   3.652   5.246
 7668TIP3    H222962   5.143   3.677   5.113
 7669TIP3   OH222963   4.975   5.224   4.656
 7669TIP3    H122964   4.898   5.194   4.609
 7669TIP3    H222965   4.962   5.318   4.667
 7670TIP3   OH222966   6.526   4.859   3.569
 7670TIP3    H122967   6.560   4.854   3.480
 7670TIP3    H222968   6.516   4.953   3.586
 7671TIP3   OH222969   5.261   4.081   3.676
 7671TIP3    H122970   5.229   4.169   3.697
 7671TIP3    H222971   5.189   4.042   3.626
 7672TIP3   OH222972   6.165   5.347   3.498
 7672TIP3    H122973   6.198   5.279   3.440
 7672TIP3    H222974   6.138   5.300   3.577
 7673TIP3   OH222975   5.996   4.811   3.849
 7673TIP3    H122976   5.989   4.718   3.829
 7673TIP3    H222977   6.090   4.825   3.864
 7674TIP3   OH222978   7.082   4.142   3.839
 7674TIP3    H122979   7.101   4.225   3.882
 7674TIP3    H222980   7.119   4.150   3.751
 7675TIP3   OH222981   6.498   4.287   3.920
 7675TIP3    H122982   6.491   4.225   3.992
 7675TIP3    H222983   6.545   4.239   3.852
 7676TIP3   OH222984   6.518   4.057   3.444
 7676TIP3    H122985   6.569   4.073   3.524
 7676TIP3    H222986   6.565   4.104   3.376
 7677TIP3   OH222987   7.145   4.355   4.015
 7677TIP3    H122988   7.059   4.394   4.002
 7677TIP3    H222989   7.169   4.379   4.104
 7678TIP3   OH222990   5.785   3.972   4.269
 7678TIP3    H122991   5.736   4.007   4.194
 7678TIP3    H222992   5.727   3.988   4.344
 7679TIP3   OH222993   6.161   4.821   3.293
 7679TIP3    H122994   6.124   4.783   3.213
 7679TIP3    H222995   6.101   4.891   3.316
 7680TIP3   OH222996   5.875   4.804   4.109
 7680TIP3    H122997   5.779   4.793   4.106
 7680TIP3    H222998   5.901   4.816   4.018
 7681TIP3   OH222999   6.669   4.118   3.667
 7681TIP3    H123000   6.655   4.066   3.746
 7681TIP3    H223001   6.740   4.178   3.690
 7682TIP3   OH223002   5.648   4.074   4.047
 7682TIP3    H123003   5.700   4.155   4.051
 7682TIP3    H223004   5.612   4.074   3.958
 7683TIP3   OH223005   5.111   4.645   3.399
 7683TIP3    H123006   5.082   4.657   3.309
 7683TIP3    H223007   5.139   4.732   3.428
 7684TIP3   OH223008   6.559   5.145   3.636
 7684TIP3    H123009   6.475   5.141   3.682
 7684TIP3    H223010   6.556   5.228   3.589
 7685TIP3   OH223011   6.877   4.038   4.009
 7685TIP3    H123012   6.790   4.041   3.968
 7685TIP3    H223013   6.937   4.066   3.940
 7686TIP3   OH223014   6.143   3.667   4.005
 7686TIP3    H123015   6.132   3.575   4.027
 7686TIP3    H223016   6.066   3.710   4.042
 7687TIP3   OH223017   6.268   5.179   3.297
 7687TIP3    H123018   6.322   5.101   3.290
 7687TIP3    H223019   6.324   5.251   3.267
 7688TIP3   OH223020   6.409   4.942   3.265
 7688TIP3    H123021   6.432   4.903   3.181
 7688TIP3    H223022   6.333   4.891   3.294
 7689TIP3   OH223023   6.790   5.061   3.994
 7689TIP3    H123024   6.782   4.987   3.934
 7689TIP3    H223025   6.772   5.138   3.939
 7690TIP3   OH223026   6.109   4.462   3.248
 7690TIP3    H123027   6.024   4.504   3.239
 7690TIP3    H223028   6.137   4.443   3.158
 7691TIP3   OH223029   6.049   4.242   2.946
 7691TIP3    H123030   6.115   4.293   2.992
 7691TIP3    H223031   6.099   4.178   2.896
 7692TIP3   OH223032   6.980   4.706   3.843
 7692TIP3    H123033   6.898   4.755   3.842
 7692TIP3    H223034   7.014   4.715   3.754
 7693TIP3   OH223035   6.409   4.552   3.206
 7693TIP3    H123036   6.332   4.538   3.261
 7693TIP3    H223037   6.479   4.502   3.248
 7694TIP3   OH223038   6.688   4.572   4.159
 7694TIP3    H123039   6.681   4.654   4.208
 7694TIP3    H223040   6.608   4.569   4.106
 7695TIP3   OH223041   5.781   4.971   3.748
 7695TIP3    H123042   5.760   4.936   3.661
 7695TIP3    H223043   5.855   4.919   3.778
 7696TIP3   OH223044   6.333   5.131   3.784
 7696TIP3    H123045   6.312   5.218   3.820
 7696TIP3    H223046   6.299   5.070   3.849
 7697TIP3   OH223047   5.933   5.034   4.304
 7697TIP3    H123048   5.861   5.084   4.343
 7697TIP3    H223049   5.889   4.966   4.253
 7698TIP3   OH223050   6.269   4.390   3.031
 7698TIP3    H123051   6.327   4.453   3.075
 7698TIP3    H223052   6.289   4.400   2.938
 7699TIP3   OH223053   5.704   4.594   4.448
 7699TIP3    H123054   5.713   4.685   4.478
 7699TIP3    H223055   5.614   4.589   4.416
 7700TIP3   OH223056   6.018   5.061   3.320
 7700TIP3    H123057   6.100   5.109   3.314
 7700TIP3    H223058   5.958   5.107   3.262
 7701TIP3   OH223059   5.730   5.203   4.399
 7701TIP3    H123060   5.700   5.216   4.309
 7701TIP3    H223061   5.650   5.188   4.449
 7702TIP3   OH223062   6.763   3.621   3.105
 7702TIP3    H123063   6.686   3.637   3.159
 7702TIP3    H223064   6.765   3.694   3.043
 7703TIP3   OH223065   5.548   4.345   3.402
 7703TIP3    H123066   5.466   4.387   3.379
 7703TIP3    H223067   5.524   4.254   3.420
 7704TIP3   OH223068   6.600   5.001   2.654
 7704TIP3    H123069   6.601   5.093   2.629
 7704TIP3    H223070   6.689   4.970   2.635
 7705TIP3   OH223071   5.271   4.720   4.382
 7705TIP3    H123072   5.196   4.668   4.352
 7705TIP3    H223073   5.330   4.657   4.423
 7706TIP3   OH223074   7.023   5.407   4.049
 7706TIP3    H123075   7.029   5.312   4.061
 7706TIP3    H223076   6.941   5.431   4.092
 7707TIP3   OH223077   6.120   5.187   4.173
 7707TIP3    H123078   6.115   5.278   4.203
 7707TIP3    H223079   6.052   5.142   4.223
 7708TIP3   OH223080   5.908   5.297   3.127
 7708TIP3    H123081   5.861   5.275   3.047
 7708TIP3    H223082   5.870   5.380   3.155
 7709TIP3   OH223083   5.342   5.151   3.516
 7709TIP3    H123084   5.384   5.142   3.602
 7709TIP3    H223085   5.292   5.070   3.506
 7710TIP3   OH223086   6.107   5.221   2.757
 7710TIP3    H123087   6.157   5.148   2.720
 7710TIP3    H223088   6.143   5.233   2.845
 7711TIP3   OH223089   6.161   5.267   3.027
 7711TIP3    H123090   6.075   5.272   3.068
 7711TIP3    H223091   6.218   5.231   3.096
 7712TIP3   OH223092   6.914   4.521   4.322
 7712TIP3    H123093   6.836   4.531   4.268
 7712TIP3    H223094   6.932   4.427   4.322
 7713TIP3   OH223095   5.902   3.761   4.127
 7713TIP3    H123096   5.819   3.725   4.093
 7713TIP3    H223097   5.877   3.841   4.172
 7714TIP3   OH223098   6.445   3.883   4.322
 7714TIP3    H123099   6.514   3.857   4.383
 7714TIP3    H223100   6.363   3.865   4.369
 7715TIP3   OH223101   6.667   4.301   4.246
 7715TIP3    H123102   6.626   4.296   4.332
 7715TIP3    H223103   6.652   4.390   4.216
 7716TIP3   OH223104   6.336   4.429   2.776
 7716TIP3    H123105   6.299   4.397   2.693
 7716TIP3    H223106   6.423   4.461   2.752
 7717TIP3   OH223107   6.058   3.794   3.099
 7717TIP3    H123108   6.026   3.799   3.189
 7717TIP3    H223109   6.018   3.715   3.064
 7718TIP3   OH223110   5.816   4.282   4.142
 7718TIP3    H123111   5.770   4.287   4.226
 7718TIP3    H223112   5.793   4.364   4.097
 7719TIP3   OH223113   6.223   4.252   3.388
 7719TIP3    H123114   6.179   4.325   3.344
 7719TIP3    H223115   6.285   4.219   3.324
 7720TIP3   OH223116   6.394   4.524   4.482
 7720TIP3    H123117   6.364   4.451   4.537
 7720TIP3    H223118   6.488   4.530   4.499
 7721TIP3   OH223119   5.677   4.291   4.377
 7721TIP3    H123120   5.678   4.359   4.444
 7721TIP3    H223121   5.660   4.210   4.426
 7722TIP3   OH223122   5.724   3.784   3.068
 7722TIP3    H123123   5.715   3.782   3.164
 7722TIP3    H223124   5.645   3.829   3.038
 7723TIP3   OH223125   5.267   3.832   3.945
 7723TIP3    H123126   5.340   3.867   3.997
 7723TIP3    H223127   5.302   3.824   3.857
 7724TIP3   OH223128   5.196   3.797   3.446
 7724TIP3    H123129   5.244   3.830   3.371
 7724TIP3    H223130   5.138   3.869   3.471
 7725TIP3   OH223131   6.449   4.528   4.029
 7725TIP3    H123132   6.472   4.450   3.979
 7725TIP3    H223133   6.401   4.495   4.105
 7726TIP3   OH223134   5.519   4.039   3.801
 7726TIP3    H123135   5.437   4.052   3.753
 7726TIP3    H223136   5.558   3.962   3.761
 7727TIP3   OH223137   5.743   4.031   3.406
 7727TIP3    H123138   5.833   4.058   3.393
 7727TIP3    H223139   5.698   4.058   3.326
 7728TIP3   OH223140   6.591   4.007   3.909
 7728TIP3    H123141   6.558   4.027   3.997
 7728TIP3    H223142   6.523   3.954   3.869
 7729TIP3   OH223143   5.610   4.080   3.170
 7729TIP3    H123144   5.549   4.026   3.119
 7729TIP3    H223145   5.668   4.118   3.104
 7730TIP3   OH223146   6.734   5.749   4.138
 7730TIP3    H123147   6.726   5.769   4.045
 7730TIP3    H223148   6.812   5.797   4.166
 7731TIP3   OH223149   5.709   4.840   4.570
 7731TIP3    H123150   5.781   4.871   4.625
 7731TIP3    H223151   5.630   4.870   4.615
 7732TIP3   OH223152   5.622   3.802   3.706
 7732TIP3    H123153   5.599   3.723   3.755
 7732TIP3    H223154   5.661   3.769   3.625
 7733TIP3   OH223155   5.852   4.586   3.193
 7733TIP3    H123156   5.781   4.526   3.169
 7733TIP3    H223157   5.826   4.620   3.279
 7734TIP3   OH223158   6.754   4.867   3.802
 7734TIP3    H123159   6.806   4.911   3.736
 7734TIP3    H223160   6.668   4.856   3.762
 7735TIP3   OH223161   6.310   3.900   3.095
 7735TIP3    H123162   6.217   3.878   3.090
 7735TIP3    H223163   6.313   3.995   3.102
 7736TIP3   OH223164   6.232   4.920   4.194
 7736TIP3    H123165   6.253   4.900   4.285
 7736TIP3    H223166   6.190   5.006   4.197
 7737TIP3   OH223167   6.381   4.169   3.163
 7737TIP3    H123168   6.476   4.164   3.152
 7737TIP3    H223169   6.353   4.236   3.101
 7738TIP3   OH223170   6.010   4.751   3.045
 7738TIP3    H123171   5.963   4.834   3.044
 7738TIP3    H223172   5.953   4.691   3.093
 7739TIP3   OH223173   5.424   4.549   4.530
 7739TIP3    H123174   5.488   4.578   4.594
 7739TIP3    H223175   5.381   4.473   4.571
 7740TIP3   OH223176   6.155   4.670   4.508
 7740TIP3    H123177   6.085   4.611   4.478
 7740TIP3    H223178   6.236   4.628   4.480
 7741TIP3   OH223179   6.394   5.190   4.099
 7741TIP3    H123180   6.299   5.184   4.109
 7741TIP3    H223181   6.423   5.237   4.177
 7742TIP3   OH223182   7.042   5.123   4.076
 7742TIP3    H123183   6.947   5.113   4.071
 7742TIP3    H223184   7.074   5.092   3.991
 7743TIP3   OH223185   6.524   5.060   2.915
 7743TIP3    H123186   6.497   4.979   2.959
 7743TIP3    H223187   6.546   5.032   2.826
 7744TIP3   OH223188   5.643   4.925   3.501
 7744TIP3    H123189   5.652   5.009   3.456
 7744TIP3    H223190   5.555   4.895   3.478
 7745TIP3   OH223191   5.220   4.225   3.219
 7745TIP3    H123192   5.267   4.306   3.240
 7745TIP3    H223193   5.141   4.229   3.273
 7746TIP3   OH223194   5.774   4.688   3.431
 7746TIP3    H123195   5.741   4.774   3.458
 7746TIP3    H223196   5.817   4.654   3.509
 7747TIP3   OH223197   5.928   5.267   3.975
 7747TIP3    H123198   5.968   5.339   3.926
 7747TIP3    H223199   6.000   5.230   4.026
 7748TIP3   OH223200   5.574   5.165   3.364
 7748TIP3    H123201   5.488   5.173   3.406
 7748TIP3    H223202   5.609   5.254   3.366
 7749TIP3   OH223203   6.285   4.854   3.934
 7749TIP3    H123204   6.256   4.873   4.024
 7749TIP3    H223205   6.380   4.846   3.941
 7750TIP3   OH223206   6.285   4.807   2.813
 7750TIP3    H123207   6.328   4.791   2.897
 7750TIP3    H223208   6.202   4.760   2.819
 7751TIP3   OH223209   6.544   5.431   3.978
 7751TIP3    H123210   6.468   5.372   3.981
 7751TIP3    H223211   6.525   5.491   3.905
 7752TIP3   OH223212   6.607   5.274   2.617
 7752TIP3    H123213   6.630   5.336   2.548
 7752TIP3    H223214   6.534   5.316   2.664
 7753TIP3   OH223215   5.629   4.037   4.497
 7753TIP3    H123216   5.533   4.033   4.502
 7753TIP3    H223217   5.659   3.976   4.564
 7754TIP3   OH223218   6.453   4.774   3.039
 7754TIP3    H123219   6.429   4.699   3.093
 7754TIP3    H223220   6.546   4.760   3.019
 7755TIP3   OH223221   5.638   4.771   2.820
 7755TIP3    H123222   5.648   4.680   2.791
 7755TIP3    H223223   5.618   4.765   2.913
 7756TIP3   OH223224   5.581   4.788   3.092
 7756TIP3    H123225   5.657   4.757   3.142
 7756TIP3    H223226   5.585   4.883   3.099
 7757TIP3   OH223227   5.317   4.474   3.305
 7757TIP3    H123228   5.250   4.520   3.356
 7757TIP3    H223229   5.338   4.533   3.233
 7758TIP3   OH223230   6.498   4.099   4.149
 7758TIP3    H123231   6.560   4.155   4.196
 7758TIP3    H223232   6.476   4.030   4.212
 7759TIP3   OH223233   6.363   3.848   3.361
 7759TIP3    H123234   6.342   3.865   3.270
 7759TIP3    H223235   6.409   3.927   3.390
 7760TIP3   OH223236   5.860   4.979   3.043
 7760TIP3    H123237   5.773   5.002   3.075
 7760TIP3    H223238   5.880   5.047   2.978
 7761TIP3   OH223239   6.030   4.063   3.446
 7761TIP3    H123240   6.099   4.123   3.418
 7761TIP3    H223241   6.027   4.073   3.542
 7762TIP3   OH223242   6.352   4.390   4.242
 7762TIP3    H123243   6.356   4.435   4.326
 7762TIP3    H223244   6.350   4.297   4.264
 7763TIP3   OH223245   6.200   3.758   3.563
 7763TIP3    H123246   6.231   3.812   3.636
 7763TIP3    H223247   6.253   3.787   3.488
 7764TIP3   OH223248   5.605   5.060   3.111
 7764TIP3    H123249   5.582   5.129   3.048
 7764TIP3    H223250   5.591   5.100   3.197
 7765TIP3   OH223251   5.706   3.763   3.346
 7765TIP3    H123252   5.695   3.852   3.378
 7765TIP3    H223253   5.800   3.746   3.355
 7766TIP3   OH223254   6.932   4.244   4.228
 7766TIP3    H123255   6.838   4.255   4.240
 7766TIP3    H223256   6.940   4.184   4.153
 7767TIP3   OH223257   6.593   4.423   3.635
 7767TIP3    H123258   6.581   4.357   3.568
 7767TIP3    H223259   6.674   4.398   3.679
 7768TIP3   OH223260   5.334   4.658   3.092
 7768TIP3    H123261   5.404   4.722   3.099
 7768TIP3    H223262   5.366   4.594   3.028
 7769TIP3   OH223263   5.256   3.948   3.225
 7769TIP3    H123264   5.262   4.044   3.226
 7769TIP3    H223265   5.196   3.928   3.154
 7770TIP3   OH223266   6.579   5.414   3.555
 7770TIP3    H123267   6.535   5.465   3.487
 7770TIP3    H223268   6.672   5.428   3.540
 7771TIP3   OH223269   5.636   3.674   4.095
 7771TIP3    H123270   5.609   3.645   4.008
 7771TIP3    H223271   5.628   3.596   4.150
 7772TIP3   OH223272   5.175   4.920   3.480
 7772TIP3    H123273   5.120   4.950   3.553
 7772TIP3    H223274   5.136   4.961   3.403
 7773TIP3   OH223275   5.359   5.458   4.544
 7773TIP3    H123276   5.441   5.462   4.593
 7773TIP3    H223277   5.335   5.365   4.545
 7774TIP3   OH223278   5.826   5.377   4.594
 7774TIP3    H123279   5.921   5.361   4.601
 7774TIP3    H223280   5.797   5.319   4.524
 7775TIP3   OH223281   5.798   4.971   2.717
 7775TIP3    H123282   5.749   4.899   2.758
 7775TIP3    H223283   5.872   4.928   2.674
 7776TIP3   OH223284   6.456   5.313   4.338
 7776TIP3    H123285   6.465   5.244   4.403
 7776TIP3    H223286   6.529   5.372   4.355
 7777TIP3   OH223287   6.236   5.013   2.635
 7777TIP3    H123288   6.269   4.947   2.697
 7777TIP3    H223289   6.294   5.005   2.560
 7778TIP3   OH223290   5.479   4.869   4.737
 7778TIP3    H123291   5.496   4.775   4.747
 7778TIP3    H223292   5.394   4.874   4.695
 7779TIP3   OH223293   5.461   4.470   2.943
 7779TIP3    H123294   5.515   4.444   3.018
 7779TIP3    H223295   5.524   4.481   2.871
 7780TIP3   OH223296   6.087   4.943   4.515
 7780TIP3    H123297   6.036   4.960   4.437
 7780TIP3    H223298   6.114   4.851   4.507
 7781TIP3   OH223299   6.023   4.691   2.773
 7781TIP3    H123300   6.005   4.701   2.866
 7781TIP3    H223301   6.010   4.598   2.756
 7782TIP3   OH223302   6.561   4.963   4.115
 7782TIP3    H123303   6.638   5.004   4.077
 7782TIP3    H223304   6.493   5.030   4.110
 7783TIP3   OH223305   5.597   4.606   4.737
 7783TIP3    H123306   5.680   4.593   4.691
 7783TIP3    H223307   5.623   4.625   4.828
 7784TIP3   OH223308   5.644   4.408   3.147
 7784TIP3    H123309   5.620   4.376   3.234
 7784TIP3    H223310   5.687   4.334   3.105
 7785TIP3   OH223311   5.957   4.489   4.416
 7785TIP3    H123312   5.867   4.521   4.423
 7785TIP3    H223313   5.985   4.518   4.329
 7786TIP3   OH223314   5.774   4.215   2.995
 7786TIP3    H123315   5.745   4.218   2.904
 7786TIP3    H223316   5.870   4.217   2.990
 7787TIP3   OH223317   6.459   4.866   4.513
 7787TIP3    H123318   6.509   4.818   4.447
 7787TIP3    H223319   6.452   4.806   4.587
 7788TIP3   OH223320   6.567   4.525   2.661
 7788TIP3    H123321   6.554   4.478   2.579
 7788TIP3    H223322   6.538   4.614   2.642
 7789TIP3   OH223323   6.056   4.256   4.516
 7789TIP3    H123324   6.046   4.182   4.456
 7789TIP3    H223325   6.019   4.331   4.469
 7790TIP3   OH223326   6.039   4.058   4.316
 7790TIP3    H123327   6.049   4.112   4.237
 7790TIP3    H223328   5.949   4.025   4.310
 7791TIP3   OH223329   6.058   4.607   4.195
 7791TIP3    H123330   6.137   4.621   4.144
 7791TIP3    H223331   5.999   4.677   4.167
 7792TIP3   OH223332   6.666   4.535   4.570
 7792TIP3    H123333   6.688   4.442   4.577
 7792TIP3    H223334   6.744   4.575   4.531
 7793TIP3   OH223335   6.695   4.814   4.302
 7793TIP3    H123336   6.638   4.866   4.245
 7793TIP3    H223337   6.784   4.833   4.270
 7794TIP3   OH223338   5.937   4.347   4.757
 7794TIP3    H123339   5.868   4.285   4.777
 7794TIP3    H223340   5.965   4.325   4.668
 7795TIP3   OH223341   6.179   3.825   4.403
 7795TIP3    H123342   6.133   3.904   4.374
 7795TIP3    H223343   6.115   3.755   4.392
 7796TIP3   OH223344   6.310   4.300   4.615
 7796TIP3    H123345   6.298   4.285   4.709
 7796TIP3    H223346   6.225   4.278   4.577
 7797TIP3   OH223347   6.556   4.262   4.488
 7797TIP3    H123348   6.477   4.257   4.541
 7797TIP3    H223349   6.625   4.225   4.544
 7798TIP3   OH223350   6.792   4.211   4.633
 7798TIP3    H123351   6.805   4.116   4.639
 7798TIP3    H223352   6.787   4.241   4.724
 7799TIP3   OH223353   5.770   4.128   4.819
 7799TIP3    H123354   5.774   4.040   4.781
 7799TIP3    H223355   5.809   4.118   4.906
 7800TIP3   OH223356   6.257   3.808   4.668
 7800TIP3    H123357   6.324   3.740   4.663
 7800TIP3    H223358   6.223   3.816   4.579
 7801TIP3   OH223359   6.347   4.023   4.815
 7801TIP3    H123360   6.318   3.950   4.760
 7801TIP3    H223361   6.272   4.083   4.816
 7802TIP3   OH223362   5.593   5.267   2.925
 7802TIP3    H123363   5.683   5.248   2.898
 7802TIP3    H223364   5.555   5.313   2.850
 7803TIP3   OH223365   5.061   4.642   3.119
 7803TIP3    H123366   5.155   4.657   3.108
 7803TIP3    H223367   5.045   4.558   3.076
 7804TIP3   OH223368   4.968   5.238   3.548
 7804TIP3    H123369   4.905   5.178   3.508
 7804TIP3    H223370   5.015   5.185   3.612
 7805TIP3   OH223371   5.105   5.095   3.742
 7805TIP3    H123372   5.049   5.061   3.812
 7805TIP3    H223373   5.164   5.155   3.786
 7806TIP3   OH223374   6.848   5.475   3.540
 7806TIP3    H123375   6.868   5.514   3.625
 7806TIP3    H223376   6.901   5.525   3.478
 7807TIP3   OH223377   6.861   5.512   3.824
 7807TIP3    H123378   6.816   5.428   3.815
 7807TIP3    H223379   6.935   5.494   3.882
 7808TIP3   OH223380   6.921   5.204   4.402
 7808TIP3    H123381   6.846   5.212   4.461
 7808TIP3    H223382   6.961   5.291   4.401
 7809TIP3   OH223383   6.724   4.733   3.013
 7809TIP3    H123384   6.792   4.791   2.981
 7809TIP3    H223385   6.760   4.695   3.092
 7810TIP3   OH223386   6.834   4.594   3.230
 7810TIP3    H123387   6.852   4.504   3.201
 7810TIP3    H223388   6.914   4.620   3.276
 7811TIP3   OH223389   6.930   4.980   3.631
 7811TIP3    H123390   6.978   4.910   3.586
 7811TIP3    H223391   6.930   5.053   3.568
 7812TIP3   OH223392   6.722   5.271   3.830
 7812TIP3    H123393   6.651   5.315   3.877
 7812TIP3    H223394   6.679   5.228   3.756
 7813TIP3   OH223395   6.789   4.536   2.822
 7813TIP3    H123396   6.713   4.523   2.766
 7813TIP3    H223397   6.759   4.595   2.891
 7814TIP3   OH223398   6.521   4.146   2.806
 7814TIP3    H123399   6.565   4.202   2.742
 7814TIP3    H223400   6.552   4.058   2.785
 7815TIP3   OH223401   6.598   4.397   3.341
 7815TIP3    H123402   6.627   4.316   3.300
 7815TIP3    H223403   6.680   4.442   3.366
 7816TIP3   OH223404   6.956   4.862   4.213
 7816TIP3    H123405   7.018   4.792   4.197
 7816TIP3    H223406   6.977   4.929   4.149
 7817TIP3   OH223407   7.127   4.648   4.205
 7817TIP3    H123408   7.053   4.603   4.246
 7817TIP3    H223409   7.202   4.592   4.226
 7818TIP3   OH223410   6.595   3.881   2.759
 7818TIP3    H123411   6.656   3.857   2.828
 7818TIP3    H223412   6.512   3.840   2.785
 7819TIP3   OH223413   6.688   4.152   3.239
 7819TIP3    H123414   6.707   4.059   3.245
 7819TIP3    H223415   6.771   4.193   3.215
 7820TIP3   OH223416   6.826   4.331   3.754
 7820TIP3    H123417   6.907   4.349   3.705
 7820TIP3    H223418   6.842   4.368   3.840
 7821TIP3   OH223419   6.897   4.479   3.980
 7821TIP3    H123420   6.826   4.509   4.036
 7821TIP3    H223421   6.927   4.559   3.935
 7822TIP3   OH223422   5.503   4.179   4.768
 7822TIP3    H123423   5.598   4.177   4.779
 7822TIP3    H223424   5.472   4.098   4.808
 7823TIP3   OH223425   7.343   4.081   4.517
 7823TIP3    H123426   7.405   4.018   4.479
 7823TIP3    H223427   7.307   4.127   4.441
 7824TIP3   OH223428   6.771   3.888   3.282
 7824TIP3    H123429   6.817   3.877   3.366
 7824TIP3    H223430   6.701   3.823   3.285
 7825TIP3   OH223431   5.465   3.893   4.143
 7825TIP3    H123432   5.521   3.815   4.135
 7825TIP3    H223433   5.519   3.965   4.111
 7826TIP3   OH223434   7.196   4.191   4.313
 7826TIP3    H123435   7.109   4.228   4.328
 7826TIP3    H223436   7.179   4.111   4.263
 7827TIP3   OH223437   6.817   3.816   2.921
 7827TIP3    H123438   6.870   3.771   2.855
 7827TIP3    H223439   6.877   3.878   2.962
 7828TIP3   OH223440   5.245   3.656   3.676
 7828TIP3    H123441   5.156   3.650   3.711
 7828TIP3    H223442   5.236   3.715   3.600
 7829TIP3   OH223443   6.414   5.377   3.189
 7829TIP3    H123444   6.466   5.367   3.109
 7829TIP3    H223445   6.454   5.451   3.234
 7830TIP3   OH223446   5.472   3.740   4.498
 7830TIP3    H123447   5.419   3.726   4.577
 7830TIP3    H223448   5.411   3.775   4.434
 7831TIP3   OH223449   5.508   5.173   4.562
 7831TIP3    H123450   5.413   5.163   4.553
 7831TIP3    H223451   5.525   5.156   4.655
 7832TIP3   OH223452   5.688   5.226   4.125
 7832TIP3    H123453   5.653   5.307   4.087
 7832TIP3    H223454   5.772   5.213   4.081
 7833TIP3   OH223455   6.119   5.455   4.250
 7833TIP3    H123456   6.156   5.450   4.339
 7833TIP3    H223457   6.182   5.507   4.201
 7834TIP3   OH223458   6.310   5.610   4.124
 7834TIP3    H123459   6.375   5.561   4.074
 7834TIP3    H223460   6.361   5.668   4.180
 7835TIP3   OH223461   7.111   3.939   4.217
 7835TIP3    H123462   7.021   3.924   4.187
 7835TIP3    H223463   7.152   3.852   4.211
 7836TIP3   OH223464   5.356   5.444   4.111
 7836TIP3    H123465   5.268   5.482   4.103
 7836TIP3    H223466   5.384   5.467   4.200
 7837TIP3   OH223467   5.607   5.459   4.000
 7837TIP3    H123468   5.519   5.462   4.038
 7837TIP3    H223469   5.595   5.488   3.909
 7838TIP3   OH223470   6.022   5.470   3.804
 7838TIP3    H123471   5.953   5.485   3.739
 7838TIP3    H223472   6.036   5.556   3.845
 7839TIP3   OH223473   6.288   5.400   3.845
 7839TIP3    H123474   6.196   5.420   3.830
 7839TIP3    H223475   6.336   5.469   3.799
 7840TIP3   OH223476   6.489   5.584   3.754
 7840TIP3    H123477   6.485   5.671   3.714
 7840TIP3    H223478   6.519   5.527   3.683
 7841TIP3   OH223479   5.291   5.270   3.882
 7841TIP3    H123480   5.325   5.311   3.962
 7841TIP3    H223481   5.366   5.221   3.848
 7842TIP3   OH223482   5.498   5.133   3.754
 7842TIP3    H123483   5.538   5.048   3.772
 7842TIP3    H223484   5.572   5.193   3.748
 7843TIP3   OH223485   5.755   5.243   3.759
 7843TIP3    H123486   5.771   5.151   3.741
 7843TIP3    H223487   5.802   5.261   3.840
 7844TIP3   OH223488   6.316   3.854   3.817
 7844TIP3    H123489   6.278   3.793   3.880
 7844TIP3    H223490   6.394   3.809   3.785
 7845TIP3   OH223491   6.829   3.772   3.736
 7845TIP3    H123492   6.864   3.820   3.661
 7845TIP3    H223493   6.734   3.789   3.733
 7846TIP3   OH223494   6.943   3.841   3.496
 7846TIP3    H123495   7.016   3.789   3.463
 7846TIP3    H223496   6.973   3.932   3.490
 7847TIP3   OH223497   5.558   3.570   3.851
 7847TIP3    H123498   5.467   3.540   3.855
 7847TIP3    H223499   5.610   3.490   3.842
 7848TIP3   OH223500   5.369   3.469   3.500
 7848TIP3    H123501   5.396   3.523   3.426
 7848TIP3    H223502   5.332   3.531   3.563
 7849TIP3   OH223503   6.034   3.608   3.737
 7849TIP3    H123504   6.080   3.662   3.672
 7849TIP3    H223505   6.066   3.640   3.821
 7850TIP3   OH223506   6.549   3.750   3.711
 7850TIP3    H123507   6.545   3.715   3.621
 7850TIP3    H223508   6.548   3.672   3.766
 7851TIP3   OH223509   6.580   3.689   3.298
 7851TIP3    H123510   6.499   3.737   3.314
 7851TIP3    H223511   6.563   3.601   3.333
 7852TIP3   OH223512   5.056   5.043   3.266
 7852TIP3    H123513   4.972   5.011   3.234
 7852TIP3    H223514   5.061   5.134   3.236
 7853TIP3   OH223515   5.482   3.608   3.267
 7853TIP3    H123516   5.525   3.547   3.208
 7853TIP3    H223517   5.554   3.661   3.302
 7854TIP3   OH223518   5.986   3.801   3.368
 7854TIP3    H123519   6.042   3.757   3.432
 7854TIP3    H223520   5.995   3.894   3.388
 7855TIP3   OH223521   5.851   5.197   2.859
 7855TIP3    H123522   5.934   5.226   2.821
 7855TIP3    H223523   5.822   5.125   2.803
 7856TIP3   OH223524   6.558   5.331   2.956
 7856TIP3    H123525   6.550   5.236   2.946
 7856TIP3    H223526   6.514   5.367   2.878
 7857TIP3   OH223527   5.777   3.854   4.733
 7857TIP3    H123528   5.741   3.786   4.791
 7857TIP3    H223529   5.869   3.860   4.758
 7858TIP3   OH223530   6.028   3.858   4.855
 7858TIP3    H123531   6.107   3.834   4.806
 7858TIP3    H223532   6.018   3.789   4.920
 7859TIP3   OH223533   5.156   5.043   2.912
 7859TIP3    H123534   5.159   5.057   3.007
 7859TIP3    H223535   5.237   4.996   2.892
 7860TIP3   OH223536   6.853   3.940   4.642
 7860TIP3    H123537   6.869   3.910   4.732
 7860TIP3    H223538   6.939   3.934   4.600
 7861TIP3   OH223539   6.769   5.475   4.145
 7861TIP3    H123540   6.696   5.445   4.091
 7861TIP3    H223541   6.760   5.570   4.147
 7862TIP3   OH223542   7.964   4.829   2.825
 7862TIP3    H123543   7.964   4.924   2.824
 7862TIP3    H223544   7.958   4.806   2.918
 7863TIP3   OH223545   7.971   4.858   3.306
 7863TIP3    H123546   8.042   4.852   3.370
 7863TIP3    H223547   7.947   4.767   3.289
 7864TIP3   OH223548   7.349   4.730   3.657
 7864TIP3    H123549   7.383   4.674   3.726
 7864TIP3    H223550   7.425   4.754   3.605
 7865TIP3   OH223551   8.289   5.122   2.982
 7865TIP3    H123552   8.292   5.081   3.069
 7865TIP3    H223553   8.299   5.216   3.000
 7866TIP3   OH223554   7.335   5.159   3.363
 7866TIP3    H123555   7.321   5.064   3.363
 7866TIP3    H223556   7.429   5.169   3.345
 7867TIP3   OH223557   7.086   4.642   3.341
 7867TIP3    H123558   7.130   4.561   3.367
 7867TIP3    H223559   7.144   4.682   3.276
 7868TIP3   OH223560   7.958   5.612   3.006
 7868TIP3    H123561   7.995   5.546   2.947
 7868TIP3    H223562   7.946   5.566   3.089
 7869TIP3   OH223563   7.839   5.096   3.316
 7869TIP3    H123564   7.874   5.009   3.297
 7869TIP3    H223565   7.915   5.146   3.346
 7870TIP3   OH223566   8.228   4.562   3.350
 7870TIP3    H123567   8.218   4.477   3.394
 7870TIP3    H223568   8.165   4.561   3.278
 7871TIP3   OH223569   7.596   4.235   3.317
 7871TIP3    H123570   7.573   4.306   3.258
 7871TIP3    H223571   7.552   4.158   3.281
 7872TIP3   OH223572   8.257   4.326   2.934
 7872TIP3    H123573   8.266   4.277   3.016
 7872TIP3    H223574   8.346   4.349   2.910
 7873TIP3   OH223575   7.234   4.427   3.431
 7873TIP3    H123576   7.318   4.408   3.473
 7873TIP3    H223577   7.234   4.376   3.350
 7874TIP3   OH223578   7.653   4.639   3.251
 7874TIP3    H123579   7.747   4.619   3.261
 7874TIP3    H223580   7.616   4.558   3.215
 7875TIP3   OH223581   7.588   4.238   3.770
 7875TIP3    H123582   7.536   4.270   3.697
 7875TIP3    H223583   7.534   4.254   3.848
 7876TIP3   OH223584   7.919   5.082   2.737
 7876TIP3    H123585   7.903   5.107   2.646
 7876TIP3    H223586   7.878   5.152   2.788
 7877TIP3   OH223587   7.685   5.009   3.527
 7877TIP3    H123588   7.629   5.078   3.563
 7877TIP3    H223589   7.730   5.052   3.454
 7878TIP3   OH223590   7.475   4.336   3.539
 7878TIP3    H123591   7.530   4.411   3.560
 7878TIP3    H223592   7.519   4.293   3.466
 7879TIP3   OH223593   7.531   5.207   3.639
 7879TIP3    H123594   7.515   5.296   3.606
 7879TIP3    H223595   7.453   5.186   3.690
 7880TIP3   OH223596   6.914   4.902   2.889
 7880TIP3    H123597   6.877   4.914   2.802
 7880TIP3    H223598   6.937   4.990   2.918
 7881TIP3   OH223599   8.292   5.386   3.051
 7881TIP3    H123600   8.212   5.392   3.104
 7881TIP3    H223601   8.307   5.476   3.021
 7882TIP3   OH223602   7.885   3.908   3.468
 7882TIP3    H123603   7.886   3.823   3.512
 7882TIP3    H223604   7.819   3.959   3.515
 7883TIP3   OH223605   8.066   5.453   2.813
 7883TIP3    H123606   8.113   5.371   2.799
 7883TIP3    H223607   8.116   5.518   2.763
 7884TIP3   OH223608   8.171   5.200   2.750
 7884TIP3    H123609   8.092   5.145   2.751
 7884TIP3    H223610   8.223   5.168   2.823
 7885TIP3   OH223611   0.183   5.295   3.440
 7885TIP3    H123612   0.120   5.254   3.381
 7885TIP3    H223613   0.132   5.361   3.487
 7886TIP3   OH223614   8.197   4.775   2.673
 7886TIP3    H123615   8.136   4.769   2.747
 7886TIP3    H223616   8.233   4.687   2.665
 7887TIP3   OH223617   8.355   4.799   3.704
 7887TIP3    H123618   8.418   4.869   3.721
 7887TIP3    H223619   8.289   4.840   3.648
 7888TIP3   OH223620   7.460   4.778   3.105
 7888TIP3    H123621   7.419   4.717   3.043
 7888TIP3    H223622   7.529   4.727   3.146
 7889TIP3   OH223623   7.588   5.200   3.245
 7889TIP3    H123624   7.568   5.179   3.154
 7889TIP3    H223625   7.676   5.165   3.259
 7890TIP3   OH223626   7.567   4.766   3.482
 7890TIP3    H123627   7.602   4.731   3.400
 7890TIP3    H223628   7.613   4.849   3.495
 7891TIP3   OH223629   8.101   5.394   3.242
 7891TIP3    H123630   8.091   5.477   3.288
 7891TIP3    H223631   8.092   5.328   3.311
 7892TIP3   OH223632   7.729   5.300   3.806
 7892TIP3    H123633   7.671   5.362   3.850
 7892TIP3    H223634   7.671   5.252   3.747
 7893TIP3   OH223635   7.489   4.854   3.942
 7893TIP3    H123636   7.494   4.947   3.962
 7893TIP3    H223637   7.396   4.835   3.935
 7894TIP3   OH223638   7.817   5.329   2.803
 7894TIP3    H123639   7.896   5.383   2.813
 7894TIP3    H223640   7.756   5.385   2.756
 7895TIP3   OH223641   7.525   5.468   3.887
 7895TIP3    H123642   7.500   5.478   3.795
 7895TIP3    H223643   7.442   5.451   3.932
 7896TIP3   OH223644   7.333   4.617   2.911
 7896TIP3    H123645   7.261   4.667   2.873
 7896TIP3    H223646   7.297   4.528   2.922
 7897TIP3   OH223647   8.511   5.297   2.038
 7897TIP3    H123648   8.422   5.332   2.032
 7897TIP3    H223649   8.504   5.207   2.006
 7898TIP3   OH223650   7.116   5.015   3.838
 7898TIP3    H123651   7.053   5.000   3.767
 7898TIP3    H223652   7.151   4.928   3.858
 7899TIP3   OH223653   6.969   5.211   3.477
 7899TIP3    H123654   7.064   5.224   3.475
 7899TIP3    H223655   6.934   5.290   3.517
 7900TIP3   OH223656   7.911   5.445   3.657
 7900TIP3    H123657   7.915   5.535   3.687
 7900TIP3    H223658   7.843   5.404   3.711
 7901TIP3   OH223659   7.701   5.545   2.633
 7901TIP3    H123660   7.659   5.527   2.549
 7901TIP3    H223661   7.668   5.632   2.657
 7902TIP3   OH223662   7.136   5.404   2.992
 7902TIP3    H123663   7.179   5.396   3.077
 7902TIP3    H223664   7.087   5.323   2.983
 7903TIP3   OH223665   7.886   5.495   2.237
 7903TIP3    H123666   7.924   5.415   2.201
 7903TIP3    H223667   7.927   5.505   2.323
 7904TIP3   OH223668   7.950   5.534   2.502
 7904TIP3    H123669   7.880   5.519   2.565
 7904TIP3    H223670   8.018   5.472   2.527
 7905TIP3   OH223671   7.317   5.201   3.810
 7905TIP3    H123672   7.367   5.187   3.891
 7905TIP3    H223673   7.245   5.138   3.816
 7906TIP3   OH223674   7.683   4.023   3.623
 7906TIP3    H123675   7.598   3.994   3.592
 7906TIP3    H223676   7.665   4.103   3.673
 7907TIP3   OH223677   8.172   4.218   3.910
 7907TIP3    H123678   8.215   4.204   3.994
 7907TIP3    H223679   8.084   4.182   3.921
 7908TIP3   OH223680   0.056   4.627   3.818
 7908TIP3    H123681  -0.025   4.603   3.864
 7908TIP3    H223682   0.027   4.682   3.746
 7909TIP3   OH223683   8.157   4.684   2.292
 7909TIP3    H123684   8.123   4.629   2.221
 7909TIP3    H223685   8.248   4.701   2.267
 7910TIP3   OH223686   7.870   4.043   2.610
 7910TIP3    H123687   7.829   4.054   2.697
 7910TIP3    H223688   7.820   3.973   2.568
 7911TIP3   OH223689   7.633   4.543   3.629
 7911TIP3    H123690   7.587   4.552   3.712
 7911TIP3    H223691   7.614   4.624   3.582
 7912TIP3   OH223692   7.512   4.429   3.143
 7912TIP3    H123693   7.423   4.401   3.165
 7912TIP3    H223694   7.528   4.393   3.056
 7913TIP3   OH223695   7.982   4.520   2.852
 7913TIP3    H123696   7.971   4.610   2.821
 7913TIP3    H223697   8.032   4.477   2.783
 7914TIP3   OH223698   8.156   4.784   3.959
 7914TIP3    H123699   8.134   4.710   4.016
 7914TIP3    H223700   8.251   4.792   3.966
 7915TIP3   OH223701   8.105   4.489   3.116
 7915TIP3    H123702   8.079   4.554   3.050
 7915TIP3    H223703   8.139   4.416   3.065
 7916TIP3   OH223704   7.471   4.562   3.849
 7916TIP3    H123705   7.487   4.626   3.919
 7916TIP3    H223706   7.451   4.481   3.896
 7917TIP3   OH223707   7.524   4.047   2.554
 7917TIP3    H123708   7.509   4.044   2.648
 7917TIP3    H223709   7.446   4.089   2.518
 7918TIP3   OH223710   7.053   4.081   3.456
 7918TIP3    H123711   7.123   4.127   3.501
 7918TIP3    H223712   7.031   4.136   3.382
 7919TIP3   OH223713   8.150   4.789   3.506
 7919TIP3    H123714   8.189   4.723   3.450
 7919TIP3    H223715   8.119   4.741   3.583
 7920TIP3   OH223716   7.839   4.302   3.203
 7920TIP3    H123717   7.765   4.275   3.257
 7920TIP3    H223718   7.912   4.249   3.235
 7921TIP3   OH223719   7.286   4.287   3.200
 7921TIP3    H123720   7.193   4.275   3.183
 7921TIP3    H223721   7.325   4.201   3.186
 7922TIP3   OH223722   7.533   4.297   2.905
 7922TIP3    H123723   7.626   4.307   2.888
 7922TIP3    H223724   7.490   4.317   2.821
 7923TIP3   OH223725   8.196   4.309   3.438
 7923TIP3    H123726   8.167   4.329   3.527
 7923TIP3    H223727   8.288   4.285   3.447
 7924TIP3   OH223728   7.400   4.329   2.670
 7924TIP3    H123729   7.329   4.279   2.629
 7924TIP3    H223730   7.450   4.365   2.597
 7925TIP3   OH223731  -0.000   6.032   3.667
 7925TIP3    H123732  -0.018   6.026   3.573
 7925TIP3    H223733   0.084   6.077   3.672
 7926TIP3   OH223734   7.475   5.118   4.042
 7926TIP3    H123735   7.556   5.139   4.089
 7926TIP3    H223736   7.406   5.123   4.108
 7927TIP3   OH223737   7.918   4.582   3.308
 7927TIP3    H123738   7.955   4.517   3.248
 7927TIP3    H223739   7.917   4.537   3.393
 7928TIP3   OH223740   7.441   4.051   3.182
 7928TIP3    H123741   7.410   3.977   3.234
 7928TIP3    H223742   7.464   4.013   3.097
 7929TIP3   OH223743   7.895   4.492   3.573
 7929TIP3    H123744   7.804   4.513   3.592
 7929TIP3    H223745   7.946   4.555   3.625
 7930TIP3   OH223746   7.690   4.805   2.712
 7930TIP3    H123747   7.617   4.749   2.686
 7930TIP3    H223748   7.658   4.853   2.789
 7931TIP3   OH223749   0.023   5.066   3.363
 7931TIP3    H123750   0.066   5.016   3.294
 7931TIP3    H223751  -0.063   5.087   3.326
 7932TIP3   OH223752   8.024   4.284   2.606
 7932TIP3    H123753   7.968   4.207   2.610
 7932TIP3    H223754   8.021   4.312   2.515
 7933TIP3   OH223755   8.036   5.197   3.704
 7933TIP3    H123756   7.989   5.159   3.779
 7933TIP3    H223757   7.992   5.280   3.687
 7934TIP3   OH223758   7.348   4.882   3.338
 7934TIP3    H123759   7.378   4.855   3.251
 7934TIP3    H223760   7.405   4.835   3.399
 7935TIP3   OH223761   7.757   4.994   2.521
 7935TIP3    H123762   7.748   5.088   2.504
 7935TIP3    H223763   7.668   4.965   2.545
 7936TIP3   OH223764   7.219   4.787   3.971
 7936TIP3    H123765   7.222   4.762   4.064
 7936TIP3    H223766   7.145   4.736   3.936
 7937TIP3   OH223767   7.930   4.932   3.988
 7937TIP3    H123768   7.863   4.870   3.957
 7937TIP3    H223769   8.013   4.891   3.965
 7938TIP3   OH223770   8.177   5.468   3.554
 7938TIP3    H123771   8.084   5.450   3.566
 7938TIP3    H223772   8.209   5.488   3.642
 7939TIP3   OH223773   8.400   5.279   2.412
 7939TIP3    H123774   8.439   5.266   2.499
 7939TIP3    H223775   8.424   5.201   2.363
 7940TIP3   OH223776   8.265   5.037   3.253
 7940TIP3    H123777   8.170   5.023   3.256
 7940TIP3    H223778   8.301   4.953   3.223
 7941TIP3   OH223779   7.457   5.186   2.990
 7941TIP3    H123780   7.453   5.266   2.938
 7941TIP3    H223781   7.366   5.169   3.015
 7942TIP3   OH223782   7.033   4.493   2.712
 7942TIP3    H123783   7.074   4.577   2.729
 7942TIP3    H223784   6.947   4.499   2.755
 7943TIP3   OH223785   7.579   4.947   2.916
 7943TIP3    H123786   7.550   5.036   2.936
 7943TIP3    H223787   7.539   4.893   2.984
 7944TIP3   OH223788   7.731   5.522   3.453
 7944TIP3    H123789   7.764   5.597   3.403
 7944TIP3    H223790   7.806   5.491   3.503
 7945TIP3   OH223791   7.373   5.418   2.850
 7945TIP3    H123792   7.285   5.425   2.887
 7945TIP3    H223793   7.407   5.507   2.853
 7946TIP3   OH223794   8.084   5.180   3.425
 7946TIP3    H123795   8.082   5.181   3.521
 7946TIP3    H223796   8.173   5.152   3.404
 7947TIP3   OH223797   8.019   5.105   2.333
 7947TIP3    H123798   8.086   5.077   2.395
 7947TIP3    H223799   8.009   5.030   2.274
 7948TIP3   OH223800   8.294   5.717   3.471
 7948TIP3    H123801   8.232   5.644   3.465
 7948TIP3    H223802   8.279   5.769   3.392
 7949TIP3   OH223803   7.420   4.311   3.978
 7949TIP3    H123804   7.325   4.319   3.980
 7949TIP3    H223805   7.441   4.253   4.050
 7950TIP3   OH223806   8.204   4.986   2.502
 7950TIP3    H123807   8.189   4.924   2.573
 7950TIP3    H223808   8.264   4.940   2.443
 7951TIP3   OH223809   7.163   5.414   3.615
 7951TIP3    H123810   7.215   5.351   3.665
 7951TIP3    H223811   7.182   5.499   3.655
 7952TIP3   OH223812   7.434   5.033   2.309
 7952TIP3    H123813   7.452   4.944   2.278
 7952TIP3    H223814   7.414   5.022   2.402
 7953TIP3   OH223815   7.383   5.043   2.582
 7953TIP3    H123816   7.414   5.017   2.668
 7953TIP3    H223817   7.386   5.139   2.583
 7954TIP3   OH223818   7.123   4.747   2.787
 7954TIP3    H123819   7.052   4.785   2.839
 7954TIP3    H223820   7.132   4.806   2.712
 7955TIP3   OH223821   8.171   4.399   3.700
 7955TIP3    H123822   8.255   4.444   3.690
 7955TIP3    H223823   8.176   4.358   3.787
 7956TIP3   OH223824   8.084   4.128   2.854
 7956TIP3    H123825   8.096   4.113   2.760
 7956TIP3    H223826   8.132   4.209   2.872
 7957TIP3   OH223827   7.667   5.246   2.524
 7957TIP3    H123828   7.580   5.264   2.560
 7957TIP3    H223829   7.681   5.316   2.460
 7958TIP3   OH223830   7.810   4.314   2.931
 7958TIP3    H123831   7.869   4.382   2.898
 7958TIP3    H223832   7.820   4.316   3.026
 7959TIP3   OH223833   8.071   4.652   3.727
 7959TIP3    H123834   8.102   4.698   3.804
 7959TIP3    H223835   8.107   4.564   3.736
 7960TIP3   OH223836   7.950   4.005   3.052
 7960TIP3    H123837   7.967   4.066   3.124
 7960TIP3    H223838   7.990   4.047   2.976
 7961TIP3   OH223839   7.408   5.314   2.597
 7961TIP3    H123840   7.380   5.381   2.535
 7961TIP3    H223841   7.393   5.354   2.683
 7962TIP3   OH223842   7.477   4.024   2.833
 7962TIP3    H123843   7.458   4.113   2.861
 7962TIP3    H223844   7.572   4.016   2.841
 7963TIP3   OH223845   8.247   4.779   3.189
 7963TIP3    H123846   8.246   4.746   3.100
 7963TIP3    H223847   8.282   4.706   3.241
 7964TIP3   OH223848   7.124   4.924   2.569
 7964TIP3    H123849   7.192   4.991   2.570
 7964TIP3    H223850   7.158   4.858   2.508
 7965TIP3   OH223851   7.075   4.221   2.686
 7965TIP3    H123852   7.076   4.316   2.697
 7965TIP3    H223853   7.010   4.190   2.748
 7966TIP3   OH223854   8.348   5.660   3.021
 7966TIP3    H123855   8.302   5.713   2.956
 7966TIP3    H223856   8.440   5.683   3.009
 7967TIP3   OH223857   7.428   3.935   3.581
 7967TIP3    H123858   7.402   3.903   3.494
 7967TIP3    H223859   7.422   3.858   3.637
 7968TIP3   OH223860   6.967   5.176   2.964
 7968TIP3    H123861   6.917   5.209   3.039
 7968TIP3    H223862   6.927   5.218   2.888
 7969TIP3   OH223863   7.157   5.716   4.039
 7969TIP3    H123864   7.240   5.720   4.086
 7969TIP3    H223865   7.142   5.623   4.025
 7970TIP3   OH223866   7.625   5.635   4.083
 7970TIP3    H123867   7.718   5.616   4.089
 7970TIP3    H223868   7.594   5.580   4.011
 7971TIP3   OH223869   7.591   5.233   2.206
 7971TIP3    H123870   7.540   5.163   2.247
 7971TIP3    H223871   7.660   5.187   2.157
 7972TIP3   OH223872   8.222   5.540   3.817
 7972TIP3    H123873   8.233   5.476   3.887
 7972TIP3    H223874   8.284   5.610   3.839
 7973TIP3   OH223875   7.982   5.280   2.097
 7973TIP3    H123876   8.046   5.256   2.165
 7973TIP3    H223877   8.035   5.293   2.018
 7974TIP3   OH223878   7.270   5.110   4.232
 7974TIP3    H123879   7.291   5.017   4.238
 7974TIP3    H223880   7.185   5.113   4.189
 7975TIP3   OH223881   7.258   4.731   2.432
 7975TIP3    H123882   7.311   4.698   2.504
 7975TIP3    H223883   7.320   4.744   2.360
 7976TIP3   OH223884   7.884   5.204   4.008
 7976TIP3    H123885   7.830   5.223   3.931
 7976TIP3    H223886   7.907   5.112   3.999
 7977TIP3   OH223887   7.736   4.924   2.249
 7977TIP3    H123888   7.754   4.950   2.339
 7977TIP3    H223889   7.755   4.830   2.247
 7978TIP3   OH223890   8.297   5.213   3.785
 7978TIP3    H123891   8.335   5.225   3.698
 7978TIP3    H223892   8.202   5.215   3.770
 7979TIP3   OH223893   7.386   4.857   4.230
 7979TIP3    H123894   7.460   4.834   4.174
 7979TIP3    H223895   7.426   4.875   4.315
 7980TIP3   OH223896   7.467   4.657   2.649
 7980TIP3    H123897   7.428   4.621   2.729
 7980TIP3    H223898   7.494   4.580   2.599
 7981TIP3   OH223899   7.739   4.742   3.891
 7981TIP3    H123900   7.654   4.784   3.900
 7981TIP3    H223901   7.774   4.775   3.808
 7982TIP3   OH223902   7.553   4.454   2.479
 7982TIP3    H123903   7.509   4.467   2.395
 7982TIP3    H223904   7.636   4.412   2.458
 7983TIP3   OH223905   8.223   5.121   4.056
 7983TIP3    H123906   8.259   5.080   3.977
 7983TIP3    H223907   8.222   5.050   4.121
 7984TIP3   OH223908   7.841   4.513   4.001
 7984TIP3    H123909   7.844   4.442   3.938
 7984TIP3    H223910   7.808   4.588   3.952
 7985TIP3   OH223911   7.849   4.316   3.800
 7985TIP3    H123912   7.882   4.354   3.718
 7985TIP3    H223913   7.757   4.298   3.783
 7986TIP3   OH223914   7.854   4.859   3.677
 7986TIP3    H123915   7.940   4.858   3.635
 7986TIP3    H223916   7.800   4.916   3.622
 7987TIP3   OH223917   8.415   4.809   4.054
 7987TIP3    H123918   8.489   4.749   4.057
 7987TIP3    H223919   8.444   4.879   3.995
 7988TIP3   OH223920   8.462   5.008   3.862
 7988TIP3    H123921   8.408   5.085   3.842
 7988TIP3    H223922   8.538   5.017   3.804
 7989TIP3   OH223923   7.720   4.606   4.238
 7989TIP3    H123924   7.657   4.538   4.260
 7989TIP3    H223925   7.753   4.582   4.151
 7990TIP3   OH223926   7.931   4.070   3.900
 7990TIP3    H123927   7.888   4.150   3.870
 7990TIP3    H223928   7.864   4.002   3.891
 7991TIP3   OH223929   8.097   4.557   4.094
 7991TIP3    H123930   8.099   4.539   4.189
 7991TIP3    H223931   8.009   4.533   4.068
 7992TIP3   OH223932   8.318   4.520   3.926
 7992TIP3    H123933   8.237   4.533   3.976
 7992TIP3    H223934   8.376   4.473   3.985
 7993TIP3   OH223935   8.459   4.421   4.129
 7993TIP3    H123936   8.519   4.362   4.173
 7993TIP3    H223937   8.432   4.483   4.197
 7994TIP3   OH223938   7.568   4.380   4.305
 7994TIP3    H123939   7.572   4.292   4.267
 7994TIP3    H223940   7.605   4.371   4.392
 7995TIP3   OH223941   8.028   4.058   4.160
 7995TIP3    H123942   8.087   3.983   4.166
 7995TIP3    H223943   7.988   4.051   4.074
 7996TIP3   OH223944   8.115   4.269   4.316
 7996TIP3    H123945   8.096   4.200   4.253
 7996TIP3    H223946   8.043   4.331   4.305
 7997TIP3   OH223947   7.381   5.518   2.412
 7997TIP3    H123948   7.473   5.506   2.389
 7997TIP3    H223949   7.344   5.566   2.337
 7998TIP3   OH223950   6.854   4.900   2.608
 7998TIP3    H123951   6.947   4.918   2.594
 7998TIP3    H223952   6.839   4.816   2.565
 7999TIP3   OH223953   6.763   5.492   3.045
 7999TIP3    H123954   6.699   5.437   3.000
 7999TIP3    H223955   6.808   5.432   3.105
 8000TIP3   OH223956   6.903   5.329   3.219
 8000TIP3    H123957   6.893   5.262   3.287
 8000TIP3    H223958   6.955   5.398   3.261
 8001TIP3   OH223959   0.290   5.793   3.306
 8001TIP3    H123960   0.289   5.703   3.274
 8001TIP3    H223961   0.265   5.786   3.398
 8002TIP3   OH223962   0.168   5.446   3.787
 8002TIP3    H123963   0.190   5.479   3.874
 8002TIP3    H223964   0.253   5.441   3.742
 8003TIP3   OH223965   8.474   5.604   3.277
 8003TIP3    H123966   8.436   5.635   3.358
 8003TIP3    H223967   8.407   5.618   3.210
 8004TIP3   OH223968  -0.001   4.613   2.832
 8004TIP3    H123969   0.082   4.569   2.816
 8004TIP3    H223970   0.019   4.706   2.827
 8005TIP3   OH223971   7.086   4.753   3.593
 8005TIP3    H123972   7.077   4.719   3.504
 8005TIP3    H223973   7.180   4.755   3.608
 8006TIP3   OH223974   7.303   4.445   4.265
 8006TIP3    H123975   7.398   4.436   4.273
 8006TIP3    H223976   7.269   4.362   4.299
 8007TIP3   OH223977   7.268   4.159   3.619
 8007TIP3    H123978   7.319   4.078   3.613
 8007TIP3    H223979   7.330   4.228   3.594
 8008TIP3   OH223980   7.065   4.423   3.654
 8008TIP3    H123981   7.109   4.407   3.570
 8008TIP3    H223982   7.099   4.507   3.684
 8009TIP3   OH223983   6.992   3.935   3.117
 8009TIP3    H123984   6.917   3.916   3.174
 8009TIP3    H223985   7.008   4.028   3.129
 8010TIP3   OH223986   8.220   5.639   2.681
 8010TIP3    H123987   8.248   5.626   2.590
 8010TIP3    H223988   8.254   5.725   2.704
 8011TIP3   OH223989   7.264   3.993   3.985
 8011TIP3    H123990   7.210   3.980   4.063
 8011TIP3    H223991   7.206   4.036   3.922
 8012TIP3   OH223992   7.300   5.436   4.051
 8012TIP3    H123993   7.207   5.415   4.042
 8012TIP3    H223994   7.319   5.426   4.144
 8013TIP3   OH223995   7.506   5.482   3.605
 8013TIP3    H123996   7.453   5.555   3.572
 8013TIP3    H223997   7.589   5.490   3.559
 8014TIP3   OH223998   7.911   5.709   3.743
 8014TIP3    H123999   7.951   5.705   3.830
 8014TIP3    H224000   7.972   5.762   3.692
 8015TIP3   OH224001   8.095   5.867   3.615
 8015TIP3    H124002   8.165   5.819   3.570
 8015TIP3    H224003   8.142   5.928   3.673
 8016TIP3   OH224004   7.168   5.720   3.652
 8016TIP3    H124005   7.078   5.739   3.626
 8016TIP3    H224006   7.190   5.789   3.714
 8017TIP3   OH224007   7.397   5.710   3.497
 8017TIP3    H124008   7.314   5.717   3.543
 8017TIP3    H224009   7.377   5.738   3.407
 8018TIP3   OH224010   7.804   5.734   3.290
 8018TIP3    H124011   7.735   5.748   3.225
 8018TIP3    H224012   7.820   5.820   3.328
 8019TIP3   OH224013   8.061   5.652   3.321
 8019TIP3    H124014   7.970   5.679   3.311
 8019TIP3    H224015   8.112   5.721   3.279
 8020TIP3   OH224016   8.247   5.828   3.221
 8020TIP3    H124017   8.265   5.920   3.201
 8020TIP3    H224018   8.271   5.781   3.141
 8021TIP3   OH224019   7.076   5.505   3.366
 8021TIP3    H124020   7.102   5.481   3.455
 8021TIP3    H224021   7.148   5.474   3.311
 8022TIP3   OH224022   7.279   5.390   3.228
 8022TIP3    H124023   7.292   5.308   3.276
 8022TIP3    H224024   7.366   5.432   3.229
 8023TIP3   OH224025   7.547   5.477   3.247
 8023TIP3    H124026   7.566   5.384   3.233
 8023TIP3    H224027   7.600   5.501   3.322
 8024TIP3   OH224028   8.050   4.144   3.268
 8024TIP3    H124029   8.053   4.082   3.342
 8024TIP3    H224030   8.107   4.216   3.296
 8025TIP3   OH224031   7.358   3.835   3.330
 8025TIP3    H124032   7.267   3.806   3.338
 8025TIP3    H224033   7.409   3.754   3.330
 8026TIP3   OH224034   7.146   3.728   3.017
 8026TIP3    H124035   7.193   3.753   2.937
 8026TIP3    H224036   7.110   3.810   3.050
 8027TIP3   OH224037   7.781   3.853   3.216
 8027TIP3    H124038   7.828   3.909   3.155
 8027TIP3    H224039   7.816   3.877   3.302
 8028TIP3   OH224040   8.495   3.956   3.175
 8028TIP3    H124041   8.420   3.946   3.116
 8028TIP3    H224042   8.463   3.926   3.260
 8029TIP3   OH224043   6.852   5.301   2.750
 8029TIP3    H124044   6.768   5.267   2.717
 8029TIP3    H224045   6.855   5.391   2.720
 8030TIP3   OH224046   7.286   3.821   2.779
 8030TIP3    H124047   7.325   3.773   2.705
 8030TIP3    H224048   7.348   3.892   2.796
 8031TIP3   OH224049   7.749   4.055   2.859
 8031TIP3    H124050   7.800   4.005   2.922
 8031TIP3    H224051   7.771   4.147   2.878
 8032TIP3   OH224052   7.641   5.461   2.349
 8032TIP3    H124053   7.720   5.496   2.309
 8032TIP3    H224054   7.614   5.389   2.292
 8033TIP3   OH224055   8.367   5.600   2.444
 8033TIP3    H124056   8.415   5.521   2.419
 8033TIP3    H224057   8.307   5.616   2.371
 8034TIP3   OH224058   7.574   4.107   4.224
 8034TIP3    H124059   7.538   4.039   4.282
 8034TIP3    H224060   7.666   4.114   4.250
 8035TIP3   OH224061   7.821   4.115   4.348
 8035TIP3    H124062   7.899   4.095   4.296
 8035TIP3    H224063   7.817   4.045   4.413
 8036TIP3   OH224064   6.949   5.301   2.400
 8036TIP3    H124065   6.950   5.315   2.495
 8036TIP3    H224066   7.030   5.254   2.381
 8037TIP3   OH224067   8.484   5.762   3.653
 8037TIP3    H124068   8.413   5.758   3.589
 8037TIP3    H224069   8.496   5.856   3.669
 8038TIP3   OH224070   0.535   5.674   4.641
 8038TIP3    H124071   0.497   5.759   4.621
 8038TIP3    H224072   0.479   5.611   4.595
 8039TIP3   OH224073   0.532   5.680   4.941
 8039TIP3    H124074   0.512   5.603   4.993
 8039TIP3    H224075   0.511   5.655   4.851
 8040TIP3   OH224076   0.757   5.954   4.662
 8040TIP3    H124077   0.765   5.884   4.727
 8040TIP3    H224078   0.788   6.033   4.707
 8041TIP3   OH224079   0.444   6.433   4.687
 8041TIP3    H124080   0.489   6.363   4.640
 8041TIP3    H224081   0.356   6.398   4.703
 8042TIP3   OH224082   0.320   5.781   5.137
 8042TIP3    H124083   0.338   5.741   5.052
 8042TIP3    H224084   0.324   5.875   5.119
 8043TIP3   OH224085   1.346   5.173   5.003
 8043TIP3    H124086   1.347   5.257   5.050
 8043TIP3    H224087   1.380   5.194   4.916
 8044TIP3   OH224088   0.773   5.330   5.063
 8044TIP3    H124089   0.822   5.249   5.050
 8044TIP3    H224090   0.703   5.327   4.998
 8045TIP3   OH224091   0.785   5.099   4.618
 8045TIP3    H124092   0.865   5.051   4.640
 8045TIP3    H224093   0.809   5.153   4.543
 8046TIP3   OH224094   1.387   5.383   5.196
 8046TIP3    H124095   1.313   5.440   5.178
 8046TIP3    H224096   1.437   5.429   5.264
 8047TIP3   OH224097   0.371   5.865   4.509
 8047TIP3    H124098   0.308   5.862   4.438
 8047TIP3    H224099   0.446   5.913   4.473
 8048TIP3   OH224100   0.803   6.193   4.810
 8048TIP3    H124101   0.711   6.192   4.837
 8048TIP3    H224102   0.816   6.278   4.770
 8049TIP3   OH224103   0.419   4.723   5.179
 8049TIP3    H124104   0.429   4.628   5.190
 8049TIP3    H224105   0.452   4.760   5.261
 8050TIP3   OH224106   0.513   6.226   4.500
 8050TIP3    H124107   0.539   6.135   4.483
 8050TIP3    H224108   0.580   6.278   4.456
 8051TIP3   OH224109   0.612   5.975   4.430
 8051TIP3    H124110   0.657   5.928   4.359
 8051TIP3    H224111   0.670   5.965   4.506
 8052TIP3   OH224112   1.037   6.097   5.165
 8052TIP3    H124113   1.030   6.021   5.106
 8052TIP3    H224114   1.024   6.173   5.108
 8053TIP3   OH224115   0.385   5.527   4.472
 8053TIP3    H124116   0.297   5.561   4.491
 8053TIP3    H224117   0.385   5.512   4.378
 8054TIP3   OH224118   0.343   5.262   4.126
 8054TIP3    H124119   0.399   5.311   4.187
 8054TIP3    H224120   0.405   5.215   4.070
 8055TIP3   OH224121   1.233   5.744   5.022
 8055TIP3    H124122   1.150   5.793   5.024
 8055TIP3    H224123   1.269   5.761   4.936
 8056TIP3   OH224124   0.689   5.596   4.404
 8056TIP3    H124125   0.644   5.626   4.482
 8056TIP3    H224126   0.772   5.561   4.436
 8057TIP3   OH224127   0.959   5.620   5.343
 8057TIP3    H124128   0.944   5.705   5.385
 8057TIP3    H224129   0.876   5.599   5.300
 8058TIP3   OH224130   0.552   6.202   4.929
 8058TIP3    H124131   0.546   6.290   4.966
 8058TIP3    H224132   0.592   6.149   4.999
 8059TIP3   OH224133   0.535   5.434   4.238
 8059TIP3    H124134   0.583   5.500   4.288
 8059TIP3    H224135   0.560   5.450   4.147
 8060TIP3   OH224136   1.038   4.666   4.271
 8060TIP3    H124137   0.959   4.679   4.322
 8060TIP3    H224138   1.044   4.744   4.215
 8061TIP3   OH224139   0.853   6.043   3.823
 8061TIP3    H124140   0.853   6.136   3.801
 8061TIP3    H224141   0.943   6.015   3.806
 8062TIP3   OH224142   1.274   6.433   5.231
 8062TIP3    H124143   1.279   6.338   5.245
 8062TIP3    H224144   1.195   6.460   5.277
 8063TIP3   OH224145   0.358   6.267   3.925
 8063TIP3    H124146   0.423   6.204   3.893
 8063TIP3    H224147   0.391   6.293   4.011
 8064TIP3   OH224148   0.458   6.303   4.180
 8064TIP3    H124149   0.412   6.226   4.211
 8064TIP3    H224150   0.536   6.309   4.236
 8065TIP3   OH224151   1.159   5.577   5.528
 8065TIP3    H124152   1.092   5.587   5.461
 8065TIP3    H224153   1.183   5.484   5.525
 8066TIP3   OH224154   0.757   4.925   5.484
 8066TIP3    H124155   0.830   4.894   5.538
 8066TIP3    H224156   0.685   4.938   5.547
 8067TIP3   OH224157   0.920   5.330   5.417
 8067TIP3    H124158   0.880   5.329   5.504
 8067TIP3    H224159   0.905   5.419   5.384
 8068TIP3   OH224160   0.606   5.461   3.981
 8068TIP3    H124161   0.568   5.433   3.897
 8068TIP3    H224162   0.687   5.506   3.957
 8069TIP3   OH224163   0.322   4.870   4.230
 8069TIP3    H124164   0.329   4.846   4.323
 8069TIP3    H224165   0.289   4.790   4.188
 8070TIP3   OH224166   0.508   5.304   4.557
 8070TIP3    H124167   0.457   5.381   4.532
 8070TIP3    H224168   0.548   5.274   4.475
 8071TIP3   OH224169   0.681   5.308   4.764
 8071TIP3    H124170   0.621   5.327   4.692
 8071TIP3    H224171   0.728   5.230   4.737
 8072TIP3   OH224172   0.727   5.515   5.255
 8072TIP3    H124173   0.745   5.455   5.184
 8072TIP3    H224174   0.665   5.469   5.311
 8073TIP3   OH224175   0.344   4.938   4.900
 8073TIP3    H124176   0.257   4.953   4.938
 8073TIP3    H224177   0.404   4.980   4.961
 8074TIP3   OH224178   0.806   5.044   5.086
 8074TIP3    H124179   0.772   5.083   5.166
 8074TIP3    H224180   0.737   4.985   5.056
 8075TIP3   OH224181   0.501   5.342   4.961
 8075TIP3    H124182   0.552   5.328   4.881
 8075TIP3    H224183   0.424   5.287   4.950
 8076TIP3   OH224184   0.399   5.212   5.219
 8076TIP3    H124185   0.349   5.286   5.251
 8076TIP3    H224186   0.489   5.244   5.216
 8077TIP3   OH224187   1.002   5.893   4.987
 8077TIP3    H124188   1.042   5.941   4.914
 8077TIP3    H224189   0.926   5.850   4.948
 8078TIP3   OH224190   0.575   4.952   4.263
 8078TIP3    H124191   0.482   4.942   4.243
 8078TIP3    H224192   0.588   5.046   4.274
 8079TIP3   OH224193   0.499   6.054   5.359
 8079TIP3    H124194   0.557   5.979   5.348
 8079TIP3    H224195   0.443   6.032   5.433
 8080TIP3   OH224196   0.647   5.208   4.339
 8080TIP3    H124197   0.742   5.214   4.339
 8080TIP3    H224198   0.617   5.283   4.287
 8081TIP3   OH224199   0.157   5.812   4.309
 8081TIP3    H124200   0.091   5.874   4.277
 8081TIP3    H224201   0.107   5.750   4.363
 8082TIP3   OH224202   0.537   5.643   5.800
 8082TIP3    H124203   0.482   5.606   5.731
 8082TIP3    H224204   0.566   5.727   5.765
 8083TIP3   OH224205   0.656   6.264   5.267
 8083TIP3    H124206   0.585   6.203   5.286
 8083TIP3    H224207   0.677   6.304   5.351
 8084TIP3   OH224208   1.046   5.301   4.166
 8084TIP3    H124209   0.988   5.256   4.105
 8084TIP3    H224210   1.051   5.390   4.132
 8085TIP3   OH224211   1.287   6.151   5.256
 8085TIP3    H124212   1.192   6.144   5.244
 8085TIP3    H224213   1.323   6.128   5.170
 8086TIP3   OH224214   0.776   6.109   4.083
 8086TIP3    H124215   0.742   6.031   4.127
 8086TIP3    H224216   0.798   6.080   3.995
 8087TIP3   OH224217   0.784   5.767   4.875
 8087TIP3    H124218   0.694   5.743   4.897
 8087TIP3    H224219   0.822   5.686   4.841
 8088TIP3   OH224220   0.640   5.993   5.089
 8088TIP3    H124221   0.698   5.989   5.165
 8088TIP3    H224222   0.682   5.935   5.025
 8089TIP3   OH224223   0.572   5.876   4.020
 8089TIP3    H124224   0.628   5.853   4.094
 8089TIP3    H224225   0.490   5.830   4.037
 8090TIP3   OH224226   0.809   6.473   5.149
 8090TIP3    H124227   0.737   6.413   5.165
 8090TIP3    H224228   0.775   6.536   5.085
 8091TIP3   OH224229   0.861   6.316   3.788
 8091TIP3    H124230   0.889   6.379   3.722
 8091TIP3    H224231   0.789   6.359   3.834
 8092TIP3   OH224232   0.729   5.811   4.232
 8092TIP3    H124233   0.705   5.733   4.283
 8092TIP3    H224234   0.821   5.799   4.211
 8093TIP3   OH224235   0.724   5.151   5.331
 8093TIP3    H124236   0.802   5.203   5.349
 8093TIP3    H224237   0.733   5.073   5.385
 8094TIP3   OH224238   0.650   4.877   4.515
 8094TIP3    H124239   0.611   4.885   4.428
 8094TIP3    H224240   0.698   4.959   4.527
 8095TIP3   OH224241   0.211   5.099   4.688
 8095TIP3    H124242   0.208   5.194   4.674
 8095TIP3    H224243   0.304   5.079   4.695
 8096TIP3   OH224244   0.603   5.368   5.460
 8096TIP3    H124245   0.654   5.356   5.541
 8096TIP3    H224246   0.617   5.286   5.412
 8097TIP3   OH224247   0.522   4.779   4.751
 8097TIP3    H124248   0.461   4.848   4.776
 8097TIP3    H224249   0.563   4.811   4.671
 8098TIP3   OH224250   1.195   5.318   5.418
 8098TIP3    H124251   1.101   5.305   5.412
 8098TIP3    H224252   1.225   5.319   5.327
 8099TIP3   OH224253   0.866   5.511   4.795
 8099TIP3    H124254   0.795   5.448   4.798
 8099TIP3    H224255   0.937   5.471   4.845
 8100TIP3   OH224256   0.841   6.457   4.744
 8100TIP3    H124257   0.800   6.499   4.669
 8100TIP3    H224258   0.934   6.473   4.733
 8101TIP3   OH224259   0.720   6.346   5.515
 8101TIP3    H124260   0.715   6.285   5.589
 8101TIP3    H224261   0.785   6.411   5.542
 8102TIP3   OH224262   0.522   6.075   3.829
 8102TIP3    H124263   0.558   6.013   3.893
 8102TIP3    H224264   0.572   6.059   3.749
 8103TIP3   OH224265   0.200   5.773   3.910
 8103TIP3    H124266   0.177   5.818   3.991
 8103TIP3    H224267   0.214   5.682   3.936
 8104TIP3   OH224268   0.816   6.037   5.311
 8104TIP3    H124269   0.899   6.057   5.268
 8104TIP3    H224270   0.769   6.121   5.311
 8105TIP3   OH224271   8.470   5.312   4.216
 8105TIP3    H124272   8.442   5.297   4.126
 8105TIP3    H224273   8.564   5.330   4.209
 8106TIP3   OH224274   0.706   5.867   5.705
 8106TIP3    H124275   0.749   5.857   5.621
 8106TIP3    H224276   0.776   5.866   5.770
 8107TIP3   OH224277   0.825   5.573   3.851
 8107TIP3    H124278   0.815   5.526   3.769
 8107TIP3    H224279   0.794   5.661   3.833
 8108TIP3   OH224280   0.330   5.012   5.398
 8108TIP3    H124281   0.355   5.050   5.314
 8108TIP3    H224282   0.290   5.085   5.446
 8109TIP3   OH224283   0.358   5.801   5.401
 8109TIP3    H124284   0.449   5.776   5.414
 8109TIP3    H224285   0.342   5.790   5.308
 8110TIP3   OH224286   0.969   5.566   5.755
 8110TIP3    H124287   1.002   5.478   5.771
 8110TIP3    H224288   1.030   5.603   5.692
 8111TIP3   OH224289   0.943   5.864   5.481
 8111TIP3    H124290   0.890   5.923   5.428
 8111TIP3    H224291   1.033   5.879   5.451
 8112TIP3   OH224292   0.479   4.819   5.548
 8112TIP3    H124293   0.430   4.891   5.507
 8112TIP3    H224294   0.426   4.742   5.530
 8113TIP3   OH224295   0.781   5.288   5.658
 8113TIP3    H124296   0.726   5.214   5.684
 8113TIP3    H224297   0.859   5.282   5.713
 8114TIP3   OH224298   1.015   5.267   5.811
 8114TIP3    H124299   1.039   5.175   5.818
 8114TIP3    H224300   1.005   5.296   5.902
 8115TIP3   OH224301   0.649   4.903   5.753
 8115TIP3    H124302   0.690   4.823   5.785
 8115TIP3    H224303   0.576   4.873   5.698
 8116TIP3   OH224304   0.597   5.125   5.917
 8116TIP3    H124305   0.645   5.065   5.859
 8116TIP3    H224306   0.528   5.071   5.954
 8117TIP3   OH224307   1.103   6.527   4.721
 8117TIP3    H124308   1.126   6.576   4.800
 8117TIP3    H224309   1.153   6.568   4.651
 8118TIP3   OH224310   1.117   6.557   5.014
 8118TIP3    H124311   1.073   6.474   4.996
 8118TIP3    H224312   1.195   6.532   5.064
 8119TIP3   OH224313   1.171   6.256   5.568
 8119TIP3    H124314   1.100   6.264   5.631
 8119TIP3    H224315   1.216   6.340   5.571
 8120TIP3   OH224316   0.994   5.765   4.184
 8120TIP3    H124317   1.053   5.832   4.151
 8120TIP3    H224318   1.042   5.724   4.256
 8121TIP3   OH224319   1.119   5.621   4.383
 8121TIP3    H124320   1.051   5.586   4.441
 8121TIP3    H224321   1.184   5.657   4.443
 8122TIP3   OH224322   1.166   6.023   4.810
 8122TIP3    H124323   1.221   5.955   4.770
 8122TIP3    H224324   1.170   6.096   4.750
 8123TIP3   OH224325   0.978   6.310   5.005
 8123TIP3    H124326   0.912   6.362   5.051
 8123TIP3    H224327   0.930   6.270   4.932
 8124TIP3   OH224328   1.031   5.540   4.030
 8124TIP3    H124329   0.961   5.541   3.964
 8124TIP3    H224330   1.015   5.618   4.083
 8125TIP3   OH224331   0.884   5.199   3.974
 8125TIP3    H124332   0.842   5.233   3.896
 8125TIP3    H224333   0.873   5.104   3.968
 8126TIP3   OH224334   0.915   5.487   4.522
 8126TIP3    H124335   0.930   5.393   4.511
 8126TIP3    H224336   0.906   5.499   4.616
 8127TIP3   OH224337   1.202   5.903   5.388
 8127TIP3    H124338   1.264   5.832   5.371
 8127TIP3    H224339   1.231   5.975   5.331
 8128TIP3   OH224340   1.368   5.685   5.380
 8128TIP3    H124341   1.300   5.647   5.435
 8128TIP3    H224342   1.445   5.629   5.393
 8129TIP3   OH224343   0.851   4.931   3.954
 8129TIP3    H124344   0.921   4.898   4.011
 8129TIP3    H224345   0.775   4.878   3.977
 8130TIP3   OH224346   0.923   5.209   4.402
 8130TIP3    H124347   0.967   5.126   4.418
 8130TIP3    H224348   0.968   5.246   4.326
 8131TIP3   OH224349   1.069   5.387   4.926
 8131TIP3    H124350   1.155   5.397   4.884
 8131TIP3    H224351   1.085   5.413   5.017
 8132TIP3   OH224352   1.152   5.522   5.162
 8132TIP3    H124353   1.084   5.557   5.221
 8132TIP3    H224354   1.182   5.598   5.112
 8133TIP3   OH224355   1.595   5.121   5.696
 8133TIP3    H124356   1.660   5.061   5.660
 8133TIP3    H224357   1.559   5.167   5.621
 8134TIP3   OH224358   1.011   4.953   4.489
 8134TIP3    H124359   1.081   4.935   4.552
 8134TIP3    H224360   0.969   4.868   4.474
 8135TIP3   OH224361   1.445   5.227   5.493
 8135TIP3    H124362   1.359   5.267   5.501
 8135TIP3    H224363   1.430   5.147   5.442
 8136TIP3   OH224364   1.084   4.876   4.101
 8136TIP3    H124365   1.122   4.813   4.040
 8136TIP3    H224366   1.141   4.952   4.096
 8137TIP3   OH224367   0.671   6.390   4.358
 8137TIP3    H124368   0.730   6.394   4.283
 8137TIP3    H224369   0.699   6.463   4.414
 8138TIP3   OH224370   0.563   6.617   5.251
 8138TIP3    H124371   0.632   6.571   5.299
 8138TIP3    H224372   0.567   6.707   5.285
 8139TIP3   OH224373   1.363   4.969   5.399
 8139TIP3    H124374   1.275   4.939   5.378
 8139TIP3    H224375   1.418   4.891   5.391
 8140TIP3   OH224376   0.535   6.458   5.025
 8140TIP3    H124377   0.522   6.511   5.104
 8140TIP3    H224378   0.571   6.519   4.961
 8141TIP3   OH224379   0.747   6.642   4.930
 8141TIP3    H124380   0.736   6.725   4.884
 8141TIP3    H224381   0.776   6.581   4.862
 8142TIP3   OH224382   0.598   4.875   5.018
 8142TIP3    H124383   0.538   4.822   5.070
 8142TIP3    H224384   0.601   4.832   4.933
 8143TIP3   OH224385   1.176   4.914   4.743
 8143TIP3    H124386   1.239   4.859   4.696
 8143TIP3    H224387   1.203   5.003   4.722
 8144TIP3   OH224388   0.315   4.646   4.921
 8144TIP3    H124389   0.399   4.650   4.877
 8144TIP3    H224390   0.332   4.680   5.010
 8145TIP3   OH224391   0.864   4.714   4.481
 8145TIP3    H124392   0.781   4.762   4.486
 8145TIP3    H224393   0.841   4.626   4.509
 8146TIP3   OH224394   0.345   4.857   4.501
 8146TIP3    H124395   0.302   4.810   4.573
 8146TIP3    H224396   0.397   4.925   4.545
 8147TIP3   OH224397   0.814   6.376   4.125
 8147TIP3    H124398   0.806   6.282   4.112
 8147TIP3    H224399   0.771   6.415   4.049
 8148TIP3   OH224400   1.106   5.002   5.825
 8148TIP3    H124401   1.120   4.968   5.913
 8148TIP3    H224402   1.191   4.995   5.783
 8149TIP3   OH224403   1.025   6.532   5.319
 8149TIP3    H124404   0.951   6.499   5.266
 8149TIP3    H224405   1.043   6.618   5.282
 8150TIP3   OH224406   2.297   5.904   4.067
 8150TIP3    H124407   2.265   5.992   4.046
 8150TIP3    H224408   2.226   5.845   4.040
 8151TIP3   OH224409   2.292   5.900   4.485
 8151TIP3    H124410   2.343   5.883   4.564
 8151TIP3    H224411   2.252   5.815   4.464
 8152TIP3   OH224412   1.596   5.769   4.839
 8152TIP3    H124413   1.631   5.713   4.908
 8152TIP3    H224414   1.673   5.793   4.787
 8153TIP3   OH224415   2.557   6.208   4.159
 8153TIP3    H124416   2.548   6.142   4.228
 8153TIP3    H224417   2.582   6.287   4.206
 8154TIP3   OH224418   1.580   6.192   4.533
 8154TIP3    H124419   1.566   6.098   4.536
 8154TIP3    H224420   1.675   6.202   4.520
 8155TIP3   OH224421   1.270   5.391   4.317
 8155TIP3    H124422   1.233   5.476   4.338
 8155TIP3    H224423   1.200   5.346   4.268
 8156TIP3   OH224424   1.347   5.701   4.522
 8156TIP3    H124425   1.397   5.624   4.549
 8156TIP3    H224426   1.414   5.763   4.492
 8157TIP3   OH224427   2.214   6.644   4.169
 8157TIP3    H124428   2.243   6.578   4.106
 8157TIP3    H224429   2.215   6.598   4.253
 8158TIP3   OH224430   2.099   6.122   4.499
 8158TIP3    H124431   2.143   6.043   4.466
 8158TIP3    H224432   2.171   6.179   4.527
 8159TIP3   OH224433   3.132   5.443   4.506
 8159TIP3    H124434   3.151   5.527   4.548
 8159TIP3    H224435   3.165   5.453   4.417
 8160TIP3   OH224436   2.509   5.613   4.530
 8160TIP3    H124437   2.549   5.530   4.556
 8160TIP3    H224438   2.473   5.597   4.443
 8161TIP3   OH224439   1.862   5.274   4.493
 8161TIP3    H124440   1.844   5.347   4.434
 8161TIP3    H224441   1.810   5.202   4.459
 8162TIP3   OH224442   2.559   5.373   4.122
 8162TIP3    H124443   2.624   5.365   4.191
 8162TIP3    H224444   2.609   5.407   4.047
 8163TIP3   OH224445   1.488   5.482   4.614
 8163TIP3    H124446   1.571   5.465   4.659
 8163TIP3    H224447   1.494   5.431   4.533
 8164TIP3   OH224448   1.912   5.683   4.432
 8164TIP3    H124449   2.006   5.667   4.438
 8164TIP3    H224450   1.877   5.602   4.396
 8165TIP3   OH224451   3.190   5.657   4.680
 8165TIP3    H124452   3.105   5.700   4.670
 8165TIP3    H224453   3.229   5.699   4.757
 8166TIP3   OH224454   1.846   5.273   4.941
 8166TIP3    H124455   1.793   5.309   4.869
 8166TIP3    H224456   1.794   5.287   5.019
 8167TIP3   OH224457   2.167   6.114   3.944
 8167TIP3    H124458   2.143   6.100   3.853
 8167TIP3    H224459   2.126   6.197   3.968
 8168TIP3   OH224460   1.947   6.044   4.717
 8168TIP3    H124461   1.892   6.115   4.750
 8168TIP3    H224462   1.995   6.082   4.644
 8169TIP3   OH224463   2.726   5.392   4.338
 8169TIP3    H124464   2.688   5.371   4.423
 8169TIP3    H224465   2.785   5.465   4.355
 8170TIP3   OH224466   1.729   5.379   4.713
 8170TIP3    H124467   1.784   5.453   4.737
 8170TIP3    H224468   1.776   5.336   4.641
 8171TIP3   OH224469   1.785   6.248   4.816
 8171TIP3    H124470   1.770   6.336   4.781
 8171TIP3    H224471   1.708   6.229   4.868
 8172TIP3   OH224472   1.163   5.949   4.063
 8172TIP3    H124473   1.130   5.966   3.975
 8172TIP3    H224474   1.187   6.035   4.097
 8173TIP3   OH224475   2.602   6.454   4.302
 8173TIP3    H124476   2.514   6.447   4.339
 8173TIP3    H224477   2.601   6.538   4.256
 8174TIP3   OH224478   2.927   5.333   4.669
 8174TIP3    H124479   2.842   5.362   4.636
 8174TIP3    H224480   2.990   5.362   4.604
 8175TIP3   OH224481   2.184   4.979   4.660
 8175TIP3    H124482   2.174   4.887   4.684
 8175TIP3    H224483   2.109   5.023   4.701
 8176TIP3   OH224484   2.306   6.485   3.959
 8176TIP3    H124485   2.357   6.404   3.947
 8176TIP3    H224486   2.365   6.554   3.930
 8177TIP3   OH224487   2.458   6.265   3.906
 8177TIP3    H124488   2.451   6.183   3.857
 8177TIP3    H224489   2.496   6.239   3.990
 8178TIP3   OH224490   2.834   6.348   4.647
 8178TIP3    H124491   2.821   6.273   4.589
 8178TIP3    H224492   2.819   6.424   4.591
 8179TIP3   OH224493   2.123   5.746   3.914
 8179TIP3    H124494   2.044   5.797   3.895
 8179TIP3    H224495   2.173   5.747   3.832
 8180TIP3   OH224496   2.093   5.549   3.611
 8180TIP3    H124497   2.158   5.598   3.662
 8180TIP3    H224498   2.144   5.483   3.565
 8181TIP3   OH224499   3.023   5.999   4.507
 8181TIP3    H124500   2.940   6.047   4.506
 8181TIP3    H224501   3.061   6.015   4.420
 8182TIP3   OH224502   2.482   5.836   3.877
 8182TIP3    H124503   2.427   5.863   3.951
 8182TIP3    H224504   2.565   5.810   3.916
 8183TIP3   OH224505   2.711   5.866   4.818
 8183TIP3    H124506   2.711   5.949   4.865
 8183TIP3    H224507   2.629   5.866   4.769
 8184TIP3   OH224508   1.710   5.818   4.289
 8184TIP3    H124509   1.675   5.760   4.221
 8184TIP3    H224510   1.784   5.771   4.325
 8185TIP3   OH224511   1.841   6.238   4.428
 8185TIP3    H124512   1.821   6.223   4.336
 8185TIP3    H224513   1.929   6.201   4.440
 8186TIP3   OH224514   1.812   5.812   4.658
 8186TIP3    H124515   1.851   5.777   4.577
 8186TIP3    H224516   1.863   5.891   4.676
 8187TIP3   OH224517   2.362   6.447   4.431
 8187TIP3    H124518   2.352   6.526   4.484
 8187TIP3    H224519   2.349   6.375   4.494
 8188TIP3   OH224520   1.984   6.352   4.979
 8188TIP3    H124521   1.925   6.411   5.025
 8188TIP3    H224522   1.928   6.300   4.922
 8189TIP3   OH224523   2.313   5.697   3.709
 8189TIP3    H124524   2.374   5.753   3.758
 8189TIP3    H224525   2.340   5.706   3.618
 8190TIP3   OH224526   1.743   5.912   5.116
 8190TIP3    H124527   1.742   6.005   5.138
 8190TIP3    H224528   1.650   5.889   5.107
 8191TIP3   OH224529   2.056   6.370   3.971
 8191TIP3    H124530   2.141   6.413   3.975
 8191TIP3    H224531   2.001   6.432   3.922
 8192TIP3   OH224532   1.774   6.512   5.061
 8192TIP3    H124533   1.751   6.521   4.969
 8192TIP3    H224534   1.690   6.497   5.105
 8193TIP3   OH224535   2.825   4.925   3.761
 8193TIP3    H124536   2.748   4.947   3.814
 8193TIP3    H224537   2.839   5.002   3.706
 8194TIP3   OH224538   1.586   5.663   4.084
 8194TIP3    H124539   1.510   5.710   4.049
 8194TIP3    H224540   1.556   5.573   4.097
 8195TIP3   OH224541   2.646   6.297   3.316
 8195TIP3    H124542   2.644   6.391   3.297
 8195TIP3    H224543   2.735   6.270   3.296
 8196TIP3   OH224544   1.364   6.063   5.011
 8196TIP3    H124545   1.299   6.043   4.944
 8196TIP3    H224546   1.400   5.977   5.035
 8197TIP3   OH224547   1.221   6.251   4.655
 8197TIP3    H124548   1.316   6.257   4.648
 8197TIP3    H224549   1.196   6.332   4.701
 8198TIP3   OH224550   3.066   6.706   4.710
 8198TIP3    H124551   3.072   6.611   4.723
 8198TIP3    H224552   2.986   6.732   4.757
 8199TIP3   OH224553   2.173   6.492   4.837
 8199TIP3    H124554   2.168   6.583   4.866
 8199TIP3    H224555   2.107   6.446   4.888
 8200TIP3   OH224556   1.950   6.595   3.794
 8200TIP3    H124557   1.905   6.578   3.711
 8200TIP3    H224558   1.916   6.680   3.822
 8201TIP3   OH224559   1.384   6.449   4.173
 8201TIP3    H124560   1.430   6.441   4.256
 8201TIP3    H224561   1.337   6.366   4.163
 8202TIP3   OH224562   2.152   6.520   3.421
 8202TIP3    H124563   2.203   6.447   3.386
 8202TIP3    H224564   2.187   6.534   3.509
 8203TIP3   OH224565   2.204   6.567   3.690
 8203TIP3    H124566   2.118   6.571   3.734
 8203TIP3    H224567   2.263   6.533   3.757
 8204TIP3   OH224568   2.953   5.827   4.989
 8204TIP3    H124569   2.874   5.835   4.935
 8204TIP3    H224570   2.974   5.733   4.986
 8205TIP3   OH224571   1.567   6.247   4.985
 8205TIP3    H124572   1.617   6.235   5.066
 8205TIP3    H224573   1.495   6.185   4.992
 8206TIP3   OH224574   1.949   5.061   4.792
 8206TIP3    H124575   1.864   5.028   4.762
 8206TIP3    H224576   1.927   5.141   4.841
 8207TIP3   OH224577   2.499   5.174   4.992
 8207TIP3    H124578   2.571   5.147   5.049
 8207TIP3    H224579   2.420   5.156   5.043
 8208TIP3   OH224580   2.716   5.599   4.902
 8208TIP3    H124581   2.676   5.597   4.989
 8208TIP3    H224582   2.703   5.689   4.872
 8209TIP3   OH224583   2.390   5.698   3.447
 8209TIP3    H124584   2.350   5.692   3.361
 8209TIP3    H224585   2.474   5.742   3.431
 8210TIP3   OH224586   2.099   5.104   3.760
 8210TIP3    H124587   2.065   5.109   3.849
 8210TIP3    H224588   2.065   5.022   3.726
 8211TIP3   OH224589   1.888   5.586   4.799
 8211TIP3    H124590   1.848   5.597   4.886
 8211TIP3    H224591   1.867   5.667   4.753
 8212TIP3   OH224592   1.772   5.469   4.322
 8212TIP3    H124593   1.683   5.444   4.346
 8212TIP3    H224594   1.784   5.435   4.234
 8213TIP3   OH224595   2.253   5.544   4.049
 8213TIP3    H124596   2.205   5.616   4.008
 8213TIP3    H224597   2.313   5.512   3.981
 8214TIP3   OH224598   2.442   5.815   5.127
 8214TIP3    H124599   2.415   5.746   5.187
 8214TIP3    H224600   2.535   5.828   5.146
 8215TIP3   OH224601   2.417   5.560   4.277
 8215TIP3    H124602   2.351   5.585   4.212
 8215TIP3    H224603   2.464   5.487   4.238
 8216TIP3   OH224604   1.718   5.594   5.025
 8216TIP3    H124605   1.778   5.646   5.079
 8216TIP3    H224606   1.703   5.514   5.075
 8217TIP3   OH224607   1.765   5.082   3.734
 8217TIP3    H124608   1.756   5.084   3.829
 8217TIP3    H224609   1.688   5.128   3.702
 8218TIP3   OH224610   1.296   5.115   4.608
 8218TIP3    H124611   1.371   5.154   4.654
 8218TIP3    H224612   1.330   5.093   4.521
 8219TIP3   OH224613   1.241   5.107   4.111
 8219TIP3    H124614   1.285   5.139   4.033
 8219TIP3    H224615   1.176   5.175   4.132
 8220TIP3   OH224616   2.449   5.812   4.704
 8220TIP3    H124617   2.477   5.747   4.640
 8220TIP3    H224618   2.411   5.762   4.776
 8221TIP3   OH224619   2.130   5.266   4.376
 8221TIP3    H124620   2.054   5.266   4.434
 8221TIP3    H224621   2.205   5.256   4.434
 8222TIP3   OH224622   1.534   5.341   4.383
 8222TIP3    H124623   1.445   5.343   4.349
 8222TIP3    H224624   1.564   5.252   4.367
 8223TIP3   OH224625   1.787   5.344   4.078
 8223TIP3    H124626   1.881   5.355   4.066
 8223TIP3    H224627   1.749   5.363   3.992
 8224TIP3   OH224628   2.591   5.352   4.583
 8224TIP3    H124629   2.568   5.367   4.675
 8224TIP3    H224630   2.524   5.290   4.552
 8225TIP3   OH224631   1.664   5.372   3.834
 8225TIP3    H124632   1.600   5.323   3.781
 8225TIP3    H224633   1.719   5.416   3.770
 8226TIP3   OH224634   2.779   7.052   4.805
 8226TIP3    H124635   2.775   7.069   4.711
 8226TIP3    H224636   2.857   7.097   4.835
 8227TIP3   OH224637   1.720   6.170   5.220
 8227TIP3    H124638   1.802   6.189   5.265
 8227TIP3    H224639   1.653   6.174   5.289
 8228TIP3   OH224640   2.184   5.625   4.481
 8228TIP3    H124641   2.252   5.580   4.430
 8228TIP3    H224642   2.186   5.582   4.566
 8229TIP3   OH224643   1.682   5.096   4.371
 8229TIP3    H124644   1.651   5.022   4.422
 8229TIP3    H224645   1.718   5.057   4.291
 8230TIP3   OH224646   2.157   5.527   4.750
 8230TIP3    H124647   2.069   5.558   4.772
 8230TIP3    H224648   2.216   5.579   4.805
 8231TIP3   OH224649   1.890   5.892   3.856
 8231TIP3    H124650   1.816   5.835   3.836
 8231TIP3    H224651   1.868   5.931   3.941
 8232TIP3   OH224652   2.786   6.140   4.470
 8232TIP3    H124653   2.822   6.189   4.396
 8232TIP3    H224654   2.706   6.101   4.437
 8233TIP3   OH224655   2.354   5.204   3.756
 8233TIP3    H124656   2.260   5.185   3.755
 8233TIP3    H224657   2.359   5.299   3.771
 8234TIP3   OH224658   2.294   6.221   4.873
 8234TIP3    H124659   2.350   6.215   4.951
 8234TIP3    H224660   2.258   6.310   4.877
 8235TIP3   OH224661   2.417   5.466   3.833
 8235TIP3    H124662   2.512   5.469   3.843
 8235TIP3    H224663   2.396   5.543   3.781
 8236TIP3   OH224664   1.580   5.904   4.517
 8236TIP3    H124665   1.618   5.887   4.431
 8236TIP3    H224666   1.647   5.874   4.579
 8237TIP3   OH224667   2.044   6.050   3.693
 8237TIP3    H124668   1.997   6.134   3.694
 8237TIP3    H224669   1.992   5.993   3.749
 8238TIP3   OH224670   1.470   5.847   5.154
 8238TIP3    H124671   1.491   5.830   5.245
 8238TIP3    H224672   1.402   5.783   5.133
 8239TIP3   OH224673   2.213   5.970   5.158
 8239TIP3    H124674   2.157   5.935   5.088
 8239TIP3    H224675   2.299   5.931   5.142
 8240TIP3   OH224676   2.445   6.502   4.761
 8240TIP3    H124677   2.349   6.494   4.767
 8240TIP3    H224678   2.470   6.546   4.842
 8241TIP3   OH224679   2.831   5.555   3.654
 8241TIP3    H124680   2.776   5.508   3.592
 8241TIP3    H224681   2.837   5.644   3.619
 8242TIP3   OH224682   3.081   6.425   4.738
 8242TIP3    H124683   2.987   6.412   4.732
 8242TIP3    H224684   3.115   6.396   4.653
 8243TIP3   OH224685   2.568   6.372   3.578
 8243TIP3    H124686   2.544   6.301   3.638
 8243TIP3    H224687   2.588   6.329   3.496
 8244TIP3   OH224688   2.552   6.008   4.370
 8244TIP3    H124689   2.461   5.985   4.391
 8244TIP3    H224690   2.588   5.927   4.333
 8245TIP3   OH224691   1.705   6.241   4.176
 8245TIP3    H124692   1.707   6.318   4.120
 8245TIP3    H224693   1.612   6.225   4.192
 8246TIP3   OH224694   1.267   5.529   3.885
 8246TIP3    H124695   1.310   5.612   3.905
 8246TIP3    H224696   1.186   5.531   3.937
 8247TIP3   OH224697   1.798   5.994   4.089
 8247TIP3    H124698   1.781   6.085   4.116
 8247TIP3    H224699   1.771   5.942   4.164
 8248TIP3   OH224700   1.984   6.565   4.632
 8248TIP3    H124701   2.020   6.637   4.581
 8248TIP3    H224702   2.059   6.531   4.681
 8249TIP3   OH224703   1.617   6.468   4.024
 8249TIP3    H124704   1.531   6.474   4.065
 8249TIP3    H224705   1.652   6.556   4.028
 8250TIP3   OH224706   2.340   6.223   4.600
 8250TIP3    H124707   2.328   6.217   4.695
 8250TIP3    H224708   2.419   6.172   4.583
 8251TIP3   OH224709   2.333   6.106   3.486
 8251TIP3    H124710   2.385   6.088   3.564
 8251TIP3    H224711   2.246   6.072   3.507
 8252TIP3   OH224712   2.594   6.732   4.643
 8252TIP3    H124713   2.520   6.671   4.650
 8252TIP3    H224714   2.571   6.790   4.571
 8253TIP3   OH224715   2.651   6.572   3.284
 8253TIP3    H124716   2.681   6.638   3.221
 8253TIP3    H224717   2.577   6.613   3.329
 8254TIP3   OH224718   1.684   5.337   5.157
 8254TIP3    H124719   1.589   5.322   5.159
 8254TIP3    H224720   1.718   5.285   5.229
 8255TIP3   OH224721   2.503   6.047   3.698
 8255TIP3    H124722   2.488   5.974   3.758
 8255TIP3    H224723   2.598   6.045   3.681
 8256TIP3   OH224724   1.412   6.459   4.793
 8256TIP3    H124725   1.465   6.397   4.843
 8256TIP3    H224726   1.433   6.544   4.830
 8257TIP3   OH224727   1.684   6.072   3.482
 8257TIP3    H124728   1.695   5.981   3.457
 8257TIP3    H224729   1.667   6.069   3.576
 8258TIP3   OH224730   1.628   6.088   3.755
 8258TIP3    H124731   1.700   6.060   3.811
 8258TIP3    H224732   1.628   6.183   3.762
 8259TIP3   OH224733   1.362   5.779   3.965
 8259TIP3    H124734   1.297   5.827   4.017
 8259TIP3    H224735   1.383   5.838   3.893
 8260TIP3   OH224736   2.521   5.408   4.845
 8260TIP3    H124737   2.600   5.454   4.875
 8260TIP3    H224738   2.515   5.331   4.900
 8261TIP3   OH224739   2.412   5.155   4.027
 8261TIP3    H124740   2.393   5.174   3.935
 8261TIP3    H224741   2.455   5.234   4.058
 8262TIP3   OH224742   1.896   6.277   3.696
 8262TIP3    H124743   1.812   6.302   3.735
 8262TIP3    H224744   1.921   6.352   3.643
 8263TIP3   OH224745   2.066   5.354   4.120
 8263TIP3    H124746   2.130   5.421   4.094
 8263TIP3    H224747   2.087   5.335   4.211
 8264TIP3   OH224748   2.360   5.646   4.905
 8264TIP3    H124749   2.389   5.690   4.985
 8264TIP3    H224750   2.411   5.565   4.902
 8265TIP3   OH224751   2.227   5.055   4.209
 8265TIP3    H124752   2.206   5.132   4.261
 8265TIP3    H224753   2.296   5.085   4.149
 8266TIP3   OH224754   1.644   6.360   3.772
 8266TIP3    H124755   1.623   6.430   3.711
 8266TIP3    H224756   1.633   6.400   3.859
 8267TIP3   OH224757   1.741   5.071   4.013
 8267TIP3    H124758   1.731   5.162   4.043
 8267TIP3    H224759   1.835   5.055   4.018
 8268TIP3   OH224760   2.985   5.558   4.900
 8268TIP3    H124761   2.889   5.556   4.905
 8268TIP3    H224762   3.006   5.519   4.816
 8269TIP3   OH224763   2.644   5.751   4.280
 8269TIP3    H124764   2.569   5.694   4.292
 8269TIP3    H224765   2.714   5.711   4.332
 8270TIP3   OH224766   1.379   5.962   3.752
 8270TIP3    H124767   1.449   6.026   3.761
 8270TIP3    H224768   1.413   5.899   3.688
 8271TIP3   OH224769   1.294   5.251   3.885
 8271TIP3    H124770   1.304   5.346   3.891
 8271TIP3    H224771   1.237   5.238   3.809
 8272TIP3   OH224772   2.622   6.722   4.220
 8272TIP3    H124773   2.579   6.771   4.150
 8272TIP3    H224774   2.715   6.738   4.206
 8273TIP3   OH224775   1.685   4.972   4.761
 8273TIP3    H124776   1.657   4.938   4.676
 8273TIP3    H224777   1.680   4.897   4.820
 8274TIP3   OH224778   1.213   6.218   4.146
 8274TIP3    H124779   1.169   6.256   4.222
 8274TIP3    H224780   1.173   6.262   4.071
 8275TIP3   OH224781   1.416   6.757   5.210
 8275TIP3    H124782   1.494   6.772   5.264
 8275TIP3    H224783   1.418   6.664   5.189
 8276TIP3   OH224784   1.872   6.681   5.257
 8276TIP3    H124785   1.966   6.665   5.266
 8276TIP3    H224786   1.845   6.625   5.184
 8277TIP3   OH224787   1.842   6.274   3.377
 8277TIP3    H124788   1.795   6.203   3.421
 8277TIP3    H224789   1.918   6.231   3.337
 8278TIP3   OH224790   2.498   6.616   5.005
 8278TIP3    H124791   2.506   6.545   5.069
 8278TIP3    H224792   2.574   6.672   5.021
 8279TIP3   OH224793   2.283   6.309   3.302
 8279TIP3    H124794   2.318   6.246   3.365
 8279TIP3    H224795   2.342   6.305   3.228
 8280TIP3   OH224796   1.516   6.155   5.411
 8280TIP3    H124797   1.539   6.062   5.419
 8280TIP3    H224798   1.431   6.155   5.368
 8281TIP3   OH224799   1.506   5.771   3.605
 8281TIP3    H124800   1.559   5.747   3.682
 8281TIP3    H224801   1.571   5.783   3.535
 8282TIP3   OH224802   2.134   6.243   5.185
 8282TIP3    H124803   2.093   6.265   5.101
 8282TIP3    H224804   2.174   6.158   5.171
 8283TIP3   OH224805   2.047   5.992   3.425
 8283TIP3    H124806   2.036   6.005   3.519
 8283TIP3    H224807   2.040   5.897   3.413
 8284TIP3   OH224808   2.612   6.278   4.797
 8284TIP3    H124809   2.690   6.306   4.750
 8284TIP3    H224810   2.548   6.347   4.781
 8285TIP3   OH224811   1.633   5.897   5.403
 8285TIP3    H124812   1.710   5.884   5.348
 8285TIP3    H224813   1.668   5.918   5.489
 8286TIP3   OH224814   1.684   5.709   3.814
 8286TIP3    H124815   1.665   5.678   3.903
 8286TIP3    H224816   1.731   5.637   3.773
 8287TIP3   OH224817   1.957   5.754   5.049
 8287TIP3    H124818   1.892   5.820   5.072
 8287TIP3    H224819   2.013   5.798   4.984
 8288TIP3   OH224820   1.819   5.519   3.661
 8288TIP3    H124821   1.790   5.523   3.570
 8288TIP3    H224822   1.915   5.525   3.656
 8289TIP3   OH224823   2.495   6.162   5.164
 8289TIP3    H124824   2.566   6.127   5.111
 8289TIP3    H224825   2.493   6.106   5.242
 8290TIP3   OH224826   2.616   5.818   3.339
 8290TIP3    H124827   2.604   5.775   3.255
 8290TIP3    H224828   2.589   5.909   3.323
 8291TIP3   OH224829   2.096   5.556   5.179
 8291TIP3    H124830   2.104   5.481   5.120
 8291TIP3    H224831   2.054   5.624   5.126
 8292TIP3   OH224832   2.107   5.354   4.979
 8292TIP3    H124833   2.136   5.390   4.896
 8292TIP3    H224834   2.016   5.328   4.964
 8293TIP3   OH224835   2.118   5.897   4.880
 8293TIP3    H124836   2.206   5.908   4.844
 8293TIP3    H224837   2.062   5.952   4.825
 8294TIP3   OH224838   2.709   5.841   5.227
 8294TIP3    H124839   2.748   5.754   5.237
 8294TIP3    H224840   2.782   5.897   5.201
 8295TIP3   OH224841   2.740   6.107   4.966
 8295TIP3    H124842   2.686   6.167   4.915
 8295TIP3    H224843   2.829   6.122   4.935
 8296TIP3   OH224844   1.978   5.648   5.418
 8296TIP3    H124845   1.911   5.582   5.436
 8296TIP3    H224846   2.011   5.624   5.331
 8297TIP3   OH224847   2.230   5.120   5.072
 8297TIP3    H124848   2.190   5.201   5.041
 8297TIP3    H224849   2.164   5.053   5.059
 8298TIP3   OH224850   2.356   5.601   5.275
 8298TIP3    H124851   2.348   5.588   5.370
 8298TIP3    H224852   2.268   5.580   5.242
 8299TIP3   OH224853   2.601   5.556   5.142
 8299TIP3    H124854   2.523   5.555   5.198
 8299TIP3    H224855   2.672   5.529   5.200
 8300TIP3   OH224856   2.831   5.512   5.295
 8300TIP3    H124857   2.847   5.418   5.302
 8300TIP3    H224858   2.828   5.543   5.385
 8301TIP3   OH224859   1.811   5.429   5.484
 8301TIP3    H124860   1.819   5.342   5.447
 8301TIP3    H224861   1.851   5.422   5.571
 8302TIP3   OH224862   2.300   5.107   5.338
 8302TIP3    H124863   2.371   5.043   5.334
 8302TIP3    H224864   2.270   5.114   5.247
 8303TIP3   OH224865   2.389   5.324   5.482
 8303TIP3    H124866   2.362   5.251   5.426
 8303TIP3    H224867   2.315   5.384   5.481
 8304TIP3   OH224868   1.635   6.563   3.584
 8304TIP3    H124869   1.726   6.548   3.560
 8304TIP3    H224870   1.599   6.613   3.511
 8305TIP3   OH224871   1.107   5.944   3.777
 8305TIP3    H124872   1.201   5.960   3.769
 8305TIP3    H224873   1.094   5.858   3.736
 8306TIP3   OH224874   1.016   6.534   4.223
 8306TIP3    H124875   0.953   6.480   4.174
 8306TIP3    H224876   1.059   6.473   4.282
 8307TIP3   OH224877   1.153   6.368   4.396
 8307TIP3    H124878   1.145   6.303   4.466
 8307TIP3    H224879   1.206   6.438   4.435
 8308TIP3   OH224880   2.885   6.796   4.203
 8308TIP3    H124881   2.915   6.819   4.291
 8308TIP3    H224882   2.952   6.831   4.145
 8309TIP3   OH224883   2.913   6.809   4.488
 8309TIP3    H124884   2.865   6.727   4.479
 8309TIP3    H224885   2.983   6.790   4.550
 8310TIP3   OH224886   2.957   6.505   5.061
 8310TIP3    H124887   2.887   6.514   5.126
 8310TIP3    H224888   3.003   6.589   5.063
 8311TIP3   OH224889   2.780   6.022   3.670
 8311TIP3    H124890   2.840   6.089   3.638
 8311TIP3    H224891   2.826   5.983   3.745
 8312TIP3   OH224892   2.910   5.881   3.871
 8312TIP3    H124893   2.845   5.843   3.930
 8312TIP3    H224894   2.978   5.915   3.929
 8313TIP3   OH224895   2.958   6.275   4.299
 8313TIP3    H124896   3.013   6.206   4.261
 8313TIP3    H224897   2.962   6.346   4.235
 8314TIP3   OH224898   2.770   6.569   4.495
 8314TIP3    H124899   2.702   6.613   4.545
 8314TIP3    H224900   2.723   6.527   4.422
 8315TIP3   OH224901   2.823   5.795   3.518
 8315TIP3    H124902   2.752   5.795   3.453
 8315TIP3    H224903   2.808   5.873   3.571
 8316TIP3   OH224904   2.676   5.448   3.457
 8316TIP3    H124905   2.632   5.483   3.379
 8316TIP3    H224906   2.668   5.353   3.449
 8317TIP3   OH224907   2.708   5.740   4.009
 8317TIP3    H124908   2.718   5.646   3.998
 8317TIP3    H224909   2.691   5.752   4.103
 8318TIP3   OH224910   1.335   5.806   4.776
 8318TIP3    H124911   1.327   5.772   4.686
 8318TIP3    H224912   1.429   5.804   4.794
 8319TIP3   OH224913   2.996   6.158   4.870
 8319TIP3    H124914   3.061   6.089   4.855
 8319TIP3    H224915   3.015   6.224   4.804
 8320TIP3   OH224916   3.168   5.945   4.865
 8320TIP3    H124917   3.096   5.903   4.911
 8320TIP3    H224918   3.244   5.890   4.885
 8321TIP3   OH224919   2.639   5.177   3.431
 8321TIP3    H124920   2.707   5.150   3.494
 8321TIP3    H224921   2.560   5.133   3.461
 8322TIP3   OH224922   2.704   5.460   3.893
 8322TIP3    H124923   2.749   5.377   3.906
 8322TIP3    H224924   2.748   5.499   3.817
 8323TIP3   OH224925   2.860   5.626   4.413
 8323TIP3    H124926   2.941   5.645   4.365
 8323TIP3    H224927   2.874   5.664   4.499
 8324TIP3   OH224928   2.934   5.775   4.642
 8324TIP3    H124929   2.861   5.807   4.695
 8324TIP3    H224930   2.967   5.852   4.597
 8325TIP3   OH224931   1.546   5.476   5.417
 8325TIP3    H124932   1.640   5.477   5.432
 8325TIP3    H224933   1.516   5.395   5.457
 8326TIP3   OH224934   3.391   5.376   5.184
 8326TIP3    H124935   3.454   5.317   5.143
 8326TIP3    H224936   3.354   5.426   5.111
 8327TIP3   OH224937   2.818   5.211   3.945
 8327TIP3    H124938   2.865   5.196   4.027
 8327TIP3    H224939   2.756   5.138   3.939
 8328TIP3   OH224940   1.515   5.193   4.767
 8328TIP3    H124941   1.571   5.115   4.775
 8328TIP3    H224942   1.577   5.265   4.753
 8329TIP3   OH224943   1.318   5.463   4.837
 8329TIP3    H124944   1.366   5.453   4.754
 8329TIP3    H224945   1.345   5.549   4.870
 8330TIP3   OH224946   3.243   5.490   4.985
 8330TIP3    H124947   3.158   5.531   5.001
 8330TIP3    H224948   3.223   5.412   4.933
 8331TIP3   OH224949   2.870   5.129   3.582
 8331TIP3    H124950   2.916   5.067   3.526
 8331TIP3    H224951   2.929   5.205   3.586
 8332TIP3   OH224952   1.302   4.975   4.342
 8332TIP3    H124953   1.212   4.949   4.360
 8332TIP3    H224954   1.296   5.030   4.265
 8333TIP3   OH224955   2.451   6.683   3.848
 8333TIP3    H124956   2.508   6.672   3.772
 8333TIP3    H224957   2.494   6.750   3.902
 8334TIP3   OH224958   1.523   5.055   5.176
 8334TIP3    H124959   1.464   5.032   5.248
 8334TIP3    H224960   1.465   5.086   5.107
 8335TIP3   OH224961   1.545   6.488   5.222
 8335TIP3    H124962   1.454   6.457   5.221
 8335TIP3    H224963   1.573   6.478   5.313
 8336TIP3   OH224964   1.755   6.524   4.779
 8336TIP3    H124965   1.704   6.598   4.746
 8336TIP3    H224966   1.840   6.532   4.736
 8337TIP3   OH224967   2.162   6.759   4.917
 8337TIP3    H124968   2.200   6.752   5.004
 8337TIP3    H224969   2.225   6.811   4.867
 8338TIP3   OH224970   2.353   6.912   4.788
 8338TIP3    H124971   2.417   6.860   4.740
 8338TIP3    H224972   2.405   6.969   4.844
 8339TIP3   OH224973   3.155   5.246   4.878
 8339TIP3    H124974   3.066   5.239   4.841
 8339TIP3    H224975   3.190   5.157   4.872
 8340TIP3   OH224976   1.419   6.762   4.827
 8340TIP3    H124977   1.329   6.781   4.801
 8340TIP3    H224978   1.441   6.831   4.890
 8341TIP3   OH224979   1.648   6.754   4.672
 8341TIP3    H124980   1.565   6.761   4.719
 8341TIP3    H224981   1.628   6.782   4.583
 8342TIP3   OH224982   2.067   6.772   4.466
 8342TIP3    H124983   1.998   6.785   4.401
 8342TIP3    H224984   2.079   6.857   4.507
 8343TIP3   OH224985   2.333   6.711   4.518
 8343TIP3    H124986   2.241   6.729   4.498
 8343TIP3    H224987   2.382   6.778   4.470
 8344TIP3   OH224988   2.536   6.891   4.421
 8344TIP3    H124989   2.530   6.977   4.380
 8344TIP3    H224990   2.566   6.833   4.350
 8345TIP3   OH224991   1.325   6.547   4.542
 8345TIP3    H124992   1.350   6.524   4.632
 8345TIP3    H224993   1.398   6.516   4.488
 8346TIP3   OH224994   1.530   6.431   4.407
 8346TIP3    H124995   1.542   6.348   4.452
 8346TIP3    H224996   1.616   6.472   4.408
 8347TIP3   OH224997   1.797   6.518   4.427
 8347TIP3    H124998   1.818   6.426   4.412
 8347TIP3    H224999   1.851   6.543   4.502
 8348TIP3   OH225000   2.359   5.174   4.508
 8348TIP3    H125001   2.319   5.102   4.557
 8348TIP3    H225002   2.429   5.132   4.457
 8349TIP3   OH225003   2.867   5.072   4.398
 8349TIP3    H125004   2.906   5.122   4.327
 8349TIP3    H225005   2.776   5.103   4.402
 8350TIP3   OH225006   2.980   5.158   4.164
 8350TIP3    H125007   3.048   5.098   4.135
 8350TIP3    H225008   3.018   5.245   4.152
 8351TIP3   OH225009   1.594   4.875   4.517
 8351TIP3    H125010   1.504   4.844   4.508
 8351TIP3    H225011   1.647   4.795   4.516
 8352TIP3   OH225012   1.405   4.770   4.158
 8352TIP3    H125013   1.441   4.814   4.082
 8352TIP3    H225014   1.382   4.841   4.218
 8353TIP3   OH225015   2.070   4.915   4.402
 8353TIP3    H125016   2.121   4.959   4.333
 8353TIP3    H225017   2.110   4.945   4.484
 8354TIP3   OH225018   2.576   5.059   4.381
 8354TIP3    H125019   2.590   5.027   4.292
 8354TIP3    H225020   2.580   4.981   4.435
 8355TIP3   OH225021   2.632   5.000   3.947
 8355TIP3    H125022   2.552   5.047   3.970
 8355TIP3    H225023   2.621   4.913   3.985
 8356TIP3   OH225024   1.099   6.345   3.932
 8356TIP3    H125025   1.017   6.312   3.896
 8356TIP3    H225026   1.105   6.435   3.901
 8357TIP3   OH225027   1.527   4.904   3.932
 8357TIP3    H125028   1.571   4.843   3.874
 8357TIP3    H225029   1.597   4.961   3.965
 8358TIP3   OH225030   2.016   5.102   4.025
 8358TIP3    H125031   2.076   5.049   4.078
 8358TIP3    H225032   2.032   5.192   4.052
 8359TIP3   OH225033   1.896   6.500   3.522
 8359TIP3    H125034   1.980   6.528   3.486
 8359TIP3    H225035   1.867   6.428   3.466
 8360TIP3   OH225036   2.603   6.640   3.619
 8360TIP3    H125037   2.596   6.545   3.610
 8360TIP3    H225038   2.559   6.675   3.541
 8361TIP3   OH225039   1.825   5.158   5.395
 8361TIP3    H125040   1.790   5.091   5.453
 8361TIP3    H225041   1.918   5.164   5.419
 8362TIP3   OH225042   2.075   5.159   5.514
 8362TIP3    H125043   2.154   5.138   5.465
 8362TIP3    H225044   2.070   5.091   5.581
 8363TIP3   OH225045   1.195   6.341   3.577
 8363TIP3    H125046   1.200   6.364   3.670
 8363TIP3    H225047   1.278   6.297   3.559
 8364TIP3   OH225048   2.898   5.243   5.307
 8364TIP3    H125049   2.914   5.212   5.396
 8364TIP3    H225050   2.983   5.238   5.264
 8365TIP3   OH225051   2.817   6.778   4.810
 8365TIP3    H125052   2.742   6.748   4.757
 8365TIP3    H225053   2.805   6.872   4.817
 8366TIP3   OH225054   4.099   6.168   3.547
 8366TIP3    H125055   4.061   6.250   3.515
 8366TIP3    H225056   4.031   6.131   3.604
 8367TIP3   OH225057   4.120   6.174   3.957
 8367TIP3    H125058   4.146   6.128   4.037
 8367TIP3    H225059   4.035   6.135   3.934
 8368TIP3   OH225060   3.393   6.029   4.321
 8368TIP3    H125061   3.426   5.972   4.389
 8368TIP3    H225062   3.469   6.050   4.267
 8369TIP3   OH225063   4.356   6.466   3.646
 8369TIP3    H125064   4.346   6.396   3.712
 8369TIP3    H225065   4.379   6.543   3.697
 8370TIP3   OH225066   3.372   6.443   4.017
 8370TIP3    H125067   3.363   6.348   4.015
 8370TIP3    H225068   3.466   6.459   4.005
 8371TIP3   OH225069   3.056   5.646   3.799
 8371TIP3    H125070   3.023   5.733   3.822
 8371TIP3    H225071   2.982   5.603   3.755
 8372TIP3   OH225072   3.146   5.956   4.007
 8372TIP3    H125073   3.193   5.878   4.035
 8372TIP3    H225074   3.215   6.015   3.975
 8373TIP3   OH225075   4.011   6.901   3.659
 8373TIP3    H125076   4.040   6.836   3.595
 8373TIP3    H225077   4.011   6.855   3.743
 8374TIP3   OH225078   3.865   6.380   3.990
 8374TIP3    H125079   3.865   6.290   3.957
 8374TIP3    H225080   3.958   6.403   3.996
 8375TIP3   OH225081   4.922   5.705   3.994
 8375TIP3    H125082   4.943   5.788   4.038
 8375TIP3    H225083   4.937   5.723   3.901
 8376TIP3   OH225084   4.313   5.873   4.013
 8376TIP3    H125085   4.344   5.785   4.035
 8376TIP3    H225086   4.270   5.863   3.929
 8377TIP3   OH225087   3.648   5.547   3.963
 8377TIP3    H125088   3.624   5.624   3.912
 8377TIP3    H225089   3.595   5.476   3.928
 8378TIP3   OH225090   4.356   5.625   3.607
 8378TIP3    H125091   4.417   5.619   3.680
 8378TIP3    H225092   4.407   5.662   3.535
 8379TIP3   OH225093   3.280   5.734   4.104
 8379TIP3    H125094   3.366   5.722   4.144
 8379TIP3    H225095   3.281   5.677   4.027
 8380TIP3   OH225096   4.990   5.919   4.164
 8380TIP3    H125097   4.902   5.957   4.156
 8380TIP3    H225098   5.023   5.955   4.247
 8381TIP3   OH225099   3.634   5.523   4.429
 8381TIP3    H125100   3.590   5.561   4.353
 8381TIP3    H225101   3.576   5.544   4.503
 8382TIP3   OH225102   3.990   6.385   3.411
 8382TIP3    H125103   3.950   6.357   3.329
 8382TIP3    H225104   3.936   6.458   3.440
 8383TIP3   OH225105   3.748   6.309   4.230
 8383TIP3    H125106   3.688   6.380   4.253
 8383TIP3    H225107   3.789   6.337   4.148
 8384TIP3   OH225108   4.522   5.643   3.826
 8384TIP3    H125109   4.479   5.624   3.909
 8384TIP3    H225110   4.576   5.720   3.844
 8385TIP3   OH225111   3.526   5.632   4.198
 8385TIP3    H125112   3.579   5.708   4.221
 8385TIP3    H225113   3.569   5.595   4.121
 8386TIP3   OH225114   3.577   6.510   4.306
 8386TIP3    H125115   3.562   6.598   4.271
 8386TIP3    H225116   3.498   6.490   4.357
 8387TIP3   OH225117   2.956   6.206   3.551
 8387TIP3    H125118   2.924   6.224   3.463
 8387TIP3    H225119   2.983   6.291   3.585
 8388TIP3   OH225120   4.400   6.712   3.791
 8388TIP3    H125121   4.313   6.702   3.830
 8388TIP3    H225122   4.397   6.795   3.745
 8389TIP3   OH225123   4.715   5.593   4.159
 8389TIP3    H125124   4.628   5.614   4.126
 8389TIP3    H225125   4.775   5.623   4.091
 8390TIP3   OH225126   3.984   5.224   4.152
 8390TIP3    H125127   3.973   5.133   4.176
 8390TIP3    H225128   3.909   5.269   4.192
 8391TIP3   OH225129   4.103   6.746   3.446
 8391TIP3    H125130   4.154   6.666   3.436
 8391TIP3    H225131   4.161   6.816   3.415
 8392TIP3   OH225132   4.243   6.517   3.399
 8392TIP3    H125133   4.172   6.453   3.394
 8392TIP3    H225134   4.292   6.493   3.477
 8393TIP3   OH225135   4.634   6.602   4.135
 8393TIP3    H125136   4.615   6.527   4.078
 8393TIP3    H225137   4.618   6.679   4.080
 8394TIP3   OH225138   3.905   5.979   3.387
 8394TIP3    H125139   3.834   6.042   3.377
 8394TIP3    H225140   3.969   6.004   3.320
 8395TIP3   OH225141   3.885   5.808   3.097
 8395TIP3    H125142   3.944   5.854   3.157
 8395TIP3    H225143   3.941   5.744   3.053
 8396TIP3   OH225144   4.819   6.260   3.994
 8396TIP3    H125145   4.735   6.304   3.996
 8396TIP3    H225146   4.853   6.276   3.906
 8397TIP3   OH225147   4.281   6.094   3.360
 8397TIP3    H125148   4.223   6.120   3.431
 8397TIP3    H225149   4.362   6.068   3.404
 8398TIP3   OH225150   4.513   6.126   4.301
 8398TIP3    H125151   4.508   6.208   4.350
 8398TIP3    H225152   4.432   6.121   4.251
 8399TIP3   OH225153   3.543   6.068   3.780
 8399TIP3    H125154   3.529   5.986   3.733
 8399TIP3    H225155   3.630   6.060   3.818
 8400TIP3   OH225156   3.628   6.503   3.917
 8400TIP3    H125157   3.612   6.479   3.826
 8400TIP3    H225158   3.712   6.462   3.939
 8401TIP3   OH225159   3.616   6.081   4.154
 8401TIP3    H125160   3.668   6.061   4.076
 8401TIP3    H225161   3.657   6.159   4.190
 8402TIP3   OH225162   4.161   6.701   3.919
 8402TIP3    H125163   4.150   6.774   3.980
 8402TIP3    H225164   4.145   6.623   3.973
 8403TIP3   OH225165   3.780   6.610   4.467
 8403TIP3    H125166   3.719   6.668   4.512
 8403TIP3    H225167   3.724   6.557   4.410
 8404TIP3   OH225168   4.114   5.953   3.195
 8404TIP3    H125169   4.174   6.010   3.243
 8404TIP3    H225170   4.140   5.962   3.103
 8405TIP3   OH225171   3.536   6.169   4.612
 8405TIP3    H125172   3.534   6.263   4.628
 8405TIP3    H225173   3.444   6.145   4.598
 8406TIP3   OH225174   3.854   6.627   3.454
 8406TIP3    H125175   3.937   6.674   3.461
 8406TIP3    H225176   3.797   6.688   3.407
 8407TIP3   OH225177   3.568   6.769   4.549
 8407TIP3    H125178   3.544   6.777   4.457
 8407TIP3    H225179   3.485   6.753   4.594
 8408TIP3   OH225180   4.627   5.181   3.257
 8408TIP3    H125181   4.549   5.201   3.309
 8408TIP3    H225182   4.639   5.257   3.201
 8409TIP3   OH225183   3.388   5.912   3.549
 8409TIP3    H125184   3.306   5.957   3.529
 8409TIP3    H225185   3.363   5.842   3.609
 8410TIP3   OH225186   4.440   6.557   2.803
 8410TIP3    H125187   4.440   6.651   2.785
 8410TIP3    H225188   4.529   6.529   2.783
 8411TIP3   OH225189   3.157   6.321   4.498
 8411TIP3    H125190   3.090   6.299   4.433
 8411TIP3    H225191   3.193   6.236   4.524
 8412TIP3   OH225192   3.028   6.497   4.135
 8412TIP3    H125193   3.122   6.488   4.115
 8412TIP3    H225194   3.023   6.573   4.192
 8413TIP3   OH225195   4.865   6.968   4.196
 8413TIP3    H125196   4.871   6.873   4.207
 8413TIP3    H225197   4.785   6.993   4.243
 8414TIP3   OH225198   3.971   6.748   4.324
 8414TIP3    H125199   3.964   6.839   4.352
 8414TIP3    H225200   3.904   6.702   4.375
 8415TIP3   OH225201   3.746   6.853   3.279
 8415TIP3    H125202   3.699   6.833   3.198
 8415TIP3    H225203   3.711   6.938   3.307
 8416TIP3   OH225204   3.181   6.706   3.662
 8416TIP3    H125205   3.227   6.697   3.746
 8416TIP3    H225206   3.134   6.623   3.652
 8417TIP3   OH225207   3.947   6.778   2.907
 8417TIP3    H125208   3.998   6.704   2.872
 8417TIP3    H225209   3.981   6.790   2.995
 8418TIP3   OH225210   3.999   6.822   3.177
 8418TIP3    H125211   3.914   6.827   3.219
 8418TIP3    H225212   4.057   6.785   3.243
 8419TIP3   OH225213   4.753   6.082   4.468
 8419TIP3    H125214   4.672   6.092   4.417
 8419TIP3    H225215   4.771   5.988   4.464
 8420TIP3   OH225216   3.357   6.507   4.472
 8420TIP3    H125217   3.408   6.495   4.552
 8420TIP3    H225218   3.287   6.443   4.478
 8421TIP3   OH225219   3.747   5.314   4.280
 8421TIP3    H125220   3.662   5.284   4.248
 8421TIP3    H225221   3.727   5.396   4.325
 8422TIP3   OH225222   4.293   5.429   4.475
 8422TIP3    H125223   4.362   5.405   4.537
 8422TIP3    H225224   4.212   5.409   4.522
 8423TIP3   OH225225   4.517   5.862   4.397
 8423TIP3    H125226   4.473   5.860   4.482
 8423TIP3    H225227   4.498   5.949   4.363
 8424TIP3   OH225228   4.190   5.952   2.932
 8424TIP3    H125229   4.149   5.948   2.846
 8424TIP3    H225230   4.272   6.000   2.917
 8425TIP3   OH225231   3.896   5.359   3.246
 8425TIP3    H125232   3.864   5.365   3.336
 8425TIP3    H225233   3.859   5.277   3.213
 8426TIP3   OH225234   3.680   5.842   4.277
 8426TIP3    H125235   3.646   5.862   4.364
 8426TIP3    H225236   3.668   5.923   4.228
 8427TIP3   OH225237   3.518   5.728   3.796
 8427TIP3    H125238   3.439   5.683   3.825
 8427TIP3    H225239   3.540   5.685   3.713
 8428TIP3   OH225240   4.047   5.794   3.532
 8428TIP3    H125241   3.995   5.863   3.492
 8428TIP3    H225242   4.107   5.765   3.463
 8429TIP3   OH225243   4.239   6.073   4.620
 8429TIP3    H125244   4.210   6.002   4.678
 8429TIP3    H225245   4.332   6.084   4.639
 8430TIP3   OH225246   4.231   5.833   3.753
 8430TIP3    H125247   4.149   5.855   3.710
 8430TIP3    H225248   4.262   5.755   3.706
 8431TIP3   OH225249   3.507   5.856   4.507
 8431TIP3    H125250   3.577   5.903   4.553
 8431TIP3    H225251   3.495   5.775   4.557
 8432TIP3   OH225252   3.559   5.337   3.220
 8432TIP3    H125253   3.553   5.340   3.315
 8432TIP3    H225254   3.483   5.388   3.189
 8433TIP3   OH225255   3.112   5.382   4.095
 8433TIP3    H125256   3.179   5.419   4.152
 8433TIP3    H225257   3.154   5.374   4.010
 8434TIP3   OH225258   3.028   5.361   3.598
 8434TIP3    H125259   3.074   5.395   3.521
 8434TIP3    H225260   2.966   5.430   3.622
 8435TIP3   OH225261   4.263   6.073   4.187
 8435TIP3    H125262   4.286   6.007   4.121
 8435TIP3    H225263   4.219   6.023   4.256
 8436TIP3   OH225264   3.916   5.520   3.864
 8436TIP3    H125265   3.833   5.529   3.911
 8436TIP3    H225266   3.983   5.549   3.927
 8437TIP3   OH225267   3.308   5.574   3.884
 8437TIP3    H125268   3.222   5.581   3.842
 8437TIP3    H225269   3.342   5.490   3.855
 8438TIP3   OH225270   3.577   5.591   3.565
 8438TIP3    H125271   3.670   5.612   3.560
 8438TIP3    H225272   3.542   5.615   3.480
 8439TIP3   OH225273   4.390   5.612   4.076
 8439TIP3    H125274   4.368   5.633   4.166
 8439TIP3    H225275   4.320   5.553   4.047
 8440TIP3   OH225276   3.461   5.622   3.318
 8440TIP3    H125277   3.396   5.579   3.263
 8440TIP3    H225278   3.515   5.671   3.256
 8441TIP3   OH225279   4.575   7.309   4.293
 8441TIP3    H125280   4.572   7.326   4.199
 8441TIP3    H225281   4.654   7.355   4.323
 8442TIP3   OH225282   3.513   6.431   4.706
 8442TIP3    H125283   3.596   6.448   4.752
 8442TIP3    H225284   3.447   6.434   4.774
 8443TIP3   OH225285   3.478   5.351   3.850
 8443TIP3    H125286   3.451   5.275   3.902
 8443TIP3    H225287   3.518   5.313   3.771
 8444TIP3   OH225288   3.947   5.750   4.298
 8444TIP3    H125289   3.867   5.792   4.267
 8444TIP3    H225290   4.011   5.821   4.301
 8445TIP3   OH225291   3.685   6.151   3.340
 8445TIP3    H125292   3.614   6.090   3.321
 8445TIP3    H225293   3.663   6.186   3.427
 8446TIP3   OH225294   4.582   6.397   3.959
 8446TIP3    H125295   4.614   6.446   3.884
 8446TIP3    H225296   4.501   6.356   3.928
 8447TIP3   OH225297   4.151   5.459   3.242
 8447TIP3    H125298   4.057   5.441   3.241
 8447TIP3    H225299   4.157   5.553   3.257
 8448TIP3   OH225300   4.096   6.483   4.347
 8448TIP3    H125301   4.143   6.474   4.430
 8448TIP3    H225302   4.055   6.570   4.352
 8449TIP3   OH225303   4.214   5.720   3.314
 8449TIP3    H125304   4.308   5.728   3.328
 8449TIP3    H225305   4.190   5.800   3.267
 8450TIP3   OH225306   3.392   6.158   3.993
 8450TIP3    H125307   3.433   6.136   3.910
 8450TIP3    H225308   3.456   6.132   4.059
 8451TIP3   OH225309   3.841   6.307   3.181
 8451TIP3    H125310   3.793   6.390   3.182
 8451TIP3    H225311   3.787   6.249   3.235
 8452TIP3   OH225312   3.260   6.103   4.638
 8452TIP3    H125313   3.278   6.081   4.729
 8452TIP3    H225314   3.194   6.040   4.610
 8453TIP3   OH225315   4.012   6.232   4.638
 8453TIP3    H125316   3.964   6.208   4.559
 8453TIP3    H225317   4.097   6.188   4.629
 8454TIP3   OH225318   4.242   6.766   4.243
 8454TIP3    H125319   4.147   6.752   4.249
 8454TIP3    H225320   4.266   6.804   4.327
 8455TIP3   OH225321   4.636   5.812   3.142
 8455TIP3    H125322   4.580   5.766   3.080
 8455TIP3    H225323   4.640   5.902   3.109
 8456TIP3   OH225324   4.880   6.688   4.222
 8456TIP3    H125325   4.786   6.672   4.220
 8456TIP3    H225326   4.912   6.654   4.138
 8457TIP3   OH225327   4.364   6.628   3.071
 8457TIP3    H125328   4.338   6.560   3.133
 8457TIP3    H225329   4.380   6.580   2.989
 8458TIP3   OH225330   4.360   6.264   3.851
 8458TIP3    H125331   4.272   6.241   3.881
 8458TIP3    H225332   4.395   6.183   3.815
 8459TIP3   OH225333   3.497   6.496   3.663
 8459TIP3    H125334   3.497   6.573   3.607
 8459TIP3    H225335   3.405   6.473   3.673
 8460TIP3   OH225336   3.055   5.784   3.366
 8460TIP3    H125337   3.104   5.864   3.389
 8460TIP3    H225338   2.978   5.786   3.422
 8461TIP3   OH225339   3.596   6.251   3.574
 8461TIP3    H125340   3.578   6.338   3.609
 8461TIP3    H225341   3.582   6.192   3.648
 8462TIP3   OH225342   3.778   6.823   4.120
 8462TIP3    H125343   3.817   6.894   4.069
 8462TIP3    H225344   3.853   6.783   4.166
 8463TIP3   OH225345   3.412   6.726   3.510
 8463TIP3    H125346   3.326   6.730   3.553
 8463TIP3    H225347   3.445   6.815   3.514
 8464TIP3   OH225348   4.131   6.466   4.072
 8464TIP3    H125349   4.123   6.464   4.167
 8464TIP3    H225350   4.180   6.386   4.050
 8465TIP3   OH225351   4.123   6.363   2.966
 8465TIP3    H125352   4.180   6.338   3.039
 8465TIP3    H225353   4.038   6.326   2.989
 8466TIP3   OH225354   4.394   6.985   4.132
 8466TIP3    H125355   4.323   6.922   4.145
 8466TIP3    H225356   4.363   7.040   4.060
 8467TIP3   OH225357   4.452   6.834   2.771
 8467TIP3    H125358   4.495   6.907   2.726
 8467TIP3    H225359   4.374   6.872   2.810
 8468TIP3   OH225360   3.469   5.605   4.638
 8468TIP3    H125361   3.374   5.611   4.645
 8468TIP3    H225362   3.495   5.551   4.713
 8469TIP3   OH225363   4.302   6.282   3.155
 8469TIP3    H125364   4.285   6.227   3.231
 8469TIP3    H225365   4.398   6.288   3.150
 8470TIP3   OH225366   3.201   6.704   4.284
 8470TIP3    H125367   3.253   6.638   4.330
 8470TIP3    H225368   3.224   6.787   4.326
 8471TIP3   OH225369   3.477   6.331   2.972
 8471TIP3    H125370   3.490   6.240   2.945
 8471TIP3    H225371   3.462   6.327   3.066
 8472TIP3   OH225372   3.424   6.345   3.244
 8472TIP3    H125373   3.493   6.313   3.303
 8472TIP3    H225374   3.427   6.440   3.253
 8473TIP3   OH225375   3.153   6.032   3.453
 8473TIP3    H125376   3.089   6.080   3.506
 8473TIP3    H225377   3.176   6.093   3.382
 8474TIP3   OH225378   4.321   5.670   4.337
 8474TIP3    H125379   4.400   5.711   4.372
 8474TIP3    H225380   4.311   5.590   4.388
 8475TIP3   OH225381   4.207   5.409   3.514
 8475TIP3    H125382   4.186   5.429   3.423
 8475TIP3    H225383   4.249   5.489   3.547
 8476TIP3   OH225384   3.694   6.535   3.182
 8476TIP3    H125385   3.609   6.558   3.221
 8476TIP3    H225386   3.716   6.610   3.127
 8477TIP3   OH225387   3.857   5.608   3.604
 8477TIP3    H125388   3.918   5.677   3.578
 8477TIP3    H225389   3.875   5.594   3.697
 8478TIP3   OH225390   4.165   5.914   4.386
 8478TIP3    H125391   4.189   5.953   4.469
 8478TIP3    H225392   4.210   5.830   4.385
 8479TIP3   OH225393   4.022   5.316   3.701
 8479TIP3    H125394   3.997   5.391   3.755
 8479TIP3    H225395   4.089   5.349   3.642
 8480TIP3   OH225396   3.442   6.618   3.259
 8480TIP3    H125397   3.420   6.689   3.198
 8480TIP3    H225398   3.430   6.657   3.346
 8481TIP3   OH225399   3.540   5.322   3.498
 8481TIP3    H125400   3.529   5.413   3.528
 8481TIP3    H225401   3.634   5.307   3.504
 8482TIP3   OH225402   4.781   5.808   4.380
 8482TIP3    H125403   4.686   5.816   4.392
 8482TIP3    H225404   4.791   5.758   4.299
 8483TIP3   OH225405   4.450   6.010   3.764
 8483TIP3    H125406   4.370   5.957   3.771
 8483TIP3    H225407   4.513   5.965   3.820
 8484TIP3   OH225408   3.175   6.218   3.240
 8484TIP3    H125409   3.246   6.281   3.251
 8484TIP3    H225410   3.208   6.155   3.177
 8485TIP3   OH225411   3.088   5.507   3.374
 8485TIP3    H125412   3.104   5.601   3.380
 8485TIP3    H225413   3.026   5.498   3.301
 8486TIP3   OH225414   4.419   6.980   3.707
 8486TIP3    H125415   4.377   7.029   3.637
 8486TIP3    H225416   4.513   6.992   3.693
 8487TIP3   OH225417   3.482   5.232   4.242
 8487TIP3    H125418   3.455   5.200   4.156
 8487TIP3    H225419   3.474   5.156   4.299
 8488TIP3   OH225420   3.012   6.478   3.631
 8488TIP3    H125421   2.964   6.512   3.706
 8488TIP3    H225422   2.972   6.520   3.555
 8489TIP3   OH225423   3.205   7.018   4.702
 8489TIP3    H125424   3.288   7.024   4.750
 8489TIP3    H225425   3.192   6.925   4.688
 8490TIP3   OH225426   3.671   6.937   4.742
 8490TIP3    H125427   3.763   6.915   4.751
 8490TIP3    H225428   3.639   6.882   4.670
 8491TIP3   OH225429   3.638   6.529   2.864
 8491TIP3    H125430   3.590   6.460   2.909
 8491TIP3    H225431   3.713   6.485   2.825
 8492TIP3   OH225432   4.295   6.872   4.491
 8492TIP3    H125433   4.304   6.801   4.555
 8492TIP3    H225434   4.371   6.928   4.507
 8493TIP3   OH225435   4.079   6.568   2.788
 8493TIP3    H125436   4.109   6.503   2.852
 8493TIP3    H225437   4.141   6.560   2.716
 8494TIP3   OH225438   3.310   6.414   4.896
 8494TIP3    H125439   3.331   6.321   4.904
 8494TIP3    H225440   3.225   6.416   4.853
 8495TIP3   OH225441   3.302   6.028   3.091
 8495TIP3    H125442   3.353   6.003   3.168
 8495TIP3    H225443   3.366   6.041   3.022
 8496TIP3   OH225444   3.929   6.501   4.672
 8496TIP3    H125445   3.887   6.522   4.588
 8496TIP3    H225446   3.969   6.415   4.657
 8497TIP3   OH225447   3.842   6.249   2.913
 8497TIP3    H125448   3.831   6.261   3.007
 8497TIP3    H225449   3.835   6.154   2.900
 8498TIP3   OH225450   4.414   6.541   4.295
 8498TIP3    H125451   4.490   6.568   4.243
 8498TIP3    H225452   4.344   6.600   4.269
 8499TIP3   OH225453   3.427   6.157   4.891
 8499TIP3    H125454   3.500   6.144   4.832
 8499TIP3    H225455   3.468   6.177   4.976
 8500TIP3   OH225456   3.481   5.968   3.296
 8500TIP3    H125457   3.458   5.941   3.385
 8500TIP3    H225458   3.528   5.893   3.259
 8501TIP3   OH225459   3.743   6.005   4.537
 8501TIP3    H125460   3.681   6.073   4.565
 8501TIP3    H225461   3.805   6.051   4.480
 8502TIP3   OH225462   3.613   5.773   3.146
 8502TIP3    H125463   3.586   5.779   3.054
 8502TIP3    H225464   3.708   5.781   3.144
 8503TIP3   OH225465   4.294   6.421   4.655
 8503TIP3    H125466   4.358   6.380   4.596
 8503TIP3    H225467   4.291   6.363   4.731
 8504TIP3   OH225468   4.415   6.075   2.823
 8504TIP3    H125469   4.401   6.033   2.739
 8504TIP3    H225470   4.387   6.166   2.810
 8505TIP3   OH225471   3.892   5.816   4.670
 8505TIP3    H125472   3.893   5.734   4.620
 8505TIP3    H225473   3.847   5.878   4.613
 8506TIP3   OH225474   3.889   5.589   4.505
 8506TIP3    H125475   3.921   5.638   4.429
 8506TIP3    H225476   3.799   5.565   4.481
 8507TIP3   OH225477   3.915   6.156   4.386
 8507TIP3    H125478   3.992   6.137   4.332
 8507TIP3    H225479   3.861   6.213   4.332
 8508TIP3   OH225480   4.505   6.099   4.716
 8508TIP3    H125481   4.545   6.012   4.721
 8508TIP3    H225482   4.576   6.157   4.687
 8509TIP3   OH225483   4.535   6.362   4.459
 8509TIP3    H125484   4.482   6.424   4.409
 8509TIP3    H225485   4.624   6.376   4.427
 8510TIP3   OH225486   3.776   5.905   4.909
 8510TIP3    H125487   3.707   5.840   4.925
 8510TIP3    H225488   3.807   5.885   4.820
 8511TIP3   OH225489   4.030   5.361   4.560
 8511TIP3    H125490   3.986   5.443   4.539
 8511TIP3    H225491   3.965   5.294   4.545
 8512TIP3   OH225492   4.151   5.856   4.763
 8512TIP3    H125493   4.139   5.843   4.857
 8512TIP3    H225494   4.065   5.839   4.725
 8513TIP3   OH225495   4.397   5.814   4.634
 8513TIP3    H125496   4.318   5.812   4.688
 8513TIP3    H225497   4.467   5.786   4.693
 8514TIP3   OH225498   4.632   5.771   4.783
 8514TIP3    H125499   4.645   5.677   4.790
 8514TIP3    H225500   4.627   5.802   4.873
 8515TIP3   OH225501   3.609   5.684   4.969
 8515TIP3    H125502   3.616   5.596   4.932
 8515TIP3    H225503   3.649   5.676   5.056
 8516TIP3   OH225504   4.097   5.361   4.826
 8516TIP3    H125505   4.168   5.296   4.822
 8516TIP3    H225506   4.065   5.367   4.736
 8517TIP3   OH225507   4.185   5.578   4.970
 8517TIP3    H125508   4.157   5.507   4.913
 8517TIP3    H225509   4.113   5.641   4.968
 8518TIP3   OH225510   3.433   6.826   3.074
 8518TIP3    H125511   3.523   6.806   3.048
 8518TIP3    H225512   3.397   6.873   2.998
 8519TIP3   OH225513   2.902   6.204   3.262
 8519TIP3    H125514   2.996   6.219   3.256
 8519TIP3    H225515   2.889   6.118   3.224
 8520TIP3   OH225516   2.808   6.796   3.714
 8520TIP3    H125517   2.744   6.742   3.668
 8520TIP3    H225518   2.852   6.736   3.774
 8521TIP3   OH225519   2.948   6.631   3.887
 8521TIP3    H125520   2.937   6.563   3.953
 8521TIP3    H225521   3.000   6.699   3.930
 8522TIP3   OH225522   4.688   7.039   3.691
 8522TIP3    H125523   4.710   7.068   3.780
 8522TIP3    H225524   4.747   7.087   3.634
 8523TIP3   OH225525   4.708   7.066   3.974
 8523TIP3    H125526   4.660   6.983   3.967
 8523TIP3    H225527   4.778   7.048   4.036
 8524TIP3   OH225528   4.754   6.762   4.546
 8524TIP3    H125529   4.683   6.770   4.609
 8524TIP3    H225530   4.799   6.846   4.549
 8525TIP3   OH225531   4.581   6.276   3.154
 8525TIP3    H125532   4.641   6.345   3.127
 8525TIP3    H225533   4.622   6.237   3.231
 8526TIP3   OH225534   4.703   6.133   3.357
 8526TIP3    H125535   4.635   6.094   3.412
 8526TIP3    H225536   4.767   6.169   3.419
 8527TIP3   OH225537   4.756   6.535   3.790
 8527TIP3    H125538   4.808   6.466   3.748
 8527TIP3    H225539   4.755   6.606   3.725
 8528TIP3   OH225540   4.568   6.824   3.983
 8528TIP3    H125541   4.501   6.868   4.034
 8528TIP3    H225542   4.521   6.782   3.912
 8529TIP3   OH225543   4.622   6.051   3.002
 8529TIP3    H125544   4.551   6.050   2.939
 8529TIP3    H225545   4.605   6.128   3.057
 8530TIP3   OH225546   4.484   5.704   2.943
 8530TIP3    H125547   4.436   5.742   2.869
 8530TIP3    H225548   4.471   5.610   2.934
 8531TIP3   OH225549   4.506   5.995   3.495
 8531TIP3    H125550   4.507   5.900   3.483
 8531TIP3    H225551   4.489   6.007   3.588
 8532TIP3   OH225552   3.130   6.063   4.261
 8532TIP3    H125553   3.123   6.028   4.172
 8532TIP3    H225554   3.224   6.061   4.279
 8533TIP3   OH225555   4.789   6.413   4.358
 8533TIP3    H125556   4.856   6.348   4.341
 8533TIP3    H225557   4.796   6.475   4.285
 8534TIP3   OH225558   4.967   6.204   4.350
 8534TIP3    H125559   4.893   6.163   4.393
 8534TIP3    H225560   5.042   6.149   4.371
 8535TIP3   OH225561   4.436   5.435   2.921
 8535TIP3    H125562   4.501   5.406   2.986
 8535TIP3    H225563   4.355   5.392   2.948
 8536TIP3   OH225564   4.502   5.720   3.381
 8536TIP3    H125565   4.546   5.635   3.392
 8536TIP3    H225566   4.547   5.759   3.306
 8537TIP3   OH225567   4.658   5.876   3.902
 8537TIP3    H125568   4.739   5.896   3.855
 8537TIP3    H225569   4.669   5.917   3.988
 8538TIP3   OH225570   4.732   6.032   4.128
 8538TIP3    H125571   4.657   6.061   4.180
 8538TIP3    H225572   4.762   6.111   4.083
 8539TIP3   OH225573   3.344   5.738   4.911
 8539TIP3    H125574   3.439   5.736   4.925
 8539TIP3    H225575   3.313   5.656   4.951
 8540TIP3   OH225576   5.187   5.633   4.670
 8540TIP3    H125577   5.250   5.573   4.628
 8540TIP3    H225578   5.151   5.683   4.597
 8541TIP3   OH225579   4.614   5.468   3.427
 8541TIP3    H125580   4.659   5.454   3.510
 8541TIP3    H225581   4.550   5.397   3.422
 8542TIP3   OH225582   3.315   5.453   4.273
 8542TIP3    H125583   3.371   5.375   4.272
 8542TIP3    H225584   3.375   5.525   4.251
 8543TIP3   OH225585   3.103   5.719   4.321
 8543TIP3    H125586   3.154   5.709   4.241
 8543TIP3    H225587   3.138   5.798   4.362
 8544TIP3   OH225588   5.041   5.750   4.473
 8544TIP3    H125589   4.958   5.791   4.496
 8544TIP3    H225590   5.016   5.676   4.417
 8545TIP3   OH225591   4.670   5.382   3.073
 8545TIP3    H125592   4.714   5.322   3.014
 8545TIP3    H225593   4.725   5.460   3.074
 8546TIP3   OH225594   3.089   5.214   3.820
 8546TIP3    H125595   3.003   5.210   3.862
 8546TIP3    H225596   3.077   5.274   3.746
 8547TIP3   OH225597   4.248   6.943   3.333
 8547TIP3    H125598   4.305   6.931   3.257
 8547TIP3    H225599   4.293   7.008   3.387
 8548TIP3   OH225600   3.313   5.282   4.644
 8548TIP3    H125601   3.263   5.279   4.725
 8548TIP3    H225602   3.258   5.331   4.583
 8549TIP3   OH225603   3.341   6.741   4.712
 8549TIP3    H125604   3.249   6.717   4.705
 8549TIP3    H225605   3.363   6.725   4.804
 8550TIP3   OH225606   3.549   6.784   4.267
 8550TIP3    H125607   3.500   6.859   4.234
 8550TIP3    H225608   3.634   6.791   4.224
 8551TIP3   OH225609   3.958   7.016   4.405
 8551TIP3    H125610   3.997   7.008   4.492
 8551TIP3    H225611   4.021   7.068   4.355
 8552TIP3   OH225612   4.147   7.169   4.273
 8552TIP3    H125613   4.208   7.114   4.224
 8552TIP3    H225614   4.203   7.224   4.328
 8553TIP3   OH225615   4.951   5.506   4.362
 8553TIP3    H125616   4.862   5.499   4.326
 8553TIP3    H225617   4.986   5.418   4.355
 8554TIP3   OH225618   3.213   7.030   4.310
 8554TIP3    H125619   3.122   7.050   4.289
 8554TIP3    H225620   3.237   7.093   4.378
 8555TIP3   OH225621   3.444   7.014   4.160
 8555TIP3    H125622   3.360   7.021   4.206
 8555TIP3    H225623   3.423   7.038   4.070
 8556TIP3   OH225624   3.864   7.029   3.952
 8556TIP3    H125625   3.794   7.041   3.888
 8556TIP3    H225626   3.874   7.114   3.993
 8557TIP3   OH225627   4.129   6.970   4.009
 8557TIP3    H125628   4.038   6.985   3.985
 8557TIP3    H225629   4.178   7.036   3.958
 8558TIP3   OH225630   4.331   7.147   3.908
 8558TIP3    H125631   4.326   7.233   3.866
 8558TIP3    H225632   4.361   7.088   3.839
 8559TIP3   OH225633   3.124   6.804   4.035
 8559TIP3    H125634   3.148   6.778   4.124
 8559TIP3    H225635   3.195   6.771   3.980
 8560TIP3   OH225636   3.326   6.687   3.896
 8560TIP3    H125637   3.338   6.602   3.938
 8560TIP3    H225638   3.414   6.726   3.897
 8561TIP3   OH225639   3.595   6.779   3.912
 8561TIP3    H125640   3.612   6.686   3.897
 8561TIP3    H225641   3.648   6.801   3.988
 8562TIP3   OH225642   4.178   5.438   4.009
 8562TIP3    H125643   4.124   5.368   4.045
 8562TIP3    H225644   4.239   5.395   3.950
 8563TIP3   OH225645   4.658   5.324   3.871
 8563TIP3    H125646   4.697   5.376   3.800
 8563TIP3    H225647   4.567   5.354   3.875
 8564TIP3   OH225648   4.777   5.415   3.643
 8564TIP3    H125649   4.846   5.357   3.611
 8564TIP3    H225650   4.813   5.503   3.633
 8565TIP3   OH225651   3.400   5.127   3.998
 8565TIP3    H125652   3.310   5.095   4.005
 8565TIP3    H225653   3.453   5.048   3.993
 8566TIP3   OH225654   3.201   5.019   3.646
 8566TIP3    H125655   3.235   5.071   3.573
 8566TIP3    H225656   3.170   5.085   3.709
 8567TIP3   OH225657   3.866   5.172   3.892
 8567TIP3    H125658   3.913   5.222   3.825
 8567TIP3    H225659   3.905   5.200   3.974
 8568TIP3   OH225660   4.374   5.317   3.857
 8568TIP3    H125661   4.367   5.281   3.769
 8568TIP3    H225662   4.377   5.241   3.914
 8569TIP3   OH225663   4.429   5.256   3.437
 8569TIP3    H125664   4.349   5.304   3.457
 8569TIP3    H225665   4.415   5.169   3.475
 8570TIP3   OH225666   2.896   6.601   3.415
 8570TIP3    H125667   2.812   6.566   3.386
 8570TIP3    H225668   2.897   6.691   3.384
 8571TIP3   OH225669   3.323   5.160   3.416
 8571TIP3    H125670   3.368   5.101   3.357
 8571TIP3    H225671   3.392   5.217   3.451
 8572TIP3   OH225672   3.815   5.355   3.511
 8572TIP3    H125673   3.876   5.309   3.569
 8572TIP3    H225674   3.824   5.447   3.536
 8573TIP3   OH225675   3.690   6.757   3.007
 8573TIP3    H125676   3.775   6.783   2.971
 8573TIP3    H225677   3.662   6.684   2.952
 8574TIP3   OH225678   4.399   6.897   3.103
 8574TIP3    H125679   4.392   6.801   3.097
 8574TIP3    H225680   4.356   6.930   3.025
 8575TIP3   OH225681   3.619   5.409   4.882
 8575TIP3    H125682   3.585   5.342   4.941
 8575TIP3    H225683   3.712   5.417   4.905
 8576TIP3   OH225684   3.870   5.415   5.002
 8576TIP3    H125685   3.949   5.395   4.952
 8576TIP3    H225686   3.863   5.346   5.068
 8577TIP3   OH225687   2.996   6.600   3.066
 8577TIP3    H125688   3.000   6.609   3.161
 8577TIP3    H225689   3.078   6.554   3.043
 8578TIP3   OH225690   4.694   5.500   4.794
 8578TIP3    H125691   4.711   5.470   4.884
 8578TIP3    H225692   4.780   5.496   4.751
 8579TIP3   OH225693   4.616   7.036   4.296
 8579TIP3    H125694   4.541   7.005   4.244
 8579TIP3    H225695   4.602   7.130   4.305
 8580TIP3   OH225696   5.890   6.420   3.041
 8580TIP3    H125697   5.862   6.508   3.016
 8580TIP3    H225698   5.819   6.363   3.013
 8581TIP3   OH225699   5.889   6.412   3.456
 8581TIP3    H125700   5.938   6.395   3.537
 8581TIP3    H225701   5.845   6.329   3.437
 8582TIP3   OH225702   5.189   6.286   3.806
 8582TIP3    H125703   5.222   6.229   3.875
 8582TIP3    H225704   5.267   6.314   3.759
 8583TIP3   OH225705   6.149   6.724   3.130
 8583TIP3    H125706   6.139   6.658   3.199
 8583TIP3    H225707   6.175   6.803   3.176
 8584TIP3   OH225708   5.175   6.710   3.506
 8584TIP3    H125709   5.160   6.616   3.511
 8584TIP3    H225710   5.270   6.719   3.494
 8585TIP3   OH225711   4.865   5.911   3.284
 8585TIP3    H125712   4.824   5.994   3.309
 8585TIP3    H225713   4.794   5.861   3.244
 8586TIP3   OH225714   4.934   6.210   3.496
 8586TIP3    H125715   4.984   6.134   3.524
 8586TIP3    H225716   4.999   6.269   3.458
 8587TIP3   OH225717   5.804   7.157   3.139
 8587TIP3    H125718   5.838   7.092   3.078
 8587TIP3    H225719   5.806   7.114   3.224
 8588TIP3   OH225720   5.692   6.637   3.469
 8588TIP3    H125721   5.734   6.558   3.436
 8588TIP3    H225722   5.765   6.692   3.498
 8589TIP3   OH225723   6.725   5.955   3.480
 8589TIP3    H125724   6.742   6.041   3.520
 8589TIP3    H225725   6.751   5.966   3.388
 8590TIP3   OH225726   6.105   6.124   3.503
 8590TIP3    H125727   6.142   6.040   3.528
 8590TIP3    H225728   6.068   6.110   3.416
 8591TIP3   OH225729   5.458   5.787   3.463
 8591TIP3    H125730   5.437   5.860   3.405
 8591TIP3    H225731   5.403   5.715   3.430
 8592TIP3   OH225732   6.152   5.886   3.096
 8592TIP3    H125733   6.218   5.878   3.165
 8592TIP3    H225734   6.201   5.920   3.021
 8593TIP3   OH225735   5.080   5.996   3.591
 8593TIP3    H125736   5.164   5.980   3.635
 8593TIP3    H225737   5.085   5.945   3.510
 8594TIP3   OH225738   5.507   6.196   3.401
 8594TIP3    H125739   5.601   6.180   3.408
 8594TIP3    H225740   5.470   6.115   3.365
 8595TIP3   OH225741   6.783   6.172   3.654
 8595TIP3    H125742   6.699   6.216   3.640
 8595TIP3    H225743   6.820   6.215   3.730
 8596TIP3   OH225744   5.437   5.785   3.915
 8596TIP3    H125745   5.385   5.821   3.842
 8596TIP3    H225746   5.383   5.801   3.993
 8597TIP3   OH225747   5.790   6.639   2.900
 8597TIP3    H125748   5.749   6.612   2.818
 8597TIP3    H225749   5.737   6.713   2.930
 8598TIP3   OH225750   5.536   6.562   3.685
 8598TIP3    H125751   5.481   6.632   3.720
 8598TIP3    H225752   5.583   6.602   3.612
 8599TIP3   OH225753   6.320   5.903   3.312
 8599TIP3    H125754   6.281   5.881   3.396
 8599TIP3    H225755   6.377   5.978   3.330
 8600TIP3   OH225756   5.327   5.895   3.685
 8600TIP3    H125757   5.382   5.969   3.708
 8600TIP3    H225758   5.373   5.852   3.612
 8601TIP3   OH225759   5.376   6.763   3.789
 8601TIP3    H125760   5.360   6.851   3.757
 8601TIP3    H225761   5.298   6.742   3.841
 8602TIP3   OH225762   4.758   6.462   3.038
 8602TIP3    H125763   4.720   6.480   2.953
 8602TIP3    H225764   4.782   6.547   3.073
 8603TIP3   OH225765   6.196   6.967   3.274
 8603TIP3    H125766   6.109   6.960   3.312
 8603TIP3    H225767   6.196   7.051   3.229
 8604TIP3   OH225768   6.521   5.842   3.645
 8604TIP3    H125769   6.434   5.868   3.613
 8604TIP3    H225770   6.582   5.873   3.578
 8605TIP3   OH225771   5.786   5.492   3.634
 8605TIP3    H125772   5.776   5.401   3.662
 8605TIP3    H225773   5.711   5.537   3.672
 8606TIP3   OH225774   5.902   6.996   2.933
 8606TIP3    H125775   5.954   6.917   2.921
 8606TIP3    H225776   5.959   7.067   2.906
 8607TIP3   OH225777   6.047   6.772   2.875
 8607TIP3    H125778   5.979   6.705   2.870
 8607TIP3    H225779   6.094   6.751   2.956
 8608TIP3   OH225780   6.425   6.860   3.623
 8608TIP3    H125781   6.412   6.786   3.563
 8608TIP3    H225782   6.410   6.937   3.568
 8609TIP3   OH225783   5.717   6.262   2.889
 8609TIP3    H125784   5.636   6.308   2.870
 8609TIP3    H225785   5.765   6.260   2.806
 8610TIP3   OH225786   5.686   6.062   2.585
 8610TIP3    H125787   5.751   6.112   2.634
 8610TIP3    H225788   5.737   5.997   2.537
 8611TIP3   OH225789   6.614   6.514   3.484
 8611TIP3    H125790   6.532   6.562   3.484
 8611TIP3    H225791   6.651   6.530   3.397
 8612TIP3   OH225792   6.074   6.350   2.851
 8612TIP3    H125793   6.020   6.379   2.925
 8612TIP3    H225794   6.158   6.326   2.890
 8613TIP3   OH225795   6.303   6.377   3.787
 8613TIP3    H125796   6.302   6.462   3.833
 8613TIP3    H225797   6.221   6.375   3.739
 8614TIP3   OH225798   5.302   6.332   3.262
 8614TIP3    H125799   5.265   6.273   3.196
 8614TIP3    H225800   5.376   6.284   3.299
 8615TIP3   OH225801   5.436   6.755   3.400
 8615TIP3    H125802   5.414   6.738   3.308
 8615TIP3    H225803   5.523   6.717   3.411
 8616TIP3   OH225804   5.411   6.324   3.631
 8616TIP3    H125805   5.448   6.290   3.550
 8616TIP3    H225806   5.459   6.405   3.647
 8617TIP3   OH225807   5.957   6.959   3.404
 8617TIP3    H125808   5.945   7.040   3.455
 8617TIP3    H225809   5.942   6.889   3.467
 8618TIP3   OH225810   5.574   6.863   3.954
 8618TIP3    H125811   5.515   6.923   4.000
 8618TIP3    H225812   5.517   6.812   3.897
 8619TIP3   OH225813   5.906   6.210   2.684
 8619TIP3    H125814   5.965   6.267   2.732
 8619TIP3    H225815   5.933   6.220   2.592
 8620TIP3   OH225816   5.331   6.410   4.086
 8620TIP3    H125817   5.336   6.503   4.109
 8620TIP3    H225818   5.237   6.392   4.081
 8621TIP3   OH225819   5.652   6.878   2.946
 8621TIP3    H125820   5.734   6.926   2.952
 8621TIP3    H225821   5.592   6.939   2.903
 8622TIP3   OH225822   5.366   7.025   4.038
 8622TIP3    H125823   5.340   7.034   3.946
 8622TIP3    H225824   5.284   7.008   4.085
 8623TIP3   OH225825   6.420   5.438   2.740
 8623TIP3    H125826   6.342   5.459   2.791
 8623TIP3    H225827   6.434   5.515   2.684
 8624TIP3   OH225828   5.176   6.176   3.059
 8624TIP3    H125829   5.101   6.224   3.024
 8624TIP3    H225830   5.143   6.088   3.077
 8625TIP3   OH225831   6.241   6.798   2.292
 8625TIP3    H125832   6.238   6.885   2.253
 8625TIP3    H225833   6.331   6.768   2.276
 8626TIP3   OH225834   4.955   6.573   3.987
 8626TIP3    H125835   4.886   6.557   3.923
 8626TIP3    H225836   4.990   6.487   4.007
 8627TIP3   OH225837   4.810   6.762   3.625
 8627TIP3    H125838   4.905   6.769   3.624
 8627TIP3    H225839   4.780   6.840   3.672
 8628TIP3   OH225840   6.662   7.222   3.689
 8628TIP3    H125841   6.665   7.127   3.700
 8628TIP3    H225842   6.580   7.248   3.731
 8629TIP3   OH225843   5.764   7.002   3.812
 8629TIP3    H125844   5.759   7.094   3.839
 8629TIP3    H225845   5.696   6.958   3.863
 8630TIP3   OH225846   5.538   7.109   2.770
 8630TIP3    H125847   5.490   7.093   2.688
 8630TIP3    H225848   5.509   7.196   2.797
 8631TIP3   OH225849   4.977   6.962   3.146
 8631TIP3    H125850   5.022   6.955   3.230
 8631TIP3    H225851   4.929   6.880   3.137
 8632TIP3   OH225852   5.738   7.024   2.404
 8632TIP3    H125853   5.792   6.954   2.366
 8632TIP3    H225854   5.771   7.034   2.493
 8633TIP3   OH225855   5.789   7.057   2.674
 8633TIP3    H125856   5.703   7.070   2.715
 8633TIP3    H225857   5.845   7.025   2.745
 8634TIP3   OH225858   6.542   6.341   3.962
 8634TIP3    H125859   6.465   6.352   3.906
 8634TIP3    H225860   6.563   6.248   3.955
 8635TIP3   OH225861   5.158   6.758   3.958
 8635TIP3    H125862   5.207   6.746   4.039
 8635TIP3    H225863   5.085   6.696   3.965
 8636TIP3   OH225864   5.548   5.580   3.760
 8636TIP3    H125865   5.466   5.548   3.724
 8636TIP3    H225866   5.524   5.658   3.810
 8637TIP3   OH225867   6.089   5.689   3.964
 8637TIP3    H125868   6.156   5.664   4.027
 8637TIP3    H225869   6.006   5.674   4.010
 8638TIP3   OH225870   6.312   6.113   3.880
 8638TIP3    H125871   6.269   6.112   3.966
 8638TIP3    H225872   6.295   6.200   3.845
 8639TIP3   OH225873   5.985   6.213   2.423
 8639TIP3    H125874   5.943   6.206   2.337
 8639TIP3    H225875   6.067   6.258   2.407
 8640TIP3   OH225876   5.695   5.614   2.734
 8640TIP3    H125877   5.658   5.620   2.822
 8640TIP3    H225878   5.658   5.532   2.699
 8641TIP3   OH225879   5.483   6.102   3.779
 8641TIP3    H125880   5.435   6.110   3.862
 8641TIP3    H225881   5.463   6.182   3.732
 8642TIP3   OH225882   5.365   5.982   3.295
 8642TIP3    H125883   5.275   5.959   3.320
 8642TIP3    H225884   5.375   5.947   3.207
 8643TIP3   OH225885   5.847   6.058   3.023
 8643TIP3    H125886   5.799   6.131   2.983
 8643TIP3    H225887   5.905   6.027   2.954
 8644TIP3   OH225888   6.029   6.328   4.101
 8644TIP3    H125889   6.002   6.260   4.162
 8644TIP3    H225890   6.122   6.343   4.120
 8645TIP3   OH225891   6.011   6.074   3.251
 8645TIP3    H125892   5.944   6.100   3.187
 8645TIP3    H225893   6.056   6.000   3.210
 8646TIP3   OH225894   5.314   6.117   3.996
 8646TIP3    H125895   5.324   6.183   4.065
 8646TIP3    H225896   5.296   6.036   4.043
 8647TIP3   OH225897   5.360   5.596   2.709
 8647TIP3    H125898   5.349   5.598   2.804
 8647TIP3    H225899   5.282   5.641   2.675
 8648TIP3   OH225900   4.905   5.641   3.574
 8648TIP3    H125901   4.977   5.676   3.626
 8648TIP3    H225902   4.943   5.623   3.489
 8649TIP3   OH225903   4.827   5.616   3.083
 8649TIP3    H125904   4.872   5.651   3.006
 8649TIP3    H225905   4.764   5.684   3.107
 8650TIP3   OH225906   6.046   6.325   3.676
 8650TIP3    H125907   6.072   6.258   3.612
 8650TIP3    H225908   6.003   6.276   3.746
 8651TIP3   OH225909   5.724   5.775   3.349
 8651TIP3    H125910   5.646   5.777   3.404
 8651TIP3    H225911   5.797   5.771   3.411
 8652TIP3   OH225912   5.126   5.859   3.357
 8652TIP3    H125913   5.037   5.864   3.322
 8652TIP3    H225914   5.154   5.769   3.338
 8653TIP3   OH225915   5.381   5.857   3.051
 8653TIP3    H125916   5.475   5.869   3.038
 8653TIP3    H225917   5.342   5.876   2.966
 8654TIP3   OH225918   6.184   5.863   3.559
 8654TIP3    H125919   6.161   5.881   3.650
 8654TIP3    H225920   6.116   5.804   3.528
 8655TIP3   OH225921   5.258   5.884   2.808
 8655TIP3    H125922   5.193   5.836   2.757
 8655TIP3    H225923   5.312   5.928   2.743
 8656TIP3   OH225924   6.370   7.563   3.777
 8656TIP3    H125925   6.364   7.583   3.683
 8656TIP3    H225926   6.449   7.609   3.806
 8657TIP3   OH225927   5.316   6.673   4.191
 8657TIP3    H125928   5.396   6.696   4.238
 8657TIP3    H225929   5.247   6.679   4.256
 8658TIP3   OH225930   5.778   6.138   3.455
 8658TIP3    H125931   5.846   6.091   3.407
 8658TIP3    H225932   5.777   6.097   3.541
 8659TIP3   OH225933   5.275   5.612   3.337
 8659TIP3    H125934   5.244   5.536   3.385
 8659TIP3    H225935   5.301   5.578   3.251
 8660TIP3   OH225936   5.749   6.042   3.724
 8660TIP3    H125937   5.661   6.074   3.745
 8660TIP3    H225938   5.808   6.096   3.776
 8661TIP3   OH225939   5.482   6.403   2.833
 8661TIP3    H125940   5.408   6.346   2.812
 8661TIP3    H225941   5.459   6.441   2.918
 8662TIP3   OH225942   6.380   6.654   3.443
 8662TIP3    H125943   6.415   6.704   3.369
 8662TIP3    H225944   6.298   6.616   3.410
 8663TIP3   OH225945   5.948   5.715   2.733
 8663TIP3    H125946   5.855   5.695   2.730
 8663TIP3    H225947   5.952   5.810   2.745
 8664TIP3   OH225948   5.883   6.735   3.845
 8664TIP3    H125949   5.931   6.732   3.928
 8664TIP3    H225950   5.843   6.822   3.844
 8665TIP3   OH225951   6.009   5.979   2.806
 8665TIP3    H125952   6.105   5.984   2.815
 8665TIP3    H225953   5.987   6.056   2.754
 8666TIP3   OH225954   5.179   6.425   3.492
 8666TIP3    H125955   5.215   6.404   3.406
 8666TIP3    H225956   5.242   6.388   3.555
 8667TIP3   OH225957   5.635   6.563   2.674
 8667TIP3    H125958   5.587   6.646   2.673
 8667TIP3    H225959   5.580   6.505   2.727
 8668TIP3   OH225960   5.060   6.343   4.118
 8668TIP3    H125961   5.063   6.322   4.211
 8668TIP3    H225962   4.985   6.293   4.085
 8669TIP3   OH225963   5.793   6.477   4.142
 8669TIP3    H125964   5.723   6.418   4.112
 8669TIP3    H225965   5.873   6.437   4.110
 8670TIP3   OH225966   6.037   7.011   3.739
 8670TIP3    H125967   5.941   7.005   3.744
 8670TIP3    H225968   6.061   7.057   3.820
 8671TIP3   OH225969   6.430   6.069   2.631
 8671TIP3    H125970   6.374   6.023   2.568
 8671TIP3    H225971   6.435   6.159   2.597
 8672TIP3   OH225972   6.672   6.934   3.714
 8672TIP3    H125973   6.577   6.925   3.705
 8672TIP3    H225974   6.706   6.907   3.628
 8673TIP3   OH225975   6.145   6.889   2.555
 8673TIP3    H125976   6.127   6.832   2.629
 8673TIP3    H225977   6.171   6.830   2.485
 8674TIP3   OH225978   6.146   6.521   3.344
 8674TIP3    H125979   6.055   6.499   3.366
 8674TIP3    H225980   6.181   6.441   3.306
 8675TIP3   OH225981   5.295   6.754   3.149
 8675TIP3    H125982   5.294   6.831   3.093
 8675TIP3    H225983   5.203   6.739   3.171
 8676TIP3   OH225984   4.858   6.041   2.859
 8676TIP3    H125985   4.901   6.124   2.880
 8676TIP3    H225986   4.778   6.042   2.912
 8677TIP3   OH225987   5.394   6.508   3.066
 8677TIP3    H125988   5.373   6.598   3.092
 8677TIP3    H225989   5.364   6.455   3.140
 8678TIP3   OH225990   5.576   7.079   3.606
 8678TIP3    H125991   5.612   7.152   3.555
 8678TIP3    H225992   5.650   7.045   3.655
 8679TIP3   OH225993   5.211   6.982   2.998
 8679TIP3    H125994   5.125   6.987   3.039
 8679TIP3    H225995   5.245   7.071   3.001
 8680TIP3   OH225996   5.933   6.735   3.573
 8680TIP3    H125997   5.921   6.730   3.668
 8680TIP3    H225998   6.012   6.685   3.556
 8681TIP3   OH225999   5.920   6.624   2.448
 8681TIP3    H126000   5.974   6.598   2.522
 8681TIP3    H226001   5.834   6.584   2.465
 8682TIP3   OH226002   6.187   7.245   3.614
 8682TIP3    H126003   6.111   7.187   3.619
 8682TIP3    H226004   6.167   7.305   3.542
 8683TIP3   OH226005   5.267   5.864   4.123
 8683TIP3    H126006   5.172   5.871   4.130
 8683TIP3    H226007   5.293   5.813   4.200
 8684TIP3   OH226008   6.094   6.536   2.641
 8684TIP3    H126009   6.079   6.480   2.718
 8684TIP3    H226010   6.190   6.545   2.637
 8685TIP3   OH226011   5.002   6.964   3.767
 8685TIP3    H126012   5.053   6.900   3.816
 8685TIP3    H226013   5.020   7.047   3.811
 8686TIP3   OH226014   5.276   6.586   2.457
 8686TIP3    H126015   5.287   6.495   2.430
 8686TIP3    H226016   5.258   6.583   2.551
 8687TIP3   OH226017   5.219   6.602   2.729
 8687TIP3    H126018   5.289   6.573   2.787
 8687TIP3    H226019   5.218   6.697   2.736
 8688TIP3   OH226020   4.955   6.292   2.938
 8688TIP3    H126021   4.889   6.338   2.991
 8688TIP3    H226022   4.973   6.352   2.866
 8689TIP3   OH226023   6.116   5.924   3.819
 8689TIP3    H126024   6.195   5.967   3.851
 8689TIP3    H226025   6.108   5.846   3.874
 8690TIP3   OH226026   6.005   5.668   3.003
 8690TIP3    H126027   5.984   5.685   2.911
 8690TIP3    H226028   6.047   5.748   3.034
 8691TIP3   OH226029   5.488   6.790   2.673
 8691TIP3    H126030   5.403   6.814   2.710
 8691TIP3    H226031   5.512   6.865   2.619
 8692TIP3   OH226032   5.662   5.865   3.092
 8692TIP3    H126033   5.724   5.933   3.067
 8692TIP3    H226034   5.682   5.847   3.184
 8693TIP3   OH226035   5.953   6.161   3.876
 8693TIP3    H126036   5.979   6.205   3.957
 8693TIP3    H226037   6.004   6.079   3.876
 8694TIP3   OH226038   5.819   5.567   3.183
 8694TIP3    H126039   5.795   5.644   3.235
 8694TIP3    H226040   5.887   5.598   3.123
 8695TIP3   OH226041   5.236   6.874   2.746
 8695TIP3    H126042   5.213   6.944   2.685
 8695TIP3    H226043   5.225   6.914   2.833
 8696TIP3   OH226044   5.333   5.585   2.988
 8696TIP3    H126045   5.323   5.676   3.017
 8696TIP3    H226046   5.428   5.569   2.992
 8697TIP3   OH226047   6.580   6.073   3.875
 8697TIP3    H126048   6.485   6.070   3.880
 8697TIP3    H226049   6.600   6.046   3.786
 8698TIP3   OH226050   6.237   6.263   3.253
 8698TIP3    H126051   6.160   6.207   3.264
 8698TIP3    H226052   6.305   6.221   3.306
 8699TIP3   OH226053   4.969   6.476   2.725
 8699TIP3    H126054   5.040   6.539   2.734
 8699TIP3    H226055   5.003   6.412   2.662
 8700TIP3   OH226056   4.888   5.764   2.860
 8700TIP3    H126057   4.899   5.859   2.867
 8700TIP3    H226058   4.822   5.752   2.793
 8701TIP3   OH226059   6.212   7.233   3.190
 8701TIP3    H126060   6.169   7.283   3.121
 8701TIP3    H226061   6.306   7.251   3.179
 8702TIP3   OH226062   5.289   5.492   3.711
 8702TIP3    H126063   5.257   5.462   3.626
 8702TIP3    H226064   5.277   5.417   3.770
 8703TIP3   OH226065   4.810   6.732   3.120
 8703TIP3    H126066   4.762   6.767   3.196
 8703TIP3    H226067   4.770   6.775   3.045
 8704TIP3   OH226068   4.998   7.273   4.187
 8704TIP3    H126069   5.081   7.277   4.235
 8704TIP3    H226070   4.980   7.179   4.178
 8705TIP3   OH226071   5.465   7.195   4.232
 8705TIP3    H126072   5.559   7.179   4.238
 8705TIP3    H226073   5.436   7.137   4.161
 8706TIP3   OH226074   5.436   6.786   2.351
 8706TIP3    H126075   5.388   6.715   2.395
 8706TIP3    H226076   5.511   6.742   2.311
 8707TIP3   OH226077   6.091   7.126   3.984
 8707TIP3    H126078   6.104   7.058   4.050
 8707TIP3    H226079   6.165   7.186   3.996
 8708TIP3   OH226080   5.877   6.831   2.267
 8708TIP3    H126081   5.911   6.767   2.329
 8708TIP3    H226082   5.937   6.826   2.192
 8709TIP3   OH226083   5.109   6.671   4.379
 8709TIP3    H126084   5.127   6.577   4.388
 8709TIP3    H226085   5.023   6.675   4.338
 8710TIP3   OH226086   5.099   6.284   2.580
 8710TIP3    H126087   5.151   6.260   2.657
 8710TIP3    H226088   5.164   6.296   2.510
 8711TIP3   OH226089   5.728   6.754   4.156
 8711TIP3    H126090   5.683   6.776   4.075
 8711TIP3    H226091   5.759   6.665   4.143
 8712TIP3   OH226092   5.650   6.506   2.405
 8712TIP3    H126093   5.634   6.518   2.498
 8712TIP3    H226094   5.639   6.412   2.390
 8713TIP3   OH226095   6.204   6.788   3.772
 8713TIP3    H126096   6.281   6.818   3.724
 8713TIP3    H226097   6.138   6.857   3.757
 8714TIP3   OH226098   5.226   6.414   4.382
 8714TIP3    H126099   5.303   6.392   4.331
 8714TIP3    H226100   5.259   6.435   4.469
 8715TIP3   OH226101   5.276   6.221   2.790
 8715TIP3    H126102   5.255   6.189   2.877
 8715TIP3    H226103   5.322   6.148   2.748
 8716TIP3   OH226104   5.587   6.301   4.040
 8716TIP3    H126105   5.501   6.343   4.048
 8716TIP3    H226106   5.620   6.330   3.956
 8717TIP3   OH226107   5.412   6.031   2.635
 8717TIP3    H126108   5.382   6.035   2.544
 8717TIP3    H226109   5.507   6.037   2.629
 8718TIP3   OH226110   6.089   6.680   4.140
 8718TIP3    H126111   6.150   6.637   4.080
 8718TIP3    H226112   6.081   6.620   4.214
 8719TIP3   OH226113   6.210   6.332   2.311
 8719TIP3    H126114   6.197   6.286   2.228
 8719TIP3    H226115   6.180   6.421   2.294
 8720TIP3   OH226116   5.694   6.071   4.146
 8720TIP3    H126117   5.693   5.999   4.084
 8720TIP3    H226118   5.656   6.145   4.099
 8721TIP3   OH226119   5.698   5.867   3.949
 8721TIP3    H126120   5.723   5.906   3.865
 8721TIP3    H226121   5.606   5.842   3.937
 8722TIP3   OH226122   5.711   6.399   3.819
 8722TIP3    H126123   5.799   6.432   3.802
 8722TIP3    H226124   5.653   6.460   3.774
 8723TIP3   OH226125   6.302   6.358   4.199
 8723TIP3    H126126   6.337   6.270   4.193
 8723TIP3    H226127   6.372   6.414   4.166
 8724TIP3   OH226128   6.331   6.616   3.937
 8724TIP3    H126129   6.276   6.676   3.887
 8724TIP3    H226130   6.420   6.634   3.907
 8725TIP3   OH226131   5.575   6.161   4.389
 8725TIP3    H126132   5.505   6.099   4.410
 8725TIP3    H226133   5.603   6.136   4.300
 8726TIP3   OH226134   5.824   5.636   4.044
 8726TIP3    H126135   5.782   5.717   4.013
 8726TIP3    H226136   5.758   5.568   4.031
 8727TIP3   OH226137   5.948   6.111   4.249
 8727TIP3    H126138   5.933   6.101   4.342
 8727TIP3    H226139   5.864   6.092   4.208
 8728TIP3   OH226140   6.196   6.076   4.121
 8728TIP3    H126141   6.116   6.072   4.173
 8728TIP3    H226142   6.264   6.044   4.180
 8729TIP3   OH226143   6.429   6.026   4.271
 8729TIP3    H126144   6.441   5.931   4.278
 8729TIP3    H226145   6.421   6.056   4.362
 8730TIP3   OH226146   5.407   5.945   4.455
 8730TIP3    H126147   5.409   5.856   4.421
 8730TIP3    H226148   5.445   5.938   4.543
 8731TIP3   OH226149   5.895   5.618   4.309
 8731TIP3    H126150   5.963   5.551   4.301
 8731TIP3    H226151   5.861   5.629   4.220
 8732TIP3   OH226152   5.979   5.835   4.456
 8732TIP3    H126153   5.950   5.763   4.399
 8732TIP3    H226154   5.907   5.898   4.455
 8733TIP3   OH226155   5.222   7.080   2.560
 8733TIP3    H126156   5.314   7.061   2.538
 8733TIP3    H226157   5.189   7.129   2.484
 8734TIP3   OH226158   4.696   6.462   2.750
 8734TIP3    H126159   4.790   6.476   2.744
 8734TIP3    H226160   4.682   6.375   2.711
 8735TIP3   OH226161   4.605   7.052   3.199
 8735TIP3    H126162   4.540   6.997   3.154
 8735TIP3    H226163   4.649   6.992   3.259
 8736TIP3   OH226164   4.745   6.888   3.371
 8736TIP3    H126165   4.735   6.820   3.438
 8736TIP3    H226166   4.797   6.956   3.415
 8737TIP3   OH226167   6.472   7.311   3.173
 8737TIP3    H126168   6.504   7.342   3.258
 8737TIP3    H226169   6.538   7.342   3.110
 8738TIP3   OH226170   6.497   7.328   3.461
 8738TIP3    H126171   6.456   7.242   3.452
 8738TIP3    H226172   6.576   7.312   3.514
 8739TIP3   OH226173   6.555   7.010   4.034
 8739TIP3    H126174   6.482   7.022   4.095
 8739TIP3    H226175   6.596   7.097   4.030
 8740TIP3   OH226176   6.375   6.533   2.642
 8740TIP3    H126177   6.434   6.602   2.612
 8740TIP3    H226178   6.419   6.495   2.718
 8741TIP3   OH226179   6.504   6.390   2.843
 8741TIP3    H126180   6.437   6.355   2.902
 8741TIP3    H226181   6.569   6.429   2.901
 8742TIP3   OH226182   6.555   6.791   3.274
 8742TIP3    H126183   6.607   6.722   3.232
 8742TIP3    H226184   6.561   6.865   3.213
 8743TIP3   OH226185   6.363   7.080   3.471
 8743TIP3    H126186   6.296   7.127   3.518
 8743TIP3    H226187   6.318   7.041   3.396
 8744TIP3   OH226188   6.417   6.308   2.490
 8744TIP3    H126189   6.346   6.308   2.426
 8744TIP3    H226190   6.401   6.385   2.544
 8745TIP3   OH226191   6.276   5.962   2.433
 8745TIP3    H126192   6.232   6.000   2.357
 8745TIP3    H226193   6.263   5.867   2.422
 8746TIP3   OH226194   6.301   6.254   2.983
 8746TIP3    H126195   6.307   6.159   2.970
 8746TIP3    H226196   6.284   6.264   3.076
 8747TIP3   OH226197   4.924   6.317   3.748
 8747TIP3    H126198   4.914   6.284   3.659
 8747TIP3    H226199   5.019   6.317   3.764
 8748TIP3   OH226200   6.587   6.673   3.847
 8748TIP3    H126201   6.653   6.606   3.826
 8748TIP3    H226202   6.603   6.743   3.784
 8749TIP3   OH226203   6.759   6.459   3.839
 8749TIP3    H126204   6.686   6.419   3.886
 8749TIP3    H226205   6.834   6.404   3.862
 8750TIP3   OH226206   6.232   5.692   2.408
 8750TIP3    H126207   6.298   5.663   2.471
 8750TIP3    H226208   6.151   5.648   2.435
 8751TIP3   OH226209   6.298   5.975   2.868
 8751TIP3    H126210   6.343   5.891   2.881
 8751TIP3    H226211   6.343   6.014   2.793
 8752TIP3   OH226212   6.454   6.137   3.388
 8752TIP3    H126213   6.534   6.157   3.340
 8752TIP3    H226214   6.467   6.177   3.474
 8753TIP3   OH226215   6.527   6.288   3.617
 8753TIP3    H126216   6.451   6.319   3.667
 8753TIP3    H226217   6.558   6.366   3.571
 8754TIP3   OH226218   5.142   5.998   4.400
 8754TIP3    H126219   5.237   5.997   4.416
 8754TIP3    H226220   5.111   5.916   4.439
 8755TIP3   OH226221   6.983   5.889   4.159
 8755TIP3    H126222   7.045   5.832   4.116
 8755TIP3    H226223   6.943   5.940   4.088
 8756TIP3   OH226224   6.412   5.724   2.920
 8756TIP3    H126225   6.457   5.707   3.003
 8756TIP3    H226226   6.349   5.652   2.912
 8757TIP3   OH226227   5.117   5.709   3.738
 8757TIP3    H126228   5.174   5.632   3.741
 8757TIP3    H226229   5.178   5.783   3.727
 8758TIP3   OH226230   4.903   5.968   3.811
 8758TIP3    H126231   4.953   5.963   3.729
 8758TIP3    H226232   4.922   6.056   3.845
 8759TIP3   OH226233   6.833   6.003   3.962
 8759TIP3    H126234   6.749   6.046   3.972
 8759TIP3    H226235   6.816   5.926   3.907
 8760TIP3   OH226236   6.465   5.641   2.558
 8760TIP3    H126237   6.510   5.580   2.500
 8760TIP3    H226238   6.521   5.718   2.560
 8761TIP3   OH226239   4.888   5.481   3.311
 8761TIP3    H126240   4.801   5.469   3.349
 8761TIP3    H226241   4.874   5.535   3.234
 8762TIP3   OH226242   6.051   7.192   2.831
 8762TIP3    H126243   6.108   7.190   2.753
 8762TIP3    H226244   6.085   7.265   2.883
 8763TIP3   OH226245   5.103   5.542   4.123
 8763TIP3    H126246   5.057   5.540   4.207
 8763TIP3    H226247   5.045   5.593   4.066
 8764TIP3   OH226248   5.142   6.991   4.201
 8764TIP3    H126249   5.049   6.973   4.192
 8764TIP3    H226250   5.160   6.979   4.295
 8765TIP3   OH226251   5.348   7.038   3.754
 8765TIP3    H126252   5.295   7.111   3.722
 8765TIP3    H226253   5.432   7.047   3.711
 8766TIP3   OH226254   5.756   7.270   3.889
 8766TIP3    H126255   5.793   7.265   3.977
 8766TIP3    H226256   5.819   7.323   3.839
 8767TIP3   OH226257   5.945   7.426   3.761
 8767TIP3    H126258   6.009   7.378   3.709
 8767TIP3    H226259   5.998   7.483   3.817
 8768TIP3   OH226260   6.744   5.764   3.848
 8768TIP3    H126261   6.659   5.765   3.803
 8768TIP3    H226262   6.775   5.674   3.840
 8769TIP3   OH226263   5.009   7.284   3.798
 8769TIP3    H126264   4.918   7.303   3.776
 8769TIP3    H226265   5.031   7.349   3.865
 8770TIP3   OH226266   5.239   7.267   3.647
 8770TIP3    H126267   5.156   7.275   3.694
 8770TIP3    H226268   5.219   7.294   3.557
 8771TIP3   OH226269   5.660   7.285   3.439
 8771TIP3    H126270   5.591   7.299   3.374
 8771TIP3    H226271   5.672   7.371   3.480
 8772TIP3   OH226272   5.925   7.222   3.492
 8772TIP3    H126273   5.834   7.242   3.472
 8772TIP3    H226274   5.976   7.288   3.445
 8773TIP3   OH226275   6.123   7.399   3.391
 8773TIP3    H126276   6.121   7.487   3.353
 8773TIP3    H226277   6.155   7.343   3.321
 8774TIP3   OH226278   4.920   7.063   3.519
 8774TIP3    H126279   4.944   7.037   3.608
 8774TIP3    H226280   4.992   7.031   3.464
 8775TIP3   OH226281   5.122   6.947   3.379
 8775TIP3    H126282   5.134   6.864   3.425
 8775TIP3    H226283   5.209   6.988   3.382
 8776TIP3   OH226284   5.390   7.033   3.400
 8776TIP3    H126285   5.410   6.940   3.386
 8776TIP3    H226286   5.443   7.058   3.476
 8777TIP3   OH226287   5.958   5.690   3.487
 8777TIP3    H126288   5.916   5.618   3.534
 8777TIP3    H226289   6.025   5.648   3.433
 8778TIP3   OH226290   6.459   5.588   3.380
 8778TIP3    H126291   6.497   5.637   3.307
 8778TIP3    H226292   6.366   5.612   3.379
 8779TIP3   OH226293   6.570   5.666   3.142
 8779TIP3    H126294   6.639   5.607   3.109
 8779TIP3    H226295   6.606   5.754   3.130
 8780TIP3   OH226296   5.196   5.385   3.475
 8780TIP3    H126297   5.105   5.355   3.480
 8780TIP3    H226298   5.248   5.305   3.473
 8781TIP3   OH226299   5.016   5.287   3.143
 8781TIP3    H126300   5.039   5.337   3.064
 8781TIP3    H226301   4.977   5.352   3.202
 8782TIP3   OH226302   5.670   5.422   3.378
 8782TIP3    H126303   5.715   5.469   3.308
 8782TIP3    H226304   5.709   5.456   3.458
 8783TIP3   OH226305   6.172   5.576   3.353
 8783TIP3    H126306   6.180   5.545   3.263
 8783TIP3    H226307   6.174   5.497   3.406
 8784TIP3   OH226308   6.225   5.514   2.922
 8784TIP3    H126309   6.145   5.561   2.943
 8784TIP3    H226310   6.213   5.427   2.959
 8785TIP3   OH226311   4.696   6.855   2.904
 8785TIP3    H126312   4.612   6.819   2.877
 8785TIP3    H226313   4.695   6.946   2.873
 8786TIP3   OH226314   5.120   5.419   2.902
 8786TIP3    H126315   5.165   5.359   2.843
 8786TIP3    H226316   5.189   5.475   2.937
 8787TIP3   OH226317   5.609   5.614   2.997
 8787TIP3    H126318   5.668   5.562   3.051
 8787TIP3    H226319   5.624   5.704   3.024
 8788TIP3   OH226320   5.481   7.012   2.498
 8788TIP3    H126321   5.567   7.037   2.465
 8788TIP3    H226322   5.454   6.940   2.442
 8789TIP3   OH226323   6.177   7.160   2.581
 8789TIP3    H126324   6.170   7.065   2.574
 8789TIP3    H226325   6.099   7.193   2.537
 8790TIP3   OH226326   5.412   5.678   4.374
 8790TIP3    H126327   5.376   5.605   4.426
 8790TIP3    H226328   5.505   5.679   4.397
 8791TIP3   OH226329   5.665   5.671   4.489
 8791TIP3    H126330   5.745   5.646   4.442
 8791TIP3    H226331   5.654   5.602   4.555
 8792TIP3   OH226332   4.791   6.856   2.552
 8792TIP3    H126333   4.793   6.864   2.648
 8792TIP3    H226334   4.872   6.811   2.530
 8793TIP3   OH226335   6.492   5.755   4.280
 8793TIP3    H126336   6.510   5.727   4.370
 8793TIP3    H226337   6.577   5.750   4.236
 8794TIP3   OH226338   6.408   7.290   3.784
 8794TIP3    H126339   6.336   7.261   3.729
 8794TIP3    H226340   6.399   7.385   3.788
 8795TIP3   OH226341   7.684   6.621   2.571
 8795TIP3    H126342   7.652   6.711   2.575
 8795TIP3    H226343   7.618   6.574   2.520
 8796TIP3   OH226344   7.687   6.656   2.937
 8796TIP3    H126345   7.720   6.640   3.026
 8796TIP3    H226346   7.631   6.582   2.918
 8797TIP3   OH226347   6.986   6.543   3.296
 8797TIP3    H126348   7.024   6.487   3.363
 8797TIP3    H226349   7.060   6.568   3.240
 8798TIP3   OH226350   7.893   6.983   2.639
 8798TIP3    H126351   7.892   6.909   2.699
 8798TIP3    H226352   7.858   7.056   2.691
 8799TIP3   OH226353   6.937   6.946   3.012
 8799TIP3    H126354   6.923   6.852   3.002
 8799TIP3    H226355   7.030   6.959   2.994
 8800TIP3   OH226356   6.659   6.163   2.774
 8800TIP3    H126357   6.623   6.248   2.796
 8800TIP3    H226358   6.587   6.116   2.731
 8801TIP3   OH226359   6.735   6.472   2.982
 8801TIP3    H126360   6.785   6.395   3.008
 8801TIP3    H226361   6.801   6.537   2.959
 8802TIP3   OH226362   7.479   6.892   2.957
 8802TIP3    H126363   7.511   6.832   2.889
 8802TIP3    H226364   7.557   6.937   2.989
 8803TIP3   OH226365   8.480   6.276   3.041
 8803TIP3    H126366   8.454   6.368   3.042
 8803TIP3    H226367   8.505   6.259   2.950
 8804TIP3   OH226368   7.907   6.383   2.992
 8804TIP3    H126369   7.936   6.294   3.013
 8804TIP3    H226370   7.863   6.374   2.907
 8805TIP3   OH226371   7.252   6.041   2.951
 8805TIP3    H126372   7.233   6.115   2.894
 8805TIP3    H226373   7.197   5.970   2.917
 8806TIP3   OH226374   7.939   6.147   2.596
 8806TIP3    H126375   8.007   6.133   2.661
 8806TIP3    H226376   7.984   6.184   2.520
 8807TIP3   OH226377   6.874   6.250   3.078
 8807TIP3    H126378   6.959   6.237   3.121
 8807TIP3    H226379   6.881   6.202   2.996
 8808TIP3   OH226380   7.297   6.452   2.893
 8808TIP3    H126381   7.392   6.435   2.898
 8808TIP3    H226382   7.261   6.372   2.854
 8809TIP3   OH226383   7.232   6.043   3.402
 8809TIP3    H126384   7.184   6.079   3.328
 8809TIP3    H226385   7.177   6.062   3.478
 8810TIP3   OH226386   7.332   6.814   3.177
 8810TIP3    H126387   7.275   6.884   3.207
 8810TIP3    H226388   7.374   6.850   3.099
 8811TIP3   OH226389   8.128   6.145   2.798
 8811TIP3    H126390   8.079   6.127   2.878
 8811TIP3    H226391   8.173   6.227   2.816
 8812TIP3   OH226392   7.122   6.150   3.172
 8812TIP3    H126393   7.176   6.226   3.193
 8812TIP3    H226394   7.167   6.108   3.099
 8813TIP3   OH226395   7.172   7.013   3.279
 8813TIP3    H126396   7.158   7.098   3.237
 8813TIP3    H226397   7.092   6.999   3.330
 8814TIP3   OH226398   6.552   6.716   2.525
 8814TIP3    H126399   6.523   6.738   2.437
 8814TIP3    H226400   6.575   6.800   2.564
 8815TIP3   OH226401   8.294   6.088   3.130
 8815TIP3    H126402   8.205   6.109   3.100
 8815TIP3    H226403   8.348   6.157   3.092
 8816TIP3   OH226404   7.574   5.740   3.124
 8816TIP3    H126405   7.564   5.648   3.147
 8816TIP3    H226406   7.498   5.783   3.165
 8817TIP3   OH226407   7.780   6.913   2.366
 8817TIP3    H126408   7.687   6.905   2.389
 8817TIP3    H226409   7.821   6.947   2.445
 8818TIP3   OH226410   7.516   6.496   2.383
 8818TIP3    H126411   7.441   6.554   2.371
 8818TIP3    H226412   7.568   6.507   2.304
 8819TIP3   OH226413   7.477   6.325   2.072
 8819TIP3    H126414   7.535   6.376   2.129
 8819TIP3    H226415   7.535   6.260   2.031
 8820TIP3   OH226416   8.429   6.753   2.998
 8820TIP3    H126417   8.342   6.789   2.982
 8820TIP3    H226418   8.482   6.786   2.925
 8821TIP3   OH226419   7.863   6.570   2.363
 8821TIP3    H126420   7.811   6.607   2.434
 8821TIP3    H226421   7.952   6.566   2.398
 8822TIP3   OH226422   8.092   6.632   3.269
 8822TIP3    H126423   8.087   6.712   3.321
 8822TIP3    H226424   8.008   6.628   3.222
 8823TIP3   OH226425   7.098   6.594   2.746
 8823TIP3    H126426   7.064   6.535   2.679
 8823TIP3    H226427   7.173   6.547   2.783
 8824TIP3   OH226428   7.197   6.952   2.916
 8824TIP3    H126429   7.172   6.989   2.831
 8824TIP3    H226430   7.293   6.950   2.914
 8825TIP3   OH226431   7.198   6.583   3.118
 8825TIP3    H126432   7.234   6.550   3.035
 8825TIP3    H226433   7.245   6.665   3.133
 8826TIP3   OH226434   7.788   7.167   2.858
 8826TIP3    H126435   7.733   7.246   2.858
 8826TIP3    H226436   7.755   7.116   2.933
 8827TIP3   OH226437   7.364   7.111   3.451
 8827TIP3    H126438   7.306   7.176   3.490
 8827TIP3    H226439   7.309   7.064   3.389
 8828TIP3   OH226440   7.701   6.456   2.181
 8828TIP3    H126441   7.756   6.508   2.239
 8828TIP3    H226442   7.734   6.478   2.093
 8829TIP3   OH226443   7.127   6.662   3.586
 8829TIP3    H126444   7.132   6.757   3.601
 8829TIP3    H226445   7.034   6.645   3.574
 8830TIP3   OH226446   7.158   7.280   3.521
 8830TIP3    H126447   7.136   7.288   3.428
 8830TIP3    H226448   7.075   7.258   3.563
 8831TIP3   OH226449   8.214   5.679   2.235
 8831TIP3    H126450   8.135   5.721   2.270
 8831TIP3    H226451   8.261   5.749   2.191
 8832TIP3   OH226452   6.974   6.429   2.549
 8832TIP3    H126453   6.900   6.480   2.513
 8832TIP3    H226454   6.937   6.343   2.566
 8833TIP3   OH226455   6.749   6.830   3.476
 8833TIP3    H126456   6.683   6.816   3.407
 8833TIP3    H226457   6.787   6.744   3.490
 8834TIP3   OH226458   6.633   7.010   3.110
 8834TIP3    H126459   6.724   7.000   3.080
 8834TIP3    H226460   6.634   7.090   3.163
 8835TIP3   OH226461   7.558   7.243   3.307
 8835TIP3    H126462   7.548   7.337   3.317
 8835TIP3    H226463   7.486   7.205   3.357
 8836TIP3   OH226464   7.230   7.480   2.209
 8836TIP3    H126465   7.250   7.409   2.148
 8836TIP3    H226466   7.286   7.464   2.285
 8837TIP3   OH226467   6.772   7.210   2.642
 8837TIP3    H126468   6.823   7.205   2.723
 8837TIP3    H226469   6.736   7.123   2.630
 8838TIP3   OH226470   8.357   6.609   3.464
 8838TIP3    H126471   8.291   6.635   3.399
 8838TIP3    H226472   8.382   6.521   3.438
 8839TIP3   OH226473   6.954   7.013   3.446
 8839TIP3    H126474   7.000   7.004   3.529
 8839TIP3    H226475   6.880   6.953   3.453
 8840TIP3   OH226476   7.340   5.830   3.255
 8840TIP3    H126477   7.256   5.798   3.221
 8840TIP3    H226478   7.318   5.911   3.300
 8841TIP3   OH226479   7.881   5.947   3.451
 8841TIP3    H126480   7.950   5.923   3.512
 8841TIP3    H226481   7.800   5.931   3.499
 8842TIP3   OH226482   8.110   6.370   3.362
 8842TIP3    H126483   8.066   6.366   3.447
 8842TIP3    H226484   8.094   6.460   3.331
 8843TIP3   OH226485   7.802   6.514   1.941
 8843TIP3    H126486   7.761   6.502   1.855
 8843TIP3    H226487   7.827   6.606   1.942
 8844TIP3   OH226488   7.489   5.869   2.220
 8844TIP3    H126489   7.454   5.875   2.309
 8844TIP3    H226490   7.452   5.787   2.186
 8845TIP3   OH226491   7.279   6.359   3.261
 8845TIP3    H126492   7.234   6.370   3.345
 8845TIP3    H226493   7.259   6.439   3.213
 8846TIP3   OH226494   7.162   6.236   2.783
 8846TIP3    H126495   7.071   6.216   2.806
 8846TIP3    H226496   7.171   6.204   2.693
 8847TIP3   OH226497   7.643   6.295   2.509
 8847TIP3    H126498   7.593   6.367   2.471
 8847TIP3    H226499   7.703   6.268   2.439
 8848TIP3   OH226500   7.830   6.583   3.585
 8848TIP3    H126501   7.804   6.517   3.648
 8848TIP3    H226502   7.922   6.599   3.603
 8849TIP3   OH226503   7.798   6.343   2.743
 8849TIP3    H126504   7.736   6.384   2.683
 8849TIP3    H226505   7.830   6.266   2.696
 8850TIP3   OH226506   7.114   6.376   3.483
 8850TIP3    H126507   7.131   6.442   3.550
 8850TIP3    H226508   7.096   6.296   3.532
 8851TIP3   OH226509   7.152   5.850   2.198
 8851TIP3    H126510   7.143   5.855   2.293
 8851TIP3    H226511   7.076   5.897   2.164
 8852TIP3   OH226512   6.699   5.890   3.070
 8852TIP3    H126513   6.771   5.930   3.120
 8852TIP3    H226514   6.735   5.879   2.982
 8853TIP3   OH226515   6.621   5.873   2.570
 8853TIP3    H126516   6.666   5.908   2.493
 8853TIP3    H226517   6.559   5.942   2.595
 8854TIP3   OH226518   7.835   6.579   3.166
 8854TIP3    H126519   7.863   6.513   3.102
 8854TIP3    H226520   7.792   6.529   3.235
 8855TIP3   OH226521   7.516   6.027   2.838
 8855TIP3    H126522   7.438   6.031   2.892
 8855TIP3    H226523   7.589   6.027   2.900
 8856TIP3   OH226524   6.921   6.113   2.846
 8856TIP3    H126525   6.833   6.118   2.810
 8856TIP3    H226526   6.951   6.025   2.825
 8857TIP3   OH226527   7.175   6.111   2.539
 8857TIP3    H126528   7.269   6.125   2.527
 8857TIP3    H226529   7.137   6.131   2.453
 8858TIP3   OH226530   7.979   6.116   3.036
 8858TIP3    H126531   7.960   6.134   3.128
 8858TIP3    H226532   7.906   6.060   3.008
 8859TIP3   OH226533   7.055   6.134   2.295
 8859TIP3    H126534   6.990   6.090   2.240
 8859TIP3    H226535   7.107   6.186   2.233
 8860TIP3   OH226536   7.108   6.924   3.685
 8860TIP3    H126537   7.189   6.953   3.727
 8860TIP3    H226538   7.039   6.942   3.749
 8861TIP3   OH226539   7.568   6.387   2.941
 8861TIP3    H126540   7.638   6.348   2.888
 8861TIP3    H226541   7.574   6.343   3.025
 8862TIP3   OH226542   7.068   5.867   2.826
 8862TIP3    H126543   7.039   5.790   2.875
 8862TIP3    H226544   7.093   5.832   2.740
 8863TIP3   OH226545   7.546   6.291   3.217
 8863TIP3    H126546   7.459   6.328   3.231
 8863TIP3    H226547   7.605   6.348   3.267
 8864TIP3   OH226548   7.292   6.635   2.302
 8864TIP3    H126549   7.199   6.614   2.310
 8864TIP3    H226550   7.307   6.705   2.366
 8865TIP3   OH226551   8.181   6.850   2.936
 8865TIP3    H126552   8.168   6.930   2.885
 8865TIP3    H226553   8.098   6.802   2.927
 8866TIP3   OH226554   7.742   5.969   2.217
 8866TIP3    H126555   7.648   5.951   2.216
 8866TIP3    H226556   7.749   6.063   2.229
 8867TIP3   OH226557   7.674   6.977   3.335
 8867TIP3    H126558   7.719   6.979   3.420
 8867TIP3    H226559   7.635   7.064   3.328
 8868TIP3   OH226560   7.803   6.226   2.291
 8868TIP3    H126561   7.896   6.241   2.309
 8868TIP3    H226562   7.775   6.305   2.245
 8869TIP3   OH226563   6.953   6.656   2.976
 8869TIP3    H126564   6.994   6.654   2.889
 8869TIP3    H226565   7.026   6.641   3.037
 8870TIP3   OH226566   7.431   6.822   2.117
 8870TIP3    H126567   7.386   6.904   2.136
 8870TIP3    H226568   7.430   6.774   2.200
 8871TIP3   OH226569   6.854   6.598   3.608
 8871TIP3    H126570   6.857   6.574   3.700
 8871TIP3    H226571   6.778   6.551   3.574
 8872TIP3   OH226572   7.594   6.732   3.627
 8872TIP3    H126573   7.528   6.678   3.583
 8872TIP3    H226574   7.677   6.697   3.595
 8873TIP3   OH226575   7.831   7.235   3.253
 8873TIP3    H126576   7.736   7.240   3.240
 8873TIP3    H226577   7.851   7.304   3.317
 8874TIP3   OH226578   7.933   6.753   2.851
 8874TIP3    H126579   7.843   6.731   2.874
 8874TIP3    H226580   7.963   6.680   2.797
 8875TIP3   OH226581   7.095   7.031   2.666
 8875TIP3    H126582   7.078   7.100   2.602
 8875TIP3    H226583   7.109   6.953   2.613
 8876TIP3   OH226584   6.653   6.298   2.345
 8876TIP3    H126585   6.698   6.379   2.366
 8876TIP3    H226586   6.573   6.301   2.399
 8877TIP3   OH226587   7.172   6.793   2.538
 8877TIP3    H126588   7.265   6.814   2.535
 8877TIP3    H226589   7.163   6.736   2.615
 8878TIP3   OH226590   7.365   7.306   3.100
 8878TIP3    H126591   7.393   7.376   3.041
 8878TIP3    H226592   7.446   7.276   3.141
 8879TIP3   OH226593   6.996   7.230   2.481
 8879TIP3    H126594   6.914   7.231   2.531
 8879TIP3    H226595   7.030   7.319   2.489
 8880TIP3   OH226596   7.725   6.976   3.061
 8880TIP3    H126597   7.712   6.974   3.156
 8880TIP3    H226598   7.800   6.920   3.046
 8881TIP3   OH226599   7.655   6.844   1.951
 8881TIP3    H126600   7.732   6.826   2.005
 8881TIP3    H226601   7.581   6.837   2.011
 8882TIP3   OH226602   7.062   6.121   3.609
 8882TIP3    H126603   6.966   6.128   3.613
 8882TIP3    H226604   7.084   6.067   3.685
 8883TIP3   OH226605   7.856   6.775   2.126
 8883TIP3    H126606   7.820   6.820   2.203
 8883TIP3    H226607   7.931   6.726   2.160
 8884TIP3   OH226608   6.784   7.230   3.256
 8884TIP3    H126609   6.849   7.172   3.295
 8884TIP3    H226610   6.808   7.317   3.289
 8885TIP3   OH226611   7.070   6.855   1.945
 8885TIP3    H126612   7.106   6.770   1.919
 8885TIP3    H226613   7.054   6.846   2.039
 8886TIP3   OH226614   7.018   6.855   2.221
 8886TIP3    H126615   7.085   6.829   2.285
 8886TIP3    H226616   7.015   6.950   2.227
 8887TIP3   OH226617   6.751   6.546   2.427
 8887TIP3    H126618   6.688   6.595   2.480
 8887TIP3    H226619   6.776   6.607   2.358
 8888TIP3   OH226620   7.923   6.173   3.295
 8888TIP3    H126621   7.995   6.223   3.332
 8888TIP3    H226622   7.910   6.100   3.356
 8889TIP3   OH226623   7.791   5.932   2.491
 8889TIP3    H126624   7.771   5.952   2.400
 8889TIP3    H226625   7.831   6.012   2.525
 8890TIP3   OH226626   7.280   7.048   2.153
 8890TIP3    H126627   7.195   7.064   2.194
 8890TIP3    H226628   7.310   7.134   2.125
 8891TIP3   OH226629   7.454   6.114   2.581
 8891TIP3    H126630   7.517   6.181   2.553
 8891TIP3    H226631   7.473   6.099   2.673
 8892TIP3   OH226632   7.748   6.415   3.369
 8892TIP3    H126633   7.773   6.468   3.445
 8892TIP3    H226634   7.803   6.337   3.375
 8893TIP3   OH226635   7.614   5.821   2.673
 8893TIP3    H126636   7.588   5.897   2.724
 8893TIP3    H226637   7.679   5.854   2.611
 8894TIP3   OH226638   7.023   7.126   2.230
 8894TIP3    H126639   6.997   7.197   2.172
 8894TIP3    H226640   7.013   7.163   2.318
 8895TIP3   OH226641   7.129   5.841   2.478
 8895TIP3    H126642   7.119   5.932   2.504
 8895TIP3    H226643   7.223   5.824   2.481
 8896TIP3   OH226644   8.381   6.357   3.345
 8896TIP3    H126645   8.286   6.346   3.350
 8896TIP3    H226646   8.404   6.335   3.255
 8897TIP3   OH226647   8.024   6.512   2.733
 8897TIP3    H126648   7.940   6.467   2.736
 8897TIP3    H226649   8.079   6.465   2.796
 8898TIP3   OH226650   6.769   6.733   2.217
 8898TIP3    H126651   6.841   6.795   2.230
 8898TIP3    H226652   6.802   6.672   2.151
 8899TIP3   OH226653   6.681   6.020   2.347
 8899TIP3    H126654   6.694   6.115   2.354
 8899TIP3    H226655   6.619   6.010   2.275
 8900TIP3   OH226656   7.079   5.744   3.212
 8900TIP3    H126657   7.050   5.713   3.126
 8900TIP3    H226658   7.067   5.668   3.270
 8901TIP3   OH226659   6.591   6.983   2.608
 8901TIP3    H126660   6.558   7.029   2.685
 8901TIP3    H226661   6.562   7.037   2.534
 8902TIP3   OH226662   6.792   7.528   3.668
 8902TIP3    H126663   6.874   7.529   3.717
 8902TIP3    H226664   6.774   7.435   3.653
 8903TIP3   OH226665   7.255   7.451   3.710
 8903TIP3    H126666   7.347   7.424   3.718
 8903TIP3    H226667   7.221   7.397   3.638
 8904TIP3   OH226668   7.234   7.060   1.849
 8904TIP3    H126669   7.182   6.993   1.892
 8904TIP3    H226670   7.320   7.020   1.838
 8905TIP3   OH226671   7.916   7.375   3.481
 8905TIP3    H126672   7.895   7.304   3.542
 8905TIP3    H226673   8.009   7.362   3.461
 8906TIP3   OH226674   6.898   6.917   3.872
 8906TIP3    H126675   6.916   6.823   3.876
 8906TIP3    H226676   6.815   6.924   3.826
 8907TIP3   OH226677   6.889   6.541   2.066
 8907TIP3    H126678   6.938   6.515   2.145
 8907TIP3    H226679   6.957   6.556   2.000
 8908TIP3   OH226680   7.526   7.007   3.645
 8908TIP3    H126681   7.477   7.029   3.565
 8908TIP3    H226682   7.558   6.918   3.630
 8909TIP3   OH226683   7.346   6.738   1.868
 8909TIP3    H126684   7.365   6.758   1.960
 8909TIP3    H226685   7.365   6.644   1.860
 8910TIP3   OH226686   8.000   7.022   3.245
 8910TIP3    H126687   8.050   7.050   3.169
 8910TIP3    H226688   7.930   7.088   3.252
 8911TIP3   OH226689   7.023   6.659   3.871
 8911TIP3    H126690   7.090   6.664   3.803
 8911TIP3    H226691   7.065   6.691   3.950
 8912TIP3   OH226692   7.053   6.474   2.278
 8912TIP3    H126693   7.047   6.447   2.369
 8912TIP3    H226694   7.114   6.412   2.238
 8913TIP3   OH226695   7.379   6.549   3.524
 8913TIP3    H126696   7.297   6.597   3.535
 8913TIP3    H226697   7.415   6.584   3.442
 8914TIP3   OH226698   7.204   6.289   2.125
 8914TIP3    H126699   7.176   6.293   2.034
 8914TIP3    H226700   7.299   6.302   2.122
 8915TIP3   OH226701   7.878   6.919   3.625
 8915TIP3    H126702   7.948   6.888   3.568
 8915TIP3    H226703   7.881   6.860   3.700
 8916TIP3   OH226704   7.488   6.327   3.638
 8916TIP3    H126705   7.491   6.254   3.576
 8916TIP3    H226706   7.453   6.400   3.588
 8917TIP3   OH226707   7.494   6.121   3.441
 8917TIP3    H126708   7.522   6.163   3.359
 8917TIP3    H226709   7.402   6.098   3.426
 8918TIP3   OH226710   7.512   6.667   3.319
 8918TIP3    H126711   7.597   6.708   3.302
 8918TIP3    H226712   7.450   6.720   3.270
 8919TIP3   OH226713   8.099   6.611   3.682
 8919TIP3    H126714   8.147   6.528   3.687
 8919TIP3    H226715   8.164   6.673   3.650
 8920TIP3   OH226716   8.097   6.865   3.442
 8920TIP3    H126717   8.047   6.922   3.384
 8920TIP3    H226718   8.188   6.872   3.411
 8921TIP3   OH226719   7.370   6.414   3.880
 8921TIP3    H126720   7.299   6.351   3.895
 8921TIP3    H226721   7.398   6.397   3.790
 8922TIP3   OH226722   7.616   5.889   3.534
 8922TIP3    H126723   7.576   5.970   3.502
 8922TIP3    H226724   7.550   5.822   3.518
 8923TIP3   OH226725   7.745   6.370   3.737
 8923TIP3    H126726   7.733   6.359   3.831
 8923TIP3    H226727   7.659   6.351   3.700
 8924TIP3   OH226728   7.980   6.318   3.594
 8924TIP3    H126729   7.902   6.324   3.650
 8924TIP3    H226730   8.052   6.303   3.654
 8925TIP3   OH226731   8.206   6.293   3.753
 8925TIP3    H126732   8.215   6.198   3.760
 8925TIP3    H226733   8.206   6.324   3.843
 8926TIP3   OH226734   7.200   6.196   3.943
 8926TIP3    H126735   7.207   6.109   3.905
 8926TIP3    H226736   7.241   6.188   4.030
 8927TIP3   OH226737   7.686   5.872   3.798
 8927TIP3    H126738   7.755   5.807   3.792
 8927TIP3    H226739   7.654   5.883   3.708
 8928TIP3   OH226740   7.775   6.088   3.945
 8928TIP3    H126741   7.747   6.018   3.886
 8928TIP3    H226742   7.704   6.152   3.942
 8929TIP3   OH226743   7.005   7.324   2.036
 8929TIP3    H126744   7.099   7.310   2.031
 8929TIP3    H226745   6.988   7.394   1.973
 8930TIP3   OH226746   6.497   6.715   2.232
 8930TIP3    H126747   6.591   6.730   2.230
 8930TIP3    H226748   6.486   6.627   2.197
 8931TIP3   OH226749   6.401   7.302   2.668
 8931TIP3    H126750   6.332   7.250   2.626
 8931TIP3    H226751   6.441   7.242   2.731
 8932TIP3   OH226752   6.535   7.140   2.853
 8932TIP3    H126753   6.527   7.076   2.924
 8932TIP3    H226754   6.589   7.210   2.890
 8933TIP3   OH226755   8.074   6.232   1.942
 8933TIP3    H126756   8.027   6.267   1.867
 8933TIP3    H226757   8.057   6.138   1.940
 8934TIP3   OH226758   8.109   6.506   2.471
 8934TIP3    H126759   8.107   6.411   2.458
 8934TIP3    H226760   8.086   6.518   2.563
 8935TIP3   OH226761   6.722   6.567   3.239
 8935TIP3    H126762   6.713   6.539   3.148
 8935TIP3    H226763   6.816   6.570   3.254
 8936TIP3   OH226764   8.339   6.885   3.322
 8936TIP3    H126765   8.422   6.844   3.345
 8936TIP3    H226766   8.357   6.934   3.242
 8937TIP3   OH226767   8.009   5.966   1.926
 8937TIP3    H126768   8.069   5.903   1.964
 8937TIP3    H226769   7.924   5.922   1.926
 8938TIP3   OH226770   8.081   6.235   2.366
 8938TIP3    H126771   8.122   6.149   2.379
 8938TIP3    H226772   8.116   6.266   2.283
 8939TIP3   OH226773   8.247   6.386   2.858
 8939TIP3    H126774   8.302   6.436   2.798
 8939TIP3    H226775   8.258   6.430   2.942
 8940TIP3   OH226776   8.308   6.523   3.089
 8940TIP3    H126777   8.235   6.551   3.145
 8940TIP3    H226778   8.355   6.603   3.069
 8941TIP3   OH226779   6.935   6.251   3.886
 8941TIP3    H126780   7.029   6.250   3.901
 8941TIP3    H226781   6.903   6.169   3.925
 8942TIP3   OH226782   8.183   5.988   2.421
 8942TIP3    H126783   8.231   5.961   2.499
 8942TIP3    H226784   8.121   5.917   2.405
 8943TIP3   OH226785   6.910   5.965   3.239
 8943TIP3    H126786   6.967   5.888   3.239
 8943TIP3    H226787   6.969   6.038   3.220
 8944TIP3   OH226788   6.696   6.234   3.296
 8944TIP3    H126789   6.748   6.222   3.216
 8944TIP3    H226790   6.713   6.324   3.322
 8945TIP3   OH226791   6.683   5.738   2.799
 8945TIP3    H126792   6.596   5.727   2.836
 8945TIP3    H226793   6.670   5.793   2.722
 8946TIP3   OH226794   6.907   5.795   3.616
 8946TIP3    H126795   6.856   5.795   3.697
 8946TIP3    H226796   6.852   5.843   3.554
 8947TIP3   OH226797   6.940   7.236   3.686
 8947TIP3    H126798   6.845   7.225   3.683
 8947TIP3    H226799   6.958   7.266   3.775
 8948TIP3   OH226800   7.136   7.289   3.244
 8948TIP3    H126801   7.086   7.362   3.207
 8948TIP3    H226802   7.220   7.292   3.199
 8949TIP3   OH226803   7.541   7.512   3.349
 8949TIP3    H126804   7.599   7.536   3.421
 8949TIP3    H226805   7.552   7.582   3.285
 8950TIP3   OH226806   8.451   5.982   3.404
 8950TIP3    H126807   8.396   6.056   3.379
 8950TIP3    H226808   8.518   5.977   3.337
 8951TIP3   OH226809   6.794   7.525   3.290
 8951TIP3    H126810   6.705   7.553   3.268
 8951TIP3    H226811   6.826   7.593   3.350
 8952TIP3   OH226812   7.021   7.510   3.134
 8952TIP3    H126813   6.936   7.520   3.176
 8952TIP3    H226814   7.007   7.535   3.043
 8953TIP3   OH226815   6.707   7.322   3.004
 8953TIP3    H126816   6.731   7.300   3.094
 8953TIP3    H226817   6.779   7.288   2.951
 8954TIP3   OH226818   6.908   7.193   2.880
 8954TIP3    H126819   6.918   7.106   2.917
 8954TIP3    H226820   6.997   7.229   2.879
 8955TIP3   OH226821   7.166   7.282   2.894
 8955TIP3    H126822   7.224   7.284   2.817
 8955TIP3    H226823   7.225   7.298   2.968
 8956TIP3   OH226824   7.754   5.946   2.973
 8956TIP3    H126825   7.712   5.874   3.020
 8956TIP3    H226826   7.819   5.903   2.917
 8957TIP3   OH226827   8.237   5.869   2.879
 8957TIP3    H126828   8.256   5.918   2.799
 8957TIP3    H226829   8.141   5.869   2.885
 8958TIP3   OH226830   8.348   5.928   2.634
 8958TIP3    H126831   8.420   5.870   2.660
 8958TIP3    H226832   8.392   6.006   2.600
 8959TIP3   OH226833   6.991   5.641   2.971
 8959TIP3    H126834   6.901   5.610   2.976
 8959TIP3    H226835   7.043   5.561   2.962
 8960TIP3   OH226836   6.808   5.544   2.627
 8960TIP3    H126837   6.834   5.594   2.550
 8960TIP3    H226838   6.772   5.609   2.687
 8961TIP3   OH226839   7.463   5.676   2.865
 8961TIP3    H126840   7.507   5.726   2.795
 8961TIP3    H226841   7.500   5.712   2.946
 8962TIP3   OH226842   7.964   5.824   2.838
 8962TIP3    H126843   7.969   5.786   2.751
 8962TIP3    H226844   7.960   5.748   2.897
 8963TIP3   OH226845   8.008   5.779   2.402
 8963TIP3    H126846   7.927   5.826   2.422
 8963TIP3    H226847   7.994   5.691   2.435
 8964TIP3   OH226848   6.500   7.124   2.386
 8964TIP3    H126849   6.420   7.086   2.348
 8964TIP3    H226850   6.493   7.217   2.367
 8965TIP3   OH226851   6.915   5.677   2.390
 8965TIP3    H126852   6.960   5.617   2.331
 8965TIP3    H226853   6.984   5.733   2.425
 8966TIP3   OH226854   7.405   5.865   2.484
 8966TIP3    H126855   7.465   5.815   2.539
 8966TIP3    H226856   7.418   5.956   2.511
 8967TIP3   OH226857   7.278   7.289   1.999
 8967TIP3    H126858   7.324   7.348   1.939
 8967TIP3    H226859   7.261   7.210   1.946
 8968TIP3   OH226860   7.211   5.922   3.857
 8968TIP3    H126861   7.177   5.855   3.915
 8968TIP3    H226862   7.304   5.930   3.880
 8969TIP3   OH226863   7.462   5.928   3.974
 8969TIP3    H126864   7.540   5.908   3.923
 8969TIP3    H226865   7.457   5.857   4.039
 8970TIP3   OH226866   6.580   7.112   2.061
 8970TIP3    H126867   6.596   7.135   2.153
 8970TIP3    H226868   6.661   7.072   2.031
 8971TIP3   OH226869   8.255   6.023   3.782
 8971TIP3    H126870   8.271   6.004   3.875
 8971TIP3    H226871   8.343   6.027   3.744
 8972TIP3   OH226872   0.978   6.998   4.657
 8972TIP3    H126873   0.990   7.082   4.702
 8972TIP3    H226874   1.008   7.015   4.568
 8973TIP3   OH226875   0.390   6.879   4.278
 8973TIP3    H126876   0.444   6.914   4.350
 8973TIP3    H226877   0.422   6.926   4.201
 8974TIP3   OH226878   1.016   7.203   4.849
 8974TIP3    H126879   0.945   7.262   4.826
 8974TIP3    H226880   1.069   7.252   4.912
 8975TIP3   OH226881   0.563   6.961   4.481
 8975TIP3    H126882   0.621   6.887   4.467
 8975TIP3    H226883   0.621   7.033   4.505
 8976TIP3   OH226884   0.763   6.901   4.814
 8976TIP3    H126885   0.688   6.932   4.764
 8976TIP3    H226886   0.839   6.925   4.760
 8977TIP3   OH226887   0.705   7.946   4.726
 8977TIP3    H126888   0.628   7.924   4.778
 8977TIP3    H226889   0.706   8.041   4.724
 8978TIP3   OH226890   0.876   7.517   4.638
 8978TIP3    H126891   0.795   7.568   4.649
 8978TIP3    H226892   0.925   7.564   4.571
 8979TIP3   OH226893   0.680   6.483   3.909
 8979TIP3    H126894   0.601   6.506   3.958
 8979TIP3    H226895   0.699   6.560   3.856
 8980TIP3   OH226896   0.827   7.358   5.163
 8980TIP3    H126897   0.749   7.409   5.140
 8980TIP3    H226898   0.810   7.271   5.125
 8981TIP3   OH226899   0.639   7.654   4.639
 8981TIP3    H126900   0.685   7.730   4.601
 8981TIP3    H226901   0.563   7.642   4.582
 8982TIP3   OH226902   0.688   7.102   3.812
 8982TIP3    H126903   0.633   7.057   3.748
 8982TIP3    H226904   0.690   7.193   3.782
 8983TIP3   OH226905   0.914   7.864   4.897
 8983TIP3    H126906   0.839   7.918   4.871
 8983TIP3    H226907   0.947   7.829   4.815
 8984TIP3   OH226908   0.814   7.111   5.034
 8984TIP3    H126909   0.761   7.041   4.997
 8984TIP3    H226910   0.879   7.130   4.967
 8985TIP3   OH226911   0.483   7.262   4.441
 8985TIP3    H126912   0.431   7.183   4.453
 8985TIP3    H226913   0.566   7.243   4.485
 8986TIP3   OH226914   0.505   7.361   3.467
 8986TIP3    H126915   0.450   7.306   3.411
 8986TIP3    H226916   0.572   7.396   3.408
 8987TIP3   OH226917   0.573   7.557   3.843
 8987TIP3    H126918   0.632   7.622   3.804
 8987TIP3    H226919   0.626   7.515   3.911
 8988TIP3   OH226920   0.742   7.422   4.017
 8988TIP3    H126921   0.683   7.377   4.079
 8988TIP3    H226922   0.807   7.464   4.073
 8989TIP3   OH226923   0.795   7.807   4.464
 8989TIP3    H126924   0.840   7.730   4.428
 8989TIP3    H226925   0.760   7.852   4.387
 8990TIP3   OH226926   0.677   7.344   3.680
 8990TIP3    H126927   0.608   7.345   3.614
 8990TIP3    H226928   0.656   7.416   3.739
 8991TIP3   OH226929   0.549   6.998   3.601
 8991TIP3    H126930   0.491   7.044   3.541
 8991TIP3    H226931   0.530   6.905   3.586
 8992TIP3   OH226932   0.583   7.276   4.182
 8992TIP3    H126933   0.565   7.186   4.155
 8992TIP3    H226934   0.539   7.285   4.266
 8993TIP3   OH226935   0.809   7.658   5.044
 8993TIP3    H126936   0.885   7.604   5.023
 8993TIP3    H226937   0.815   7.732   4.984
 8994TIP3   OH226938   1.026   7.494   5.033
 8994TIP3    H126939   0.961   7.447   5.084
 8994TIP3    H226940   1.107   7.443   5.044
 8995TIP3   OH226941   0.511   6.723   3.582
 8995TIP3    H126942   0.578   6.712   3.649
 8995TIP3    H226943   0.430   6.696   3.625
 8996TIP3   OH226944   0.559   7.014   4.073
 8996TIP3    H126945   0.604   6.930   4.077
 8996TIP3    H226946   0.586   7.052   3.989
 8997TIP3   OH226947   0.715   7.173   4.571
 8997TIP3    H126948   0.795   7.193   4.521
 8997TIP3    H226949   0.727   7.218   4.654
 8998TIP3   OH226950   0.772   7.330   4.797
 8998TIP3    H126951   0.695   7.375   4.831
 8998TIP3    H226952   0.815   7.394   4.741
 8999TIP3   OH226953   1.239   6.923   5.341
 8999TIP3    H126954   1.298   6.864   5.293
 8999TIP3    H226955   1.185   6.962   5.273
 9000TIP3   OH226956   0.672   6.759   4.091
 9000TIP3    H126957   0.711   6.742   4.177
 9000TIP3    H226958   0.599   6.697   4.085
 9001TIP3   OH226959   1.072   7.040   5.156
 9001TIP3    H126960   0.987   7.074   5.183
 9001TIP3    H226961   1.051   6.965   5.100
 9002TIP3   OH226962   0.736   6.687   3.736
 9002TIP3    H126963   0.782   6.627   3.676
 9002TIP3    H226964   0.793   6.764   3.739
 9003TIP3   OH226965   1.000   6.809   5.016
 9003TIP3    H126966   0.910   6.794   4.988
 9003TIP3    H226967   1.038   6.722   5.020
 9004TIP3   OH226968   0.737   6.599   4.539
 9004TIP3    H126969   0.778   6.649   4.469
 9004TIP3    H226970   0.644   6.622   4.534
 9005TIP3   OH226971   0.830   6.715   4.315
 9005TIP3    H126972   0.897   6.656   4.280
 9005TIP3    H226973   0.866   6.803   4.300
 9006TIP3   OH226974   0.474   6.650   4.506
 9006TIP3    H126975   0.403   6.709   4.481
 9006TIP3    H226976   0.437   6.597   4.578
 9007TIP3   OH226977   0.472   6.559   4.072
 9007TIP3    H126978   0.384   6.589   4.049
 9007TIP3    H226979   0.459   6.477   4.118
 9008TIP3   OH226980   1.944   7.620   3.776
 9008TIP3    H126981   1.942   7.713   3.755
 9008TIP3    H226982   1.877   7.581   3.720
 9009TIP3   OH226983   1.928   7.708   4.118
 9009TIP3    H126984   1.971   7.686   4.201
 9009TIP3    H226985   1.889   7.626   4.088
 9010TIP3   OH226986   1.234   7.591   4.484
 9010TIP3    H126987   1.270   7.524   4.543
 9010TIP3    H226988   1.297   7.662   4.487
 9011TIP3   OH226989   2.209   7.994   3.824
 9011TIP3    H126990   2.183   7.933   3.893
 9011TIP3    H226991   2.233   8.074   3.871
 9012TIP3   OH226992   1.305   7.956   4.265
 9012TIP3    H126993   1.228   7.899   4.263
 9012TIP3    H226994   1.357   7.929   4.189
 9013TIP3   OH226995   0.911   7.204   3.952
 9013TIP3    H126996   0.871   7.288   3.974
 9013TIP3    H226997   0.840   7.153   3.914
 9014TIP3   OH226998   0.968   7.501   4.154
 9014TIP3    H126999   1.029   7.432   4.178
 9014TIP3    H227000   1.019   7.559   4.097
 9015TIP3   OH227001   1.756   7.925   4.183
 9015TIP3    H127002   1.789   7.849   4.136
 9015TIP3    H227003   1.834   7.967   4.218
 9016TIP3   OH227004   2.765   7.258   4.144
 9016TIP3    H127005   2.786   7.342   4.185
 9016TIP3    H227006   2.789   7.270   4.052
 9017TIP3   OH227007   2.155   7.428   4.173
 9017TIP3    H127008   2.191   7.343   4.198
 9017TIP3    H227009   2.120   7.415   4.085
 9018TIP3   OH227010   1.502   7.084   4.130
 9018TIP3    H127011   1.483   7.158   4.072
 9018TIP3    H227012   1.448   7.013   4.096
 9019TIP3   OH227013   2.193   7.187   3.759
 9019TIP3    H127014   2.254   7.181   3.832
 9019TIP3    H227015   2.246   7.220   3.686
 9020TIP3   OH227016   1.125   7.295   4.257
 9020TIP3    H127017   1.210   7.281   4.299
 9020TIP3    H227018   1.131   7.246   4.175
 9021TIP3   OH227019   1.570   7.486   4.051
 9021TIP3    H127020   1.664   7.468   4.064
 9021TIP3    H227021   1.533   7.403   4.023
 9022TIP3   OH227022   2.832   7.477   4.311
 9022TIP3    H127023   2.741   7.508   4.308
 9022TIP3    H227024   2.865   7.509   4.395
 9023TIP3   OH227025   1.482   7.084   4.579
 9023TIP3    H127026   1.433   7.121   4.506
 9023TIP3    H227027   1.428   7.101   4.656
 9024TIP3   OH227028   1.924   7.826   3.582
 9024TIP3    H127029   1.864   7.826   3.508
 9024TIP3    H227030   1.922   7.916   3.615
 9025TIP3   OH227031   1.589   7.830   4.369
 9025TIP3    H127032   1.540   7.904   4.406
 9025TIP3    H227033   1.641   7.868   4.298
 9026TIP3   OH227034   2.362   7.203   3.974
 9026TIP3    H127035   2.322   7.181   4.058
 9026TIP3    H227036   2.420   7.277   3.994
 9027TIP3   OH227037   1.371   7.192   4.350
 9027TIP3    H127038   1.426   7.266   4.374
 9027TIP3    H227039   1.417   7.150   4.277
 9028TIP3   OH227040   4.307   0.053   4.442
 9028TIP3    H127041   4.231   0.020   4.393
 9028TIP3    H227042   4.270   0.103   4.514
 9029TIP3   OH227043   0.829   7.628   3.728
 9029TIP3    H127044   0.776   7.635   3.649
 9029TIP3    H227045   0.861   7.717   3.744
 9030TIP3   OH227046   2.563   7.152   4.313
 9030TIP3    H127047   2.477   7.175   4.278
 9030TIP3    H227048   2.624   7.179   4.244
 9031TIP3   OH227049   1.826   6.782   4.301
 9031TIP3    H127050   1.817   6.690   4.326
 9031TIP3    H227051   1.751   6.825   4.342
 9032TIP3   OH227052   2.246   7.952   3.539
 9032TIP3    H127053   2.183   7.983   3.474
 9032TIP3    H227054   2.202   7.964   3.623
 9033TIP3   OH227055   5.397   0.130   4.214
 9033TIP3    H127056   5.329   0.067   4.189
 9033TIP3    H227057   5.390   0.199   4.147
 9034TIP3   OH227058   1.779   7.532   3.572
 9034TIP3    H127059   1.695   7.576   3.560
 9034TIP3    H227060   1.817   7.530   3.484
 9035TIP3   OH227061   1.727   7.332   3.267
 9035TIP3    H127062   1.789   7.392   3.308
 9035TIP3    H227063   1.781   7.272   3.215
 9036TIP3   OH227064   2.674   7.805   4.142
 9036TIP3    H127065   2.588   7.845   4.149
 9036TIP3    H227066   2.701   7.822   4.052
 9037TIP3   OH227067   2.115   7.610   3.525
 9037TIP3    H127068   2.061   7.659   3.587
 9037TIP3    H227069   2.198   7.595   3.571
 9038TIP3   OH227070   2.346   7.660   4.433
 9038TIP3    H127071   2.350   7.738   4.489
 9038TIP3    H227072   2.260   7.666   4.390
 9039TIP3   OH227073   1.355   7.600   3.922
 9039TIP3    H127074   1.316   7.540   3.859
 9039TIP3    H227075   1.428   7.551   3.959
 9040TIP3   OH227076   1.465   7.919   4.053
 9040TIP3    H127077   1.434   7.977   3.983
 9040TIP3    H227078   1.554   7.896   4.027
 9041TIP3   OH227079   1.471   7.601   4.281
 9041TIP3    H127080   1.513   7.575   4.199
 9041TIP3    H227081   1.513   7.683   4.305
 9042TIP3   OH227082   4.512   0.031   4.630
 9042TIP3    H127083   4.557   0.114   4.615
 9042TIP3    H227084   4.441   0.030   4.566
 9043TIP3   OH227085   1.943   7.489   3.352
 9043TIP3    H127086   2.005   7.543   3.401
 9043TIP3    H227087   1.975   7.491   3.262
 9044TIP3   OH227088   1.393   7.695   4.751
 9044TIP3    H127089   1.389   7.789   4.763
 9044TIP3    H227090   1.303   7.665   4.761
 9045TIP3   OH227091   2.462   6.739   3.401
 9045TIP3    H127092   2.385   6.759   3.454
 9045TIP3    H227093   2.475   6.816   3.346
 9046TIP3   OH227094   1.235   7.435   3.736
 9046TIP3    H127095   1.171   7.489   3.689
 9046TIP3    H227096   1.186   7.358   3.763
 9047TIP3   OH227097   0.998   7.781   4.658
 9047TIP3    H127098   0.929   7.817   4.602
 9047TIP3    H227099   1.079   7.820   4.625
 9048TIP3   OH227100   2.599   7.629   4.623
 9048TIP3    H127101   2.511   7.642   4.588
 9048TIP3    H227102   2.615   7.535   4.615
 9049TIP3   OH227103   1.225   7.920   4.608
 9049TIP3    H127104   1.237   7.963   4.693
 9049TIP3    H227105   1.208   7.991   4.547
 9050TIP3   OH227106   1.590   6.873   4.430
 9050TIP3    H127107   1.506   6.842   4.397
 9050TIP3    H227108   1.569   6.954   4.477
 9051TIP3   OH227109   2.132   6.988   4.628
 9051TIP3    H127110   2.202   6.965   4.689
 9051TIP3    H227111   2.051   6.972   4.677
 9052TIP3   OH227112   2.358   7.409   4.546
 9052TIP3    H127113   2.312   7.408   4.630
 9052TIP3    H227114   2.337   7.495   4.509
 9053TIP3   OH227115   2.020   7.465   3.092
 9053TIP3    H127116   1.991   7.436   3.005
 9053TIP3    H227117   2.045   7.556   3.080
 9054TIP3   OH227118   1.737   6.915   3.397
 9054TIP3    H127119   1.703   6.921   3.487
 9054TIP3    H227120   1.700   6.833   3.363
 9055TIP3   OH227121   1.531   7.394   4.446
 9055TIP3    H127122   1.484   7.406   4.529
 9055TIP3    H227123   1.507   7.470   4.394
 9056TIP3   OH227124   1.413   7.279   3.962
 9056TIP3    H127125   1.323   7.260   3.988
 9056TIP3    H227126   1.420   7.245   3.873
 9057TIP3   OH227127   1.902   7.317   3.684
 9057TIP3    H127128   1.857   7.393   3.646
 9057TIP3    H227129   1.967   7.293   3.618
 9058TIP3   OH227130   2.095   7.609   4.753
 9058TIP3    H127131   2.066   7.546   4.818
 9058TIP3    H227132   2.183   7.634   4.781
 9059TIP3   OH227133   2.061   7.390   3.920
 9059TIP3    H127134   2.007   7.447   3.865
 9059TIP3    H227135   2.079   7.314   3.865
 9060TIP3   OH227136   1.360   7.406   4.661
 9060TIP3    H127137   1.341   7.473   4.727
 9060TIP3    H227138   1.344   7.323   4.706
 9061TIP3   OH227139   1.399   6.897   3.370
 9061TIP3    H127140   1.391   6.901   3.465
 9061TIP3    H227141   1.323   6.946   3.337
 9062TIP3   OH227142   0.954   6.943   4.251
 9062TIP3    H127143   1.023   6.982   4.304
 9062TIP3    H227144   0.985   6.951   4.161
 9063TIP3   OH227145   0.887   6.918   3.751
 9063TIP3    H127146   0.928   6.954   3.672
 9063TIP3    H227147   0.822   6.983   3.775
 9064TIP3   OH227148   2.081   7.628   4.338
 9064TIP3    H127149   2.112   7.561   4.278
 9064TIP3    H227150   2.042   7.579   4.411
 9065TIP3   OH227151   1.767   7.073   4.016
 9065TIP3    H127152   1.690   7.075   4.072
 9065TIP3    H227153   1.841   7.068   4.076
 9066TIP3   OH227154   1.172   7.159   4.023
 9066TIP3    H127155   1.083   7.163   3.987
 9066TIP3    H227156   1.201   7.070   4.002
 9067TIP3   OH227157   1.421   7.151   3.720
 9067TIP3    H127158   1.514   7.165   3.707
 9067TIP3    H227159   1.381   7.172   3.636
 9068TIP3   OH227160   2.228   7.163   4.220
 9068TIP3    H127161   2.208   7.179   4.312
 9068TIP3    H227162   2.159   7.104   4.190
 9069TIP3   OH227163   1.290   7.172   3.481
 9069TIP3    H127164   1.223   7.129   3.428
 9069TIP3    H227165   1.350   7.211   3.417
 9070TIP3   OH227166   1.370   7.952   4.880
 9070TIP3    H127167   1.445   7.950   4.939
 9070TIP3    H227168   1.294   7.960   4.938
 9071TIP3   OH227169   1.832   7.432   4.119
 9071TIP3    H127170   1.901   7.384   4.073
 9071TIP3    H227171   1.830   7.392   4.206
 9072TIP3   OH227172   1.318   6.911   4.004
 9072TIP3    H127173   1.288   6.835   4.054
 9072TIP3    H227174   1.347   6.875   3.921
 9073TIP3   OH227175   1.797   7.341   4.388
 9073TIP3    H127176   1.710   7.372   4.410
 9073TIP3    H227177   1.856   7.395   4.441
 9074TIP3   OH227178   1.542   7.665   3.545
 9074TIP3    H127179   1.465   7.612   3.530
 9074TIP3    H227180   1.529   7.702   3.633
 9075TIP3   OH227181   2.417   7.913   4.127
 9075TIP3    H127182   2.449   7.957   4.048
 9075TIP3    H227183   2.334   7.873   4.100
 9076TIP3   OH227184   1.993   7.010   3.392
 9076TIP3    H127185   1.898   6.995   3.392
 9076TIP3    H227186   2.001   7.104   3.407
 9077TIP3   OH227187   1.955   7.957   4.522
 9077TIP3    H127188   1.993   7.953   4.610
 9077TIP3    H227189   1.868   7.994   4.536
 9078TIP3   OH227190   2.067   7.265   3.467
 9078TIP3    H127191   2.161   7.277   3.479
 9078TIP3    H227192   2.038   7.345   3.422
 9079TIP3   OH227193   1.226   7.643   4.158
 9079TIP3    H127194   1.262   7.638   4.070
 9079TIP3    H227195   1.298   7.618   4.216
 9080TIP3   OH227196   1.601   7.855   3.360
 9080TIP3    H127197   1.639   7.928   3.410
 9080TIP3    H227198   1.585   7.788   3.426
 9081TIP3   OH227199   1.150   7.578   4.794
 9081TIP3    H127200   1.112   7.565   4.881
 9081TIP3    H227201   1.078   7.612   4.741
 9082TIP3   OH227202   1.850   7.721   4.818
 9082TIP3    H127203   1.785   7.667   4.774
 9082TIP3    H227204   1.933   7.697   4.777
 9083TIP3   OH227205   2.481   7.358   3.301
 9083TIP3    H127206   2.421   7.315   3.240
 9083TIP3    H227207   2.493   7.446   3.265
 9084TIP3   OH227208   5.595   0.147   4.384
 9084TIP3    H127209   5.508   0.159   4.347
 9084TIP3    H227210   5.652   0.137   4.308
 9085TIP3   OH227211   2.182   7.800   4.026
 9085TIP3    H127212   2.092   7.777   4.047
 9085TIP3    H227213   2.219   7.721   3.988
 9086TIP3   OH227214   0.906   7.327   3.521
 9086TIP3    H127215   0.961   7.405   3.536
 9086TIP3    H227216   0.831   7.339   3.579
 9087TIP3   OH227217   1.500   7.785   3.789
 9087TIP3    H127218   1.432   7.845   3.759
 9087TIP3    H227219   1.454   7.724   3.847
 9088TIP3   OH227220   2.012   7.987   4.248
 9088TIP3    H127221   1.994   7.996   4.341
 9088TIP3    H227222   2.093   7.936   4.244
 9089TIP3   OH227223   1.895   7.834   3.201
 9089TIP3    H127224   1.978   7.786   3.207
 9089TIP3    H227225   1.844   7.784   3.137
 9090TIP3   OH227226   1.314   7.155   4.791
 9090TIP3    H127227   1.219   7.154   4.802
 9090TIP3    H227228   1.347   7.109   4.868
 9091TIP3   OH227229   2.140   7.751   3.294
 9091TIP3    H127230   2.128   7.709   3.379
 9091TIP3    H227231   2.234   7.765   3.287
 9092TIP3   OH227232   1.322   7.779   3.310
 9092TIP3    H127233   1.262   7.763   3.237
 9092TIP3    H227234   1.394   7.829   3.273
 9093TIP3   OH227235   1.045   7.557   3.588
 9093TIP3    H127236   0.976   7.575   3.652
 9093TIP3    H227237   1.040   7.629   3.526
 9094TIP3   OH227238   2.166   7.219   4.481
 9094TIP3    H127239   2.243   7.264   4.517
 9094TIP3    H227240   2.154   7.142   4.537
 9095TIP3   OH227241   2.049   6.968   3.665
 9095TIP3    H127242   2.029   6.986   3.573
 9095TIP3    H227243   2.090   7.048   3.697
 9096TIP3   OH227244   1.698   7.159   3.761
 9096TIP3    H127245   1.768   7.217   3.732
 9096TIP3    H227246   1.718   7.141   3.853
 9097TIP3   OH227247   2.005   7.454   4.537
 9097TIP3    H127248   2.035   7.500   4.616
 9097TIP3    H227249   2.055   7.373   4.536
 9098TIP3   OH227250   1.865   6.867   3.847
 9098TIP3    H127251   1.842   6.944   3.899
 9098TIP3    H227252   1.933   6.898   3.787
 9099TIP3   OH227253   1.378   6.883   3.650
 9099TIP3    H127254   1.367   6.973   3.681
 9099TIP3    H227255   1.472   6.867   3.655
 9100TIP3   OH227256   2.621   7.358   4.528
 9100TIP3    H127257   2.527   7.367   4.540
 9100TIP3    H227258   2.630   7.300   4.452
 9101TIP3   OH227259   2.284   7.561   3.923
 9101TIP3    H127260   2.208   7.503   3.929
 9101TIP3    H227261   2.352   7.518   3.975
 9102TIP3   OH227262   0.972   7.736   3.384
 9102TIP3    H127263   0.931   7.784   3.312
 9102TIP3    H227264   1.031   7.675   3.341
 9103TIP3   OH227265   0.936   7.054   3.519
 9103TIP3    H127266   0.947   7.149   3.532
 9103TIP3    H227267   0.856   7.046   3.467
 9104TIP3   OH227268   1.328   6.788   4.390
 9104TIP3    H127269   1.298   6.758   4.304
 9104TIP3    H227270   1.317   6.712   4.447
 9105TIP3   OH227271   1.132   7.901   5.054
 9105TIP3    H127272   1.184   7.821   5.054
 9105TIP3    H227273   1.061   7.884   4.991
 9106TIP3   OH227274   1.132   7.537   3.282
 9106TIP3    H127275   1.185   7.523   3.361
 9106TIP3    H227276   1.196   7.539   3.211
 9107TIP3   OH227277   1.764   7.970   4.871
 9107TIP3    H127278   1.735   8.003   4.786
 9107TIP3    H227279   1.796   7.882   4.853
 9108TIP3   OH227280   1.645   7.777   3.099
 9108TIP3    H127281   1.638   7.828   3.180
 9108TIP3    H227282   1.608   7.692   3.121
 9109TIP3   OH227283   2.221   7.998   4.443
 9109TIP3    H127284   2.223   8.079   4.494
 9109TIP3    H227285   2.137   7.958   4.464
 9110TIP3   OH227286   1.300   7.684   5.049
 9110TIP3    H127287   1.376   7.670   4.993
 9110TIP3    H227288   1.337   7.713   5.133
 9111TIP3   OH227289   1.339   7.493   3.477
 9111TIP3    H127290   1.309   7.452   3.558
 9111TIP3    H227291   1.380   7.422   3.428
 9112TIP3   OH227292   1.640   7.578   4.701
 9112TIP3    H127293   1.555   7.621   4.710
 9112TIP3    H227294   1.675   7.612   4.619
 9113TIP3   OH227295   1.455   7.299   3.309
 9113TIP3    H127296   1.429   7.292   3.217
 9113TIP3    H227297   1.549   7.318   3.306
 9114TIP3   OH227298   2.116   7.925   4.778
 9114TIP3    H127299   2.208   7.899   4.773
 9114TIP3    H227300   2.092   7.913   4.870
 9115TIP3   OH227301   2.324   7.623   2.962
 9115TIP3    H127302   2.266   7.578   2.901
 9115TIP3    H227303   2.394   7.658   2.907
 9116TIP3   OH227304   1.740   7.358   4.820
 9116TIP3    H127305   1.745   7.286   4.757
 9116TIP3    H227306   1.705   7.431   4.770
 9117TIP3   OH227307   1.744   7.164   4.613
 9117TIP3    H127308   1.772   7.206   4.531
 9117TIP3    H227309   1.652   7.143   4.599
 9118TIP3   OH227310   1.781   7.686   4.495
 9118TIP3    H127311   1.863   7.731   4.479
 9118TIP3    H227312   1.715   7.738   4.449
 9119TIP3   OH227313   2.354   7.642   4.875
 9119TIP3    H127314   2.403   7.560   4.878
 9119TIP3    H227315   2.420   7.711   4.877
 9120TIP3   OH227316   2.390   7.866   4.607
 9120TIP3    H127317   2.328   7.919   4.558
 9120TIP3    H227318   2.476   7.901   4.582
 9121TIP3   OH227319   1.612   7.459   5.052
 9121TIP3    H127320   1.545   7.393   5.071
 9121TIP3    H227321   1.645   7.436   4.965
 9122TIP3   OH227322   1.866   6.933   4.710
 9122TIP3    H127323   1.826   7.014   4.676
 9122TIP3    H227324   1.800   6.866   4.695
 9123TIP3   OH227325   1.998   7.411   4.915
 9123TIP3    H127326   1.989   7.407   5.010
 9123TIP3    H227327   1.911   7.388   4.882
 9124TIP3   OH227328   2.236   7.349   4.779
 9124TIP3    H127329   2.159   7.357   4.836
 9124TIP3    H227330   2.309   7.334   4.840
 9125TIP3   OH227331   2.473   7.328   4.930
 9125TIP3    H127332   2.487   7.234   4.936
 9125TIP3    H227333   2.467   7.358   5.021
 9126TIP3   OH227334   1.452   7.237   5.121
 9126TIP3    H127335   1.463   7.149   5.086
 9126TIP3    H227336   1.491   7.232   5.209
 9127TIP3   OH227337   1.935   6.919   4.974
 9127TIP3    H127338   2.006   6.855   4.969
 9127TIP3    H227339   1.904   6.929   4.884
 9128TIP3   OH227340   2.024   7.136   5.121
 9128TIP3    H127341   1.995   7.066   5.062
 9128TIP3    H227342   1.952   7.199   5.118
 9129TIP3   OH227343   0.728   7.645   3.474
 9129TIP3    H127344   0.807   7.687   3.440
 9129TIP3    H227345   0.689   7.603   3.397
 9130TIP3   OH227346   5.440   0.374   4.649
 9130TIP3    H127347   5.369   0.421   4.692
 9130TIP3    H227348   5.520   0.406   4.692
 9131TIP3   OH227349   2.404   7.799   3.313
 9131TIP3    H127350   2.412   7.894   3.305
 9131TIP3    H227351   2.453   7.778   3.392
 9132TIP3   OH227352   2.542   7.685   3.525
 9132TIP3    H127353   2.472   7.643   3.575
 9132TIP3    H227354   2.595   7.730   3.591
 9133TIP3   OH227355   5.405   0.030   3.949
 9133TIP3    H127356   5.475  -0.028   3.919
 9133TIP3    H227357   5.380   0.079   3.870
 9134TIP3   OH227358   2.497   7.593   3.166
 9134TIP3    H127359   2.429   7.593   3.099
 9134TIP3    H227360   2.475   7.667   3.223
 9135TIP3   OH227361   2.323   7.261   3.102
 9135TIP3    H127362   2.271   7.304   3.033
 9135TIP3    H227363   2.311   7.167   3.086
 9136TIP3   OH227364   2.348   7.542   3.657
 9136TIP3    H127365   2.355   7.447   3.643
 9136TIP3    H227366   2.332   7.552   3.750
 9137TIP3   OH227367   0.977   7.612   4.401
 9137TIP3    H127368   0.967   7.567   4.317
 9137TIP3    H227369   1.070   7.601   4.423
 9138TIP3   OH227370   2.632   7.959   4.528
 9138TIP3    H127371   2.696   7.890   4.517
 9138TIP3    H227372   2.660   8.028   4.467
 9139TIP3   OH227373   2.814   7.756   4.520
 9139TIP3    H127374   2.739   7.711   4.559
 9139TIP3    H227375   2.889   7.699   4.536
 9140TIP3   OH227376   2.278   6.991   3.068
 9140TIP3    H127377   2.344   6.964   3.132
 9140TIP3    H227378   2.198   6.948   3.097
 9141TIP3   OH227379   2.348   7.273   3.537
 9141TIP3    H127380   2.390   7.189   3.550
 9141TIP3    H227381   2.393   7.311   3.461
 9142TIP3   OH227382   2.498   7.435   4.051
 9142TIP3    H127383   2.578   7.455   4.003
 9142TIP3    H227384   2.512   7.472   4.138
 9143TIP3   OH227385   2.572   7.582   4.278
 9143TIP3    H127386   2.496   7.609   4.329
 9143TIP3    H227387   2.603   7.662   4.236
 9144TIP3   OH227388   1.189   7.277   5.060
 9144TIP3    H127389   1.283   7.277   5.078
 9144TIP3    H227390   1.156   7.198   5.103
 9145TIP3   OH227391   3.028   7.189   4.821
 9145TIP3    H127392   3.091   7.130   4.781
 9145TIP3    H227393   2.991   7.238   4.748
 9146TIP3   OH227394   2.457   7.022   3.583
 9146TIP3    H127395   2.501   7.007   3.666
 9146TIP3    H227396   2.393   6.951   3.576
 9147TIP3   OH227397   1.163   7.010   4.422
 9147TIP3    H127398   1.219   6.933   4.420
 9147TIP3    H227399   1.221   7.083   4.402
 9148TIP3   OH227400   0.957   7.269   4.484
 9148TIP3    H127401   1.005   7.273   4.402
 9148TIP3    H227402   0.957   7.360   4.515
 9149TIP3   OH227403   2.882   7.304   4.622
 9149TIP3    H127404   2.799   7.345   4.645
 9149TIP3    H227405   2.858   7.229   4.568
 9150TIP3   OH227406   2.508   6.941   3.221
 9150TIP3    H127407   2.553   6.878   3.164
 9150TIP3    H227408   2.568   7.016   3.225
 9151TIP3   OH227409   0.935   6.772   3.975
 9151TIP3    H127410   0.848   6.766   4.012
 9151TIP3    H227411   0.926   6.833   3.902
 9152TIP3   OH227412   1.158   6.832   4.787
 9152TIP3    H127413   1.109   6.838   4.870
 9152TIP3    H227414   1.105   6.882   4.725
 9153TIP3   OH227415   2.792   7.059   4.515
 9153TIP3    H127416   2.704   7.049   4.478
 9153TIP3    H227417   2.831   6.971   4.509
 9154TIP3   OH227418   2.001   6.988   4.149
 9154TIP3    H127419   1.962   6.915   4.197
 9154TIP3    H227420   2.069   6.947   4.095
 9155TIP3   OH227421   2.502   6.889   4.038
 9155TIP3    H127422   2.541   6.938   3.966
 9155TIP3    H227423   2.410   6.915   4.039
 9156TIP3   OH227424   2.616   6.974   3.804
 9156TIP3    H127425   2.685   6.914   3.775
 9156TIP3    H227426   2.652   7.061   3.790
 9157TIP3   OH227427   1.241   6.686   4.148
 9157TIP3    H127428   1.150   6.656   4.152
 9157TIP3    H227429   1.293   6.605   4.142
 9158TIP3   OH227430   1.058   6.584   3.801
 9158TIP3    H127431   1.085   6.637   3.726
 9158TIP3    H227432   1.021   6.648   3.863
 9159TIP3   OH227433   1.713   6.724   4.041
 9159TIP3    H127434   1.760   6.772   3.973
 9159TIP3    H227435   1.753   6.754   4.123
 9160TIP3   OH227436   2.214   6.870   4.017
 9160TIP3    H127437   2.229   6.835   3.929
 9160TIP3    H227438   2.217   6.793   4.074
 9161TIP3   OH227439   2.269   6.814   3.584
 9161TIP3    H127440   2.189   6.861   3.607
 9161TIP3    H227441   2.258   6.727   3.624
 9162TIP3   OH227442   1.166   6.718   3.567
 9162TIP3    H127443   1.212   6.660   3.507
 9162TIP3    H227444   1.234   6.776   3.601
 9163TIP3   OH227445   1.653   6.909   3.661
 9163TIP3    H127446   1.714   6.860   3.716
 9163TIP3    H227447   1.664   7.000   3.689
 9164TIP3   OH227448   1.461   6.967   5.030
 9164TIP3    H127449   1.426   6.901   5.089
 9164TIP3    H227450   1.554   6.973   5.052
 9165TIP3   OH227451   1.711   6.971   5.147
 9165TIP3    H127452   1.790   6.954   5.096
 9165TIP3    H227453   1.710   6.901   5.213
 9166TIP3   OH227454   2.536   7.057   4.944
 9166TIP3    H127455   2.552   7.028   5.033
 9166TIP3    H227456   2.621   7.052   4.901
 9167TIP3   OH227457   3.742   7.872   3.254
 9167TIP3    H127458   3.731   7.966   3.237
 9167TIP3    H227459   3.674   7.831   3.200
 9168TIP3   OH227460   3.730   7.958   3.606
 9168TIP3    H127461   3.775   7.937   3.688
 9168TIP3    H227462   3.690   7.875   3.579
 9169TIP3   OH227463   3.032   7.840   3.954
 9169TIP3    H127464   3.065   7.787   4.026
 9169TIP3    H227465   3.108   7.852   3.896
 9170TIP3   OH227466   6.834   0.236   3.317
 9170TIP3    H127467   6.811   0.177   3.389
 9170TIP3    H227468   6.864   0.316   3.361
 9171TIP3   OH227469   2.706   7.473   3.437
 9171TIP3    H127470   2.658   7.551   3.463
 9171TIP3    H227471   2.640   7.415   3.401
 9172TIP3   OH227472   2.790   7.773   3.632
 9172TIP3    H127473   2.833   7.698   3.673
 9172TIP3    H227474   2.816   7.767   3.539
 9173TIP3   OH227475   6.402   0.151   3.699
 9173TIP3    H127476   6.433   0.081   3.642
 9173TIP3    H227477   6.481   0.195   3.729
 9174TIP3   OH227478   4.563   7.515   3.630
 9174TIP3    H127479   4.584   7.598   3.672
 9174TIP3    H227480   4.593   7.526   3.540
 9175TIP3   OH227481   3.950   7.683   3.661
 9175TIP3    H127482   3.987   7.598   3.685
 9175TIP3    H227483   3.915   7.670   3.573
 9176TIP3   OH227484   3.295   7.342   3.619
 9176TIP3    H127485   3.276   7.413   3.557
 9176TIP3    H227486   3.244   7.268   3.586
 9177TIP3   OH227487   3.989   7.445   3.243
 9177TIP3    H127488   4.050   7.439   3.317
 9177TIP3    H227489   4.043   7.476   3.170
 9178TIP3   OH227490   2.920   7.555   3.741
 9178TIP3    H127491   3.002   7.535   3.786
 9178TIP3    H227492   2.924   7.501   3.661
 9179TIP3   OH227493   3.359   7.737   3.553
 9179TIP3    H127494   3.454   7.724   3.559
 9179TIP3    H227495   3.326   7.653   3.520
 9180TIP3   OH227496   4.629   7.731   3.800
 9180TIP3    H127497   4.539   7.764   3.798
 9180TIP3    H227498   4.665   7.766   3.881
 9181TIP3   OH227499   3.279   7.341   4.065
 9181TIP3    H127500   3.226   7.374   3.993
 9181TIP3    H227501   3.226   7.356   4.143
 9182TIP3   OH227502   6.521   0.077   3.085
 9182TIP3    H127503   6.454   0.089   3.019
 9182TIP3    H227504   6.538   0.166   3.119
 9183TIP3   OH227505   6.209   0.060   3.855
 9183TIP3    H127506   6.155   0.136   3.874
 9183TIP3    H227507   6.277   0.093   3.796
 9184TIP3   OH227508   4.158   7.463   3.459
 9184TIP3    H127509   4.121   7.439   3.544
 9184TIP3    H227510   4.218   7.535   3.478
 9185TIP3   OH227511   3.163   7.448   3.837
 9185TIP3    H127512   3.221   7.519   3.864
 9185TIP3    H227513   3.209   7.405   3.765
 9186TIP3   OH227514   6.073   0.290   3.898
 9186TIP3    H127515   6.063   0.383   3.919
 9186TIP3    H227516   6.007   0.246   3.952
 9187TIP3   OH227517   2.664   7.908   3.231
 9187TIP3    H127518   2.591   7.893   3.170
 9187TIP3    H227519   2.687   8.000   3.218
 9188TIP3   OH227520   4.359   7.408   3.798
 9188TIP3    H127521   4.273   7.431   3.763
 9188TIP3    H227522   4.421   7.435   3.730
 9189TIP3   OH227523   3.621   7.036   3.787
 9189TIP3    H127524   3.615   6.944   3.813
 9189TIP3    H227525   3.546   7.078   3.828
 9190TIP3   OH227526   6.844   0.189   3.044
 9190TIP3    H127527   6.758   0.201   3.003
 9190TIP3    H227528   6.828   0.208   3.137
 9191TIP3   OH227529   7.183   0.396   3.703
 9191TIP3    H127530   7.134   0.323   3.664
 9191TIP3    H227531   7.204   0.453   3.628
 9192TIP3   OH227532   3.580   7.779   3.049
 9192TIP3    H127533   3.498   7.828   3.040
 9192TIP3    H227534   3.622   7.786   2.963
 9193TIP3   OH227535   3.523   7.601   2.742
 9193TIP3    H127536   3.585   7.657   2.788
 9193TIP3    H227537   3.578   7.539   2.693
 9194TIP3   OH227538   7.298   0.047   3.639
 9194TIP3    H127539   7.212   0.088   3.639
 9194TIP3    H227540   7.329   0.057   3.548
 9195TIP3   OH227541   3.910   7.861   3.024
 9195TIP3    H127542   3.855   7.880   3.100
 9195TIP3    H227543   3.998   7.849   3.060
 9196TIP3   OH227544   4.143   7.917   3.924
 9196TIP3    H127545   4.145   7.992   3.983
 9196TIP3    H227546   4.057   7.922   3.881
 9197TIP3   OH227547   3.160   7.841   3.389
 9197TIP3    H127548   3.117   7.779   3.330
 9197TIP3    H227549   3.229   7.791   3.431
 9198TIP3   OH227550   5.949   0.228   3.574
 9198TIP3    H127551   6.035   0.200   3.544
 9198TIP3    H227552   5.961   0.318   3.604
 9199TIP3   OH227553   3.247   7.852   3.774
 9199TIP3    H127554   3.291   7.817   3.696
 9199TIP3    H227555   3.298   7.929   3.798
 9200TIP3   OH227556   6.251   0.310   4.132
 9200TIP3    H127557   6.322   0.370   4.108
 9200TIP3    H227558   6.226   0.269   4.050
 9201TIP3   OH227559   3.750   7.749   2.830
 9201TIP3    H127560   3.810   7.803   2.881
 9201TIP3    H227561   3.781   7.758   2.740
 9202TIP3   OH227562   3.178   7.958   4.234
 9202TIP3    H127563   3.181   8.049   4.264
 9202TIP3    H227564   3.085   7.934   4.240
 9203TIP3   OH227565   4.259   6.999   2.884
 9203TIP3    H127566   4.182   7.017   2.938
 9203TIP3    H227567   4.269   7.077   2.830
 9204TIP3   OH227568   3.023   7.676   3.220
 9204TIP3    H127569   2.961   7.729   3.169
 9204TIP3    H227570   2.979   7.592   3.229
 9205TIP3   OH227571   5.657   0.061   4.123
 9205TIP3    H127572   5.561   0.071   4.122
 9205TIP3    H227573   5.672  -0.025   4.163
 9206TIP3   OH227574   4.392   7.884   4.112
 9206TIP3    H127575   4.307   7.893   4.070
 9206TIP3    H227576   4.412   7.791   4.108
 9207TIP3   OH227577   5.880   0.187   4.054
 9207TIP3    H127578   5.899   0.249   4.125
 9207TIP3    H227579   5.805   0.137   4.087
 9208TIP3   OH227580   3.385   7.129   3.915
 9208TIP3    H127581   3.301   7.096   3.884
 9208TIP3    H227582   3.364   7.208   3.964
 9209TIP3   OH227583   3.927   7.246   4.115
 9209TIP3    H127584   3.998   7.222   4.174
 9209TIP3    H227585   3.847   7.227   4.164
 9210TIP3   OH227586   4.152   7.662   4.029
 9210TIP3    H127587   4.110   7.662   4.115
 9210TIP3    H227588   4.135   7.749   3.993
 9211TIP3   OH227589   3.827   7.754   2.566
 9211TIP3    H127590   3.791   7.734   2.480
 9211TIP3    H227591   3.852   7.846   2.561
 9212TIP3   OH227592   3.534   7.173   2.886
 9212TIP3    H127593   3.500   7.178   2.975
 9212TIP3    H227594   3.498   7.091   2.851
 9213TIP3   OH227595   3.328   7.646   3.935
 9213TIP3    H127596   3.281   7.658   4.018
 9213TIP3    H227597   3.303   7.722   3.882
 9214TIP3   OH227598   3.206   7.535   3.447
 9214TIP3    H127599   3.116   7.512   3.472
 9214TIP3    H227600   3.215   7.501   3.358
 9215TIP3   OH227601   3.699   7.569   3.169
 9215TIP3    H127602   3.653   7.642   3.128
 9215TIP3    H227603   3.766   7.544   3.106
 9216TIP3   OH227604   3.890   7.873   4.244
 9216TIP3    H127605   3.861   7.806   4.306
 9216TIP3    H227606   3.980   7.892   4.270
 9217TIP3   OH227607   3.857   7.647   3.406
 9217TIP3    H127608   3.805   7.705   3.351
 9217TIP3    H227609   3.875   7.571   3.352
 9218TIP3   OH227610   3.149   7.670   4.143
 9218TIP3    H127611   3.171   7.734   4.211
 9218TIP3    H227612   3.133   7.589   4.191
 9219TIP3   OH227613   3.197   7.156   2.856
 9219TIP3    H127614   3.187   7.155   2.951
 9219TIP3    H227615   3.119   7.203   2.824
 9220TIP3   OH227616   2.745   7.197   3.725
 9220TIP3    H127617   2.819   7.229   3.777
 9220TIP3    H227618   2.784   7.167   3.643
 9221TIP3   OH227619   2.672   7.167   3.238
 9221TIP3    H127620   2.714   7.200   3.159
 9221TIP3    H227621   2.608   7.235   3.261
 9222TIP3   OH227622   3.879   7.882   3.828
 9222TIP3    H127623   3.910   7.814   3.768
 9222TIP3    H227624   3.840   7.834   3.901
 9223TIP3   OH227625   3.562   7.334   3.504
 9223TIP3    H127626   3.487   7.333   3.563
 9223TIP3    H227627   3.638   7.323   3.562
 9224TIP3   OH227628   2.967   7.414   3.509
 9224TIP3    H127629   2.878   7.418   3.474
 9224TIP3    H227630   2.995   7.324   3.493
 9225TIP3   OH227631   3.216   7.408   3.205
 9225TIP3    H127632   3.310   7.420   3.193
 9225TIP3    H227633   3.177   7.429   3.120
 9226TIP3   OH227634   4.027   7.419   3.707
 9226TIP3    H127635   4.004   7.435   3.799
 9226TIP3    H227636   3.962   7.357   3.676
 9227TIP3   OH227637   3.082   7.437   2.967
 9227TIP3    H127638   3.018   7.389   2.914
 9227TIP3    H227639   3.144   7.473   2.903
 9228TIP3   OH227640   6.003   0.192   4.368
 9228TIP3    H127641   6.079   0.195   4.427
 9228TIP3    H227642   5.927   0.199   4.426
 9229TIP3   OH227643   3.626   7.689   3.604
 9229TIP3    H127644   3.693   7.640   3.555
 9229TIP3    H227645   3.626   7.649   3.691
 9230TIP3   OH227646   3.114   7.166   3.495
 9230TIP3    H127647   3.083   7.091   3.545
 9230TIP3    H227648   3.148   7.129   3.414
 9231TIP3   OH227649   3.595   7.601   3.871
 9231TIP3    H127650   3.507   7.627   3.899
 9231TIP3    H227651   3.654   7.651   3.928
 9232TIP3   OH227652   3.348   7.921   3.038
 9232TIP3    H127653   3.271   7.866   3.023
 9232TIP3    H227654   3.334   7.960   3.124
 9233TIP3   OH227655   7.051   0.165   3.601
 9233TIP3    H127656   7.078   0.206   3.519
 9233TIP3    H227657   6.968   0.122   3.580
 9234TIP3   OH227658   3.789   7.270   2.874
 9234TIP3    H127659   3.695   7.252   2.877
 9234TIP3    H227660   3.797   7.364   2.892
 9235TIP3   OH227661   6.575   0.193   4.010
 9235TIP3    H127662   6.635   0.177   4.083
 9235TIP3    H227663   6.527   0.271   4.035
 9236TIP3   OH227664   3.864   7.524   2.951
 9236TIP3    H127665   3.957   7.535   2.967
 9236TIP3    H227666   3.836   7.605   2.908
 9237TIP3   OH227667   3.053   7.959   3.605
 9237TIP3    H127668   3.082   7.918   3.524
 9237TIP3    H227669   3.102   7.913   3.674
 9238TIP3   OH227670   6.246   0.093   2.849
 9238TIP3    H127671   6.247   0.173   2.902
 9238TIP3    H227672   6.228   0.023   2.912
 9239TIP3   OH227673   2.915   7.869   4.283
 9239TIP3    H127674   2.918   7.851   4.377
 9239TIP3    H227675   2.842   7.816   4.251
 9240TIP3   OH227676   3.647   7.990   4.296
 9240TIP3    H127677   3.588   7.936   4.243
 9240TIP3    H227678   3.734   7.966   4.267
 9241TIP3   OH227679   4.275   7.616   2.780
 9241TIP3    H127680   4.225   7.569   2.714
 9241TIP3    H227681   4.280   7.706   2.748
 9242TIP3   OH227682   7.391   0.403   3.867
 9242TIP3    H127683   7.304   0.420   3.830
 9242TIP3    H227684   7.447   0.385   3.792
 9243TIP3   OH227685   6.813   0.043   3.517
 9243TIP3    H127686   6.723   0.020   3.537
 9243TIP3    H227687   6.850  -0.035   3.478
 9244TIP3   OH227688   2.716   7.575   3.001
 9244TIP3    H127689   2.768   7.654   3.014
 9244TIP3    H227690   2.643   7.584   3.062
 9245TIP3   OH227691   6.128   0.034   3.280
 9245TIP3    H127692   6.057   0.082   3.238
 9245TIP3    H227693   6.085  -0.038   3.325
 9246TIP3   OH227694   6.659   0.227   3.744
 9246TIP3    H127695   6.643   0.225   3.838
 9246TIP3    H227696   6.739   0.177   3.732
 9247TIP3   OH227697   6.596   0.033   2.582
 9247TIP3    H127698   6.640   0.021   2.666
 9247TIP3    H227699   6.503   0.020   2.601
 9248TIP3   OH227700   3.108   7.420   4.272
 9248TIP3    H127701   3.013   7.427   4.278
 9248TIP3    H227702   3.133   7.366   4.346
 9249TIP3   OH227703   3.928   8.017   2.801
 9249TIP3    H127704   3.916   7.977   2.887
 9249TIP3    H227705   4.022   8.031   2.794
 9250TIP3   OH227706   5.960   0.034   2.794
 9250TIP3    H127707   5.899   0.010   2.724
 9250TIP3    H227708   6.032   0.078   2.749
 9251TIP3   OH227709   2.844   7.807   3.065
 9251TIP3    H127710   2.786   7.837   3.135
 9251TIP3    H227711   2.834   7.872   2.996
 9252TIP3   OH227712   3.956   7.477   3.967
 9252TIP3    H127713   4.035   7.520   4.000
 9252TIP3    H227714   3.946   7.400   4.023
 9253TIP3   OH227715   3.845   7.225   3.149
 9253TIP3    H127716   3.827   7.243   3.056
 9253TIP3    H227717   3.887   7.305   3.181
 9254TIP3   OH227718   3.491   7.417   3.251
 9254TIP3    H127719   3.563   7.472   3.220
 9254TIP3    H227720   3.513   7.398   3.342
 9255TIP3   OH227721   3.799   7.710   4.028
 9255TIP3    H127722   3.831   7.754   4.107
 9255TIP3    H227723   3.849   7.629   4.023
 9256TIP3   OH227724   3.662   7.125   3.334
 9256TIP3    H127725   3.642   7.202   3.387
 9256TIP3    H227726   3.730   7.155   3.273
 9257TIP3   OH227727   3.174   7.140   3.134
 9257TIP3    H127728   3.163   7.229   3.168
 9257TIP3    H227729   3.268   7.123   3.140
 9258TIP3   OH227730   4.418   7.616   4.017
 9258TIP3    H127731   4.323   7.621   4.027
 9258TIP3    H227732   4.431   7.562   3.939
 9259TIP3   OH227733   4.081   7.819   3.414
 9259TIP3    H127734   4.007   7.759   3.419
 9259TIP3    H227735   4.151   7.776   3.464
 9260TIP3   OH227736   2.767   7.991   2.870
 9260TIP3    H127737   2.806   8.076   2.851
 9260TIP3    H227738   2.816   7.929   2.816
 9261TIP3   OH227739   2.734   7.302   3.011
 9261TIP3    H127740   2.746   7.397   3.018
 9261TIP3    H227741   2.677   7.291   2.934
 9262TIP3   OH227742   3.122   7.042   3.880
 9262TIP3    H127743   3.094   7.009   3.795
 9262TIP3    H227744   3.114   6.967   3.939
 9263TIP3   OH227745   5.797   0.141   4.559
 9263TIP3    H127746   5.838   0.056   4.548
 9263TIP3    H227747   5.726   0.142   4.495
 9264TIP3   OH227748   2.938   7.798   2.775
 9264TIP3    H127749   2.989   7.781   2.854
 9264TIP3    H227750   3.001   7.795   2.703
 9265TIP3   OH227751   6.389   0.224   4.353
 9265TIP3    H127752   6.354   0.256   4.269
 9265TIP3    H227753   6.425   0.138   4.333
 9266TIP3   OH227754   3.483   8.019   2.599
 9266TIP3    H127755   3.466   8.074   2.675
 9266TIP3    H227756   3.430   7.941   2.612
 9267TIP3   OH227757   6.894   0.266   3.927
 9267TIP3    H127758   6.972   0.322   3.930
 9267TIP3    H227759   6.829   0.313   3.980
 9268TIP3   OH227760   3.105   7.922   4.532
 9268TIP3    H127761   3.184   7.898   4.484
 9268TIP3    H227762   3.136   7.951   4.617
 9269TIP3   OH227763   3.141   7.750   2.967
 9269TIP3    H127764   3.111   7.701   3.044
 9269TIP3    H227765   3.184   7.685   2.912
 9270TIP3   OH227766   3.417   7.830   4.184
 9270TIP3    H127767   3.338   7.884   4.194
 9270TIP3    H227768   3.461   7.866   4.107
 9271TIP3   OH227769   3.253   7.558   2.795
 9271TIP3    H127770   3.226   7.545   2.704
 9271TIP3    H227771   3.346   7.579   2.790
 9272TIP3   OH227772   6.755   0.179   4.270
 9272TIP3    H127773   6.842   0.139   4.265
 9272TIP3    H227774   6.728   0.167   4.361
 9273TIP3   OH227775   4.093   7.897   2.432
 9273TIP3    H127776   4.046   7.845   2.367
 9273TIP3    H227777   4.064   7.987   2.416
 9274TIP3   OH227778   3.533   7.619   4.308
 9274TIP3    H127779   3.539   7.545   4.248
 9274TIP3    H227780   3.494   7.690   4.256
 9275TIP3   OH227781   3.540   7.424   4.103
 9275TIP3    H127782   3.569   7.460   4.019
 9275TIP3    H227783   3.448   7.399   4.088
 9276TIP3   OH227784   3.573   7.945   3.996
 9276TIP3    H127785   3.656   7.990   3.980
 9276TIP3    H227786   3.510   7.994   3.943
 9277TIP3   OH227787   4.148   7.900   4.364
 9277TIP3    H127788   4.194   7.816   4.365
 9277TIP3    H227789   4.217   7.966   4.366
 9278TIP3   OH227790   7.018   0.106   4.103
 9278TIP3    H127791   6.956   0.159   4.053
 9278TIP3    H227792   7.104   0.138   4.076
 9279TIP3   OH227793   3.405   7.721   4.540
 9279TIP3    H127794   3.343   7.651   4.561
 9279TIP3    H227795   3.442   7.695   4.455
 9280TIP3   OH227796   3.663   7.191   4.197
 9280TIP3    H127797   3.621   7.271   4.166
 9280TIP3    H227798   3.597   7.122   4.184
 9281TIP3   OH227799   3.793   7.670   4.400
 9281TIP3    H127800   3.786   7.662   4.495
 9281TIP3    H227801   3.705   7.647   4.368
 9282TIP3   OH227802   4.035   7.615   4.267
 9282TIP3    H127803   3.958   7.618   4.323
 9282TIP3    H227804   4.107   7.593   4.325
 9283TIP3   OH227805   4.269   7.583   4.417
 9283TIP3    H127806   4.283   7.489   4.423
 9283TIP3    H227807   4.264   7.613   4.508
 9284TIP3   OH227808   3.252   7.496   4.606
 9284TIP3    H127809   3.258   7.407   4.569
 9284TIP3    H227810   3.290   7.488   4.693
 9285TIP3   OH227811   3.733   7.177   4.462
 9285TIP3    H127812   3.803   7.112   4.457
 9285TIP3    H227813   3.702   7.185   4.372
 9286TIP3   OH227814   3.820   7.395   4.607
 9286TIP3    H127815   3.794   7.322   4.550
 9286TIP3    H227816   3.747   7.456   4.604
 9287TIP3   OH227817   2.525   7.922   2.981
 9287TIP3    H127818   2.604   7.961   2.943
 9287TIP3    H227819   2.496   7.860   2.914
 9288TIP3   OH227820   7.227   0.624   4.127
 9288TIP3    H127821   7.183   0.681   4.189
 9288TIP3    H227822   7.317   0.655   4.125
 9289TIP3   OH227823   7.029   0.043   2.804
 9289TIP3    H127824   7.092   0.104   2.766
 9289TIP3    H227825   7.073   0.008   2.882
 9290TIP3   OH227826   4.338   7.934   3.001
 9290TIP3    H127827   4.275   7.897   3.064
 9290TIP3    H227828   4.405   7.974   3.056
 9291TIP3   OH227829   7.223   0.306   3.436
 9291TIP3    H127830   7.271   0.231   3.400
 9291TIP3    H227831   7.193   0.354   3.360
 9292TIP3   OH227832   4.263   7.850   2.641
 9292TIP3    H127833   4.199   7.861   2.571
 9292TIP3    H227834   4.246   7.924   2.700
 9293TIP3   OH227835   4.139   7.518   2.561
 9293TIP3    H127836   4.063   7.564   2.526
 9293TIP3    H227837   4.120   7.426   2.545
 9294TIP3   OH227838   4.148   7.798   3.147
 9294TIP3    H127839   4.159   7.703   3.137
 9294TIP3    H227840   4.132   7.810   3.241
 9295TIP3   OH227841   2.775   7.878   3.885
 9295TIP3    H127842   2.770   7.843   3.796
 9295TIP3    H227843   2.867   7.864   3.911
 9296TIP3   OH227844   7.257   0.203   4.011
 9296TIP3    H127845   7.320   0.131   4.001
 9296TIP3    H227846   7.289   0.271   3.951
 9297TIP3   OH227847   4.606   8.014   4.011
 9297TIP3    H127848   4.533   7.966   4.049
 9297TIP3    H227849   4.682   7.958   4.025
 9298TIP3   OH227850   4.077   7.247   2.538
 9298TIP3    H127851   4.141   7.226   2.606
 9298TIP3    H227852   3.995   7.207   2.569
 9299TIP3   OH227853   4.143   7.528   3.019
 9299TIP3    H127854   4.187   7.444   3.032
 9299TIP3    H227855   4.190   7.567   2.945
 9300TIP3   OH227856   4.296   7.693   3.538
 9300TIP3    H127857   4.376   7.714   3.490
 9300TIP3    H227858   4.311   7.728   3.625
 9301TIP3   OH227859   4.369   7.836   3.768
 9301TIP3    H127860   4.292   7.864   3.819
 9301TIP3    H227861   4.401   7.916   3.727
 9302TIP3   OH227862   2.988   7.549   4.550
 9302TIP3    H127863   3.083   7.545   4.564
 9302TIP3    H227864   2.955   7.467   4.588
 9303TIP3   OH227865   4.825   7.446   4.308
 9303TIP3    H127866   4.888   7.386   4.267
 9303TIP3    H227867   4.788   7.495   4.235
 9304TIP3   OH227868   4.253   7.278   3.068
 9304TIP3    H127869   4.298   7.264   3.151
 9304TIP3    H227870   4.190   7.206   3.062
 9305TIP3   OH227871   2.954   7.264   3.897
 9305TIP3    H127872   3.008   7.185   3.903
 9305TIP3    H227873   3.017   7.334   3.881
 9306TIP3   OH227874   2.741   7.527   3.958
 9306TIP3    H127875   2.791   7.523   3.877
 9306TIP3    H227876   2.784   7.595   4.010
 9307TIP3   OH227877   4.678   7.560   4.110
 9307TIP3    H127878   4.595   7.600   4.132
 9307TIP3    H227879   4.655   7.484   4.056
 9308TIP3   OH227880   4.302   7.204   2.699
 9308TIP3    H127881   4.347   7.137   2.648
 9308TIP3    H227882   4.365   7.276   2.707
 9309TIP3   OH227883   2.730   7.037   3.469
 9309TIP3    H127884   2.642   7.025   3.505
 9309TIP3    H227885   2.717   7.090   3.390
 9310TIP3   OH227886   2.953   7.111   4.286
 9310TIP3    H127887   2.900   7.099   4.365
 9310TIP3    H227888   2.893   7.152   4.224
 9311TIP3   OH227889   4.588   7.316   4.002
 9311TIP3    H127890   4.499   7.306   3.967
 9311TIP3    H227891   4.626   7.228   3.996
 9312TIP3   OH227892   3.792   7.238   3.632
 9312TIP3    H127893   3.754   7.166   3.682
 9312TIP3    H227894   3.862   7.198   3.581
 9313TIP3   OH227895   4.301   7.147   3.524
 9313TIP3    H127896   4.338   7.196   3.451
 9313TIP3    H227897   4.208   7.171   3.525
 9314TIP3   OH227898   4.412   7.230   3.288
 9314TIP3    H127899   4.481   7.170   3.260
 9314TIP3    H227900   4.450   7.317   3.276
 9315TIP3   OH227901   3.036   6.941   3.637
 9315TIP3    H127902   2.946   6.908   3.645
 9315TIP3    H227903   3.090   6.862   3.631
 9316TIP3   OH227904   2.843   6.842   3.288
 9316TIP3    H127905   2.873   6.893   3.213
 9316TIP3    H227906   2.813   6.907   3.351
 9317TIP3   OH227907   3.505   6.985   3.527
 9317TIP3    H127908   3.556   7.030   3.460
 9317TIP3    H227909   3.547   7.009   3.610
 9318TIP3   OH227910   4.012   7.126   3.506
 9318TIP3    H127911   4.028   7.090   3.418
 9318TIP3    H227912   4.015   7.050   3.564
 9319TIP3   OH227913   4.066   7.069   3.070
 9319TIP3    H127914   3.985   7.116   3.094
 9319TIP3    H227915   4.056   6.983   3.110
 9320TIP3   OH227916   2.959   6.976   3.053
 9320TIP3    H127917   3.004   6.914   2.995
 9320TIP3    H227918   3.029   7.032   3.087
 9321TIP3   OH227919   3.449   7.167   3.149
 9321TIP3    H127920   3.509   7.115   3.203
 9321TIP3    H227921   3.462   7.257   3.179
 9322TIP3   OH227922   3.259   7.224   4.520
 9322TIP3    H127923   3.223   7.157   4.578
 9322TIP3    H227924   3.351   7.230   4.544
 9323TIP3   OH227925   3.508   7.230   4.640
 9323TIP3    H127926   3.587   7.209   4.589
 9323TIP3    H227927   3.503   7.160   4.705
 9324TIP3   OH227928   4.332   7.312   4.430
 9324TIP3    H127929   4.348   7.283   4.519
 9324TIP3    H227930   4.418   7.307   4.387
 9325TIP3   OH227931   8.357   0.196   2.694
 9325TIP3    H127932   8.330   0.285   2.673
 9325TIP3    H227933   8.287   0.141   2.661
 9326TIP3   OH227934   8.361   0.206   3.089
 9326TIP3    H127935   8.406   0.193   3.172
 9326TIP3    H227936   8.320   0.121   3.070
 9327TIP3   OH227937   7.656   0.087   3.449
 9327TIP3    H127938   7.694   0.029   3.515
 9327TIP3    H227939   7.732   0.126   3.404
 9328TIP3   OH227940   0.113   0.484   2.758
 9328TIP3    H127941   0.107   0.414   2.823
 9328TIP3    H227942   0.105   0.565   2.809
 9329TIP3   OH227943   7.777   0.394   3.232
 9329TIP3    H127944   7.689   0.432   3.230
 9329TIP3    H227945   7.824   0.436   3.160
 9330TIP3   OH227946   4.503   7.717   2.922
 9330TIP3    H127947   4.465   7.801   2.949
 9330TIP3    H227948   4.430   7.669   2.883
 9331TIP3   OH227949   4.566   8.009   3.135
 9331TIP3    H127950   4.621   7.935   3.162
 9331TIP3    H227951   4.626   8.069   3.091
 9332TIP3   OH227952   8.191   0.433   3.106
 9332TIP3    H127953   8.231   0.353   3.073
 9332TIP3    H227954   8.264   0.485   3.139
 9333TIP3   OH227955   6.354   7.770   3.117
 9333TIP3    H127956   6.375   7.855   3.155
 9333TIP3    H227957   6.387   7.775   3.027
 9334TIP3   OH227958   5.741   7.941   3.142
 9334TIP3    H127959   5.781   7.858   3.168
 9334TIP3    H227960   5.707   7.925   3.054
 9335TIP3   OH227961   5.092   7.600   3.104
 9335TIP3    H127962   5.074   7.673   3.045
 9335TIP3    H227963   5.038   7.528   3.071
 9336TIP3   OH227964   5.789   7.701   2.739
 9336TIP3    H127965   5.853   7.687   2.809
 9336TIP3    H227966   5.843   7.720   2.661
 9337TIP3   OH227967   4.718   7.801   3.230
 9337TIP3    H127968   4.803   7.789   3.273
 9337TIP3    H227969   4.725   7.754   3.147
 9338TIP3   OH227970   5.153   8.007   3.029
 9338TIP3    H127971   5.246   7.988   3.039
 9338TIP3    H227972   5.115   7.925   2.997
 9339TIP3   OH227973   6.416   7.987   3.290
 9339TIP3    H127974   6.329   8.026   3.284
 9339TIP3    H227975   6.453   8.024   3.371
 9340TIP3   OH227976   5.076   7.598   3.553
 9340TIP3    H127977   5.025   7.634   3.480
 9340TIP3    H227978   5.022   7.614   3.630
 9341TIP3   OH227979   8.269   0.421   2.551
 9341TIP3    H127980   8.237   0.403   2.462
 9341TIP3    H227981   8.348   0.474   2.538
 9342TIP3   OH227982   8.056   0.327   3.321
 9342TIP3    H127983   8.000   0.395   3.358
 9342TIP3    H227984   8.100   0.370   3.248
 9343TIP3   OH227985   5.959   7.711   2.954
 9343TIP3    H127986   5.919   7.698   3.040
 9343TIP3    H227987   6.018   7.785   2.966
 9344TIP3   OH227988   4.962   7.705   3.325
 9344TIP3    H127989   5.017   7.779   3.349
 9344TIP3    H227990   5.009   7.663   3.252
 9345TIP3   OH227991   7.904   0.532   3.449
 9345TIP3    H127992   7.871   0.548   3.361
 9345TIP3    H227993   7.833   0.486   3.494
 9346TIP3   OH227994   7.272   0.140   2.704
 9346TIP3    H127995   7.235   0.215   2.658
 9346TIP3    H227996   7.317   0.178   2.779
 9347TIP3   OH227997   6.156   7.657   3.283
 9347TIP3    H127998   6.070   7.686   3.251
 9347TIP3    H227999   6.218   7.687   3.217
 9348TIP3   OH228000   5.417   7.294   3.275
 9348TIP3    H128001   5.409   7.202   3.301
 9348TIP3    H228002   5.342   7.337   3.316
 9349TIP3   OH228003   0.021   0.526   2.499
 9349TIP3    H128004   0.065   0.471   2.434
 9349TIP3    H228005   0.068   0.510   2.580
 9350TIP3   OH228006   0.363   0.673   3.240
 9350TIP3    H128007   0.363   0.585   3.201
 9350TIP3    H228008   0.412   0.727   3.179
 9351TIP3   OH228009   8.187   0.048   2.531
 9351TIP3    H128010   8.107   0.097   2.514
 9351TIP3    H228011   8.235   0.049   2.448
 9352TIP3   OH228012   5.318   7.873   2.226
 9352TIP3    H128013   5.381   7.922   2.279
 9352TIP3    H228014   5.371   7.808   2.180
 9353TIP3   OH228015   0.575   0.300   3.112
 9353TIP3    H128016   0.494   0.350   3.117
 9353TIP3    H228017   0.608   0.317   3.023
 9354TIP3   OH228018   0.040   0.129   2.500
 9354TIP3    H128019  -0.011   0.156   2.576
 9354TIP3    H228020   0.125   0.103   2.536
 9355TIP3   OH228021   0.272   0.173   3.424
 9355TIP3    H128022   0.274   0.255   3.473
 9355TIP3    H228023   0.189   0.176   3.377
 9356TIP3   OH228024   7.792   0.128   2.882
 9356TIP3    H128025   7.754   0.065   2.820
 9356TIP3    H228026   7.865   0.082   2.921
 9357TIP3   OH228027   7.936   0.532   3.058
 9357TIP3    H128028   7.938   0.550   2.963
 9357TIP3    H228029   8.026   0.505   3.079
 9358TIP3   OH228030   7.890   0.110   3.261
 9358TIP3    H128031   7.929   0.077   3.180
 9358TIP3    H228032   7.935   0.193   3.277
 9359TIP3   OH228033   8.133   0.617   3.577
 9359TIP3    H128034   8.098   0.699   3.612
 9359TIP3    H228035   8.061   0.580   3.526
 9360TIP3   OH228036   8.371   0.004   2.325
 9360TIP3    H128037   8.432   0.057   2.376
 9360TIP3    H228038   8.401   0.013   2.235
 9361TIP3   OH228039   7.807   0.205   3.722
 9361TIP3    H128040   7.810   0.293   3.760
 9361TIP3    H228041   7.714   0.181   3.726
 9362TIP3   OH228042   4.829   7.976   2.696
 9362TIP3    H128043   4.760   8.017   2.644
 9362TIP3    H228044   4.789   7.895   2.728
 9363TIP3   OH228045   7.460   0.313   3.612
 9363TIP3    H128046   7.369   0.299   3.584
 9363TIP3    H228047   7.487   0.229   3.649
 9364TIP3   OH228048   0.522   0.138   3.596
 9364TIP3    H128049   0.441   0.149   3.546
 9364TIP3    H228050   0.541   0.044   3.589
 9365TIP3   OH228051   7.667   0.475   3.568
 9365TIP3    H128052   7.634   0.540   3.629
 9365TIP3    H228053   7.604   0.403   3.571
 9366TIP3   OH228054   5.181   7.385   3.404
 9366TIP3    H128055   5.097   7.354   3.372
 9366TIP3    H228056   5.161   7.466   3.451
 9367TIP3   OH228057   5.724   7.501   3.602
 9367TIP3    H128058   5.794   7.480   3.663
 9367TIP3    H228059   5.643   7.485   3.651
 9368TIP3   OH228060   5.944   7.924   3.513
 9368TIP3    H128061   5.905   7.922   3.600
 9368TIP3    H228062   5.932   8.015   3.484
 9369TIP3   OH228063   8.454  -0.005   2.065
 9369TIP3    H128064   8.413  -0.017   1.980
 9369TIP3    H228065   8.525   0.057   2.049
 9370TIP3   OH228066   5.333   7.431   2.371
 9370TIP3    H128067   5.300   7.436   2.461
 9370TIP3    H228068   5.296   7.349   2.337
 9371TIP3   OH228069   5.122   7.909   3.416
 9371TIP3    H128070   5.078   7.922   3.500
 9371TIP3    H228071   5.102   7.988   3.365
 9372TIP3   OH228072   5.003   7.794   2.933
 9372TIP3    H128073   4.914   7.772   2.958
 9372TIP3    H228074   5.013   7.759   2.844
 9373TIP3   OH228075   5.491   7.859   2.657
 9373TIP3    H128076   5.443   7.931   2.615
 9373TIP3    H228077   5.555   7.832   2.592
 9374TIP3   OH228078   0.014   0.120   3.730
 9374TIP3    H128079  -0.013   0.053   3.794
 9374TIP3    H228080   0.105   0.137   3.750
 9375TIP3   OH228081   5.650   7.888   2.889
 9375TIP3    H128082   5.584   7.914   2.825
 9375TIP3    H228083   5.696   7.815   2.848
 9376TIP3   OH228084   4.946   7.926   3.631
 9376TIP3    H128085   4.983   7.987   3.695
 9376TIP3    H228086   4.933   7.845   3.680
 9377TIP3   OH228087   4.998   7.411   2.345
 9377TIP3    H128088   4.991   7.413   2.441
 9377TIP3    H228089   4.924   7.462   2.314
 9378TIP3   OH228090   4.544   7.453   3.214
 9378TIP3    H128091   4.613   7.489   3.270
 9378TIP3    H228092   4.587   7.436   3.131
 9379TIP3   OH228093   4.472   7.428   2.719
 9379TIP3    H128094   4.521   7.465   2.647
 9379TIP3    H228095   4.411   7.497   2.745
 9380TIP3   OH228096   0.009   0.124   3.315
 9380TIP3    H128097   0.039   0.060   3.250
 9380TIP3    H228098  -0.024   0.070   3.387
 9381TIP3   OH228099   5.357   7.590   2.985
 9381TIP3    H128100   5.281   7.591   3.043
 9381TIP3    H228101   5.432   7.582   3.045
 9382TIP3   OH228102   4.765   7.670   2.994
 9382TIP3    H128103   4.676   7.673   2.959
 9382TIP3    H228104   4.795   7.581   2.977
 9383TIP3   OH228105   5.017   7.668   2.690
 9383TIP3    H128106   5.111   7.683   2.679
 9383TIP3    H228107   4.979   7.689   2.605
 9384TIP3   OH228108   5.823   7.679   3.196
 9384TIP3    H128109   5.799   7.696   3.287
 9384TIP3    H228110   5.758   7.617   3.165
 9385TIP3   OH228111   4.895   7.696   2.446
 9385TIP3    H128112   4.826   7.653   2.396
 9385TIP3    H228113   4.950   7.738   2.380
 9386TIP3   OH228114   7.808   0.442   3.872
 9386TIP3    H128115   7.885   0.464   3.924
 9386TIP3    H228116   7.734   0.449   3.933
 9387TIP3   OH228117   5.419   7.947   3.091
 9387TIP3    H128118   5.489   7.901   3.044
 9387TIP3    H228119   5.418   7.906   3.178
 9388TIP3   OH228120   4.909   7.424   2.981
 9388TIP3    H128121   4.880   7.348   3.031
 9388TIP3    H228122   4.945   7.387   2.900
 9389TIP3   OH228123   5.389   7.854   3.360
 9389TIP3    H128124   5.301   7.884   3.384
 9389TIP3    H228125   5.448   7.905   3.415
 9390TIP3   OH228126   7.959   0.195   2.478
 9390TIP3    H128127   7.885   0.140   2.455
 9390TIP3    H228128   7.931   0.242   2.557
 9391TIP3   OH228129   0.340   0.443   3.085
 9391TIP3    H128130   0.375   0.488   3.009
 9391TIP3    H228131   0.261   0.400   3.054
 9392TIP3   OH228132   5.588   7.532   2.362
 9392TIP3    H128133   5.493   7.518   2.366
 9392TIP3    H228134   5.599   7.625   2.381
 9393TIP3   OH228135   8.387   0.549   3.491
 9393TIP3    H128136   8.432   0.530   3.573
 9393TIP3    H228137   8.300   0.578   3.518
 9394TIP3   OH228138   5.665   7.789   2.442
 9394TIP3    H128139   5.761   7.792   2.451
 9394TIP3    H228140   5.643   7.867   2.392
 9395TIP3   OH228141   7.648   0.135   3.117
 9395TIP3    H128142   7.687   0.142   3.030
 9395TIP3    H228143   7.722   0.127   3.176
 9396TIP3   OH228144   8.087   0.372   2.316
 9396TIP3    H128145   8.049   0.454   2.347
 9396TIP3    H228146   8.046   0.305   2.369
 9397TIP3   OH228147   7.546   0.112   3.774
 9397TIP3    H128148   7.554   0.095   3.868
 9397TIP3    H228149   7.471   0.060   3.746
 9398TIP3   OH228150   8.278   0.256   3.780
 9398TIP3    H128151   8.219   0.219   3.715
 9398TIP3    H228152   8.364   0.225   3.756
 9399TIP3   OH228153   0.650   0.686   3.370
 9399TIP3    H128154   0.584   0.752   3.388
 9399TIP3    H228155   0.658   0.685   3.274
 9400TIP3   OH228156   0.113   0.309   2.980
 9400TIP3    H128157   0.024   0.286   3.008
 9400TIP3    H228158   0.149   0.227   2.946
 9401TIP3   OH228159   4.472   7.848   2.461
 9401TIP3    H128160   4.534   7.920   2.472
 9401TIP3    H228161   4.411   7.857   2.534
 9402TIP3   OH228162   7.865   0.322   2.702
 9402TIP3    H128163   7.825   0.403   2.733
 9402TIP3    H228164   7.843   0.256   2.768
 9403TIP3   OH228165   8.422   0.523   3.220
 9403TIP3    H128166   8.407   0.532   3.314
 9403TIP3    H228167   8.511   0.489   3.213
 9404TIP3   OH228168   8.420   0.374   2.064
 9404TIP3    H128169   8.467   0.355   2.145
 9404TIP3    H228170   8.329   0.382   2.090
 9405TIP3   OH228171   4.907   7.675   3.760
 9405TIP3    H128172   4.812   7.682   3.767
 9405TIP3    H228173   4.932   7.623   3.836
 9406TIP3   OH228174   0.056   0.314   2.296
 9406TIP3    H128175   0.046   0.252   2.369
 9406TIP3    H228176   0.150   0.318   2.281
 9407TIP3   OH228177   7.730   0.337   2.147
 9407TIP3    H128178   7.746   0.251   2.109
 9407TIP3    H228179   7.816   0.376   2.158
 9408TIP3   OH228180   7.461   0.057   2.531
 9408TIP3    H128181   7.394   0.085   2.593
 9408TIP3    H228182   7.473   0.132   2.473
 9409TIP3   OH228183   5.751   7.735   3.455
 9409TIP3    H128184   5.829   7.781   3.486
 9409TIP3    H228185   5.744   7.658   3.511
 9410TIP3   OH228186   5.653   7.475   2.634
 9410TIP3    H128187   5.636   7.496   2.542
 9410TIP3    H228188   5.697   7.552   2.669
 9411TIP3   OH228189   5.295   7.680   2.730
 9411TIP3    H128190   5.362   7.744   2.703
 9411TIP3    H228191   5.316   7.661   2.821
 9412TIP3   OH228192   5.593   7.970   3.514
 9412TIP3    H128193   5.623   8.014   3.593
 9412TIP3    H228194   5.644   7.889   3.511
 9413TIP3   OH228195   5.462   7.383   2.818
 9413TIP3    H128196   5.441   7.460   2.870
 9413TIP3    H228197   5.532   7.412   2.760
 9414TIP3   OH228198   4.976   7.398   2.625
 9414TIP3    H128199   4.965   7.488   2.655
 9414TIP3    H228200   5.070   7.382   2.631
 9415TIP3   OH228201   6.212   7.883   3.506
 9415TIP3    H128202   6.116   7.883   3.511
 9415TIP3    H228203   6.232   7.843   3.422
 9416TIP3   OH228204   0.208   0.059   2.890
 9416TIP3    H128205   0.133   0.001   2.901
 9416TIP3    H228206   0.277   0.018   2.942
 9417TIP3   OH228207   7.443   0.302   2.365
 9417TIP3    H128208   7.449   0.390   2.327
 9417TIP3    H228209   7.495   0.247   2.306
 9418TIP3   OH228210   4.527   7.579   2.496
 9418TIP3    H128211   4.536   7.673   2.483
 9418TIP3    H228212   4.442   7.558   2.457
 9419TIP3   OH228213   4.917   7.301   3.365
 9419TIP3    H128214   4.889   7.268   3.280
 9419TIP3    H228215   4.909   7.226   3.424
 9420TIP3   OH228216   7.591   0.395   4.049
 9420TIP3    H128217   7.634   0.309   4.042
 9420TIP3    H228218   7.524   0.393   3.980
 9421TIP3   OH228219   7.567   0.086   2.241
 9421TIP3    H128220   7.619   0.057   2.315
 9421TIP3    H228221   7.630   0.092   2.168
 9422TIP3   OH228222   8.200   0.522   3.825
 9422TIP3    H128223   8.187   0.550   3.735
 9422TIP3    H228224   8.240   0.435   3.818
 9423TIP3   OH228225   8.012   0.289   2.058
 9423TIP3    H128226   8.052   0.312   2.142
 9423TIP3    H228227   8.043   0.201   2.040
 9424TIP3   OH228228   0.170   0.566   3.406
 9424TIP3    H128229   0.232   0.619   3.355
 9424TIP3    H228230   0.092   0.620   3.412
 9425TIP3   OH228231   7.732   0.158   4.023
 9425TIP3    H128232   7.810   0.145   3.969
 9425TIP3    H228233   7.765   0.191   4.106
 9426TIP3   OH228234   4.927   8.023   2.428
 9426TIP3    H128235   4.906   7.985   2.512
 9426TIP3    H228236   4.968   7.952   2.378
 9427TIP3   OH228237   8.037   0.068   3.666
 9427TIP3    H128238   7.965   0.130   3.680
 9427TIP3    H228239   8.090   0.108   3.597
 9428TIP3   OH228240   5.046   7.832   2.263
 9428TIP3    H128241   5.020   7.829   2.171
 9428TIP3    H228242   5.141   7.843   2.261
 9429TIP3   OH228243   0.056   0.468   3.777
 9429TIP3    H128244   0.137   0.444   3.732
 9429TIP3    H228245   0.050   0.406   3.850
 9430TIP3   OH228246   0.152   0.146   1.946
 9430TIP3    H128247   0.141   0.101   1.862
 9430TIP3    H228248   0.143   0.238   1.924
 9431TIP3   OH228249   5.330   7.878   3.792
 9431TIP3    H128250   5.336   7.805   3.732
 9431TIP3    H228251   5.290   7.948   3.741
 9432TIP3   OH228252   5.337   7.679   3.589
 9432TIP3    H128253   5.365   7.718   3.506
 9432TIP3    H228254   5.245   7.656   3.575
 9433TIP3   OH228255   8.209   0.189   3.496
 9433TIP3    H128256   8.298   0.190   3.462
 9433TIP3    H228257   8.158   0.239   3.432
 9434TIP3   OH228258   0.277   0.154   3.836
 9434TIP3    H128259   0.329   0.075   3.843
 9434TIP3    H228260   0.341   0.225   3.824
 9435TIP3   OH228261   0.304   0.406   3.574
 9435TIP3    H128262   0.248   0.463   3.522
 9435TIP3    H228263   0.392   0.420   3.537
 9436TIP3   OH228264   5.203   7.976   4.025
 9436TIP3    H128265   5.139   7.908   4.045
 9436TIP3    H228266   5.239   7.951   3.940
 9437TIP3   OH228267   5.458   7.446   3.683
 9437TIP3    H128268   5.418   7.527   3.652
 9437TIP3    H228269   5.391   7.379   3.670
 9438TIP3   OH228270   5.589   7.928   3.887
 9438TIP3    H128271   5.580   7.919   3.982
 9438TIP3    H228272   5.501   7.907   3.853
 9439TIP3   OH228273   5.829   7.873   3.752
 9439TIP3    H128274   5.753   7.877   3.809
 9439TIP3    H228275   5.902   7.854   3.811
 9440TIP3   OH228276   6.060   7.839   3.906
 9440TIP3    H128277   6.076   7.745   3.914
 9440TIP3    H228278   6.057   7.871   3.996
 9441TIP3   OH228279   5.045   7.753   4.092
 9441TIP3    H128280   5.052   7.664   4.057
 9441TIP3    H228281   5.082   7.748   4.180
 9442TIP3   OH228282   5.530   7.432   3.948
 9442TIP3    H128283   5.600   7.367   3.941
 9442TIP3    H228284   5.497   7.441   3.858
 9443TIP3   OH228285   5.615   7.649   4.095
 9443TIP3    H128286   5.588   7.578   4.037
 9443TIP3    H228287   5.543   7.711   4.092
 9444TIP3   OH228288   7.170   0.250   2.367
 9444TIP3    H128289   7.265   0.255   2.378
 9444TIP3    H228290   7.155   0.162   2.334
 9445TIP3   OH228291   0.530   0.836   3.621
 9445TIP3    H128292   0.450   0.835   3.673
 9445TIP3    H228293   0.576   0.916   3.648
 9446TIP3   OH228294   0.327   0.318   2.282
 9446TIP3    H128295   0.392   0.377   2.246
 9446TIP3    H228296   0.364   0.289   2.365
 9447TIP3   OH228297   0.437   0.227   2.510
 9447TIP3    H128298   0.385   0.159   2.553
 9447TIP3    H228299   0.519   0.229   2.560
 9448TIP3   OH228300   0.497   0.570   2.898
 9448TIP3    H128301   0.557   0.502   2.868
 9448TIP3    H228302   0.501   0.637   2.830
 9449TIP3   OH228303   0.380   0.121   2.096
 9449TIP3    H128304   0.302   0.125   2.042
 9449TIP3    H228305   0.363   0.180   2.169
 9450TIP3   OH228306   5.848   7.745   2.083
 9450TIP3    H128307   5.898   7.827   2.089
 9450TIP3    H228308   5.815   7.744   1.993
 9451TIP3   OH228309   0.270   0.035   2.620
 9451TIP3    H128310   0.286  -0.058   2.605
 9451TIP3    H228311   0.257   0.042   2.715
 9452TIP3   OH228312   7.395   0.103   3.384
 9452TIP3    H128313   7.384   0.062   3.299
 9452TIP3    H228314   7.488   0.095   3.403
 9453TIP3   OH228315   0.547   0.452   3.462
 9453TIP3    H128316   0.620   0.391   3.455
 9453TIP3    H228317   0.578   0.531   3.417
 9454TIP3   OH228318   0.738   0.261   3.478
 9454TIP3    H128319   0.666   0.218   3.525
 9454TIP3    H228320   0.814   0.206   3.497
 9455TIP3   OH228321   5.873   7.477   2.107
 9455TIP3    H128322   5.864   7.572   2.118
 9455TIP3    H228323   5.784   7.444   2.111
 9456TIP3   OH228324   5.958   7.782   2.505
 9456TIP3    H128325   5.976   7.692   2.532
 9456TIP3    H228326   6.033   7.807   2.452
 9457TIP3   OH228327   6.089   7.951   3.022
 9457TIP3    H128328   6.169   7.971   2.974
 9457TIP3    H228329   6.104   7.987   3.109
 9458TIP3   OH228330   0.491   0.081   3.255
 9458TIP3    H128331   0.418   0.113   3.308
 9458TIP3    H228332   0.522   0.157   3.207
 9459TIP3   OH228333   4.781   7.805   4.033
 9459TIP3    H128334   4.875   7.804   4.048
 9459TIP3    H228335   4.749   7.723   4.073
 9460TIP3   OH228336   6.621   7.698   3.794
 9460TIP3    H128337   6.685   7.640   3.752
 9460TIP3    H228338   6.584   7.750   3.722
 9461TIP3   OH228339   5.995   7.531   2.599
 9461TIP3    H128340   6.071   7.515   2.655
 9461TIP3    H228341   5.962   7.444   2.577
 9462TIP3   OH228342   4.749   7.522   3.390
 9462TIP3    H128343   4.805   7.444   3.393
 9462TIP3    H228344   4.810   7.594   3.372
 9463TIP3   OH228345   4.537   7.786   3.444
 9463TIP3    H128346   4.587   7.778   3.363
 9463TIP3    H228347   4.583   7.855   3.493
 9464TIP3   OH228348   6.472   7.818   3.602
 9464TIP3    H128349   6.392   7.862   3.631
 9464TIP3    H228350   6.442   7.746   3.547
 9465TIP3   OH228351   6.193   7.501   2.149
 9465TIP3    H128352   6.287   7.487   2.136
 9465TIP3    H228353   6.188   7.564   2.221
 9466TIP3   OH228354   4.523   7.286   2.946
 9466TIP3    H128355   4.437   7.281   2.986
 9466TIP3    H228356   4.512   7.344   2.872
 9467TIP3   OH228357   4.747   7.359   3.769
 9467TIP3    H128358   4.696   7.352   3.850
 9467TIP3    H228359   4.689   7.404   3.708
 9468TIP3   OH228360   6.377   7.579   3.489
 9468TIP3    H128361   6.293   7.576   3.443
 9468TIP3    H228362   6.413   7.491   3.479
 9469TIP3   OH228363   5.582   7.500   3.122
 9469TIP3    H128364   5.546   7.427   3.172
 9469TIP3    H228365   5.653   7.461   3.071
 9470TIP3   OH228366   6.095   7.404   3.009
 9470TIP3    H128367   6.139   7.449   2.937
 9470TIP3    H228368   6.009   7.446   3.014
 9471TIP3   OH228369   6.209   7.475   2.771
 9471TIP3    H128370   6.280   7.422   2.735
 9471TIP3    H228371   6.236   7.565   2.755
 9472TIP3   OH228372   4.832   7.197   3.123
 9472TIP3    H128373   4.742   7.165   3.131
 9472TIP3    H228374   4.886   7.118   3.117
 9473TIP3   OH228375   4.629   7.090   2.770
 9473TIP3    H128376   4.669   7.141   2.700
 9473TIP3    H228377   4.601   7.155   2.834
 9474TIP3   OH228378   5.304   7.241   3.013
 9474TIP3    H128379   5.353   7.288   2.946
 9474TIP3    H228380   5.344   7.268   3.096
 9475TIP3   OH228381   5.798   7.390   2.995
 9475TIP3    H128382   5.824   7.362   2.907
 9475TIP3    H228383   5.806   7.310   3.048
 9476TIP3   OH228384   5.865   7.294   2.559
 9476TIP3    H128385   5.788   7.347   2.578
 9476TIP3    H228386   5.847   7.210   2.601
 9477TIP3   OH228387   4.767   7.225   2.553
 9477TIP3    H128388   4.813   7.165   2.495
 9477TIP3    H228389   4.835   7.284   2.585
 9478TIP3   OH228390   5.250   7.427   2.636
 9478TIP3    H128391   5.312   7.378   2.690
 9478TIP3    H228392   5.262   7.519   2.662
 9479TIP3   OH228393   5.052   7.481   4.006
 9479TIP3    H128394   5.017   7.413   4.065
 9479TIP3    H228395   5.145   7.487   4.030
 9480TIP3   OH228396   5.302   7.486   4.126
 9480TIP3    H128397   5.382   7.465   4.077
 9480TIP3    H228398   5.296   7.417   4.192
 9481TIP3   OH228399   6.129   7.569   3.917
 9481TIP3    H128400   6.146   7.541   4.007
 9481TIP3    H228401   6.214   7.565   3.874
 9482TIP3   OH228402   0.953   0.341   2.920
 9482TIP3    H128403   0.983   0.273   2.980
 9482TIP3    H228404   0.995   0.421   2.951
 9483TIP3   OH228405   0.692   0.246   2.623
 9483TIP3    H128406   0.736   0.165   2.649
 9483TIP3    H228407   0.744   0.279   2.550
 9484TIP3   OH228408   6.842   7.879   2.596
 9484TIP3    H128409   6.822   7.948   2.532
 9484TIP3    H228410   6.805   7.800   2.558
 9485TIP3   OH228411   6.495   8.034   2.691
 9485TIP3    H128412   6.579   8.023   2.736
 9485TIP3    H228413   6.501   7.976   2.615
 9486TIP3   OH228414   6.844   7.842   3.048
 9486TIP3    H128415   6.794   7.879   2.975
 9486TIP3    H228416   6.794   7.866   3.126
 9487TIP3   OH228417   6.732   7.967   2.827
 9487TIP3    H128418   6.791   8.037   2.855
 9487TIP3    H228419   6.776   7.929   2.751
 9488TIP3   OH228420   0.520   0.472   2.166
 9488TIP3    H128421   0.509   0.462   2.072
 9488TIP3    H228422   0.547   0.563   2.178
 9489TIP3   OH228423   7.201   7.596   2.730
 9489TIP3    H128424   7.286   7.575   2.770
 9489TIP3    H228425   7.140   7.598   2.804
 9490TIP3   OH228426   1.054   0.478   3.147
 9490TIP3    H128427   1.086   0.549   3.203
 9490TIP3    H228428   0.969   0.454   3.184
 9491TIP3   OH228429   0.885   0.182   2.135
 9491TIP3    H128430   0.914   0.264   2.175
 9491TIP3    H228431   0.842   0.134   2.205
 9492TIP3   OH228432   0.688   0.623   3.109
 9492TIP3    H128433   0.642   0.592   3.031
 9492TIP3    H228434   0.742   0.548   3.136
 9493TIP3   OH228435   6.964   7.641   2.899
 9493TIP3    H128436   6.883   7.609   2.859
 9493TIP3    H228437   6.936   7.716   2.953
 9494TIP3   OH228438   7.508   7.706   3.154
 9494TIP3    H128439   7.519   7.661   3.071
 9494TIP3    H228440   7.414   7.725   3.159
 9495TIP3   OH228441   1.252   0.136   2.918
 9495TIP3    H128442   1.196   0.158   2.993
 9495TIP3    H228443   1.280   0.220   2.884
 9496TIP3   OH228444   1.060   0.030   2.401
 9496TIP3    H128445   0.983  -0.024   2.416
 9496TIP3    H228446   1.077   0.023   2.307
 9497TIP3   OH228447   1.077   0.182   3.122
 9497TIP3    H128448   1.077   0.259   3.178
 9497TIP3    H228449   1.062   0.108   3.182
 9498TIP3   OH228450   6.756   7.564   1.847
 9498TIP3    H128451   6.747   7.616   1.927
 9498TIP3    H228452   6.745   7.627   1.776
 9499TIP3   OH228453   6.301   7.715   2.696
 9499TIP3    H128454   6.381   7.757   2.727
 9499TIP3    H228455   6.304   7.725   2.601
 9500TIP3   OH228456   7.108   7.794   2.531
 9500TIP3    H128457   7.027   7.829   2.570
 9500TIP3    H228458   7.150   7.747   2.603
 9501TIP3   OH228459   6.525   7.867   2.465
 9501TIP3    H128460   6.443   7.833   2.429
 9501TIP3    H228461   6.585   7.793   2.464
 9502TIP3   OH228462   6.633   7.920   1.996
 9502TIP3    H128463   6.583   7.899   1.917
 9502TIP3    H228464   6.614   8.012   2.012
 9503TIP3   OH228465   6.721   7.667   2.467
 9503TIP3    H128466   6.687   7.592   2.515
 9503TIP3    H228467   6.782   7.629   2.403
 9504TIP3   OH228468   0.805   0.397   3.233
 9504TIP3    H128469   0.824   0.369   3.323
 9504TIP3    H228470   0.728   0.346   3.208
 9505TIP3   OH228471   0.628   0.096   1.988
 9505TIP3    H128472   0.681   0.169   2.018
 9505TIP3    H228473   0.543   0.109   2.030
 9506TIP3   OH228474   6.692   7.939   3.254
 9506TIP3    H128475   6.597   7.948   3.260
 9506TIP3    H228476   6.716   7.888   3.331
 9507TIP3   OH228477   6.727   7.669   2.098
 9507TIP3    H128478   6.708   7.763   2.091
 9507TIP3    H228479   6.817   7.666   2.129
 9508TIP3   OH228480   6.304   7.831   1.969
 9508TIP3    H128481   6.306   7.926   1.984
 9508TIP3    H228482   6.303   7.794   2.057
 9509TIP3   OH228483   6.699   7.561   2.851
 9509TIP3    H128484   6.678   7.525   2.764
 9509TIP3    H228485   6.696   7.485   2.909
 9510TIP3   OH228486   0.913   0.691   3.447
 9510TIP3    H128487   0.943   0.600   3.441
 9510TIP3    H228488   0.822   0.687   3.418
 9511TIP3   OH228489   1.017   0.418   3.442
 9511TIP3    H128490   1.106   0.385   3.452
 9511TIP3    H228491   0.989   0.439   3.531
 9512TIP3   OH228492   1.407   0.136   3.265
 9512TIP3    H128493   1.472   0.069   3.286
 9512TIP3    H228494   1.376   0.112   3.178
 9513TIP3   OH228495   7.098   7.939   3.065
 9513TIP3    H128496   7.105   7.983   2.980
 9513TIP3    H228497   7.009   7.903   3.066
 9514TIP3   OH228498   1.324   0.245   3.503
 9514TIP3    H128499   1.254   0.186   3.532
 9514TIP3    H228500   1.345   0.214   3.415
 9515TIP3   OH228501   7.221   7.713   3.179
 9515TIP3    H128502   7.184   7.788   3.131
 9515TIP3    H228503   7.169   7.638   3.151
 9516TIP3   OH228504   6.838   8.007   3.546
 9516TIP3    H128505   6.851   7.923   3.503
 9516TIP3    H228506   6.864   7.992   3.637
 9517TIP3   OH228507   7.326   7.682   3.425
 9517TIP3    H128508   7.388   7.610   3.410
 9517TIP3    H228509   7.286   7.696   3.339
 9518TIP3   OH228510   7.416   7.904   3.565
 9518TIP3    H128511   7.392   7.835   3.503
 9518TIP3    H228512   7.346   7.968   3.557
 9519TIP3   OH228513   0.489   0.466   1.895
 9519TIP3    H128514   0.480   0.534   1.829
 9519TIP3    H228515   0.482   0.384   1.846
 9520TIP3   OH228516   0.686   0.374   2.865
 9520TIP3    H128517   0.675   0.331   2.781
 9520TIP3    H228518   0.780   0.370   2.883
 9521TIP3   OH228519   0.903   0.049   3.518
 9521TIP3    H128520   0.998   0.055   3.530
 9521TIP3    H228521   0.879  -0.032   3.562
 9522TIP3   OH228522   6.528   7.778   2.885
 9522TIP3    H128523   6.581   7.699   2.880
 9522TIP3    H228524   6.590   7.850   2.872
 9523TIP3   OH228525   0.663   0.031   2.924
 9523TIP3    H128526   0.710   0.013   2.842
 9523TIP3    H228527   0.713   0.101   2.965
 9524TIP3   OH228528   6.540   7.619   3.259
 9524TIP3    H128529   6.489   7.618   3.340
 9524TIP3    H228530   6.483   7.663   3.196
 9525TIP3   OH228531   6.632   7.446   2.607
 9525TIP3    H128532   6.543   7.413   2.615
 9525TIP3    H228533   6.687   7.368   2.607
 9526TIP3   OH228534   6.442   7.373   2.279
 9526TIP3    H128535   6.481   7.408   2.199
 9526TIP3    H228536   6.417   7.451   2.329
 9527TIP3   OH228537   7.081   7.488   2.506
 9527TIP3    H128538   7.101   7.559   2.445
 9527TIP3    H228539   7.121   7.515   2.589
 9528TIP3   OH228540   6.530   7.483   2.037
 9528TIP3    H128541   6.579   7.426   1.978
 9528TIP3    H228542   6.594   7.547   2.068
 9529TIP3   OH228543   6.997   7.646   2.171
 9529TIP3    H128544   7.053   7.569   2.175
 9529TIP3    H228545   7.055   7.720   2.189
 9530TIP3   OH228546   6.855   7.731   3.481
 9530TIP3    H128547   6.816   7.672   3.545
 9530TIP3    H228548   6.948   7.734   3.504
 9531TIP3   OH228549   7.111   7.714   3.594
 9531TIP3    H128550   7.185   7.714   3.533
 9531TIP3    H228551   7.127   7.640   3.652
 9532TIP3   OH228552   5.096   4.890   0.592
 9532TIP3    H128553   5.075   4.870   0.683
 9532TIP3    H228554   5.162   4.959   0.597
 9533TIP3   OH228555   4.758   5.428   0.625
 9533TIP3    H128556   4.786   5.349   0.579
 9533TIP3    H228557   4.711   5.396   0.702
 9534TIP3   OH228558   4.843   4.808   0.319
 9534TIP3    H128559   4.823   4.751   0.244
 9534TIP3    H228560   4.758   4.824   0.360
 9535TIP3   OH228561   4.878   5.248   0.451
 9535TIP3    H128562   4.915   5.168   0.414
 9535TIP3    H228563   4.935   5.318   0.419
 9536TIP3   OH228564   5.002   5.018   0.366
 9536TIP3    H128565   4.959   4.945   0.323
 9536TIP3    H228566   5.059   4.978   0.432
 9537TIP3   OH228567   4.993   4.543   0.395
 9537TIP3    H128568   4.947   4.602   0.454
 9537TIP3    H228569   5.085   4.554   0.416
 9538TIP3   OH228570   4.622   5.124   0.481
 9538TIP3    H128571   4.660   5.206   0.450
 9538TIP3    H228572   4.528   5.132   0.463
 9539TIP3   OH228573   2.382   1.053   6.676
 9539TIP3    H128574   2.393   1.146   6.660
 9539TIP3    H228575   2.469   1.016   6.664
 9540TIP3   OH228576   4.581   5.410   0.097
 9540TIP3    H128577   4.510   5.406   0.033
 9540TIP3    H228578   4.540   5.446   0.176
 9541TIP3   OH228579   1.889   1.247   6.768
 9541TIP3    H128580   1.949   1.181   6.733
 9541TIP3    H228581   1.926   1.270   6.853
 9542TIP3   OH228582   4.838   5.303   0.070
 9542TIP3    H128583   4.772   5.348   0.122
 9542TIP3    H228584   4.917   5.303   0.124
 9543TIP3   OH228585   2.153   0.390   6.831
 9543TIP3    H128586   2.106   0.379   6.748
 9543TIP3    H228587   2.209   0.466   6.816
 9544TIP3   OH228588   4.659   4.851  -0.013
 9544TIP3    H128589   4.703   4.921   0.035
 9544TIP3    H228590   4.637   4.787   0.053
 9545TIP3   OH228591   2.669   0.294   6.915
 9545TIP3    H128592   2.594   0.234   6.921
 9545TIP3    H228593   2.630   0.380   6.902
 9546TIP3   OH228594   2.268   1.081   6.929
 9546TIP3    H128595   2.292   1.009   6.987
 9546TIP3    H228596   2.315   1.064   6.848
 9547TIP3   OH228597   2.079   0.846   6.823
 9547TIP3    H128598   2.138   0.848   6.898
 9547TIP3    H228599   1.993   0.829   6.861
 9548TIP3   OH228600   2.403   1.319   6.641
 9548TIP3    H128601   2.458   1.386   6.600
 9548TIP3    H228602   2.329   1.368   6.677
 9549TIP3   OH228603   5.070   4.834   0.104
 9549TIP3    H128604   5.016   4.759   0.131
 9549TIP3    H228605   5.156   4.796   0.086
 9550TIP3   OH228606   4.342   5.101   0.021
 9550TIP3    H128607   4.374   5.113   0.110
 9550TIP3    H228608   4.364   5.182  -0.024
 9551TIP3   OH228609   5.181   5.465   0.801
 9551TIP3    H128610   5.118   5.496   0.736
 9551TIP3    H228611   5.235   5.402   0.754
 9552TIP3   OH228612   1.616   1.024   6.719
 9552TIP3    H128613   1.593   1.017   6.812
 9552TIP3    H228614   1.697   0.974   6.711
 9553TIP3   OH228615   2.075   1.071   6.669
 9553TIP3    H128616   2.083   1.004   6.736
 9553TIP3    H228617   2.164   1.103   6.656
 9554TIP3   OH228618   2.342   0.559   6.707
 9554TIP3    H128619   2.333   0.514   6.623
 9554TIP3    H228620   2.322   0.651   6.687
 9555TIP3   OH228621   1.297   1.315   6.908
 9555TIP3    H128622   1.378   1.320   6.959
 9555TIP3    H228623   1.320   1.352   6.823
 9556TIP3   OH228624   5.470   5.591   0.701
 9556TIP3    H128625   5.548   5.626   0.743
 9556TIP3    H228626   5.467   5.635   0.616
 9557TIP3   OH228627   5.337   4.788   0.050
 9557TIP3    H128628   5.392   4.855   0.009
 9557TIP3    H228629   5.375   4.774   0.136
 9558TIP3   OH228630   5.473   4.771   0.280
 9558TIP3    H128631   5.402   4.741   0.337
 9558TIP3    H228632   5.549   4.775   0.337
 9559TIP3   OH228633   5.426   5.014   0.733
 9559TIP3    H128634   5.429   4.930   0.778
 9559TIP3    H228635   5.502   5.013   0.675
 9560TIP3   OH228636   2.562   0.547   6.871
 9560TIP3    H128637   2.490   0.533   6.810
 9560TIP3    H228638   2.541   0.628   6.916
 9561TIP3   OH228639   2.412   0.206   6.830
 9561TIP3    H128640   2.352   0.280   6.833
 9561TIP3    H228641   2.373   0.147   6.766
 9562TIP3   OH228642   5.248   4.471   0.470
 9562TIP3    H128643   5.324   4.413   0.477
 9562TIP3    H228644   5.232   4.500   0.559
 9563TIP3   OH228645   5.063   5.515   0.184
 9563TIP3    H128646   5.104   5.429   0.176
 9563TIP3    H228647   5.099   5.552   0.264
 9564TIP3   OH228648   1.619   1.297   6.812
 9564TIP3    H128649   1.714   1.290   6.803
 9564TIP3    H228650   1.585   1.244   6.740
 9565TIP3   OH228651   2.378   1.341   6.932
 9565TIP3    H128652   2.338   1.257   6.955
 9565TIP3    H228653   2.312   1.385   6.879
 9566TIP3   OH228654   3.821   0.901   6.948
 9566TIP3    H128655   3.799   0.990   6.922
 9566TIP3    H228656   3.754   0.847   6.905
 9567TIP3   OH228657   6.684   4.887   0.350
 9567TIP3    H128658   6.631   4.873   0.428
 9567TIP3    H228659   6.654   4.819   0.289
 9568TIP3   OH228660   6.933   5.214   0.067
 9568TIP3    H128661   6.921   5.147   0.135
 9568TIP3    H228662   6.954   5.293   0.116
 9569TIP3   OH228663   6.015   5.206   0.527
 9569TIP3    H128664   5.942   5.188   0.467
 9569TIP3    H228665   6.085   5.240   0.471
 9570TIP3   OH228666   5.636   4.318   0.268
 9570TIP3    H128667   5.559   4.372   0.249
 9570TIP3    H228668   5.603   4.229   0.268
 9571TIP3   OH228669   5.684   4.747   0.453
 9571TIP3    H128670   5.649   4.659   0.465
 9571TIP3    H228671   5.771   4.733   0.414
 9572TIP3   OH228672   6.580   5.665   0.078
 9572TIP3    H128673   6.612   5.586   0.033
 9572TIP3    H228674   6.557   5.635   0.166
 9573TIP3   OH228675   6.438   5.091   0.383
 9573TIP3    H128676   6.457   5.030   0.312
 9573TIP3    H228677   6.520   5.137   0.398
 9574TIP3   OH228678   6.929   4.678   0.450
 9574TIP3    H128679   7.003   4.619   0.460
 9574TIP3    H228680   6.896   4.660   0.362
 9575TIP3   OH228681   6.213   4.285   0.332
 9575TIP3    H128682   6.177   4.342   0.263
 9575TIP3    H228683   6.207   4.197   0.296
 9576TIP3   OH228684   6.898   4.379   0.112
 9576TIP3    H128685   6.839   4.304   0.102
 9576TIP3    H228686   6.932   4.395   0.024
 9577TIP3   OH228687   5.835   4.413   0.528
 9577TIP3    H128688   5.902   4.368   0.578
 9577TIP3    H228689   5.854   4.390   0.437
 9578TIP3   OH228690   6.298   4.687   0.243
 9578TIP3    H128691   6.388   4.661   0.262
 9578TIP3    H228692   6.257   4.606   0.211
 9579TIP3   OH228693   7.606   4.746   0.510
 9579TIP3    H128694   7.511   4.738   0.505
 9579TIP3    H228695   7.627   4.726   0.602
 9580TIP3   OH228696   3.725   1.120   6.805
 9580TIP3    H128697   3.689   1.098   6.719
 9580TIP3    H228698   3.677   1.198   6.833
 9581TIP3   OH228699   6.368   5.009   0.637
 9581TIP3    H128700   6.344   5.082   0.694
 9581TIP3    H228701   6.394   5.051   0.555
 9582TIP3   OH228702   6.074   4.387   0.675
 9582TIP3    H128703   6.072   4.436   0.757
 9582TIP3    H228704   6.087   4.296   0.702
 9583TIP3   OH228705   6.252   5.191   0.804
 9583TIP3    H128706   6.243   5.276   0.759
 9583TIP3    H228707   6.212   5.205   0.889
 9584TIP3   OH228708   2.703   0.943   6.907
 9584TIP3    H128709   2.673   0.962   6.818
 9584TIP3    H228710   2.723   1.028   6.945
 9585TIP3   OH228711   6.982   5.453   0.205
 9585TIP3    H128712   6.897   5.446   0.249
 9585TIP3    H228713   6.978   5.538   0.160
 9586TIP3   OH228714   3.842   1.482   6.822
 9586TIP3    H128715   3.895   1.404   6.806
 9586TIP3    H228716   3.899   1.555   6.797
 9587TIP3   OH228717   3.991   1.263   6.762
 9587TIP3    H128718   3.934   1.188   6.746
 9587TIP3    H228719   4.036   1.241   6.843
 9588TIP3   OH228720   7.182   5.366   0.558
 9588TIP3    H128721   7.183   5.286   0.504
 9588TIP3    H228722   7.161   5.436   0.496
 9589TIP3   OH228723   3.659   0.751   6.780
 9589TIP3    H128724   3.578   0.797   6.759
 9589TIP3    H228725   3.706   0.745   6.697
 9590TIP3   OH228726   3.625   0.552   6.483
 9590TIP3    H128727   3.693   0.600   6.530
 9590TIP3    H228728   3.673   0.490   6.429
 9591TIP3   OH228729   4.002   0.846   6.745
 9591TIP3    H128730   3.952   0.871   6.823
 9591TIP3    H228731   4.089   0.824   6.778
 9592TIP3   OH228732   7.076   4.958   0.681
 9592TIP3    H128733   7.068   4.951   0.777
 9592TIP3    H228734   6.991   4.928   0.648
 9593TIP3   OH228735   6.088   4.839   0.163
 9593TIP3    H128736   6.050   4.780   0.098
 9593TIP3    H228737   6.168   4.796   0.191
 9594TIP3   OH228738   6.200   5.232   0.327
 9594TIP3    H128739   6.171   5.232   0.235
 9594TIP3    H228740   6.287   5.193   0.324
 9595TIP3   OH228741   6.737   5.458   0.321
 9595TIP3    H128742   6.717   5.536   0.372
 9595TIP3    H228743   6.675   5.392   0.352
 9596TIP3   OH228744   6.416   5.384   0.932
 9596TIP3    H128745   6.324   5.405   0.944
 9596TIP3    H228746   6.417   5.316   0.865
 9597TIP3   OH228747   3.848   0.694   6.577
 9597TIP3    H128748   3.902   0.759   6.623
 9597TIP3    H228749   3.874   0.702   6.485
 9598TIP3   OH228750   3.594   1.365   6.849
 9598TIP3    H128751   3.677   1.413   6.845
 9598TIP3    H228752   3.533   1.418   6.796
 9599TIP3   OH228753   6.167   5.483   0.986
 9599TIP3    H128754   6.163   5.577   1.003
 9599TIP3    H228755   6.075   5.455   0.985
 9600TIP3   OH228756   3.114   0.675   6.933
 9600TIP3    H128757   3.046   0.721   6.885
 9600TIP3    H228758   3.067   0.607   6.981
 9601TIP3   OH228759   4.178   1.300   6.182
 9601TIP3    H128760   4.176   1.394   6.164
 9601TIP3    H228761   4.269   1.275   6.162
 9602TIP3   OH228762   5.570   5.155   0.537
 9602TIP3    H128763   5.639   5.204   0.582
 9602TIP3    H228764   5.488   5.195   0.569
 9603TIP3   OH228765   7.442   5.733   0.555
 9603TIP3    H128766   7.439   5.638   0.550
 9603TIP3    H228767   7.354   5.758   0.584
 9604TIP3   OH228768   6.514   5.535   0.731
 9604TIP3    H128769   6.490   5.627   0.744
 9604TIP3    H228770   6.495   5.493   0.815
 9605TIP3   OH228771   3.485   1.599   6.659
 9605TIP3    H128772   3.438   1.580   6.577
 9605TIP3    H228773   3.451   1.684   6.687
 9606TIP3   OH228774   5.788   5.452   0.066
 9606TIP3    H128775   5.831   5.453   0.152
 9606TIP3    H228776   5.696   5.435   0.086
 9607TIP3   OH228777   3.686   1.525   6.287
 9607TIP3    H128778   3.738   1.453   6.251
 9607TIP3    H228779   3.721   1.537   6.376
 9608TIP3   OH228780   3.738   1.569   6.558
 9608TIP3    H128781   3.652   1.574   6.599
 9608TIP3    H228782   3.795   1.534   6.627
 9609TIP3   OH228783   7.331   4.886   0.886
 9609TIP3    H128784   7.265   4.953   0.868
 9609TIP3    H228785   7.281   4.807   0.904
 9610TIP3   OH228786   7.200   4.662   0.955
 9610TIP3    H128787   7.175   4.614   1.034
 9610TIP3    H228788   7.129   4.646   0.893
 9611TIP3   OH228789   3.928   0.700   6.318
 9611TIP3    H128790   3.879   0.696   6.236
 9611TIP3    H228791   4.008   0.747   6.295
 9612TIP3   OH228792   6.248   4.650   0.697
 9612TIP3    H128793   6.253   4.584   0.766
 9612TIP3    H228794   6.332   4.694   0.699
 9613TIP3   OH228795   6.099   4.484   0.183
 9613TIP3    H128796   6.015   4.440   0.196
 9613TIP3    H228797   6.133   4.448   0.101
 9614TIP3   OH228798   3.794   0.558   6.924
 9614TIP3    H128799   3.739   0.624   6.883
 9614TIP3    H228800   3.855   0.531   6.855
 9615TIP3   OH228801   6.801   4.615   0.202
 9615TIP3    H128802   6.737   4.635   0.134
 9615TIP3    H228803   6.836   4.529   0.179
 9616TIP3   OH228804   5.762   4.178   0.034
 9616TIP3    H128805   5.773   4.184  -0.061
 9616TIP3    H228806   5.672   4.208   0.050
 9617TIP3   OH228807   6.833   4.845   0.644
 9617TIP3    H128808   6.858   4.800   0.564
 9617TIP3    H228809   6.744   4.814   0.662
 9618TIP3   OH228810   5.904   4.296   0.250
 9618TIP3    H128811   5.809   4.308   0.256
 9618TIP3    H228812   5.917   4.246   0.170
 9619TIP3   OH228813   3.360   0.320   6.931
 9619TIP3    H128814   3.453   0.316   6.908
 9619TIP3    H228815   3.315   0.324   6.847
 9620TIP3   OH228816   3.217   0.356   6.701
 9620TIP3    H128817   3.150   0.319   6.645
 9620TIP3    H228818   3.268   0.413   6.643
 9621TIP3   OH228819   7.153   6.066   0.684
 9621TIP3    H128820   7.150   6.091   0.592
 9621TIP3    H228821   7.221   6.122   0.722
 9622TIP3   OH228822   6.543   4.592   0.325
 9622TIP3    H128823   6.616   4.549   0.280
 9622TIP3    H228824   6.509   4.525   0.384
 9623TIP3   OH228825   6.514   4.621   0.756
 9623TIP3    H128826   6.589   4.588   0.707
 9623TIP3    H228827   6.551   4.659   0.835
 9624TIP3   OH228828   3.428   0.890   6.718
 9624TIP3    H128829   3.352   0.835   6.701
 9624TIP3    H228830   3.406   0.938   6.798
 9625TIP3   OH228831   7.182   5.153   0.386
 9625TIP3    H128832   7.240   5.192   0.321
 9625TIP3    H228833   7.125   5.095   0.335
 9626TIP3   OH228834   3.854   0.296   6.554
 9626TIP3    H128835   3.806   0.237   6.612
 9626TIP3    H228836   3.901   0.355   6.614
 9627TIP3   OH228837   6.671   5.187   0.842
 9627TIP3    H128838   6.615   5.162   0.915
 9627TIP3    H228839   6.611   5.213   0.772
 9628TIP3   OH228840   3.972   0.486   6.722
 9628TIP3    H128841   4.067   0.494   6.725
 9628TIP3    H228842   3.944   0.557   6.665
 9629TIP3   OH228843   3.583   1.056   6.569
 9629TIP3    H128844   3.535   1.139   6.567
 9629TIP3    H228845   3.526   0.996   6.617
 9630TIP3   OH228846   6.942   5.537   0.541
 9630TIP3    H128847   6.864   5.482   0.543
 9630TIP3    H228848   6.973   5.537   0.632
 9631TIP3   OH228849   4.371   0.547   6.519
 9631TIP3    H128850   4.324   0.498   6.451
 9631TIP3    H228851   4.378   0.636   6.484
 9632TIP3   OH228852   7.434   5.466   0.595
 9632TIP3    H128853   7.341   5.443   0.602
 9632TIP3    H228854   7.465   5.417   0.519
 9633TIP3   OH228855   4.106   1.372   6.448
 9633TIP3    H128856   4.074   1.305   6.508
 9633TIP3    H228857   4.120   1.327   6.365
 9634TIP3   OH228858   6.919   5.002   0.250
 9634TIP3    H128859   6.831   4.968   0.269
 9634TIP3    H228860   6.967   4.928   0.215
 9635TIP3   OH228861   6.059   5.256   0.084
 9635TIP3    H128862   6.067   5.334   0.029
 9635TIP3    H228863   5.964   5.242   0.092
 9636TIP3   OH228864   2.813   0.524   6.753
 9636TIP3    H128865   2.853   0.611   6.762
 9636TIP3    H228866   2.725   0.535   6.789
 9637TIP3   OH228867   6.186   5.031  -0.003
 9637TIP3    H128868   6.154   5.118   0.021
 9637TIP3    H228869   6.152   4.974   0.066
 9638TIP3   OH228870   6.469   5.491   0.459
 9638TIP3    H128871   6.446   5.561   0.399
 9638TIP3    H228872   6.464   5.530   0.546
 9639TIP3   OH228873   3.182   1.472   6.868
 9639TIP3    H128874   3.094   1.468   6.906
 9639TIP3    H228875   3.203   1.565   6.868
 9640TIP3   OH228876   6.667   5.210   0.455
 9640TIP3    H128877   6.680   5.279   0.520
 9640TIP3    H228878   6.748   5.159   0.458
 9641TIP3   OH228879   3.862   1.109   6.335
 9641TIP3    H128880   3.908   1.084   6.416
 9641TIP3    H228881   3.776   1.067   6.343
 9642TIP3   OH228882   6.965   5.808   0.533
 9642TIP3    H128883   6.933   5.719   0.523
 9642TIP3    H228884   6.948   5.850   0.449
 9643TIP3   OH228885   4.184   1.575   6.149
 9643TIP3    H128886   4.209   1.638   6.082
 9643TIP3    H228887   4.111   1.616   6.195
 9644TIP3   OH228888   4.025   1.032   6.541
 9644TIP3    H128889   4.014   0.973   6.615
 9644TIP3    H228890   4.120   1.039   6.530
 9645TIP3   OH228891   5.732   5.457   0.880
 9645TIP3    H128892   5.729   5.384   0.818
 9645TIP3    H228893   5.732   5.535   0.825
 9646TIP3   OH228894   3.224   1.076   6.348
 9646TIP3    H128895   3.228   0.986   6.317
 9646TIP3    H228896   3.201   1.068   6.441
 9647TIP3   OH228897   3.161   1.086   6.620
 9647TIP3    H128898   3.236   1.065   6.676
 9647TIP3    H228899   3.157   1.181   6.621
 9648TIP3   OH228900   2.899   0.782   6.810
 9648TIP3    H128901   2.830   0.825   6.861
 9648TIP3    H228902   2.915   0.842   6.737
 9649TIP3   OH228903   3.434   1.282   6.567
 9649TIP3    H128904   3.345   1.303   6.595
 9649TIP3    H228905   3.459   1.355   6.509
 9650TIP3   OH228906   6.473   4.333   0.007
 9650TIP3    H128907   6.523   4.415  -0.002
 9650TIP3    H228908   6.482   4.310   0.099
 9651TIP3   OH228909   6.704   4.676   0.949
 9651TIP3    H128910   6.691   4.767   0.924
 9651TIP3    H228911   6.709   4.678   1.045
 9652TIP3   OH228912   3.176   1.356   6.624
 9652TIP3    H128913   3.154   1.426   6.562
 9652TIP3    H228914   3.176   1.399   6.709
 9653TIP3   OH228915   7.028   4.764   0.172
 9653TIP3    H128916   6.946   4.715   0.183
 9653TIP3    H228917   7.094   4.709   0.213
 9654TIP3   OH228918   2.906   0.970   6.606
 9654TIP3    H128919   2.974   1.036   6.619
 9654TIP3    H228920   2.944   0.907   6.545
 9655TIP3   OH228921   2.842   0.242   6.708
 9655TIP3    H128922   2.865   0.335   6.709
 9655TIP3    H228923   2.764   0.236   6.763
 9656TIP3   OH228924   6.992   5.716   0.121
 9656TIP3    H128925   6.945   5.768   0.056
 9656TIP3    H228926   7.085   5.735   0.104
 9657TIP3   OH228927   5.586   5.201   0.044
 9657TIP3    H128928   5.581   5.259   0.120
 9657TIP3    H228929   5.561   5.257  -0.030
 9658TIP3   OH228930   3.378   1.278   6.244
 9658TIP3    H128931   3.330   1.206   6.286
 9658TIP3    H228932   3.452   1.235   6.200
 9659TIP3   OH228933   6.858   5.651   1.020
 9659TIP3    H128934   6.853   5.571   0.969
 9659TIP3    H228935   6.947   5.684   1.006
 9660TIP3   OH228936   3.817   1.318   6.164
 9660TIP3    H128937   3.849   1.252   6.225
 9660TIP3    H228938   3.875   1.311   6.089
 9661TIP3   OH228939   3.047   0.777   6.476
 9661TIP3    H128940   3.103   0.754   6.550
 9661TIP3    H228941   3.107   0.791   6.404
 9662TIP3   OH228942   3.606   0.995   6.302
 9662TIP3    H128943   3.585   1.009   6.394
 9662TIP3    H228944   3.589   0.902   6.287
 9663TIP3   OH228945   6.984   5.243   0.718
 9663TIP3    H128946   7.048   5.296   0.671
 9663TIP3    H228947   6.933   5.200   0.649
 9664TIP3   OH228948   3.224   0.710   6.680
 9664TIP3    H128949   3.199   0.675   6.765
 9664TIP3    H228950   3.269   0.637   6.637
 9665TIP3   OH228951   3.356   0.519   6.532
 9665TIP3    H128952   3.323   0.526   6.442
 9665TIP3    H228953   3.451   0.528   6.524
 9666TIP3   OH228954   4.153   0.812   6.200
 9666TIP3    H128955   4.133   0.775   6.115
 9666TIP3    H228956   4.131   0.905   6.192
 9667TIP3   OH228957   6.620   4.907   0.820
 9667TIP3    H128958   6.672   4.981   0.787
 9667TIP3    H228959   6.544   4.948   0.862
 9668TIP3   OH228960   7.096   5.080   0.944
 9668TIP3    H128961   7.032   5.137   0.903
 9668TIP3    H228962   7.176   5.133   0.950
 9669TIP3   OH228963   3.169   1.565   6.446
 9669TIP3    H128964   3.260   1.552   6.422
 9669TIP3    H228965   3.131   1.615   6.373
 9670TIP3   OH228966   2.634   0.946   6.639
 9670TIP3    H128967   2.726   0.967   6.622
 9670TIP3    H228968   2.622   0.860   6.599
 9671TIP3   OH228969   5.340   5.569   0.088
 9671TIP3    H128970   5.291   5.494   0.056
 9671TIP3    H228971   5.416   5.574   0.029
 9672TIP3   OH228972   5.553   5.424   0.207
 9672TIP3    H128973   5.480   5.377   0.248
 9672TIP3    H228974   5.516   5.510   0.184
 9673TIP3   OH228975   7.257   5.782   0.097
 9673TIP3    H128976   7.262   5.824   0.183
 9673TIP3    H228977   7.316   5.833   0.042
 9674TIP3   OH228978   7.256   5.840   0.365
 9674TIP3    H128979   7.213   5.755   0.371
 9674TIP3    H228980   7.343   5.827   0.403
 9675TIP3   OH228981   7.328   5.543   0.893
 9675TIP3    H128982   7.329   5.563   0.986
 9675TIP3    H228983   7.390   5.605   0.854
 9676TIP3   OH228984   4.303   1.029   6.520
 9676TIP3    H128985   4.361   1.098   6.487
 9676TIP3    H228986   4.348   0.996   6.598
 9677TIP3   OH228987   4.434   0.911   6.727
 9677TIP3    H128988   4.367   0.873   6.784
 9677TIP3    H228989   4.497   0.951   6.787
 9678TIP3   OH228990   7.352   5.272   0.203
 9678TIP3    H128991   7.356   5.216   0.125
 9678TIP3    H228992   7.344   5.361   0.168
 9679TIP3   OH228993   7.152   5.584   0.382
 9679TIP3    H128994   7.072   5.583   0.435
 9679TIP3    H228995   7.128   5.541   0.301
 9680TIP3   OH228996   4.352   0.792   6.387
 9680TIP3    H128997   4.283   0.794   6.320
 9680TIP3    H228998   4.337   0.871   6.439
 9681TIP3   OH228999   4.218   0.463   6.307
 9681TIP3    H129000   4.205   0.548   6.264
 9681TIP3    H229001   4.168   0.402   6.254
 9682TIP3   OH229002   4.241   0.757   6.848
 9682TIP3    H129003   4.250   0.664   6.830
 9682TIP3    H229004   4.232   0.763   6.943
 9683TIP3   OH229005   5.700   4.916   0.668
 9683TIP3    H129006   5.688   4.877   0.581
 9683TIP3    H229007   5.793   4.937   0.672
 9684TIP3   OH229008   7.512   5.227   0.718
 9684TIP3    H129009   7.439   5.177   0.756
 9684TIP3    H229010   7.469   5.298   0.670
 9685TIP3   OH229011   7.589   4.954   0.810
 9685TIP3    H129012   7.519   4.915   0.862
 9685TIP3    H229013   7.654   4.884   0.802
 9686TIP3   OH229014   4.251   0.490   6.759
 9686TIP3    H129015   4.314   0.428   6.796
 9686TIP3    H229016   4.288   0.515   6.675
 9687TIP3   OH229017   7.223   4.607   0.280
 9687TIP3    H129018   7.261   4.691   0.305
 9687TIP3    H229019   7.272   4.543   0.331
 9688TIP3   OH229020   7.287   4.842   0.396
 9688TIP3    H129021   7.241   4.797   0.467
 9688TIP3    H229022   7.337   4.911   0.439
 9689TIP3   OH229023   3.990   1.682   6.718
 9689TIP3    H129024   4.044   1.671   6.639
 9689TIP3    H229025   4.029   1.756   6.763
 9690TIP3   OH229026   6.110   5.476   0.467
 9690TIP3    H129027   6.046   5.526   0.519
 9690TIP3    H229028   6.168   5.437   0.532
 9691TIP3   OH229029   6.510   5.781   0.848
 9691TIP3    H129030   6.533   5.765   0.940
 9691TIP3    H229031   6.592   5.771   0.800
 9692TIP3   OH229032   6.736   5.997   0.577
 9692TIP3    H129033   6.805   5.937   0.550
 9692TIP3    H229034   6.767   6.033   0.660
 9693TIP3   OH229035   5.710   5.707   0.756
 9693TIP3    H129036   5.701   5.776   0.690
 9693TIP3    H229037   5.730   5.753   0.837
 9694TIP3   OH229038   6.036   5.743   0.517
 9694TIP3    H129039   5.992   5.784   0.591
 9694TIP3    H229040   5.991   5.776   0.440
 9695TIP3   OH229041   6.464   5.744   0.337
 9695TIP3    H129042   6.389   5.748   0.278
 9695TIP3    H229043   6.454   5.821   0.393
 9696TIP3   OH229044   6.711   5.717   0.439
 9696TIP3    H129045   6.621   5.721   0.406
 9696TIP3    H229046   6.759   5.778   0.384
 9697TIP3   OH229047   6.884   5.903   0.299
 9697TIP3    H129048   6.885   5.991   0.263
 9697TIP3    H229049   6.913   5.847   0.227
 9698TIP3   OH229050   5.763   5.646   0.424
 9698TIP3    H129051   5.689   5.592   0.452
 9698TIP3    H229052   5.819   5.585   0.376
 9699TIP3   OH229053   5.889   5.423   0.316
 9699TIP3    H129054   5.863   5.333   0.338
 9699TIP3    H229055   5.976   5.433   0.353
 9700TIP3   OH229056   6.227   5.547   0.234
 9700TIP3    H129057   6.249   5.461   0.198
 9700TIP3    H229058   6.188   5.528   0.319
 9701TIP3   OH229059   2.643   1.371   6.805
 9701TIP3    H129060   2.553   1.339   6.818
 9701TIP3    H229061   2.633   1.449   6.750
 9702TIP3   OH229062   3.431   1.503   6.388
 9702TIP3    H129063   3.514   1.531   6.351
 9702TIP3    H229064   3.402   1.431   6.332
 9703TIP3   OH229065   4.138   1.641   6.485
 9703TIP3    H129066   4.132   1.546   6.477
 9703TIP3    H229067   4.093   1.675   6.408
 9704TIP3   OH229068   2.740   1.362   6.454
 9704TIP3    H129069   2.746   1.379   6.548
 9704TIP3    H229070   2.821   1.314   6.434
 9705TIP3   OH229071   7.202   5.795   0.655
 9705TIP3    H129072   7.123   5.805   0.601
 9705TIP3    H229073   7.206   5.875   0.707
 9706TIP3   OH229074   5.614   1.164   6.433
 9706TIP3    H129075   5.594   1.255   6.410
 9706TIP3    H229076   5.542   1.114   6.395
 9707TIP3   OH229077   5.625   1.165   6.836
 9707TIP3    H129078   5.668   1.148   6.920
 9707TIP3    H229079   5.575   1.085   6.819
 9708TIP3   OH229080   7.740   4.986   0.244
 9708TIP3    H129081   7.750   4.998   0.338
 9708TIP3    H229082   7.782   5.063   0.205
 9709TIP3   OH229083   5.888   1.462   6.512
 9709TIP3    H129084   5.875   1.401   6.585
 9709TIP3    H229085   5.912   1.545   6.553
 9710TIP3   OH229086   4.916   1.446   6.890
 9710TIP3    H129087   4.902   1.352   6.896
 9710TIP3    H229088   5.009   1.456   6.871
 9711TIP3   OH229089   4.579   0.677   6.753
 9711TIP3    H129090   4.526   0.751   6.725
 9711TIP3    H229091   4.572   0.614   6.682
 9712TIP3   OH229092   4.659   0.997   6.872
 9712TIP3    H129093   4.709   0.918   6.893
 9712TIP3    H229094   4.725   1.066   6.861
 9713TIP3   OH229095   5.473   1.860   6.533
 9713TIP3    H129096   5.533   1.828   6.465
 9713TIP3    H229097   5.530   1.876   6.608
 9714TIP3   OH229098   5.427   1.381   6.851
 9714TIP3    H129099   5.470   1.303   6.815
 9714TIP3    H229100   5.499   1.436   6.882
 9715TIP3   OH229101   5.844   0.873   6.913
 9715TIP3    H129102   5.902   0.797   6.914
 9715TIP3    H229103   5.805   0.872   6.826
 9716TIP3   OH229104   5.120   0.519   6.884
 9716TIP3    H129105   5.129   0.583   6.814
 9716TIP3    H229106   5.117   0.435   6.840
 9717TIP3   OH229107   5.796   0.639   6.550
 9717TIP3    H129108   5.887   0.611   6.544
 9717TIP3    H229109   5.771   0.659   6.459
 9718TIP3   OH229110   4.776   0.745   6.967
 9718TIP3    H129111   4.825   0.700   6.898
 9718TIP3    H229112   4.685   0.720   6.951
 9719TIP3   OH229113   5.235   0.946   6.779
 9719TIP3    H129114   5.329   0.932   6.784
 9719TIP3    H229115   5.199   0.861   6.754
 9720TIP3   OH229116   0.816   4.902   0.109
 9720TIP3    H129117   0.732   4.946   0.099
 9720TIP3    H229118   0.866   4.958   0.168
 9721TIP3   OH229119   5.528   1.384   6.280
 9721TIP3    H129120   5.489   1.355   6.198
 9721TIP3    H229121   5.476   1.460   6.306
 9722TIP3   OH229122   8.110   5.309   0.129
 9722TIP3    H129123   8.052   5.377   0.163
 9722TIP3    H229124   8.153   5.349   0.054
 9723TIP3   OH229125   7.883   4.710   0.133
 9723TIP3    H129126   7.966   4.743   0.165
 9723TIP3    H229127   7.906   4.638   0.075
 9724TIP3   OH229128   7.945   5.511   0.230
 9724TIP3    H129129   7.929   5.599   0.194
 9724TIP3    H229130   7.865   5.491   0.279
 9725TIP3   OH229131   4.488   1.209   6.414
 9725TIP3    H129132   4.456   1.228   6.325
 9725TIP3    H229133   4.513   1.295   6.449
 9726TIP3   OH229134   5.942   1.708   6.647
 9726TIP3    H129135   5.860   1.699   6.695
 9726TIP3    H229136   5.934   1.792   6.602
 9727TIP3   OH229137   5.642   1.745   6.344
 9727TIP3    H129138   5.687   1.663   6.321
 9727TIP3    H229139   5.694   1.814   6.302
 9728TIP3   OH229140   5.775   1.513   6.263
 9728TIP3    H129141   5.698   1.457   6.263
 9728TIP3    H229142   5.823   1.489   6.342
 9729TIP3   OH229143   0.502   5.612   0.059
 9729TIP3    H129144   0.483   5.538   0.002
 9729TIP3    H229145   0.484   5.689   0.006
 9730TIP3   OH229146   5.449   1.017   6.267
 9730TIP3    H129147   5.365   1.060   6.249
 9730TIP3    H229148   5.494   1.015   6.182
 9731TIP3   OH229149   5.411   0.828   5.973
 9731TIP3    H129150   5.480   0.885   6.007
 9731TIP3    H229151   5.445   0.739   5.986
 9732TIP3   OH229152   6.350   1.256   6.852
 9732TIP3    H129153   6.266   1.302   6.855
 9732TIP3    H229154   6.389   1.283   6.768
 9733TIP3   OH229155   5.799   1.101   6.241
 9733TIP3    H129156   5.738   1.126   6.310
 9733TIP3    H229157   5.885   1.099   6.284
 9734TIP3   OH229158   0.365   5.141   0.220
 9734TIP3    H129159   0.362   5.219   0.274
 9734TIP3    H229160   0.279   5.137   0.178
 9735TIP3   OH229161   5.031   1.080   6.641
 9735TIP3    H129162   4.995   1.022   6.574
 9735TIP3    H229163   5.106   1.032   6.677
 9736TIP3   OH229164   5.170   1.491   6.781
 9736TIP3    H129165   5.150   1.479   6.688
 9736TIP3    H229166   5.259   1.456   6.790
 9737TIP3   OH229167   7.983   5.070   0.074
 9737TIP3    H129168   8.021   5.037  -0.007
 9737TIP3    H229169   8.033   5.150   0.093
 9738TIP3   OH229170   5.721   1.701   6.801
 9738TIP3    H129171   5.692   1.782   6.844
 9738TIP3    H229172   5.691   1.631   6.858
 9739TIP3   OH229173   8.150   5.609   0.388
 9739TIP3    H129174   8.091   5.672   0.430
 9739TIP3    H229175   8.093   5.555   0.334
 9740TIP3   OH229176   5.640   0.964   6.060
 9740TIP3    H129177   5.696   1.025   6.108
 9740TIP3    H229178   5.671   0.968   5.970
 9741TIP3   OH229179   7.906   5.206   0.441
 9741TIP3    H129180   7.920   5.285   0.493
 9741TIP3    H229181   7.827   5.167   0.477
 9742TIP3   OH229182   5.388   1.618   6.321
 9742TIP3    H129183   5.459   1.673   6.354
 9742TIP3    H229184   5.331   1.679   6.274
 9743TIP3   OH229185   7.956   5.789   0.459
 9743TIP3    H129186   7.935   5.796   0.366
 9743TIP3    H229187   7.872   5.783   0.503
 9744TIP3   OH229188   4.912   0.922   6.439
 9744TIP3    H129189   4.835   0.967   6.404
 9744TIP3    H229190   4.885   0.831   6.449
 9745TIP3   OH229191   5.970   1.555   5.667
 9745TIP3    H129192   5.967   1.650   5.652
 9745TIP3    H229193   6.062   1.532   5.650
 9746TIP3   OH229194   7.540   5.301   0.409
 9746TIP3    H129195   7.481   5.279   0.337
 9746TIP3    H229196   7.576   5.217   0.438
 9747TIP3   OH229197   7.370   5.524   0.083
 9747TIP3    H129198   7.464   5.546   0.086
 9747TIP3    H229199   7.326   5.607   0.101
 9748TIP3   OH229200   0.729   5.982   0.118
 9748TIP3    H129201   0.738   5.887   0.129
 9748TIP3    H229202   0.648   6.004   0.164
 9749TIP3   OH229203   8.337   5.754   0.249
 9749TIP3    H129204   8.328   5.845   0.277
 9749TIP3    H229205   8.269   5.707   0.297
 9750TIP3   OH229206   5.281   1.836   6.147
 9750TIP3    H129207   5.241   1.827   6.061
 9750TIP3    H229208   5.255   1.924   6.176
 9751TIP3   OH229209   4.714   1.707   6.526
 9751TIP3    H129210   4.760   1.697   6.609
 9751TIP3    H229211   4.665   1.625   6.515
 9752TIP3   OH229212   5.481   1.781   5.778
 9752TIP3    H129213   5.534   1.709   5.744
 9752TIP3    H229214   5.515   1.795   5.866
 9753TIP3   OH229215   5.541   1.827   6.046
 9753TIP3    H129216   5.459   1.822   6.095
 9753TIP3    H229217   5.609   1.822   6.112
 9754TIP3   OH229218   0.621   5.058   0.351
 9754TIP3    H129219   0.543   5.110   0.329
 9754TIP3    H229220   0.587   4.970   0.364
 9755TIP3   OH229221   7.721   5.515   0.408
 9755TIP3    H129222   7.788   5.491   0.472
 9755TIP3    H229223   7.663   5.439   0.404
 9756TIP3   OH229224   0.380   4.904   0.374
 9756TIP3    H129225   0.373   4.958   0.453
 9756TIP3    H229226   0.363   4.964   0.302
 9757TIP3   OH229227   5.729   0.948   5.803
 9757TIP3    H129228   5.677   0.953   5.722
 9757TIP3    H229229   5.807   0.999   5.784
 9758TIP3   OH229230   8.081   4.864   0.242
 9758TIP3    H129231   8.033   4.871   0.324
 9758TIP3    H229232   8.055   4.941   0.191
 9759TIP3   OH229233   5.096   0.723   6.697
 9759TIP3    H129234   5.004   0.702   6.712
 9759TIP3    H229235   5.113   0.695   6.607
 9760TIP3   OH229236   5.593   0.833   6.413
 9760TIP3    H129237   5.536   0.900   6.375
 9760TIP3    H229238   5.648   0.804   6.340
 9761TIP3   OH229239   0.114   5.106   0.524
 9761TIP3    H129240   0.086   5.036   0.584
 9761TIP3    H229241   0.208   5.115   0.541
 9762TIP3   OH229242   5.736   0.883   6.661
 9762TIP3    H129243   5.686   0.933   6.596
 9762TIP3    H229244   5.746   0.797   6.621
 9763TIP3   OH229245   7.890   4.851   0.458
 9763TIP3    H129246   7.921   4.911   0.526
 9763TIP3    H229247   7.812   4.811   0.495
 9764TIP3   OH229248   4.644   0.490   6.552
 9764TIP3    H129249   4.678   0.505   6.463
 9764TIP3    H229250   4.551   0.474   6.539
 9765TIP3   OH229251   0.099   5.088   0.126
 9765TIP3    H129252   0.131   5.019   0.067
 9765TIP3    H229253   0.063   5.040   0.200
 9766TIP3   OH229254   4.845   0.620   6.725
 9766TIP3    H129255   4.752   0.645   6.727
 9766TIP3    H229256   4.848   0.542   6.670
 9767TIP3   OH229257   5.119   0.627   6.445
 9767TIP3    H129258   5.211   0.645   6.426
 9767TIP3    H229259   5.074   0.635   6.361
 9768TIP3   OH229260   5.006   0.638   6.201
 9768TIP3    H129261   4.927   0.611   6.155
 9768TIP3    H229262   5.060   0.678   6.133
 9769TIP3   OH229263   0.440   6.317   0.216
 9769TIP3    H129264   0.433   6.335   0.122
 9769TIP3    H229265   0.518   6.366   0.244
 9770TIP3   OH229266   7.916   5.431   0.604
 9770TIP3    H129267   7.991   5.445   0.662
 9770TIP3    H229268   7.840   5.429   0.662
 9771TIP3   OH229269   5.505   0.906   6.828
 9771TIP3    H129270   5.582   0.872   6.783
 9771TIP3    H229271   5.509   0.868   6.916
 9772TIP3   OH229272   8.342   4.824   0.146
 9772TIP3    H129273   8.255   4.830   0.186
 9772TIP3    H229274   8.402   4.857   0.214
 9773TIP3   OH229275   5.212   1.152   6.212
 9773TIP3    H129276   5.138   1.095   6.192
 9773TIP3    H229277   5.191   1.190   6.298
 9774TIP3   OH229278   6.115   1.399   6.825
 9774TIP3    H129279   6.145   1.452   6.751
 9774TIP3    H229280   6.031   1.364   6.797
 9775TIP3   OH229281   5.545   0.592   6.016
 9775TIP3    H129282   5.482   0.521   6.004
 9775TIP3    H229283   5.575   0.583   6.106
 9776TIP3   OH229284   8.460   5.484   0.291
 9776TIP3    H129285   8.508   5.477   0.373
 9776TIP3    H229286   8.420   5.571   0.293
 9777TIP3   OH229287   5.757   0.757   6.204
 9777TIP3    H129288   5.844   0.789   6.229
 9777TIP3    H229289   5.721   0.828   6.150
 9778TIP3   OH229290   4.919   1.156   6.882
 9778TIP3    H129291   4.946   1.142   6.791
 9778TIP3    H229292   4.994   1.128   6.934
 9779TIP3   OH229293   5.373   1.307   6.056
 9779TIP3    H129294   5.327   1.391   6.053
 9779TIP3    H229295   5.315   1.251   6.108
 9780TIP3   OH229296   7.678   5.074   0.527
 9780TIP3    H129297   7.711   5.086   0.616
 9780TIP3    H229298   7.598   5.023   0.538
 9781TIP3   OH229299   8.373   5.242   0.571
 9781TIP3    H129300   8.310   5.193   0.518
 9781TIP3    H229301   8.458   5.210   0.541
 9782TIP3   OH229302   0.108   5.767   0.178
 9782TIP3    H129303   0.013   5.757   0.183
 9782TIP3    H229304   0.131   5.812   0.259
 9783TIP3   OH229305   6.149   0.847   6.025
 9783TIP3    H129306   6.128   0.779   5.961
 9783TIP3    H229307   6.149   0.928   5.974
 9784TIP3   OH229308   0.747   5.704   0.144
 9784TIP3    H129309   0.654   5.685   0.147
 9784TIP3    H229310   0.777   5.670   0.060
 9785TIP3   OH229311   5.909   1.633   5.940
 9785TIP3    H129312   5.869   1.574   6.004
 9785TIP3    H229313   5.914   1.581   5.859
 9786TIP3   OH229314   5.876   1.277   6.735
 9786TIP3    H129315   5.785   1.253   6.754
 9786TIP3    H229316   5.917   1.195   6.708
 9787TIP3   OH229317   5.036   1.501   6.529
 9787TIP3    H129318   5.041   1.578   6.473
 9787TIP3    H229319   4.943   1.487   6.543
 9788TIP3   OH229320   4.578   0.801   6.229
 9788TIP3    H129321   4.623   0.883   6.251
 9788TIP3    H229322   4.501   0.800   6.286
 9789TIP3   OH229323   5.133   1.254   6.449
 9789TIP3    H129324   5.113   1.345   6.473
 9789TIP3    H229325   5.099   1.202   6.522
 9790TIP3   OH229326   8.147   5.828   0.042
 9790TIP3    H129327   8.181   5.900  -0.010
 9790TIP3    H229328   8.223   5.794   0.089
 9791TIP3   OH229329   4.949   1.727   6.378
 9791TIP3    H129330   4.862   1.734   6.419
 9791TIP3    H229331   4.983   1.817   6.381
 9792TIP3   OH229332   0.000   5.484   0.018
 9792TIP3    H129333  -0.010   5.478   0.113
 9792TIP3    H229334   0.080   5.434  -0.000
 9793TIP3   OH229335   5.655   1.363   5.825
 9793TIP3    H129336   5.705   1.332   5.901
 9793TIP3    H229337   5.567   1.328   5.838
 9794TIP3   OH229338   0.256   5.998   0.053
 9794TIP3    H129339   0.181   5.940   0.059
 9794TIP3    H229340   0.235   6.058  -0.019
 9795TIP3   OH229341   5.976   1.830   5.636
 9795TIP3    H129342   6.000   1.894   5.569
 9795TIP3    H229343   5.903   1.871   5.683
 9796TIP3   OH229344   5.825   1.263   6.015
 9796TIP3    H129345   5.811   1.222   6.100
 9796TIP3    H229346   5.918   1.282   6.012
 9797TIP3   OH229347   7.573   5.729   0.204
 9797TIP3    H129348   7.628   5.670   0.256
 9797TIP3    H229349   7.591   5.816   0.239
 9798TIP3   OH229350   5.016   1.337   5.837
 9798TIP3    H129351   5.025   1.245   5.811
 9798TIP3    H229352   4.997   1.334   5.930
 9799TIP3   OH229353   4.957   1.347   6.108
 9799TIP3    H129354   5.030   1.320   6.163
 9799TIP3    H229355   4.955   1.442   6.116
 9800TIP3   OH229356   4.689   1.041   6.320
 9800TIP3    H129357   4.624   1.088   6.372
 9800TIP3    H229358   4.710   1.100   6.248
 9801TIP3   OH229359   5.224   1.533   6.048
 9801TIP3    H129360   5.140   1.558   6.086
 9801TIP3    H229361   5.255   1.611   6.002
 9802TIP3   OH229362   5.390   0.651   6.439
 9802TIP3    H129363   5.458   0.716   6.456
 9802TIP3    H229364   5.404   0.583   6.505
 9803TIP3   OH229365   0.027   4.922   0.335
 9803TIP3    H129366   0.039   4.991   0.400
 9803TIP3    H229367   0.078   4.848   0.367
 9804TIP3   OH229368   4.973   1.618   6.127
 9804TIP3    H129369   4.952   1.687   6.064
 9804TIP3    H229370   4.964   1.660   6.212
 9805TIP3   OH229371   5.980   1.026   6.666
 9805TIP3    H129372   5.899   0.975   6.669
 9805TIP3    H229373   6.046   0.969   6.705
 9806TIP3   OH229374   4.706   1.223   6.106
 9806TIP3    H129375   4.776   1.287   6.115
 9806TIP3    H229376   4.740   1.160   6.042
 9807TIP3   OH229377   4.674   0.548   6.288
 9807TIP3    H129378   4.651   0.637   6.263
 9807TIP3    H229379   4.641   0.493   6.217
 9808TIP3   OH229380   5.950   1.979   6.574
 9808TIP3    H129381   5.905   2.020   6.500
 9808TIP3    H229382   6.043   1.991   6.556
 9809TIP3   OH229383   4.544   1.478   6.498
 9809TIP3    H129384   4.498   1.514   6.573
 9809TIP3    H229385   4.503   1.520   6.422
 9810TIP3   OH229386   7.573   6.019   0.587
 9810TIP3    H129387   7.624   6.010   0.668
 9810TIP3    H229388   7.578   5.933   0.546
 9811TIP3   OH229389   8.072   5.921   0.670
 9811TIP3    H129390   8.161   5.884   0.673
 9811TIP3    H229391   8.032   5.879   0.594
 9812TIP3   OH229392   5.173   1.535   5.728
 9812TIP3    H129393   5.126   1.466   5.774
 9812TIP3    H229394   5.248   1.491   5.688
 9813TIP3   OH229395   0.162   5.884   0.421
 9813TIP3    H129396   0.174   5.813   0.483
 9813TIP3    H229397   0.238   5.941   0.435
 9814TIP3   OH229398   5.613   1.574   5.654
 9814TIP3    H129399   5.644   1.507   5.715
 9814TIP3    H229400   5.674   1.568   5.580
 9815TIP3   OH229401   7.676   5.432   0.729
 9815TIP3    H129402   7.653   5.341   0.747
 9815TIP3    H229403   7.599   5.469   0.688
 9816TIP3   OH229404   4.835   1.032   5.960
 9816TIP3    H129405   4.886   1.007   6.037
 9816TIP3    H229406   4.901   1.048   5.892
 9817TIP3   OH229407   8.303   5.511   0.594
 9817TIP3    H129408   8.258   5.530   0.512
 9817TIP3    H229409   8.339   5.422   0.581
 9818TIP3   OH229410   5.390   1.255   5.787
 9818TIP3    H129411   5.370   1.267   5.880
 9818TIP3    H229412   5.376   1.162   5.771
 9819TIP3   OH229413   0.274   5.543   0.204
 9819TIP3    H129414   0.352   5.575   0.158
 9819TIP3    H229415   0.209   5.612   0.190
 9820TIP3   OH229416   7.868   5.123   0.748
 9820TIP3    H129417   7.935   5.054   0.742
 9820TIP3    H229418   7.906   5.187   0.808
 9821TIP3   OH229419   5.008   0.970   6.172
 9821TIP3    H129420   4.989   0.938   6.260
 9821TIP3    H229421   5.052   0.897   6.129
 9822TIP3   OH229422   8.136   5.058   0.462
 9822TIP3    H129423   8.057   5.111   0.456
 9822TIP3    H229424   8.190   5.085   0.388
 9823TIP3   OH229425   5.141   0.785   6.014
 9823TIP3    H129426   5.110   0.780   5.924
 9823TIP3    H229427   5.235   0.801   6.006
 9824TIP3   OH229428   0.155   5.428   0.575
 9824TIP3    H129429   0.224   5.391   0.520
 9824TIP3    H229430   0.149   5.367   0.649
 9825TIP3   OH229431   5.947   1.069   5.682
 9825TIP3    H129432   5.925   1.032   5.597
 9825TIP3    H229433   5.921   1.161   5.675
 9826TIP3   OH229434   8.241   4.836   0.582
 9826TIP3    H129435   8.215   4.768   0.520
 9826TIP3    H229436   8.206   4.917   0.544
 9827TIP3   OH229437   8.298   5.170   0.276
 9827TIP3    H129438   8.383   5.195   0.241
 9827TIP3    H229439   8.235   5.222   0.227
 9828TIP3   OH229440   0.393   5.093   0.584
 9828TIP3    H129441   0.387   5.051   0.670
 9828TIP3    H229442   0.476   5.141   0.587
 9829TIP3   OH229443   0.397   5.373   0.375
 9829TIP3    H129444   0.342   5.432   0.323
 9829TIP3    H229445   0.485   5.387   0.342
 9830TIP3   OH229446   8.098   4.972   0.784
 9830TIP3    H129447   8.061   4.922   0.857
 9830TIP3    H229448   8.154   4.909   0.738
 9831TIP3   OH229449   8.504   4.893   0.653
 9831TIP3    H129450   8.514   4.854   0.740
 9831TIP3    H229451   8.414   4.872   0.628
 9832TIP3   OH229452   4.961   1.817   5.935
 9832TIP3    H129453   5.053   1.805   5.915
 9832TIP3    H229454   4.927   1.867   5.861
 9833TIP3   OH229455   4.434   1.206   6.129
 9833TIP3    H129456   4.528   1.222   6.122
 9833TIP3    H229457   4.420   1.120   6.090
 9834TIP3   OH229458   4.343   1.797   6.577
 9834TIP3    H129459   4.278   1.744   6.531
 9834TIP3    H229460   4.388   1.736   6.635
 9835TIP3   OH229461   4.483   1.629   6.746
 9835TIP3    H129462   4.464   1.566   6.816
 9835TIP3    H229463   4.538   1.695   6.789
 9836TIP3   OH229464   6.221   2.029   6.558
 9836TIP3    H129465   6.239   2.061   6.646
 9836TIP3    H229466   6.271   2.087   6.500
 9837TIP3   OH229467   6.237   2.066   6.837
 9837TIP3    H129468   6.188   1.984   6.832
 9837TIP3    H229469   6.307   2.048   6.900
 9838TIP3   OH229470   0.620   5.773   0.465
 9838TIP3    H129471   0.545   5.777   0.524
 9838TIP3    H229472   0.661   5.859   0.473
 9839TIP3   OH229473   6.103   1.291   6.015
 9839TIP3    H129474   6.161   1.361   5.986
 9839TIP3    H229475   6.142   1.259   6.096
 9840TIP3   OH229476   6.223   1.174   6.233
 9840TIP3    H129477   6.155   1.153   6.298
 9840TIP3    H229478   6.291   1.219   6.283
 9841TIP3   OH229479   6.281   1.547   6.659
 9841TIP3    H129480   6.335   1.481   6.617
 9841TIP3    H229481   6.279   1.620   6.597
 9842TIP3   OH229482   6.098   1.825   6.848
 9842TIP3    H129483   6.027   1.869   6.896
 9842TIP3    H229484   6.054   1.784   6.774
 9843TIP3   OH229485   6.150   1.070   5.863
 9843TIP3    H129486   6.080   1.068   5.798
 9843TIP3    H229487   6.132   1.147   5.915
 9844TIP3   OH229488   6.017   0.730   5.799
 9844TIP3    H129489   5.999   0.802   5.739
 9844TIP3    H229490   5.932   0.709   5.839
 9845TIP3   OH229491   6.028   1.075   6.399
 9845TIP3    H129492   6.029   0.983   6.374
 9845TIP3    H229493   6.016   1.075   6.494
 9846TIP3   OH229494   0.648   5.419   0.268
 9846TIP3    H129495   0.715   5.353   0.256
 9846TIP3    H229496   0.652   5.473   0.189
 9847TIP3   OH229497   0.827   5.213   0.268
 9847TIP3    H129498   0.756   5.159   0.304
 9847TIP3    H229499   0.907   5.167   0.292
 9848TIP3   OH229500   6.013   0.828   6.265
 9848TIP3    H129501   6.081   0.811   6.330
 9848TIP3    H229502   6.061   0.838   6.183
 9849TIP3   OH229503   6.179   0.864   6.787
 9849TIP3    H129504   6.254   0.887   6.734
 9849TIP3    H229505   6.193   0.910   6.870
 9850TIP3   OH229506   0.577   5.048   0.051
 9850TIP3    H129507   0.506   5.080   0.105
 9850TIP3    H229508   0.614   5.126   0.010
 9851TIP3   OH229509   7.768   4.754   0.762
 9851TIP3    H129510   7.790   4.766   0.854
 9851TIP3    H229511   7.771   4.660   0.748
 9852TIP3   OH229512   5.782   1.918   6.191
 9852TIP3    H129513   5.845   1.921   6.120
 9852TIP3    H229514   5.803   1.993   6.246
 9853TIP3   OH229515   7.723   5.766   0.594
 9853TIP3    H129516   7.658   5.707   0.557
 9853TIP3    H229517   7.742   5.731   0.681
 9854TIP3   OH229518   7.918   5.786   0.186
 9854TIP3    H129519   7.866   5.860   0.154
 9854TIP3    H229520   8.002   5.794   0.141
 9855TIP3   OH229521   8.325   6.019   0.331
 9855TIP3    H129522   8.363   6.015   0.419
 9855TIP3    H229523   8.387   6.072   0.280
 9856TIP3   OH229524   0.012   6.175   0.201
 9856TIP3    H129525   0.073   6.125   0.147
 9856TIP3    H229526   0.067   6.231   0.255
 9857TIP3   OH229527   7.578   6.023   0.242
 9857TIP3    H129528   7.490   6.044   0.211
 9857TIP3    H229529   7.601   6.096   0.300
 9858TIP3   OH229530   7.809   6.018   0.088
 9858TIP3    H129531   7.725   6.024   0.134
 9858TIP3    H229532   7.789   6.045  -0.002
 9859TIP3   OH229533   5.399   2.026   6.818
 9859TIP3    H129534   5.335   2.031   6.747
 9859TIP3    H229535   5.405   2.116   6.850
 9860TIP3   OH229536   5.663   1.968   6.871
 9860TIP3    H129537   5.570   1.984   6.854
 9860TIP3    H229538   5.708   2.036   6.821
 9861TIP3   OH229539   5.867   2.152   6.773
 9861TIP3    H129540   5.856   2.238   6.733
 9861TIP3    H229541   5.893   2.095   6.701
 9862TIP3   OH229542   4.661   1.809   6.891
 9862TIP3    H129543   4.685   1.787   6.981
 9862TIP3    H229544   4.732   1.773   6.838
 9863TIP3   OH229545   4.860   1.682   6.759
 9863TIP3    H129546   4.872   1.599   6.806
 9863TIP3    H229547   4.946   1.723   6.760
 9864TIP3   OH229548   5.123   1.772   6.780
 9864TIP3    H129549   5.148   1.682   6.760
 9864TIP3    H229550   5.180   1.797   6.853
 9865TIP3   OH229551   4.428   1.602   6.283
 9865TIP3    H129552   4.344   1.569   6.252
 9865TIP3    H229553   4.432   1.692   6.252
 9866TIP3   OH229554   5.224   1.760   5.876
 9866TIP3    H129555   5.308   1.788   5.840
 9866TIP3    H229556   5.197   1.688   5.820
 9867TIP3   OH229557   5.945   1.902   5.964
 9867TIP3    H129558   5.937   1.807   5.958
 9867TIP3    H229559   5.893   1.936   5.891
 9868TIP3   OH229560   4.523   1.598   5.931
 9868TIP3    H129561   4.527   1.617   6.025
 9868TIP3    H229562   4.606   1.554   5.912
 9869TIP3   OH229563   0.479   6.044   0.217
 9869TIP3    H129564   0.405   6.013   0.166
 9869TIP3    H229565   0.465   6.139   0.224
 9870TIP3   OH229566   7.416   1.417   5.930
 9870TIP3    H129567   7.395   1.507   5.906
 9870TIP3    H229568   7.346   1.365   5.889
 9871TIP3   OH229569   7.412   1.431   6.287
 9871TIP3    H129570   7.432   1.434   6.380
 9871TIP3    H229571   7.366   1.348   6.274
 9872TIP3   OH229572   6.718   1.281   6.681
 9872TIP3    H129573   6.749   1.223   6.751
 9872TIP3    H229574   6.777   1.357   6.685
 9873TIP3   OH229575   7.683   1.729   5.993
 9873TIP3    H129576   7.650   1.676   6.066
 9873TIP3    H229577   7.713   1.810   6.033
 9874TIP3   OH229578   6.713   1.709   6.374
 9874TIP3    H129579   6.698   1.615   6.383
 9874TIP3    H229580   6.807   1.716   6.356
 9875TIP3   OH229581   6.370   0.955   6.150
 9875TIP3    H129582   6.335   1.038   6.183
 9875TIP3    H229583   6.292   0.905   6.124
 9876TIP3   OH229584   6.459   1.264   6.345
 9876TIP3    H129585   6.511   1.196   6.386
 9876TIP3    H229586   6.523   1.329   6.315
 9877TIP3   OH229587   7.339   2.161   6.008
 9877TIP3    H129588   7.370   2.096   5.944
 9877TIP3    H229589   7.332   2.112   6.090
 9878TIP3   OH229590   7.223   1.646   6.328
 9878TIP3    H129591   7.260   1.571   6.282
 9878TIP3    H229592   7.299   1.695   6.360
 9879TIP3   OH229593   7.602   1.161   6.405
 9879TIP3    H129594   7.618   1.069   6.425
 9879TIP3    H229595   7.563   1.160   6.317
 9880TIP3   OH229596   7.036   0.728   6.297
 9880TIP3    H129597   7.016   0.816   6.329
 9880TIP3    H229598   6.959   0.703   6.246
 9881TIP3   OH229599   7.570   0.857   6.021
 9881TIP3    H129600   7.664   0.839   6.015
 9881TIP3    H229601   7.542   0.872   5.931
 9882TIP3   OH229602   6.605   1.099   6.503
 9882TIP3    H129603   6.644   1.153   6.571
 9882TIP3    H229604   6.679   1.054   6.462
 9883TIP3   OH229605   7.050   1.232   6.238
 9883TIP3    H129606   7.143   1.219   6.255
 9883TIP3    H229607   7.021   1.150   6.199
 9884TIP3   OH229608   7.313   1.629   5.783
 9884TIP3    H129609   7.278   1.607   5.697
 9884TIP3    H229610   7.268   1.709   5.808
 9885TIP3   OH229611   7.073   1.563   6.548
 9885TIP3    H129612   7.016   1.631   6.584
 9885TIP3    H229613   7.117   1.606   6.474
 9886TIP3   OH229614   6.815   0.952   6.630
 9886TIP3    H129615   6.902   0.991   6.638
 9886TIP3    H229616   6.808   0.927   6.538
 9887TIP3   OH229617   6.910   1.762   6.658
 9887TIP3    H129618   6.894   1.849   6.622
 9887TIP3    H229619   6.831   1.740   6.706
 9888TIP3   OH229620   6.288   1.468   5.904
 9888TIP3    H129621   6.252   1.485   5.817
 9888TIP3    H229622   6.310   1.555   5.938
 9889TIP3   OH229623   7.729   1.969   6.137
 9889TIP3    H129624   7.642   1.961   6.175
 9889TIP3    H229625   7.729   2.054   6.094
 9890TIP3   OH229626   7.434   2.003   5.798
 9890TIP3    H129627   7.484   1.923   5.784
 9890TIP3    H229628   7.492   2.074   5.769
 9891TIP3   OH229629   7.584   1.784   5.739
 9891TIP3    H129630   7.550   1.703   5.702
 9891TIP3    H229631   7.626   1.758   5.821
 9892TIP3   OH229632   7.939   1.859   6.500
 9892TIP3    H129633   7.946   1.784   6.440
 9892TIP3    H229634   7.945   1.936   6.444
 9893TIP3   OH229635   7.245   1.278   5.758
 9893TIP3    H129636   7.164   1.323   5.736
 9893TIP3    H229637   7.291   1.270   5.674
 9894TIP3   OH229638   7.207   1.097   5.453
 9894TIP3    H129639   7.277   1.151   5.490
 9894TIP3    H229640   7.238   1.007   5.464
 9895TIP3   OH229641   8.171   1.537   6.330
 9895TIP3    H129642   8.082   1.572   6.329
 9895TIP3    H229643   8.199   1.538   6.238
 9896TIP3   OH229644   7.594   1.360   5.725
 9896TIP3    H129645   7.536   1.383   5.798
 9896TIP3    H229646   7.682   1.359   5.765
 9897TIP3   OH229647   7.870   1.387   6.463
 9897TIP3    H129648   7.937   1.454   6.475
 9897TIP3    H229649   7.807   1.427   6.402
 9898TIP3   OH229650   6.821   1.341   6.130
 9898TIP3    H129651   6.788   1.280   6.063
 9898TIP3    H229652   6.904   1.302   6.159
 9899TIP3   OH229653   6.968   1.757   6.264
 9899TIP3    H129654   6.945   1.741   6.172
 9899TIP3    H229655   7.056   1.720   6.273
 9900TIP3   OH229656   6.966   1.316   6.489
 9900TIP3    H129657   6.997   1.293   6.402
 9900TIP3    H229658   7.007   1.401   6.508
 9901TIP3   OH229659   7.490   1.956   6.266
 9901TIP3    H129660   7.478   2.035   6.318
 9901TIP3    H229661   7.480   1.884   6.328
 9902TIP3   OH229662   7.102   1.866   6.828
 9902TIP3    H129663   7.039   1.927   6.869
 9902TIP3    H229664   7.049   1.814   6.769
 9903TIP3   OH229665   7.435   1.216   5.554
 9903TIP3    H129666   7.494   1.274   5.603
 9903TIP3    H229667   7.467   1.221   5.464
 9904TIP3   OH229668   6.846   1.454   6.900
 9904TIP3    H129669   6.845   1.538   6.945
 9904TIP3    H229670   6.761   1.414   6.921
 9905TIP3   OH229671   7.189   1.877   5.815
 9905TIP3    H129672   7.270   1.928   5.816
 9905TIP3    H229673   7.127   1.931   5.765
 9906TIP3   OH229674   6.894   2.029   6.908
 9906TIP3    H129675   6.868   2.035   6.816
 9906TIP3    H229676   6.812   2.010   6.955
 9907TIP3   OH229677   6.702   1.173   5.935
 9907TIP3    H129678   6.632   1.223   5.894
 9907TIP3    H229679   6.657   1.099   5.977
 9908TIP3   OH229680   7.762   1.817   5.156
 9908TIP3    H129681   7.759   1.910   5.136
 9908TIP3    H229682   7.852   1.791   5.138
 9909TIP3   OH229683   6.486   1.580   6.849
 9909TIP3    H129684   6.415   1.563   6.788
 9909TIP3    H229685   6.518   1.494   6.874
 9910TIP3   OH229686   6.330   1.775   6.500
 9910TIP3    H129687   6.422   1.798   6.516
 9910TIP3    H229688   6.281   1.852   6.529
 9911TIP3   OH229689   8.178   2.253   6.529
 9911TIP3    H129690   8.197   2.159   6.521
 9911TIP3    H229691   8.097   2.257   6.580
 9912TIP3   OH229692   7.291   1.999   6.675
 9912TIP3    H129693   7.292   2.092   6.701
 9912TIP3    H229694   7.221   1.961   6.728
 9913TIP3   OH229695   7.077   2.113   5.632
 9913TIP3    H129696   7.030   2.092   5.551
 9913TIP3    H229697   7.040   2.196   5.660
 9914TIP3   OH229698   6.512   1.962   6.010
 9914TIP3    H129699   6.553   1.954   6.096
 9914TIP3    H229700   6.459   1.883   6.002
 9915TIP3   OH229701   7.278   2.037   5.261
 9915TIP3    H129702   7.330   1.965   5.225
 9915TIP3    H229703   7.313   2.049   5.350
 9916TIP3   OH229704   7.330   2.081   5.531
 9916TIP3    H129705   7.244   2.087   5.572
 9916TIP3    H229706   7.387   2.046   5.600
 9917TIP3   OH229707   6.682   1.769   6.816
 9917TIP3    H129708   6.731   1.758   6.898
 9917TIP3    H229709   6.611   1.706   6.822
 9918TIP3   OH229710   7.516   1.218   5.296
 9918TIP3    H129711   7.467   1.219   5.214
 9918TIP3    H229712   7.599   1.262   5.274
 9919TIP3   OH229713   7.037   1.127   6.680
 9919TIP3    H129714   6.970   1.136   6.748
 9919TIP3    H229715   7.013   1.192   6.614
 9920TIP3   OH229716   6.929   1.018   6.118
 9920TIP3    H129717   6.835   1.004   6.108
 9920TIP3    H229718   6.964   1.001   6.030
 9921TIP3   OH229719   7.374   1.099   5.914
 9921TIP3    H129720   7.316   1.161   5.871
 9921TIP3    H229721   7.433   1.069   5.845
 9922TIP3   OH229722   7.515   1.201   6.122
 9922TIP3    H129723   7.494   1.293   6.102
 9922TIP3    H229724   7.462   1.151   6.060
 9923TIP3   OH229725   6.838   1.115   6.870
 9923TIP3    H129726   6.847   1.124   6.965
 9923TIP3    H229727   6.824   1.022   6.856
 9924TIP3   OH229728   6.467   0.808   5.939
 9924TIP3    H129729   6.524   0.749   5.988
 9924TIP3    H229730   6.427   0.863   6.006
 9925TIP3   OH229731   7.492   1.375   6.542
 9925TIP3    H129732   7.524   1.296   6.499
 9925TIP3    H229733   7.558   1.394   6.609
 9926TIP3   OH229734   6.650   0.940   6.136
 9926TIP3    H129735   6.556   0.954   6.147
 9926TIP3    H229736   6.659   0.845   6.127
 9927TIP3   OH229737   6.980   0.955   5.862
 9927TIP3    H129738   7.069   0.922   5.851
 9927TIP3    H229739   6.937   0.938   5.779
 9928TIP3   OH229740   6.815   0.889   5.659
 9928TIP3    H129741   6.725   0.877   5.630
 9928TIP3    H229742   6.856   0.939   5.589
 9929TIP3   OH229743   7.897   2.569   6.637
 9929TIP3    H129744   7.898   2.592   6.544
 9929TIP3    H229745   7.970   2.618   6.675
 9930TIP3   OH229746   1.162   5.698   0.105
 9930TIP3    H129747   1.242   5.722   0.152
 9930TIP3    H229748   1.096   5.691   0.174
 9931TIP3   OH229749   7.304   1.174   6.319
 9931TIP3    H129750   7.360   1.112   6.272
 9931TIP3    H229751   7.314   1.150   6.412
 9932TIP3   OH229752   7.292   1.087   6.574
 9932TIP3    H129753   7.215   1.104   6.629
 9932TIP3    H229754   7.366   1.100   6.634
 9933TIP3   OH229755   7.007   1.410   5.701
 9933TIP3    H129756   6.933   1.352   5.683
 9933TIP3    H229757   6.987   1.448   5.787
 9934TIP3   OH229758   7.921   1.652   6.312
 9934TIP3    H129759   7.953   1.704   6.239
 9934TIP3    H229760   7.835   1.621   6.283
 9935TIP3   OH229761   7.342   0.864   5.486
 9935TIP3    H129762   7.318   0.782   5.529
 9935TIP3    H229763   7.436   0.873   5.503
 9936TIP3   OH229764   7.407   1.737   6.691
 9936TIP3    H129765   7.418   1.704   6.780
 9936TIP3    H229766   7.369   1.824   6.703
 9937TIP3   OH229767   7.551   1.008   5.731
 9937TIP3    H129768   7.628   1.049   5.770
 9937TIP3    H229769   7.534   1.057   5.651
 9938TIP3   OH229770   6.713   1.419   6.371
 9938TIP3    H129771   6.747   1.402   6.283
 9938TIP3    H229772   6.777   1.378   6.430
 9939TIP3   OH229773   7.168   1.566   5.546
 9939TIP3    H129774   7.124   1.651   5.543
 9939TIP3    H229775   7.110   1.510   5.598
 9940TIP3   OH229776   0.927   5.366   0.041
 9940TIP3    H129777   0.953   5.360   0.132
 9940TIP3    H229778   0.859   5.300   0.030
 9941TIP3   OH229779   1.642   5.505   0.072
 9941TIP3    H129780   1.567   5.465   0.028
 9941TIP3    H229781   1.686   5.433   0.116
 9942TIP3   OH229782   7.561   1.999   6.575
 9942TIP3    H129783   7.467   1.981   6.581
 9942TIP3    H229784   7.579   2.056   6.650
 9943TIP3   OH229785   7.980   1.094   5.473
 9943TIP3    H129786   7.918   1.045   5.419
 9943TIP3    H229787   7.976   1.183   5.440
 9944TIP3   OH229788   7.695   1.888   5.422
 9944TIP3    H129789   7.667   1.820   5.483
 9944TIP3    H229790   7.707   1.842   5.339
 9945TIP3   OH229791   7.685   1.510   6.256
 9945TIP3    H129792   7.590   1.495   6.257
 9945TIP3    H229793   7.719   1.444   6.196
 9946TIP3   OH229794   6.826   1.757   6.017
 9946TIP3    H129795   6.825   1.833   5.959
 9946TIP3    H229796   6.734   1.742   6.038
 9947TIP3   OH229797   6.382   1.067   5.715
 9947TIP3    H129798   6.434   1.145   5.738
 9947TIP3    H229799   6.304   1.074   5.772
 9948TIP3   OH229800   6.927   1.512   5.937
 9948TIP3    H129801   6.906   1.603   5.959
 9948TIP3    H229802   6.890   1.461   6.009
 9949TIP3   OH229803   7.106   2.081   6.471
 9949TIP3    H129804   7.142   2.153   6.420
 9949TIP3    H229805   7.181   2.046   6.518
 9950TIP3   OH229806   6.745   1.981   5.864
 9950TIP3    H129807   6.658   1.986   5.904
 9950TIP3    H229808   6.778   2.071   5.868
 9951TIP3   OH229809   7.473   1.726   6.428
 9951TIP3    H129810   7.454   1.725   6.521
 9951TIP3    H229811   7.556   1.680   6.419
 9952TIP3   OH229812   7.453   1.624   5.315
 9952TIP3    H129813   7.496   1.602   5.397
 9952TIP3    H229814   7.366   1.584   5.322
 9953TIP3   OH229815   7.708   2.244   6.474
 9953TIP3    H129816   7.634   2.184   6.471
 9953TIP3    H229817   7.693   2.305   6.402
 9954TIP3   OH229818   7.772   2.091   5.118
 9954TIP3    H129819   7.782   2.149   5.042
 9954TIP3    H229820   7.703   2.131   5.170
 9955TIP3   OH229821   7.613   1.557   5.529
 9955TIP3    H129822   7.603   1.489   5.596
 9955TIP3    H229823   7.708   1.562   5.514
 9956TIP3   OH229824   6.540   1.958   6.630
 9956TIP3    H129825   6.591   1.895   6.680
 9956TIP3    H229826   6.553   2.041   6.675
 9957TIP3   OH229827   6.812   1.594   5.324
 9957TIP3    H129828   6.820   1.503   5.297
 9957TIP3    H229829   6.793   1.590   5.418
 9958TIP3   OH229830   6.753   1.604   5.594
 9958TIP3    H129831   6.825   1.577   5.652
 9958TIP3    H229832   6.752   1.699   5.601
 9959TIP3   OH229833   6.493   1.305   5.810
 9959TIP3    H129834   6.426   1.351   5.861
 9959TIP3    H229835   6.512   1.365   5.737
 9960TIP3   OH229836   7.026   1.796   5.540
 9960TIP3    H129837   6.939   1.819   5.574
 9960TIP3    H229838   7.047   1.868   5.480
 9961TIP3   OH229839   7.238   0.867   5.896
 9961TIP3    H129840   7.280   0.951   5.917
 9961TIP3    H229841   7.229   0.823   5.980
 9962TIP3   OH229842   7.500   1.127   6.752
 9962TIP3    H129843   7.485   1.183   6.828
 9962TIP3    H229844   7.533   1.045   6.789
 9963TIP3   OH229845   6.772   1.876   5.612
 9963TIP3    H129846   6.749   1.945   5.550
 9963TIP3    H229847   6.759   1.915   5.698
 9964TIP3   OH229848   7.781   1.277   6.129
 9964TIP3    H129849   7.699   1.237   6.159
 9964TIP3    H229850   7.848   1.238   6.185
 9965TIP3   OH229851   6.502   1.481   5.591
 9965TIP3    H129852   6.572   1.546   5.598
 9965TIP3    H229853   6.535   1.417   5.528
 9966TIP3   OH229854   6.273   0.811   5.672
 9966TIP3    H129855   6.316   0.892   5.699
 9966TIP3    H229856   6.216   0.837   5.600
 9967TIP3   OH229857   7.747   2.235   6.058
 9967TIP3    H129858   7.703   2.285   5.989
 9967TIP3    H229859   7.841   2.248   6.040
 9968TIP3   OH229860   6.338   1.737   5.984
 9968TIP3    H129861   6.290   1.773   6.058
 9968TIP3    H229862   6.298   1.778   5.907
 9969TIP3   OH229863   0.860   6.276   0.115
 9969TIP3    H129864   0.944   6.274   0.162
 9969TIP3    H229865   0.835   6.184   0.108
 9970TIP3   OH229866   1.331   6.206   0.157
 9970TIP3    H129867   1.425   6.197   0.145
 9970TIP3    H229868   1.293   6.150   0.089
 9971TIP3   OH229869   6.970   1.792   5.217
 9971TIP3    H129870   6.922   1.721   5.260
 9971TIP3    H229871   7.043   1.748   5.174
 9972TIP3   OH229872   7.577   2.150   6.804
 9972TIP3    H129873   7.583   2.086   6.875
 9972TIP3    H229874   7.653   2.207   6.816
 9973TIP3   OH229875   7.409   1.830   5.138
 9973TIP3    H129876   7.442   1.765   5.200
 9973TIP3    H229877   7.468   1.823   5.062
 9974TIP3   OH229878   0.971   5.671   0.303
 9974TIP3    H129879   0.986   5.577   0.314
 9974TIP3    H229880   0.885   5.677   0.262
 9975TIP3   OH229881   6.631   1.287   5.450
 9975TIP3    H129882   6.683   1.264   5.527
 9975TIP3    H229883   6.696   1.303   5.381
 9976TIP3   OH229884   1.599   5.775   0.083
 9976TIP3    H129885   1.548   5.797   0.006
 9976TIP3    H229886   1.617   5.681   0.073
 9977TIP3   OH229887   7.194   1.515   5.278
 9977TIP3    H129888   7.172   1.525   5.370
 9977TIP3    H229889   7.176   1.423   5.258
 9978TIP3   OH229890   7.743   1.785   6.680
 9978TIP3    H129891   7.821   1.806   6.628
 9978TIP3    H229892   7.674   1.840   6.643
 9979TIP3   OH229893   1.089   5.404   0.279
 9979TIP3    H129894   1.159   5.347   0.250
 9979TIP3    H229895   1.110   5.424   0.370
 9980TIP3   OH229896   6.804   1.225   5.665
 9980TIP3    H129897   6.789   1.189   5.752
 9980TIP3    H229898   6.854   1.157   5.619
 9981TIP3   OH229899   7.098   1.344   6.904
 9981TIP3    H129900   7.011   1.383   6.896
 9981TIP3    H229901   7.140   1.364   6.820
 9982TIP3   OH229902   6.939   1.055   5.492
 9982TIP3    H129903   6.906   1.059   5.403
 9982TIP3    H229904   7.033   1.072   5.484
 9983TIP3   OH229905   7.737   1.324   5.169
 9983TIP3    H129906   7.723   1.289   5.081
 9983TIP3    H229907   7.714   1.417   5.161
 9984TIP3   OH229908   7.189   1.085   6.919
 9984TIP3    H129909   7.153   1.046   6.840
 9984TIP3    H229910   7.174   1.179   6.908
 9985TIP3   OH229911   7.249   1.400   6.684
 9985TIP3    H129912   7.331   1.391   6.636
 9985TIP3    H229913   7.199   1.464   6.635
 9986TIP3   OH229914   1.306   5.175   0.177
 9986TIP3    H129915   1.343   5.086   0.183
 9986TIP3    H229916   1.360   5.218   0.110
 9987TIP3   OH229917   6.762   2.082   5.427
 9987TIP3    H129918   6.853   2.065   5.401
 9987TIP3    H229919   6.724   2.128   5.352
 9988TIP3   OH229920   6.229   1.464   5.620
 9988TIP3    H129921   6.323   1.480   5.611
 9988TIP3    H229922   6.215   1.380   5.577
 9989TIP3   OH229923   6.145   2.059   6.062
 9989TIP3    H129924   6.079   2.008   6.015
 9989TIP3    H229925   6.185   1.996   6.123
 9990TIP3   OH229926   6.280   1.888   6.234
 9990TIP3    H129927   6.265   1.820   6.301
 9990TIP3    H229928   6.331   1.955   6.279
 9991TIP3   OH229929   8.013   2.293   6.031
 9991TIP3    H129930   8.039   2.324   6.118
 9991TIP3    H229931   8.075   2.335   5.971
 9992TIP3   OH229932   8.024   2.328   6.311
 9992TIP3    H129933   7.979   2.244   6.304
 9992TIP3    H229934   8.095   2.313   6.373
 9993TIP3   OH229935   7.890   1.556   5.499
 9993TIP3    H129936   7.951   1.621   5.463
 9993TIP3    H229937   7.933   1.522   5.577
 9994TIP3   OH229938   8.023   1.454   5.710
 9994TIP3    H129939   7.955   1.428   5.772
 9994TIP3    H229940   8.101   1.468   5.763
 9995TIP3   OH229941   8.070   1.789   6.127
 9995TIP3    H129942   8.126   1.724   6.086
 9995TIP3    H229943   8.074   1.865   6.068
 9996TIP3   OH229944   7.897   2.083   6.332
 9996TIP3    H129945   7.824   2.118   6.385
 9996TIP3    H229946   7.854   2.036   6.261
 9997TIP3   OH229947   7.943   1.333   5.349
 9997TIP3    H129948   7.875   1.331   5.282
 9997TIP3    H229949   7.923   1.411   5.401
 9998TIP3   OH229950   7.773   1.019   5.292
 9998TIP3    H129951   7.766   1.097   5.237
 9998TIP3    H229952   7.759   0.946   5.231
 9999TIP3   OH229953   7.829   1.347   5.867
 9999TIP3    H129954   7.864   1.264   5.835
 9999TIP3    H229955   7.823   1.336   5.962
10000TIP3   OH229956   6.456   1.342   6.613
10000TIP3    H129957   6.445   1.316   6.521
10000TIP3    H229958   6.551   1.334   6.629
10001TIP3   OH229959   7.928   1.126   5.741
10001TIP3    H129960   7.891   1.047   5.779
10001TIP3    H229961   7.942   1.105   5.648
10002TIP3   OH229962   7.978   1.176   6.285
10002TIP3    H129963   8.072   1.174   6.272
10002TIP3    H229964   7.965   1.225   6.366
10003TIP3   OH229965   1.010   5.011   0.346
10003TIP3    H129966   1.043   5.067   0.416
10003TIP3    H229967   0.956   4.946   0.391
10004TIP3   OH229968   6.419   0.987   6.703
10004TIP3    H129969   6.480   1.017   6.636
10004TIP3    H229970   6.417   1.057   6.768
10005TIP3   OH229971   7.583   2.199   5.690
10005TIP3    H129972   7.638   2.187   5.613
10005TIP3    H229973   7.625   2.269   5.739
10006TIP3   OH229974   1.005   6.002   0.133
10006TIP3    H129975   0.914   5.985   0.110
10006TIP3    H229976   1.010   5.985   0.227
10007TIP3   OH229977   6.881   2.039   6.624
10007TIP3    H129978   6.826   2.110   6.591
10007TIP3    H229979   6.964   2.049   6.578
10008TIP3   OH229980   7.281   2.271   6.747
10008TIP3    H129981   7.317   2.274   6.835
10008TIP3    H229982   7.345   2.318   6.693
10009TIP3   OH229983   7.472   2.423   6.616
10009TIP3    H129984   7.535   2.369   6.569
10009TIP3    H229985   7.526   2.484   6.667
10010TIP3   OH229986   6.542   2.283   6.665
10010TIP3    H129987   6.451   2.302   6.641
10010TIP3    H229988   6.562   2.349   6.732
10011TIP3   OH229989   6.772   2.268   6.515
10011TIP3    H129990   6.688   2.274   6.561
10011TIP3    H229991   6.752   2.294   6.425
10012TIP3   OH229992   7.189   2.287   6.304
10012TIP3    H129993   7.119   2.297   6.240
10012TIP3    H229994   7.200   2.374   6.342
10013TIP3   OH229995   7.454   2.222   6.350
10013TIP3    H129996   7.362   2.240   6.331
10013TIP3    H229997   7.502   2.289   6.300
10014TIP3   OH229998   7.659   2.405   6.256
10014TIP3    H129999   7.653   2.492   6.215
10014TIP3    H230000   7.690   2.348   6.185
10015TIP3   OH230001   6.454   2.063   6.384
10015TIP3    H130002   6.477   2.035   6.472
10015TIP3    H230003   6.524   2.029   6.329
10016TIP3   OH230004   6.655   1.945   6.246
10016TIP3    H130005   6.667   1.862   6.294
10016TIP3    H230006   6.742   1.986   6.247
10017TIP3   OH230007   6.923   2.034   6.264
10017TIP3    H130008   6.942   1.942   6.249
10017TIP3    H230009   6.975   2.058   6.341
10018TIP3   OH230010   6.225   1.856   5.764
10018TIP3    H130011   6.139   1.824   5.737
10018TIP3    H230012   6.227   1.947   5.735
10019TIP3   OH230013   7.022   2.016   5.362
10019TIP3    H130014   7.106   2.044   5.325
10019TIP3    H230015   6.993   1.945   5.305
10020TIP3   OH230016   7.732   2.156   5.459
10020TIP3    H130017   7.725   2.061   5.452
10020TIP3    H230018   7.685   2.189   5.383
10021TIP3   OH230019   6.321   1.854   5.418
10021TIP3    H130020   6.321   1.870   5.512
10021TIP3    H230021   6.404   1.810   5.400
10022TIP3   OH230022   7.925   2.297   6.633
10022TIP3    H130023   7.853   2.268   6.577
10022TIP3    H230024   7.918   2.393   6.632
10023TIP3   OH230025  -0.024   1.973   5.909
10023TIP3    H130026  -0.016   1.887   5.867
10023TIP3    H230027   0.057   1.983   5.958
10024TIP3   OH230028   8.208   1.215   5.720
10024TIP3    H130029   8.114   1.234   5.711
10024TIP3    H230030   8.225   1.151   5.651
10025TIP3   OH230031   8.282   1.454   5.828
10025TIP3    H130032   8.269   1.362   5.806
10025TIP3    H230033   8.339   1.488   5.759
10026TIP3   OH230034   8.083   1.721   5.385
10026TIP3    H130035   8.045   1.743   5.300
10026TIP3    H230036   8.103   1.806   5.424
10027TIP3   OH230037   8.270   1.815   6.327
10027TIP3    H130038   8.198   1.822   6.264
10027TIP3    H230039   8.263   1.726   6.362
10028TIP3   OH230040   8.137   2.018   5.976
10028TIP3    H130041   8.233   2.024   5.973
10028TIP3    H230042   8.110   2.099   6.019
10029TIP3   OH230043   8.297   2.228   5.512
10029TIP3    H130044   8.362   2.213   5.581
10029TIP3    H230045   8.262   2.140   5.493
10030TIP3   OH230046   8.261   1.018   5.478
10030TIP3    H130047   8.300   1.005   5.392
10030TIP3    H230048   8.172   1.048   5.460
10031TIP3   OH230049   8.191   1.298   5.236
10031TIP3    H130050   8.241   1.380   5.241
10031TIP3    H230051   8.108   1.319   5.280
10032TIP3   OH230052   8.314   2.233   6.105
10032TIP3    H130053   8.383   2.180   6.144
10032TIP3    H230054   8.326   2.320   6.143
10033TIP3   OH230055   8.281   1.558   5.264
10033TIP3    H130056   8.223   1.602   5.326
10033TIP3    H230057   8.290   1.621   5.192
10034TIP3   OH230058   8.293   1.765   5.072
10034TIP3    H130059   8.330   1.839   5.121
10034TIP3    H230060   8.338   1.768   4.987
10035TIP3   OH230061   8.099   1.090   5.093
10035TIP3    H130062   8.129   1.163   5.147
10035TIP3    H230063   8.071   1.023   5.157
10036TIP3   OH230064   8.126   1.986   5.472
10036TIP3    H130065   8.086   2.027   5.549
10036TIP3    H230066   8.087   2.030   5.397
10037TIP3   OH230067   8.302   2.511   6.535
10037TIP3    H130068   8.366   2.492   6.603
10037TIP3    H230069   8.258   2.428   6.520
10038TIP3   OH230070   8.019   1.728   5.104
10038TIP3    H130071   8.114   1.739   5.094
10038TIP3    H230072   8.002   1.640   5.071
10039TIP3   OH230073   7.937   2.313   5.549
10039TIP3    H130074   7.871   2.260   5.505
10039TIP3    H230075   7.981   2.252   5.608
10040TIP3   OH230076   8.066   2.136   5.718
10040TIP3    H130077   8.055   2.072   5.789
10040TIP3    H230078   8.124   2.203   5.755
10041TIP3   OH230079   8.253   1.588   6.066
10041TIP3    H130080   8.255   1.538   5.985
10041TIP3    H230081   8.345   1.610   6.084
10042TIP3   OH230082   8.311   2.505   6.172
10042TIP3    H130083   8.232   2.544   6.133
10042TIP3    H230084   8.326   2.555   6.252
10043TIP3   OH230085   0.049   2.494   6.024
10043TIP3    H130086  -0.031   2.501   6.076
10043TIP3    H230087   0.031   2.546   5.946
10044TIP3   OH230088   8.242   2.312   5.853
10044TIP3    H130089   8.266   2.289   5.943
10044TIP3    H230090   8.317   2.283   5.800
10045TIP3   OH230091   8.459   2.192   5.740
10045TIP3    H130092   8.458   2.109   5.787
10045TIP3    H230093   8.539   2.236   5.770
10046TIP3   OH230094   8.020   2.104   5.248
10046TIP3    H130095   7.934   2.077   5.217
10046TIP3    H230096   8.025   2.197   5.227
10047TIP3   OH230097   8.092   2.132   4.930
10047TIP3    H130098   8.060   2.185   5.004
10047TIP3    H230099   8.145   2.064   4.971
10048TIP3   OH230100   4.488   6.470   0.150
10048TIP3    H130101   4.466   6.553   0.107
10048TIP3    H230102   4.403   6.427   0.163
10049TIP3   OH230103   4.503   6.477   0.443
10049TIP3    H130104   4.502   6.409   0.510
10049TIP3    H230105   4.472   6.433   0.364
10050TIP3   OH230106   4.782   6.772   0.173
10050TIP3    H130107   4.781   6.698   0.234
10050TIP3    H230108   4.820   6.844   0.223
10051TIP3   OH230109   3.762   6.816   0.628
10051TIP3    H130110   3.713   6.825   0.710
10051TIP3    H230111   3.843   6.771   0.653
10052TIP3   OH230112   3.525   6.352   0.600
10052TIP3    H130113   3.499   6.259   0.603
10052TIP3    H230114   3.614   6.351   0.566
10053TIP3   OH230115   4.439   7.249   0.222
10053TIP3    H130116   4.488   7.188   0.166
10053TIP3    H230117   4.377   7.193   0.269
10054TIP3   OH230118   4.368   6.719   0.438
10054TIP3    H130119   4.421   6.640   0.426
10054TIP3    H230120   4.407   6.763   0.513
10055TIP3   OH230121   5.370   6.016   0.519
10055TIP3    H130122   5.275   6.024   0.521
10055TIP3    H230123   5.395   6.045   0.431
10056TIP3   OH230124   4.728   6.204   0.576
10056TIP3    H130125   4.748   6.122   0.621
10056TIP3    H230126   4.709   6.178   0.486
10057TIP3   OH230127   4.109   5.915   0.525
10057TIP3    H130128   4.013   5.914   0.532
10057TIP3    H230129   4.128   5.863   0.447
10058TIP3   OH230130   4.752   5.964   0.148
10058TIP3    H130131   4.814   5.978   0.220
10058TIP3    H230132   4.801   5.989   0.070
10059TIP3   OH230133   4.128   6.203   0.453
10059TIP3    H130134   4.217   6.178   0.481
10059TIP3    H230135   4.070   6.144   0.501
10060TIP3   OH230136   5.355   6.176   0.860
10060TIP3    H130137   5.295   6.223   0.802
10060TIP3    H230138   5.437   6.225   0.854
10061TIP3   OH230139   1.568   2.680   6.941
10061TIP3    H130140   1.527   2.656   6.858
10061TIP3    H230141   1.519   2.756   6.971
10062TIP3   OH230142   4.945   6.021   0.329
10062TIP3    H130143   4.945   5.958   0.401
10062TIP3    H230144   5.017   6.081   0.349
10063TIP3   OH230145   3.386   6.513   0.062
10063TIP3    H130146   3.290   6.515   0.056
10063TIP3    H230147   3.410   6.602   0.088
10064TIP3   OH230148   4.842   7.018   0.297
10064TIP3    H130149   4.754   7.015   0.336
10064TIP3    H230150   4.849   7.106   0.261
10065TIP3   OH230151   4.974   5.807   0.819
10065TIP3    H130152   4.914   5.877   0.793
10065TIP3    H230153   5.056   5.853   0.838
10066TIP3   OH230154   4.523   7.062   0.033
10066TIP3    H130155   4.566   6.979   0.013
10066TIP3    H230156   4.582   7.129  -0.002
10067TIP3   OH230157   1.814   2.829   6.886
10067TIP3    H130158   1.753   2.756   6.879
10067TIP3    H230159   1.872   2.805   6.958
10068TIP3   OH230160   5.060   6.917   0.681
10068TIP3    H130161   5.063   6.831   0.639
10068TIP3    H230162   5.009   6.971   0.620
10069TIP3   OH230163   1.490   2.285   6.883
10069TIP3    H130164   1.414   2.343   6.886
10069TIP3    H230165   1.546   2.323   6.815
10070TIP3   OH230166   1.463   2.106   6.630
10070TIP3    H130167   1.523   2.154   6.687
10070TIP3    H230168   1.519   2.044   6.584
10071TIP3   OH230169   5.219   6.523   0.468
10071TIP3    H130170   5.165   6.577   0.525
10071TIP3    H230171   5.254   6.584   0.403
10072TIP3   OH230172   1.840   2.404   6.890
10072TIP3    H130173   1.786   2.418   6.967
10072TIP3    H230174   1.923   2.371   6.925
10073TIP3   OH230175   4.965   6.495   0.884
10073TIP3    H130176   4.923   6.582   0.880
10073TIP3    H230177   4.893   6.434   0.870
10074TIP3   OH230178   3.926   6.361   0.352
10074TIP3    H130179   3.913   6.340   0.259
10074TIP3    H230180   3.997   6.303   0.379
10075TIP3   OH230181   4.005   6.697   0.648
10075TIP3    H130182   4.031   6.634   0.581
10075TIP3    H230183   4.070   6.767   0.642
10076TIP3   OH230184   3.971   6.335   0.745
10076TIP3    H130185   3.958   6.243   0.722
10076TIP3    H230186   4.060   6.355   0.716
10077TIP3   OH230187   4.601   7.044   0.430
10077TIP3    H130188   4.564   7.131   0.448
10077TIP3    H230189   4.659   7.028   0.505
10078TIP3   OH230190   1.701   2.254   6.706
10078TIP3    H130191   1.756   2.316   6.755
10078TIP3    H230192   1.725   2.269   6.615
10079TIP3   OH230193   4.275   6.930   0.046
10079TIP3    H130194   4.352   6.987   0.058
10079TIP3    H230195   4.216   6.982  -0.009
10080TIP3   OH230196   2.211   1.482   6.759
10080TIP3    H130197   2.133   1.505   6.809
10080TIP3    H230198   2.229   1.558   6.704
10081TIP3   OH230199   3.816   6.235   0.124
10081TIP3    H130200   3.727   6.269   0.122
10081TIP3    H230201   3.818   6.177   0.199
10082TIP3   OH230202   2.017   2.854   6.334
10082TIP3    H130203   2.016   2.949   6.317
10082TIP3    H230204   2.107   2.828   6.316
10083TIP3   OH230205   5.245   7.266   0.675
10083TIP3    H130206   5.284   7.179   0.688
10083TIP3    H230207   5.151   7.250   0.674
10084TIP3   OH230208   4.336   7.136   0.936
10084TIP3    H130209   4.376   7.187   1.007
10084TIP3    H230210   4.253   7.106   0.972
10085TIP3   OH230211   1.323   3.155   6.810
10085TIP3    H130212   1.274   3.135   6.730
10085TIP3    H230213   1.292   3.242   6.836
10086TIP3   OH230214   3.559   7.043   0.236
10086TIP3    H130215   3.629   7.012   0.294
10086TIP3    H230216   3.516   6.963   0.205
10087TIP3   OH230217   1.525   3.080   6.439
10087TIP3    H130218   1.576   3.007   6.403
10087TIP3    H230219   1.560   3.092   6.527
10088TIP3   OH230220   1.576   3.126   6.709
10088TIP3    H130221   1.490   3.130   6.750
10088TIP3    H230222   1.632   3.083   6.775
10089TIP3   OH230223   1.763   2.259   6.444
10089TIP3    H130224   1.727   2.250   6.355
10089TIP3    H230225   1.846   2.304   6.431
10090TIP3   OH230226   1.478   1.657   6.746
10090TIP3    H130227   1.452   1.653   6.838
10090TIP3    H230228   1.445   1.575   6.709
10091TIP3   OH230229   3.901   6.066   0.316
10091TIP3    H130230   3.890   5.989   0.372
10091TIP3    H230231   3.984   6.051   0.271
10092TIP3   OH230232   4.492   6.136   0.080
10092TIP3    H130233   4.437   6.194   0.026
10092TIP3    H230234   4.546   6.088   0.016
10093TIP3   OH230235   4.662   6.154   0.318
10093TIP3    H130236   4.577   6.198   0.310
10093TIP3    H230237   4.665   6.092   0.245
10094TIP3   OH230238   1.144   1.621   6.717
10094TIP3    H130239   1.135   1.605   6.811
10094TIP3    H230240   1.068   1.675   6.695
10095TIP3   OH230241   4.693   6.419   0.848
10095TIP3    H130242   4.720   6.480   0.779
10095TIP3    H230243   4.611   6.381   0.816
10096TIP3   OH230244   4.328   5.764   0.606
10096TIP3    H130245   4.236   5.790   0.599
10096TIP3    H230246   4.371   5.807   0.532
10097TIP3   OH230247   3.847   5.860   0.476
10097TIP3    H130248   3.756   5.883   0.455
10097TIP3    H230249   3.858   5.772   0.440
10098TIP3   OH230250   3.994   5.875   0.101
10098TIP3    H130251   4.059   5.942   0.122
10098TIP3    H230252   3.935   5.918   0.040
10099TIP3   OH230253   4.774   5.983   0.745
10099TIP3    H130254   4.724   5.977   0.826
10099TIP3    H230255   4.721   5.936   0.681
10100TIP3   OH230256   0.994   1.958   6.843
10100TIP3    H130257   0.961   1.892   6.782
10100TIP3    H230258   1.064   2.003   6.794
10101TIP3   OH230259   5.033   7.577   0.943
10101TIP3    H130260   4.969   7.576   0.872
10101TIP3    H230261   5.058   7.669   0.952
10102TIP3   OH230262   4.366   6.112   0.578
10102TIP3    H130263   4.392   6.037   0.523
10102TIP3    H230264   4.322   6.072   0.653
10103TIP3   OH230265   3.908   5.599   0.504
10103TIP3    H130266   3.851   5.540   0.455
10103TIP3    H230267   3.979   5.620   0.443
10104TIP3   OH230268   1.272   2.446   6.840
10104TIP3    H130269   1.195   2.393   6.818
10104TIP3    H230270   1.251   2.483   6.926
10105TIP3   OH230271   4.933   6.768   0.466
10105TIP3    H130272   5.003   6.802   0.410
10105TIP3    H230273   4.910   6.684   0.426
10106TIP3   OH230274   1.730   1.760   6.759
10106TIP3    H130275   1.635   1.746   6.758
10106TIP3    H230276   1.740   1.855   6.770
10107TIP3   OH230277   1.807   2.020   6.806
10107TIP3    H130278   1.902   2.026   6.814
10107TIP3    H230279   1.782   2.101   6.760
10108TIP3   OH230280   3.798   6.448   0.572
10108TIP3    H130281   3.844   6.422   0.492
10108TIP3    H230282   3.854   6.416   0.643
10109TIP3   OH230283   1.426   2.620   6.703
10109TIP3    H130284   1.376   2.702   6.709
10109TIP3    H230285   1.372   2.555   6.748
10110TIP3   OH230286   4.589   7.095   0.769
10110TIP3    H130287   4.553   7.143   0.844
10110TIP3    H230288   4.673   7.061   0.800
10111TIP3   OH230289   2.229   2.115   6.667
10111TIP3    H130290   2.172   2.065   6.609
10111TIP3    H230291   2.225   2.204   6.633
10112TIP3   OH230292   5.326   7.019   0.738
10112TIP3    H130293   5.259   6.980   0.795
10112TIP3    H230294   5.328   6.962   0.661
10113TIP3   OH230295   1.942   2.931   6.603
10113TIP3    H130296   1.912   2.866   6.667
10113TIP3    H230297   1.959   2.880   6.523
10114TIP3   OH230298   4.756   6.561   0.353
10114TIP3    H130299   4.668   6.528   0.371
10114TIP3    H230300   4.807   6.483   0.334
10115TIP3   OH230301   3.950   6.827   0.079
10115TIP3    H130302   3.927   6.917   0.059
10115TIP3    H230303   3.976   6.828   0.171
10116TIP3   OH230304   0.577   2.133   6.877
10116TIP3    H130305   0.646   2.199   6.877
10116TIP3    H230306   0.498   2.179   6.905
10117TIP3   OH230307   4.020   6.567   0.127
10117TIP3    H130308   4.024   6.661   0.112
10117TIP3    H230309   3.927   6.549   0.141
10118TIP3   OH230310   4.300   7.140   0.601
10118TIP3    H130311   4.286   7.227   0.564
10118TIP3    H230312   4.219   7.121   0.649
10119TIP3   OH230313   3.789   7.058   0.074
10119TIP3    H130314   3.705   7.065   0.119
10119TIP3    H230315   3.821   7.148   0.069
10120TIP3   OH230316   4.632   6.786   0.787
10120TIP3    H130317   4.562   6.721   0.795
10120TIP3    H230318   4.674   6.766   0.703
10121TIP3   OH230319   1.698   2.666   6.496
10121TIP3    H130320   1.757   2.643   6.568
10121TIP3    H230321   1.612   2.635   6.525
10122TIP3   OH230322   4.763   7.299   0.684
10122TIP3    H130323   4.693   7.234   0.680
10122TIP3    H230324   4.750   7.352   0.605
10123TIP3   OH230325   2.026   3.130   6.301
10123TIP3    H130326   2.056   3.195   6.237
10123TIP3    H230327   1.951   3.172   6.344
10124TIP3   OH230328   1.872   2.589   6.688
10124TIP3    H130329   1.858   2.531   6.763
10124TIP3    H230330   1.967   2.596   6.681
10125TIP3   OH230331   1.057   2.633   6.504
10125TIP3    H130332   1.070   2.542   6.478
10125TIP3    H230333   1.044   2.630   6.599
10126TIP3   OH230334   1.001   2.657   6.774
10126TIP3    H130335   1.039   2.630   6.858
10126TIP3    H230336   1.001   2.753   6.778
10127TIP3   OH230337   3.581   6.334   0.006
10127TIP3    H130338   3.514   6.397   0.033
10127TIP3    H230339   3.650   6.387  -0.033
10128TIP3   OH230340   4.635   5.725   0.081
10128TIP3    H130341   4.603   5.744  -0.007
10128TIP3    H230342   4.666   5.809   0.114
10129TIP3   OH230343   1.273   2.843   6.719
10129TIP3    H130344   1.186   2.857   6.758
10129TIP3    H230345   1.284   2.917   6.660
10130TIP3   OH230346   4.341   5.892   0.042
10130TIP3    H130347   4.334   5.982   0.010
10130TIP3    H230348   4.382   5.900   0.128
10131TIP3   OH230349   4.463   5.620   0.258
10131TIP3    H130350   4.443   5.702   0.304
10131TIP3    H230351   4.532   5.643   0.196
10132TIP3   OH230352   1.006   2.933   6.770
10132TIP3    H130353   0.994   3.000   6.704
10132TIP3    H230354   0.977   2.973   6.852
10133TIP3   OH230355   3.981   5.615   0.048
10133TIP3    H130356   3.979   5.710   0.061
10133TIP3    H230357   4.074   5.592   0.055
10134TIP3   OH230358   4.875   6.320   0.307
10134TIP3    H130359   4.802   6.258   0.317
10134TIP3    H230360   4.951   6.274   0.342
10135TIP3   OH230361   0.750   2.542   6.738
10135TIP3    H130362   0.824   2.599   6.760
10135TIP3    H230363   0.788   2.472   6.685
10136TIP3   OH230364   0.689   1.793   6.798
10136TIP3    H130365   0.719   1.855   6.865
10136TIP3    H230366   0.669   1.713   6.846
10137TIP3   OH230367   4.843   7.288   0.258
10137TIP3    H130368   4.792   7.344   0.199
10137TIP3    H230369   4.934   7.313   0.240
10138TIP3   OH230370   3.369   6.749   0.199
10138TIP3    H130371   3.301   6.765   0.264
10138TIP3    H230372   3.349   6.809   0.128
10139TIP3   OH230373   1.219   2.827   6.396
10139TIP3    H130374   1.167   2.760   6.440
10139TIP3    H230375   1.294   2.780   6.360
10140TIP3   OH230376   1.657   2.872   6.318
10140TIP3    H130377   1.687   2.807   6.381
10140TIP3    H230378   1.718   2.865   6.245
10141TIP3   OH230379   0.879   2.334   6.612
10141TIP3    H130380   0.930   2.310   6.689
10141TIP3    H230381   0.944   2.347   6.543
10142TIP3   OH230382   1.411   2.555   6.436
10142TIP3    H130383   1.406   2.571   6.530
10142TIP3    H230384   1.406   2.459   6.428
10143TIP3   OH230385   4.887   6.754   0.890
10143TIP3    H130386   4.928   6.770   0.805
10143TIP3    H230387   4.793   6.762   0.872
10144TIP3   OH230388   1.058   2.277   6.809
10144TIP3    H130389   1.038   2.254   6.900
10144TIP3    H230390   1.108   2.203   6.776
10145TIP3   OH230391   1.191   2.073   6.684
10145TIP3    H130392   1.165   2.075   6.592
10145TIP3    H230393   1.286   2.077   6.682
10146TIP3   OH230394   1.993   2.379   6.352
10146TIP3    H130395   1.982   2.336   6.267
10146TIP3    H230396   1.964   2.469   6.337
10147TIP3   OH230397   1.016   3.144   6.598
10147TIP3    H130398   1.105   3.119   6.573
10147TIP3    H230399   0.980   3.186   6.520
10148TIP3   OH230400   0.477   2.516   6.701
10148TIP3    H130401   0.564   2.535   6.736
10148TIP3    H230402   0.471   2.421   6.700
10149TIP3   OH230403   3.218   7.094   0.219
10149TIP3    H130404   3.139   7.043   0.201
10149TIP3    H230405   3.197   7.145   0.297
10150TIP3   OH230406   3.249   6.993   0.551
10150TIP3    H130407   3.287   6.958   0.632
10150TIP3    H230408   3.309   7.063   0.525
10151TIP3   OH230409   5.095   7.377   0.232
10151TIP3    H130410   5.119   7.411   0.318
10151TIP3    H230411   5.167   7.404   0.175
10152TIP3   OH230412   5.109   7.430   0.500
10152TIP3    H130413   5.056   7.350   0.505
10152TIP3    H230414   5.192   7.407   0.542
10153TIP3   OH230415   2.147   2.594   6.675
10153TIP3    H130416   2.210   2.659   6.644
10153TIP3    H230417   2.189   2.555   6.751
10154TIP3   OH230418   2.268   2.456   6.873
10154TIP3    H130419   2.204   2.405   6.923
10154TIP3    H230420   2.334   2.482   6.938
10155TIP3   OH230421   5.152   6.854   0.332
10155TIP3    H130422   5.215   6.794   0.293
10155TIP3    H230423   5.155   6.932   0.277
10156TIP3   OH230424   4.989   7.182   0.519
10156TIP3    H130425   4.910   7.154   0.565
10156TIP3    H230426   4.983   7.138   0.434
10157TIP3   OH230427   2.191   2.357   6.540
10157TIP3    H130428   2.122   2.355   6.473
10157TIP3    H230429   2.174   2.437   6.590
10158TIP3   OH230430   2.053   2.005   6.488
10158TIP3    H130431   2.026   2.046   6.405
10158TIP3    H230432   2.042   1.912   6.472
10159TIP3   OH230433   4.911   6.300   0.042
10159TIP3    H130434   4.918   6.206   0.024
10159TIP3    H230435   4.901   6.306   0.137
10160TIP3   OH230436   5.190   6.831   0.902
10160TIP3    H130437   5.127   6.802   0.969
10160TIP3    H230438   5.136   6.847   0.825
10161TIP3   OH230439   5.348   6.443   1.007
10161TIP3    H130440   5.272   6.385   1.018
10161TIP3    H230441   5.423   6.385   1.010
10162TIP3   OH230442   2.020   1.733   6.443
10162TIP3    H130443   2.087   1.709   6.507
10162TIP3    H230444   1.940   1.693   6.476
10163TIP3   OH230445   2.088   2.027   6.886
10163TIP3    H130446   2.128   1.943   6.910
10163TIP3    H230447   2.142   2.059   6.814
10164TIP3   OH230448   5.101   6.225   0.423
10164TIP3    H130449   5.191   6.247   0.402
10164TIP3    H230450   5.106   6.170   0.501
10165TIP3   OH230451   5.194   6.328   0.698
10165TIP3    H130452   5.106   6.301   0.725
10165TIP3    H230453   5.180   6.371   0.614
10166TIP3   OH230454   5.003   5.782   0.021
10166TIP3    H130455   5.082   5.739   0.055
10166TIP3    H230456   4.946   5.710  -0.005
10167TIP3   OH230457   2.260   1.686   6.579
10167TIP3    H130458   2.309   1.622   6.526
10167TIP3    H230459   2.316   1.764   6.581
10168TIP3   OH230460   1.834   3.254   6.863
10168TIP3    H130461   1.884   3.234   6.784
10168TIP3    H230462   1.882   3.326   6.905
10169TIP3   OH230463   3.872   6.968   0.847
10169TIP3    H130464   3.831   7.052   0.826
10169TIP3    H230465   3.942   6.958   0.782
10170TIP3   OH230466   4.642   7.509   0.844
10170TIP3    H130467   4.718   7.461   0.813
10170TIP3    H230468   4.673   7.556   0.922
10171TIP3   OH230469   3.795   7.215   0.745
10171TIP3    H130470   3.802   7.298   0.793
10171TIP3    H230471   3.770   7.242   0.656
10172TIP3   OH230472   4.262   7.380   0.475
10172TIP3    H130473   4.248   7.405   0.384
10172TIP3    H230474   4.274   7.463   0.521
10173TIP3   OH230475   4.533   7.305   0.509
10173TIP3    H130476   4.450   7.319   0.463
10173TIP3    H230477   4.596   7.360   0.462
10174TIP3   OH230478   4.748   7.462   0.446
10174TIP3    H130479   4.756   7.544   0.396
10174TIP3    H230480   4.789   7.396   0.389
10175TIP3   OH230481   3.477   7.228   0.715
10175TIP3    H130482   3.481   7.212   0.809
10175TIP3    H230483   3.501   7.144   0.675
10176TIP3   OH230484   3.766   6.968   0.402
10176TIP3    H130485   3.752   6.917   0.482
10176TIP3    H230486   3.857   6.952   0.378
10177TIP3   OH230487   4.043   7.074   0.400
10177TIP3    H130488   4.063   7.025   0.320
10177TIP3    H230489   4.077   7.020   0.471
10178TIP3   OH230490   4.609   5.717   0.715
10178TIP3    H130491   4.537   5.654   0.710
10178TIP3    H230492   4.655   5.708   0.632
10179TIP3   OH230493   5.117   5.658   0.412
10179TIP3    H130494   5.180   5.700   0.353
10179TIP3    H230495   5.132   5.698   0.497
10180TIP3   OH230496   5.280   5.780   0.245
10180TIP3    H130497   5.304   5.710   0.184
10180TIP3    H230498   5.281   5.859   0.192
10181TIP3   OH230499   4.240   5.501   0.386
10181TIP3    H130500   4.332   5.523   0.399
10181TIP3    H230501   4.205   5.488   0.474
10182TIP3   OH230502   4.711   5.658   0.475
10182TIP3    H130503   4.774   5.677   0.406
10182TIP3    H230504   4.733   5.569   0.504
10183TIP3   OH230505   1.995   1.563   6.904
10183TIP3    H130506   1.921   1.611   6.939
10183TIP3    H230507   1.986   1.475   6.940
10184TIP3   OH230508   0.473   2.886   6.912
10184TIP3    H130509   0.402   2.846   6.862
10184TIP3    H230510   0.465   2.980   6.895
10185TIP3   OH230511   4.251   5.643   0.084
10185TIP3    H130512   4.320   5.616   0.144
10185TIP3    H230513   4.269   5.736   0.066
10186TIP3   OH230514   1.268   3.057   6.537
10186TIP3    H130515   1.353   3.083   6.501
10186TIP3    H230516   1.241   2.984   6.481
10187TIP3   OH230517   1.976   3.198   6.634
10187TIP3    H130518   1.971   3.103   6.627
10187TIP3    H230519   1.933   3.231   6.555
10188TIP3   OH230520   0.585   2.910   6.614
10188TIP3    H130521   0.582   2.911   6.710
10188TIP3    H230522   0.663   2.859   6.593
10189TIP3   OH230523   5.004   7.325   0.793
10189TIP3    H130524   4.924   7.295   0.750
10189TIP3    H230525   4.997   7.421   0.793
10190TIP3   OH230526   3.469   2.723   6.571
10190TIP3    H130527   3.438   2.810   6.547
10190TIP3    H230528   3.399   2.664   6.545
10191TIP3   OH230529   6.294   6.725   0.036
10191TIP3    H130530   6.343   6.708   0.116
10191TIP3    H230531   6.251   6.642   0.016
10192TIP3   OH230532   5.607   6.604   0.333
10192TIP3    H130533   5.616   6.539   0.402
10192TIP3    H230534   5.697   6.622   0.304
10193TIP3   OH230535   3.731   3.023   6.664
10193TIP3    H130536   3.718   2.957   6.731
10193TIP3    H230537   3.754   3.102   6.712
10194TIP3   OH230538   5.583   7.026   0.101
10194TIP3    H130539   5.569   6.931   0.098
10194TIP3    H230540   5.678   7.036   0.095
10195TIP3   OH230541   2.439   2.246   6.806
10195TIP3    H130542   2.386   2.324   6.819
10195TIP3    H230543   2.377   2.180   6.776
10196TIP3   OH230544   5.337   6.527   0.060
10196TIP3    H130545   5.384   6.450   0.092
10196TIP3    H230546   5.395   6.565  -0.006
10197TIP3   OH230547   3.383   3.462   6.672
10197TIP3    H130548   3.413   3.397   6.609
10197TIP3    H230549   3.379   3.415   6.755
10198TIP3   OH230550   6.107   6.952   0.046
10198TIP3    H130551   6.148   6.871   0.014
10198TIP3    H230552   6.181   7.005   0.076
10199TIP3   OH230553   7.139   6.271   0.061
10199TIP3    H130554   7.157   6.355   0.103
10199TIP3    H230555   7.166   6.284  -0.030
10200TIP3   OH230556   6.522   6.438   0.088
10200TIP3    H130557   6.559   6.353   0.114
10200TIP3    H230558   6.479   6.421   0.004
10201TIP3   OH230559   5.864   6.074   0.044
10201TIP3    H130560   5.840   6.142  -0.020
10201TIP3    H230561   5.826   5.994   0.009
10202TIP3   OH230562   3.730   2.190   6.624
10202TIP3    H130563   3.797   2.180   6.692
10202TIP3    H230564   3.778   2.224   6.549
10203TIP3   OH230565   5.483   6.320   0.154
10203TIP3    H130566   5.574   6.314   0.184
10203TIP3    H230567   5.478   6.259   0.081
10204TIP3   OH230568   3.088   2.493   6.918
10204TIP3    H130569   3.182   2.474   6.924
10204TIP3    H230570   3.049   2.410   6.890
10205TIP3   OH230571   7.198   6.484   0.239
10205TIP3    H130572   7.110   6.521   0.230
10205TIP3    H230573   7.233   6.523   0.319
10206TIP3   OH230574   5.847   6.117   0.448
10206TIP3    H130575   5.796   6.174   0.390
10206TIP3    H230576   5.820   6.143   0.536
10207TIP3   OH230577   3.355   2.936   6.439
10207TIP3    H130578   3.317   2.913   6.354
10207TIP3    H230579   3.307   3.015   6.466
10208TIP3   OH230580   5.965   6.872   0.265
10208TIP3    H130581   5.902   6.937   0.295
10208TIP3    H230582   6.009   6.915   0.191
10209TIP3   OH230583   3.906   2.206   6.831
10209TIP3    H130584   3.863   2.182   6.914
10209TIP3    H230585   3.960   2.281   6.854
10210TIP3   OH230586   5.736   6.238   0.226
10210TIP3    H130587   5.798   6.308   0.242
10210TIP3    H230588   5.780   6.180   0.163
10211TIP3   OH230589   5.783   7.066   0.336
10211TIP3    H130590   5.756   7.155   0.315
10211TIP3    H230591   5.707   7.027   0.378
10212TIP3   OH230592   2.335   2.767   6.566
10212TIP3    H130593   2.302   2.784   6.478
10212TIP3    H230594   2.360   2.854   6.599
10213TIP3   OH230595   3.774   3.270   6.805
10213TIP3    H130596   3.687   3.262   6.844
10213TIP3    H230597   3.772   3.354   6.758
10214TIP3   OH230598   6.936   6.170   0.227
10214TIP3    H130599   6.850   6.201   0.199
10214TIP3    H230600   6.995   6.199   0.156
10215TIP3   OH230601   6.221   5.799   0.140
10215TIP3    H130602   6.220   5.706   0.160
10215TIP3    H230603   6.205   5.842   0.224
10216TIP3   OH230604   3.477   3.305   6.462
10216TIP3    H130605   3.528   3.225   6.452
10216TIP3    H230606   3.536   3.375   6.432
10217TIP3   OH230607   3.628   3.085   6.413
10217TIP3    H130608   3.589   3.005   6.379
10217TIP3    H230609   3.670   3.058   6.495
10218TIP3   OH230610   6.842   7.173   0.206
10218TIP3    H130611   6.825   7.097   0.150
10218TIP3    H230612   6.826   7.248   0.150
10219TIP3   OH230613   3.295   2.566   6.418
10219TIP3    H130614   3.213   2.612   6.400
10219TIP3    H230615   3.341   2.563   6.335
10220TIP3   OH230616   3.263   2.364   6.115
10220TIP3    H130617   3.329   2.413   6.164
10220TIP3    H230618   3.314   2.298   6.067
10221TIP3   OH230619   7.028   6.828   0.070
10221TIP3    H130620   6.943   6.872   0.071
10221TIP3    H230621   7.061   6.843  -0.019
10222TIP3   OH230622   3.652   2.654   6.380
10222TIP3    H130623   3.597   2.680   6.454
10222TIP3    H230624   3.734   2.626   6.420
10223TIP3   OH230625   6.714   6.700   0.343
10223TIP3    H130626   6.716   6.780   0.395
10223TIP3    H230627   6.627   6.700   0.302
10224TIP3   OH230628   2.879   2.633   6.795
10224TIP3    H130629   2.840   2.576   6.728
10224TIP3    H230630   2.954   2.583   6.827
10225TIP3   OH230631   3.013   3.062   6.928
10225TIP3    H130632   2.987   3.041   6.839
10225TIP3    H230633   3.100   3.023   6.938
10226TIP3   OH230634   5.844   6.635   0.207
10226TIP3    H130635   5.875   6.605   0.121
10226TIP3    H230636   5.888   6.718   0.221
10227TIP3   OH230637   6.369   7.271  -0.005
10227TIP3    H130638   6.359   7.348   0.051
10227TIP3    H230639   6.357   7.197   0.053
10228TIP3   OH230640   5.978   7.186   0.482
10228TIP3    H130641   5.920   7.232   0.543
10228TIP3    H230642   5.920   7.128   0.433
10229TIP3   OH230643   3.484   2.512   6.213
10229TIP3    H130644   3.543   2.569   6.262
10229TIP3    H230645   3.511   2.522   6.122
10230TIP3   OH230646   5.760   6.778   0.515
10230TIP3    H130647   5.739   6.871   0.524
10230TIP3    H230648   5.675   6.737   0.500
10231TIP3   OH230649   3.229   3.184   6.477
10231TIP3    H130650   3.312   3.231   6.479
10231TIP3    H230651   3.172   3.241   6.424
10232TIP3   OH230652   5.778   7.334   0.598
10232TIP3    H130653   5.775   7.349   0.503
10232TIP3    H230654   5.697   7.286   0.618
10233TIP3   OH230655   3.997   1.740   6.269
10233TIP3    H130656   3.920   1.761   6.321
10233TIP3    H230657   4.010   1.817   6.213
10234TIP3   OH230658   2.752   2.479   6.596
10234TIP3    H130659   2.674   2.520   6.557
10234TIP3    H230660   2.730   2.386   6.600
10235TIP3   OH230661   3.816   3.114   5.822
10235TIP3    H130662   3.814   3.208   5.801
10235TIP3    H230663   3.905   3.087   5.801
10236TIP3   OH230664   5.343   6.841   0.533
10236TIP3    H130665   5.267   6.854   0.476
10236TIP3    H230666   5.384   6.761   0.500
10237TIP3   OH230667   5.230   7.080   0.196
10237TIP3    H130668   5.322   7.063   0.175
10237TIP3    H230669   5.231   7.159   0.250
10238TIP3   OH230670   7.076   7.530   0.269
10238TIP3    H130671   7.080   7.435   0.282
10238TIP3    H230672   6.994   7.556   0.312
10239TIP3   OH230673   6.190   7.314   0.378
10239TIP3    H130674   6.181   7.404   0.409
10239TIP3    H230675   6.116   7.268   0.417
10240TIP3   OH230676   3.121   3.413   6.295
10240TIP3    H130677   3.075   3.391   6.214
10240TIP3    H230678   3.084   3.496   6.322
10241TIP3   OH230679   2.554   3.266   6.674
10241TIP3    H130680   2.602   3.256   6.756
10241TIP3    H230681   2.506   3.184   6.664
10242TIP3   OH230682   3.323   3.336   5.926
10242TIP3    H130683   3.373   3.263   5.890
10242TIP3    H230684   3.357   3.349   6.014
10243TIP3   OH230685   3.375   3.383   6.195
10243TIP3    H130686   3.288   3.387   6.236
10243TIP3    H230687   3.431   3.344   6.263
10244TIP3   OH230688   6.977   6.647   0.517
10244TIP3    H130689   6.885   6.644   0.493
10244TIP3    H230690   7.003   6.555   0.528
10245TIP3   OH230691   5.570   6.988   0.484
10245TIP3    H130692   5.558   7.074   0.524
10245TIP3    H230693   5.489   6.940   0.504
10246TIP3   OH230694   5.940   5.888   0.312
10246TIP3    H130695   5.864   5.876   0.255
10246TIP3    H230696   5.941   5.981   0.331
10247TIP3   OH230697   6.478   5.959   0.519
10247TIP3    H130698   6.570   5.968   0.544
10247TIP3    H230699   6.433   6.027   0.569
10248TIP3   OH230700   6.749   6.448   0.434
10248TIP3    H130701   6.680   6.436   0.500
10248TIP3    H230702   6.725   6.530   0.389
10249TIP3   OH230703   3.565   2.519   5.954
10249TIP3    H130704   3.520   2.512   5.870
10249TIP3    H230705   3.648   2.562   5.933
10250TIP3   OH230706   3.275   1.914   6.266
10250TIP3    H130707   3.233   1.924   6.351
10250TIP3    H230708   3.236   1.835   6.229
10251TIP3   OH230709   5.926   6.413   0.344
10251TIP3    H130710   5.854   6.408   0.407
10251TIP3    H230711   5.913   6.496   0.299
10252TIP3   OH230712   2.937   2.275   6.833
10252TIP3    H130713   2.846   2.251   6.850
10252TIP3    H230714   2.951   2.252   6.742
10253TIP3   OH230715   3.427   2.365   6.553
10253TIP3    H130716   3.377   2.435   6.512
10253TIP3    H230717   3.483   2.332   6.483
10254TIP3   OH230718   6.446   6.666   0.611
10254TIP3    H130719   6.428   6.651   0.704
10254TIP3    H230720   6.539   6.691   0.609
10255TIP3   OH230721   3.587   2.377   6.780
10255TIP3    H130722   3.523   2.401   6.713
10255TIP3    H230723   3.634   2.302   6.742
10256TIP3   OH230724   5.705   6.393   0.496
10256TIP3    H130725   5.733   6.439   0.574
10256TIP3    H230726   5.639   6.331   0.526
10257TIP3   OH230727   2.942   1.902   6.235
10257TIP3    H130728   2.930   1.898   6.330
10257TIP3    H230729   2.865   1.949   6.203
10258TIP3   OH230730   5.326   6.000   0.099
10258TIP3    H130731   5.399   6.030   0.154
10258TIP3    H230732   5.368   5.966   0.020
10259TIP3   OH230733   2.423   1.918   6.579
10259TIP3    H130734   2.500   1.901   6.634
10259TIP3    H230735   2.373   1.983   6.627
10260TIP3   OH230736   6.457   6.645   0.248
10260TIP3    H130737   6.488   6.580   0.185
10260TIP3    H230738   6.412   6.594   0.315
10261TIP3   OH230739   3.302   2.080   6.877
10261TIP3    H130740   3.227   2.073   6.934
10261TIP3    H230741   3.378   2.076   6.935
10262TIP3   OH230742   2.690   2.162   6.867
10262TIP3    H130743   2.603   2.192   6.839
10262TIP3    H230744   2.694   2.070   6.841
10263TIP3   OH230745   2.964   2.182   6.583
10263TIP3    H130746   3.057   2.177   6.561
10263TIP3    H230747   2.918   2.180   6.499
10264TIP3   OH230748   6.601   6.173   0.127
10264TIP3    H130749   6.587   6.186   0.221
10264TIP3    H230750   6.529   6.117   0.100
10265TIP3   OH230751   2.828   2.194   6.343
10265TIP3    H130752   2.765   2.141   6.294
10265TIP3    H230753   2.885   2.232   6.276
10266TIP3   OH230754   6.784   7.878   0.365
10266TIP3    H130755   6.783   7.894   0.270
10266TIP3    H230756   6.863   7.923   0.396
10267TIP3   OH230757   5.815   7.005   0.686
10267TIP3    H130758   5.874   6.994   0.760
10267TIP3    H230759   5.733   7.035   0.725
10268TIP3   OH230760   6.193   6.445   0.029
10268TIP3    H130761   6.260   6.402  -0.024
10268TIP3    H230762   6.197   6.400   0.114
10269TIP3   OH230763   6.178   6.330   0.287
10269TIP3    H130764   6.093   6.370   0.302
10269TIP3    H230765   6.239   6.385   0.337
10270TIP3   OH230766   3.057   2.706   6.363
10270TIP3    H130767   2.985   2.646   6.343
10270TIP3    H230768   3.035   2.743   6.448
10271TIP3   OH230769   3.955   2.956   6.975
10271TIP3    H130770   3.988   3.004   6.899
10271TIP3    H230771   3.874   2.915   6.944
10272TIP3   OH230772   3.527   2.018   6.262
10272TIP3    H130773   3.433   1.996   6.261
10272TIP3    H230774   3.529   2.113   6.275
10273TIP3   OH230775   6.317   7.051   0.423
10273TIP3    H130776   6.348   7.029   0.511
10273TIP3    H230777   6.277   7.137   0.433
10274TIP3   OH230778   3.587   2.281   6.336
10274TIP3    H130779   3.682   2.286   6.345
10274TIP3    H230780   3.564   2.358   6.283
10275TIP3   OH230781   5.587   6.752   0.074
10275TIP3    H130782   5.630   6.720  -0.005
10275TIP3    H230783   5.623   6.698   0.145
10276TIP3   OH230784   3.212   2.865   6.204
10276TIP3    H130785   3.165   2.949   6.203
10276TIP3    H230786   3.157   2.807   6.257
10277TIP3   OH230787   5.558   6.611   0.620
10277TIP3    H130788   5.585   6.670   0.690
10277TIP3    H230789   5.479   6.569   0.653
10278TIP3   OH230790   6.201   6.807   0.621
10278TIP3    H130791   6.137   6.736   0.628
10278TIP3    H230792   6.284   6.762   0.607
10279TIP3   OH230793   6.454   7.332   0.303
10279TIP3    H130794   6.360   7.316   0.313
10279TIP3    H230795   6.479   7.381   0.382
10280TIP3   OH230796   4.009   2.372   6.159
10280TIP3    H130797   3.952   2.325   6.097
10280TIP3    H230798   4.014   2.461   6.125
10281TIP3   OH230799   7.087   7.250   0.299
10281TIP3    H130800   6.992   7.237   0.294
10281TIP3    H230801   7.120   7.219   0.214
10282TIP3   OH230802   3.742   3.186   6.086
10282TIP3    H130803   3.714   3.116   6.144
10282TIP3    H230804   3.758   3.143   6.002
10283TIP3   OH230805   3.722   2.821   6.875
10283TIP3    H130806   3.631   2.799   6.892
10283TIP3    H230807   3.759   2.742   6.837
10284TIP3   OH230808   2.872   3.056   6.680
10284TIP3    H130809   2.872   3.133   6.623
10284TIP3    H230810   2.779   3.034   6.691
10285TIP3   OH230811   2.423   2.342   6.392
10285TIP3    H130812   2.470   2.423   6.412
10285TIP3    H230813   2.345   2.345   6.449
10286TIP3   OH230814   2.971   2.810   6.597
10286TIP3    H130815   2.952   2.899   6.625
10286TIP3    H230816   2.943   2.756   6.671
10287TIP3   OH230817   5.989   7.390   0.189
10287TIP3    H130818   6.025   7.464   0.140
10287TIP3    H230819   6.065   7.353   0.235
10288TIP3   OH230820   2.787   3.284   6.527
10288TIP3    H130821   2.700   3.289   6.567
10288TIP3    H230822   2.821   3.374   6.531
10289TIP3   OH230823   6.349   7.042   0.153
10289TIP3    H130824   6.339   7.042   0.248
10289TIP3    H230825   6.421   6.982   0.136
10290TIP3   OH230826   3.500   2.922   5.982
10290TIP3    H130827   3.549   2.900   6.061
10290TIP3    H230828   3.415   2.880   5.993
10291TIP3   OH230829   6.601   7.556   0.202
10291TIP3    H130830   6.529   7.493   0.212
10291TIP3    H230831   6.573   7.613   0.131
10292TIP3   OH230832   3.822   3.389   5.786
10292TIP3    H130833   3.848   3.453   5.720
10292TIP3    H230834   3.748   3.430   5.831
10293TIP3   OH230835   5.763   6.142   0.702
10293TIP3    H130836   5.673   6.177   0.699
10293TIP3    H230837   5.781   6.131   0.796
10294TIP3   OH230838   3.670   2.856   6.190
10294TIP3    H130839   3.656   2.789   6.257
10294TIP3    H230840   3.765   2.857   6.177
10295TIP3   OH230841   5.391   7.275   0.329
10295TIP3    H130842   5.451   7.222   0.381
10295TIP3    H230843   5.409   7.365   0.356
10296TIP3   OH230844   2.853   2.889   5.987
10296TIP3    H130845   2.864   2.798   5.959
10296TIP3    H230846   2.836   2.884   6.081
10297TIP3   OH230847   2.797   2.905   6.259
10297TIP3    H130848   2.869   2.875   6.315
10297TIP3    H230849   2.799   3.000   6.266
10298TIP3   OH230850   2.530   2.591   6.469
10298TIP3    H130851   2.465   2.640   6.521
10298TIP3    H230852   2.551   2.650   6.396
10299TIP3   OH230853   6.544   6.212   0.388
10299TIP3    H130854   6.600   6.249   0.457
10299TIP3    H230855   6.520   6.126   0.421
10300TIP3   OH230856   3.586   1.971   6.530
10300TIP3    H130857   3.565   1.989   6.439
10300TIP3    H230858   3.627   2.051   6.562
10301TIP3   OH230859   3.069   3.095   6.203
10301TIP3    H130860   2.984   3.119   6.239
10301TIP3    H230861   3.091   3.166   6.143
10302TIP3   OH230862   3.249   2.165   6.619
10302TIP3    H130863   3.309   2.236   6.596
10302TIP3    H230864   3.265   2.148   6.711
10303TIP3   OH230865   6.369   6.463   0.433
10303TIP3    H130866   6.385   6.524   0.505
10303TIP3    H230867   6.440   6.400   0.438
10304TIP3   OH230868   3.397   1.871   6.704
10304TIP3    H130869   3.378   1.946   6.761
10304TIP3    H230870   3.466   1.902   6.645
10305TIP3   OH230871   2.817   3.178   6.276
10305TIP3    H130872   2.795   3.248   6.214
10305TIP3    H230873   2.805   3.217   6.362
10306TIP3   OH230874   2.903   1.874   6.505
10306TIP3    H130875   2.864   1.921   6.579
10306TIP3    H230876   2.997   1.880   6.521
10307TIP3   OH230877   7.001   6.368   0.458
10307TIP3    H130878   6.907   6.387   0.460
10307TIP3    H230879   7.015   6.322   0.375
10308TIP3   OH230880   3.815   2.566   6.782
10308TIP3    H130881   3.738   2.510   6.794
10308TIP3    H230882   3.883   2.524   6.835
10309TIP3   OH230883   2.548   2.778   6.256
10309TIP3    H130884   2.620   2.841   6.265
10309TIP3    H230885   2.581   2.714   6.193
10310TIP3   OH230886   2.474   2.068   6.336
10310TIP3    H130887   2.469   2.158   6.368
10310TIP3    H230888   2.460   2.014   6.413
10311TIP3   OH230889   3.793   3.540   6.725
10311TIP3    H130890   3.750   3.589   6.655
10311TIP3    H230891   3.887   3.553   6.709
10312TIP3   OH230892   5.678   5.834   0.246
10312TIP3    H130893   5.644   5.787   0.169
10312TIP3    H230894   5.699   5.765   0.309
10313TIP3   OH230895   2.388   3.038   6.647
10313TIP3    H130896   2.339   3.072   6.722
10313TIP3    H230897   2.347   3.079   6.571
10314TIP3   OH230898   5.466   7.499   0.619
10314TIP3    H130899   5.534   7.550   0.663
10314TIP3    H230900   5.397   7.489   0.684
10315TIP3   OH230901   5.896   7.567   0.681
10315TIP3    H130902   5.879   7.540   0.771
10315TIP3    H230903   5.864   7.494   0.627
10316TIP3   OH230904   3.013   3.089   5.883
10316TIP3    H130905   2.964   3.018   5.925
10316TIP3    H230906   3.087   3.046   5.840
10317TIP3   OH230907   6.508   7.466   0.534
10317TIP3    H130908   6.502   7.388   0.588
10317TIP3    H230909   6.589   7.509   0.564
10318TIP3   OH230910   3.453   3.128   5.805
10318TIP3    H130911   3.485   3.062   5.867
10318TIP3    H230912   3.511   3.120   5.729
10319TIP3   OH230913   5.435   6.977   1.039
10319TIP3    H130914   5.468   6.887   1.041
10319TIP3    H230915   5.369   6.977   0.970
10320TIP3   OH230916   2.678   2.588   6.110
10320TIP3    H130917   2.729   2.560   6.186
10320TIP3    H230918   2.743   2.599   6.040
10321TIP3   OH230919   6.137   7.067   0.656
10321TIP3    H130920   6.077   7.101   0.591
10321TIP3    H230921   6.155   6.977   0.628
10322TIP3   OH230922   3.234   2.808   5.936
10322TIP3    H130923   3.215   2.820   6.029
10322TIP3    H230924   3.221   2.714   5.921
10323TIP3   OH230925   6.618   7.110   0.354
10323TIP3    H130926   6.694   7.142   0.305
10323TIP3    H230927   6.548   7.172   0.335
10324TIP3   OH230928   5.631   6.567   0.958
10324TIP3    H130929   5.685   6.618   0.898
10324TIP3    H230930   5.613   6.626   1.031
10325TIP3   OH230931   2.855   2.521   6.320
10325TIP3    H130932   2.834   2.486   6.406
10325TIP3    H230933   2.900   2.449   6.275
10326TIP3   OH230934   5.982   6.633   0.560
10326TIP3    H130935   5.906   6.688   0.540
10326TIP3    H230936   6.037   6.638   0.482
10327TIP3   OH230937   2.988   2.332   6.164
10327TIP3    H130938   2.959   2.334   6.073
10327TIP3    H230939   3.083   2.337   6.159
10328TIP3   OH230940   6.484   6.989   0.673
10328TIP3    H130941   6.551   6.964   0.609
10328TIP3    H230942   6.518   6.957   0.756
10329TIP3   OH230943   3.791   2.633   5.839
10329TIP3    H130944   3.776   2.590   5.755
10329TIP3    H230945   3.764   2.724   5.825
10330TIP3   OH230946   6.095   6.385   0.602
10330TIP3    H130947   6.052   6.375   0.517
10330TIP3    H230948   6.077   6.475   0.628
10331TIP3   OH230949   6.119   6.127   0.470
10331TIP3    H130950   6.149   6.187   0.402
10331TIP3    H230951   6.024   6.131   0.466
10332TIP3   OH230952   6.142   6.682   0.348
10332TIP3    H130953   6.227   6.725   0.359
10332TIP3    H230954   6.083   6.752   0.320
10333TIP3   OH230955   6.788   6.682   0.732
10333TIP3    H130956   6.843   6.625   0.787
10333TIP3    H230957   6.849   6.746   0.696
10334TIP3   OH230958   6.744   6.926   0.500
10334TIP3    H130959   6.693   6.989   0.450
10334TIP3    H230960   6.835   6.941   0.472
10335TIP3   OH230961   5.951   6.533   0.967
10335TIP3    H130962   5.914   6.455   1.009
10335TIP3    H230963   5.909   6.537   0.881
10336TIP3   OH230964   6.195   5.957   0.669
10336TIP3    H130965   6.180   6.032   0.612
10336TIP3    H230966   6.108   5.919   0.681
10337TIP3   OH230967   6.381   6.425   0.809
10337TIP3    H130968   6.388   6.414   0.904
10337TIP3    H230969   6.296   6.465   0.795
10338TIP3   OH230970   6.566   6.388   0.617
10338TIP3    H130971   6.492   6.400   0.677
10338TIP3    H230972   6.634   6.347   0.671
10339TIP3   OH230973   7.009   6.272   0.859
10339TIP3    H130974   6.948   6.215   0.812
10339TIP3    H230975   6.954   6.328   0.912
10340TIP3   OH230976   5.835   6.303   1.037
10340TIP3    H130977   5.833   6.209   1.015
10340TIP3    H230978   5.785   6.310   1.118
10341TIP3   OH230979   6.286   5.914   0.914
10341TIP3    H130980   6.360   5.858   0.891
10341TIP3    H230981   6.246   5.938   0.831
10342TIP3   OH230982   6.361   6.141   1.039
10342TIP3    H130983   6.348   6.065   0.982
10342TIP3    H230984   6.308   6.210   0.999
10343TIP3   OH230985   2.808   3.387   6.092
10343TIP3    H130986   2.898   3.367   6.065
10343TIP3    H230987   2.771   3.432   6.016
10344TIP3   OH230988   2.276   2.764   6.284
10344TIP3    H130989   2.370   2.780   6.275
10344TIP3    H230990   2.262   2.678   6.243
10345TIP3   OH230991   2.180   3.356   6.724
10345TIP3    H130992   2.116   3.302   6.678
10345TIP3    H230993   2.226   3.296   6.782
10346TIP3   OH230994   2.321   3.191   6.891
10346TIP3    H130995   2.311   3.127   6.962
10346TIP3    H230996   2.374   3.261   6.928
10347TIP3   OH230997   4.060   3.603   6.707
10347TIP3    H130998   4.086   3.630   6.795
10347TIP3    H230999   4.125   3.644   6.649
10348TIP3   OH231000   6.920   7.632   0.048
10348TIP3    H131001   6.869   7.551   0.041
10348TIP3    H231002   6.989   7.611   0.111
10349TIP3   OH231003   6.951   7.338   0.606
10349TIP3    H131004   6.881   7.353   0.669
10349TIP3    H231005   7.003   7.418   0.608
10350TIP3   OH231006   3.949   2.837   6.173
10350TIP3    H131007   4.010   2.904   6.143
10350TIP3    H231008   3.993   2.797   6.248
10351TIP3   OH231009   4.075   2.693   6.374
10351TIP3    H131010   4.008   2.653   6.429
10351TIP3    H231011   4.140   2.727   6.436
10352TIP3   OH231012   4.129   3.093   6.805
10352TIP3    H131013   4.182   3.023   6.765
10352TIP3    H231014   4.129   3.163   6.740
10353TIP3   OH231015   6.775   7.393   0.056
10353TIP3    H131016   6.707   7.437   0.107
10353TIP3    H231017   6.728   7.350  -0.016
10354TIP3   OH231018   3.997   2.611   6.020
10354TIP3    H131019   3.927   2.609   5.955
10354TIP3    H231020   3.978   2.688   6.074
10355TIP3   OH231021   3.855   2.265   5.961
10355TIP3    H131022   3.810   2.303   5.885
10355TIP3    H231023   3.842   2.171   5.952
10356TIP3   OH231024   3.877   2.553   6.512
10356TIP3    H131025   3.883   2.458   6.499
10356TIP3    H231026   3.860   2.563   6.605
10357TIP3   OH231027   5.350   6.674   0.285
10357TIP3    H131028   5.335   6.634   0.200
10357TIP3    H231029   5.444   6.663   0.301
10358TIP3   OH231030   7.004   6.983   0.426
10358TIP3    H131031   7.073   6.918   0.413
10358TIP3    H231032   7.018   7.047   0.356
10359TIP3   OH231033   7.188   6.781   0.419
10359TIP3    H131034   7.110   6.732   0.446
10359TIP3    H231035   7.262   6.725   0.442
10360TIP3   OH231036   3.810   1.996   5.939
10360TIP3    H131037   3.875   1.966   6.002
10360TIP3    H231038   3.729   1.952   5.965
10361TIP3   OH231039   3.876   2.277   6.397
10361TIP3    H131040   3.921   2.194   6.411
10361TIP3    H231041   3.921   2.316   6.321
10362TIP3   OH231042   4.031   2.440   6.917
10362TIP3    H131043   4.113   2.458   6.869
10362TIP3    H231044   4.045   2.480   7.003
10363TIP3   OH231045   6.943   6.600   0.200
10363TIP3    H131046   6.867   6.630   0.250
10363TIP3    H231047   6.975   6.678   0.155
10364TIP3   OH231048   5.581   6.314   0.885
10364TIP3    H131049   5.605   6.393   0.934
10364TIP3    H231050   5.615   6.242   0.938
10365TIP3   OH231051   7.405   6.183   0.728
10365TIP3    H131052   7.462   6.125   0.678
10365TIP3    H231053   7.364   6.239   0.662
10366TIP3   OH231054   3.989   2.027   6.449
10366TIP3    H131055   4.034   2.011   6.532
10366TIP3    H231056   3.926   1.954   6.441
10367TIP3   OH231057   5.527   6.053   0.289
10367TIP3    H131058   5.581   5.975   0.276
10367TIP3    H231059   5.587   6.126   0.275
10368TIP3   OH231060   5.359   6.303   0.397
10368TIP3    H131061   5.397   6.308   0.309
10368TIP3    H231062   5.323   6.390   0.412
10369TIP3   OH231063   7.257   6.317   0.547
10369TIP3    H131064   7.177   6.361   0.573
10369TIP3    H231065   7.229   6.254   0.480
10370TIP3   OH231066   4.043   1.944   6.089
10370TIP3    H131067   4.087   1.882   6.030
10370TIP3    H231068   4.100   2.021   6.090
10371TIP3   OH231069   3.626   3.502   6.353
10371TIP3    H131070   3.680   3.487   6.275
10371TIP3    H231071   3.673   3.569   6.402
10372TIP3   OH231072   5.454   5.939   0.767
10372TIP3    H131073   5.412   6.011   0.814
10372TIP3    H231074   5.426   5.949   0.676
10373TIP3   OH231075   5.565   7.375   0.858
10373TIP3    H131076   5.591   7.285   0.840
10373TIP3    H231077   5.589   7.389   0.950
10374TIP3   OH231078   5.758   7.346   0.327
10374TIP3    H131079   5.709   7.422   0.294
10374TIP3    H231080   5.844   7.352   0.285
10375TIP3   OH231081   6.166   7.576   0.454
10375TIP3    H131082   6.199   7.574   0.544
10375TIP3    H231083   6.228   7.632   0.407
10376TIP3   OH231084   6.358   7.738   0.342
10376TIP3    H131085   6.420   7.680   0.299
10376TIP3    H231086   6.411   7.794   0.398
10377TIP3   OH231087   7.150   6.092   0.407
10377TIP3    H131088   7.065   6.101   0.364
10377TIP3    H231089   7.173   6.000   0.396
10378TIP3   OH231090   5.415   7.549   0.356
10378TIP3    H131091   5.343   7.609   0.335
10378TIP3    H231092   5.425   7.555   0.451
10379TIP3   OH231093   5.653   7.577   0.226
10379TIP3    H131094   5.569   7.576   0.271
10379TIP3    H231095   5.632   7.603   0.136
10380TIP3   OH231096   6.072   7.598   0.026
10380TIP3    H131097   6.000   7.608  -0.037
10380TIP3    H231098   6.081   7.684   0.067
10381TIP3   OH231099   6.337   7.538   0.081
10381TIP3    H131100   6.245   7.553   0.060
10381TIP3    H231101   6.384   7.604   0.030
10382TIP3   OH231102   3.712   3.712   6.924
10382TIP3    H131103   3.703   3.797   6.880
10382TIP3    H231104   3.739   3.652   6.854
10383TIP3   OH231105   5.331   7.379   0.083
10383TIP3    H131106   5.352   7.352   0.173
10383TIP3    H231107   5.404   7.345   0.031
10384TIP3   OH231108   2.705   3.249   6.903
10384TIP3    H131109   2.715   3.167   6.951
10384TIP3    H231110   2.792   3.289   6.905
10385TIP3   OH231111   5.804   7.345  -0.014
10385TIP3    H131112   5.822   7.252  -0.029
10385TIP3    H231113   5.858   7.368   0.061
10386TIP3   OH231114   6.379   6.010   0.055
10386TIP3    H131115   6.329   5.936   0.090
10386TIP3    H231116   6.448   5.969   0.003
10387TIP3   OH231117   4.036   1.895   6.906
10387TIP3    H131118   4.072   1.944   6.832
10387TIP3    H231119   3.942   1.915   6.903
10388TIP3   OH231120   4.149   1.971   6.669
10388TIP3    H131121   4.218   1.913   6.638
10388TIP3    H231122   4.184   2.059   6.657
10389TIP3   OH231123   5.603   5.670   0.045
10389TIP3    H131124   5.568   5.732  -0.019
10389TIP3    H231125   5.675   5.627  -0.000
10390TIP3   OH231126   2.584   1.590   6.645
10390TIP3    H131127   2.615   1.621   6.560
10390TIP3    H231128   2.588   1.666   6.702
10391TIP3   OH231129   3.220   1.741   6.874
10391TIP3    H131130   3.273   1.781   6.804
10391TIP3    H231131   3.266   1.764   6.954
10392TIP3   OH231132   3.756   1.881   6.869
10392TIP3    H131133   3.759   1.845   6.780
10392TIP3    H231134   3.754   1.804   6.926
10393TIP3   OH231135   3.804   1.815   6.452
10393TIP3    H131136   3.724   1.863   6.473
10393TIP3    H231137   3.792   1.728   6.490
10394TIP3   OH231138   2.270   3.160   6.433
10394TIP3    H131139   2.187   3.124   6.403
10394TIP3    H231140   2.270   3.250   6.400
10395TIP3   OH231141   2.694   1.710   6.416
10395TIP3    H131142   2.743   1.657   6.353
10395TIP3    H231143   2.759   1.768   6.455
10396TIP3   OH231144   3.178   1.919   6.527
10396TIP3    H131145   3.237   1.864   6.578
10396TIP3    H231146   3.199   2.008   6.553
10397TIP3   OH231147   3.066   3.315   6.025
10397TIP3    H131148   3.150   3.342   5.988
10397TIP3    H231149   3.037   3.244   5.969
10398TIP3   OH231150   3.774   3.455   6.123
10398TIP3    H131151   3.768   3.359   6.115
10398TIP3    H231152   3.730   3.488   6.044
10399TIP3   OH231153   5.819   5.845   0.972
10399TIP3    H131154   5.815   5.816   1.063
10399TIP3    H231155   5.886   5.913   0.971
10400TIP3   OH231156   2.372   3.160   6.083
10400TIP3    H131157   2.375   3.167   6.178
10400TIP3    H231158   2.452   3.113   6.059
10401TIP3   OH231159   6.908   6.026   0.784
10401TIP3    H131160   6.924   6.026   0.878
10401TIP3    H231161   6.995   6.032   0.745
10402TIP3   OH231162   6.827   7.605   0.357
10402TIP3    H131163   6.751   7.574   0.308
10402TIP3    H231164   6.812   7.699   0.367
10403TIP3   OH231165   5.265   2.982   6.057
10403TIP3    H131166   5.233   3.068   6.031
10403TIP3    H231167   5.196   2.921   6.031
10404TIP3   OH231168   5.262   2.973   6.477
10404TIP3    H131169   5.314   2.953   6.555
10404TIP3    H231170   5.222   2.889   6.453
10405TIP3   OH231171   4.563   2.844   6.822
10405TIP3    H131172   4.597   2.789   6.892
10405TIP3    H231173   4.639   2.867   6.770
10406TIP3   OH231174   5.526   3.280   6.150
10406TIP3    H131175   5.514   3.212   6.216
10406TIP3    H231176   5.550   3.358   6.200
10407TIP3   OH231177   4.549   3.271   6.525
10407TIP3    H131178   4.534   3.176   6.527
10407TIP3    H231179   4.643   3.280   6.512
10408TIP3   OH231180   4.236   2.470   6.303
10408TIP3    H131181   4.195   2.553   6.325
10408TIP3    H231182   4.167   2.419   6.261
10409TIP3   OH231183   4.306   2.768   6.513
10409TIP3    H131184   4.356   2.690   6.541
10409TIP3    H231185   4.371   2.823   6.470
10410TIP3   OH231186   5.181   3.717   6.160
10410TIP3    H131187   5.210   3.652   6.096
10410TIP3    H231188   5.177   3.669   6.243
10411TIP3   OH231189   5.065   3.196   6.486
10411TIP3    H131190   5.106   3.115   6.454
10411TIP3    H231191   5.138   3.251   6.513
10412TIP3   OH231192   6.098   2.515   6.493
10412TIP3    H131193   6.113   2.602   6.531
10412TIP3    H231194   6.110   2.527   6.399
10413TIP3   OH231195   5.486   2.688   6.524
10413TIP3    H131196   5.543   2.614   6.546
10413TIP3    H231197   5.447   2.664   6.440
10414TIP3   OH231198   4.813   2.348   6.489
10414TIP3    H131199   4.799   2.420   6.427
10414TIP3    H231200   4.764   2.274   6.452
10415TIP3   OH231201   5.497   2.423   6.120
10415TIP3    H131202   5.507   2.365   6.196
10415TIP3    H231203   5.583   2.463   6.108
10416TIP3   OH231204   4.452   2.553   6.606
10416TIP3    H131205   4.535   2.536   6.652
10416TIP3    H231206   4.459   2.502   6.526
10417TIP3   OH231207   4.879   2.754   6.422
10417TIP3    H131208   4.973   2.738   6.429
10417TIP3    H231209   4.844   2.673   6.386
10418TIP3   OH231210   6.157   2.736   6.666
10418TIP3    H131211   6.069   2.772   6.653
10418TIP3    H231212   6.180   2.764   6.755
10419TIP3   OH231213   4.811   2.343   6.933
10419TIP3    H131214   4.761   2.378   6.859
10419TIP3    H231215   4.757   2.360   7.010
10420TIP3   OH231216   5.153   3.195   5.923
10420TIP3    H131217   5.114   3.171   5.839
10420TIP3    H231218   5.103   3.273   5.951
10421TIP3   OH231219   4.911   3.120   6.703
10421TIP3    H131220   4.856   3.190   6.736
10421TIP3    H231221   4.958   3.159   6.629
10422TIP3   OH231222   5.736   2.499   6.241
10422TIP3    H131223   5.701   2.427   6.293
10422TIP3    H231224   5.774   2.559   6.305
10423TIP3   OH231225   4.694   2.455   6.710
10423TIP3    H131226   4.751   2.529   6.731
10423TIP3    H231227   4.736   2.413   6.636
10424TIP3   OH231228   4.751   3.321   6.806
10424TIP3    H131229   4.734   3.410   6.773
10424TIP3    H231230   4.674   3.299   6.858
10425TIP3   OH231231   4.128   3.020   6.055
10425TIP3    H131232   4.093   3.036   5.967
10425TIP3    H231233   4.154   3.106   6.087
10426TIP3   OH231234   5.571   3.527   6.294
10426TIP3    H131235   5.484   3.519   6.331
10426TIP3    H231236   5.570   3.610   6.246
10427TIP3   OH231237   5.893   2.418   6.673
10427TIP3    H131238   5.802   2.439   6.650
10427TIP3    H231239   5.943   2.443   6.596
10428TIP3   OH231240   5.154   2.034   6.660
10428TIP3    H131241   5.145   1.941   6.680
10428TIP3    H231242   5.078   2.076   6.700
10429TIP3   OH231243   5.273   3.561   5.948
10429TIP3    H131244   5.324   3.480   5.938
10429TIP3    H231245   5.331   3.630   5.918
10430TIP3   OH231246   5.424   3.340   5.899
10430TIP3    H131247   5.377   3.261   5.871
10430TIP3    H231248   5.467   3.314   5.980
10431TIP3   OH231249   5.803   3.418   6.638
10431TIP3    H131250   5.786   3.344   6.581
10431TIP3    H231251   5.787   3.495   6.584
10432TIP3   OH231252   5.092   2.824   5.904
10432TIP3    H131253   5.010   2.870   5.884
10432TIP3    H231254   5.139   2.820   5.821
10433TIP3   OH231255   5.060   2.623   5.604
10433TIP3    H131256   5.126   2.671   5.654
10433TIP3    H231257   5.109   2.557   5.556
10434TIP3   OH231258   5.987   3.081   6.499
10434TIP3    H131259   5.902   3.125   6.499
10434TIP3    H231260   6.021   3.093   6.411
10435TIP3   OH231261   5.450   2.909   5.869
10435TIP3    H131262   5.396   2.936   5.943
10435TIP3    H231263   5.532   2.878   5.909
10436TIP3   OH231264   5.678   2.941   6.805
10436TIP3    H131265   5.672   3.023   6.853
10436TIP3    H231266   5.596   2.936   6.756
10437TIP3   OH231267   4.677   2.890   6.279
10437TIP3    H131268   4.640   2.832   6.213
10437TIP3    H231269   4.750   2.841   6.317
10438TIP3   OH231270   4.809   3.315   6.417
10438TIP3    H131271   4.784   3.297   6.326
10438TIP3    H231272   4.895   3.275   6.427
10439TIP3   OH231273   4.781   2.884   6.648
10439TIP3    H131274   4.819   2.847   6.568
10439TIP3    H231275   4.832   2.963   6.664
10440TIP3   OH231276   5.332   3.520   6.423
10440TIP3    H131277   5.320   3.598   6.478
10440TIP3    H231278   5.319   3.446   6.483
10441TIP3   OH231279   7.782   7.432   0.030
10441TIP3    H131280   7.722   7.490   0.076
10441TIP3    H231281   7.726   7.379  -0.027
10442TIP3   OH231282   5.281   2.770   5.702
10442TIP3    H131283   5.342   2.825   5.751
10442TIP3    H231284   5.309   2.778   5.610
10443TIP3   OH231285   7.539   6.979   0.163
10443TIP3    H131286   7.543   7.071   0.189
10443TIP3    H231287   7.445   6.961   0.155
10444TIP3   OH231288   5.024   3.442   5.964
10444TIP3    H131289   5.108   3.488   5.966
10444TIP3    H231290   4.967   3.498   5.911
10445TIP3   OH231291   7.573   7.592   0.113
10445TIP3    H131292   7.547   7.598   0.021
10445TIP3    H231293   7.491   7.574   0.160
10446TIP3   OH231294   5.790   1.997   5.755
10446TIP3    H131295   5.714   2.018   5.809
10446TIP3    H231296   5.803   2.075   5.701
10447TIP3   OH231297   4.551   2.736   6.077
10447TIP3    H131298   4.474   2.782   6.041
10447TIP3    H231299   4.520   2.646   6.091
10448TIP3   OH231300   5.611   3.371   5.308
10448TIP3    H131301   5.609   3.464   5.288
10448TIP3    H231302   5.701   3.344   5.288
10449TIP3   OH231303   7.162   7.143   0.060
10449TIP3    H131304   7.094   7.124  -0.004
10449TIP3    H231305   7.199   7.058   0.082
10450TIP3   OH231306   4.187   3.318   6.640
10450TIP3    H131307   4.283   3.319   6.632
10450TIP3    H231308   4.166   3.395   6.691
10451TIP3   OH231309   6.029   3.781   6.700
10451TIP3    H131310   6.035   3.686   6.710
10451TIP3    H231311   5.949   3.805   6.746
10452TIP3   OH231312   5.140   3.563   6.828
10452TIP3    H131313   5.134   3.654   6.856
10452TIP3    H231314   5.072   3.518   6.879
10453TIP3   OH231315   4.917   3.669   5.782
10453TIP3    H131316   4.870   3.648   5.701
10453TIP3    H231317   4.880   3.753   5.810
10454TIP3   OH231318   4.351   3.522   6.163
10454TIP3    H131319   4.395   3.513   6.247
10454TIP3    H231320   4.302   3.440   6.153
10455TIP3   OH231321   5.119   3.593   5.411
10455TIP3    H131322   5.169   3.520   5.376
10455TIP3    H231323   5.153   3.606   5.500
10456TIP3   OH231324   5.170   3.639   5.681
10456TIP3    H131325   5.084   3.644   5.722
10456TIP3    H231326   5.227   3.601   5.749
10457TIP3   OH231327   0.251   6.900   0.028
10457TIP3    H131328   0.172   6.913  -0.023
10457TIP3    H231329   0.271   6.807   0.020
10458TIP3   OH231330   7.366   7.326   0.035
10458TIP3    H131331   7.417   7.312   0.115
10458TIP3    H231332   7.294   7.264   0.041
10459TIP3   OH231333   4.917   2.128   6.787
10459TIP3    H131334   4.834   2.098   6.750
10459TIP3    H231335   4.896   2.210   6.832
10460TIP3   OH231336   8.294   6.256   0.038
10460TIP3    H131337   8.362   6.229   0.100
10460TIP3    H231338   8.211   6.235   0.082
10461TIP3   OH231339   5.686   2.675   6.902
10461TIP3    H131340   5.642   2.675   6.987
10461TIP3    H231341   5.664   2.760   6.864
10462TIP3   OH231342   5.361   2.774   5.441
10462TIP3    H131343   5.317   2.767   5.356
10462TIP3    H231344   5.444   2.818   5.421
10463TIP3   OH231345   5.069   2.174   5.758
10463TIP3    H131346   5.039   2.178   5.849
10463TIP3    H231347   5.031   2.093   5.724
10464TIP3   OH231348   4.856   2.662   6.797
10464TIP3    H131349   4.808   2.671   6.879
10464TIP3    H231350   4.836   2.742   6.748
10465TIP3   OH231351   4.734   2.543   6.313
10465TIP3    H131352   4.645   2.517   6.336
10465TIP3    H231353   4.748   2.507   6.225
10466TIP3   OH231354   5.220   2.622   6.043
10466TIP3    H131355   5.173   2.692   5.998
10466TIP3    H231356   5.279   2.586   5.977
10467TIP3   OH231357   8.233   6.896   0.180
10467TIP3    H131358   8.208   6.825   0.239
10467TIP3    H231359   8.325   6.911   0.198
10468TIP3   OH231360   5.391   2.638   6.267
10468TIP3    H131361   5.323   2.662   6.204
10468TIP3    H231362   5.429   2.557   6.233
10469TIP3   OH231363   7.520   6.684   0.073
10469TIP3    H131364   7.542   6.746   0.143
10469TIP3    H231365   7.503   6.602   0.118
10470TIP3   OH231366   4.734   2.154   5.725
10470TIP3    H131367   4.726   2.157   5.820
10470TIP3    H231368   4.656   2.200   5.694
10471TIP3   OH231369   4.278   2.196   6.595
10471TIP3    H131370   4.350   2.232   6.646
10471TIP3    H231371   4.317   2.177   6.509
10472TIP3   OH231372   4.201   2.176   6.101
10472TIP3    H131373   4.245   2.210   6.023
10472TIP3    H231374   4.138   2.244   6.124
10473TIP3   OH231375   5.422   2.887   6.694
10473TIP3    H131376   5.448   2.821   6.630
10473TIP3    H231377   5.378   2.838   6.763
10474TIP3   OH231378   5.071   2.392   6.377
10474TIP3    H131379   4.998   2.369   6.435
10474TIP3    H231380   5.142   2.334   6.404
10475TIP3   OH231381   4.498   2.414   6.374
10475TIP3    H131382   4.409   2.419   6.338
10475TIP3    H231383   4.527   2.325   6.354
10476TIP3   OH231384   4.752   2.415   6.070
10476TIP3    H131385   4.846   2.428   6.059
10476TIP3    H231386   4.715   2.434   5.984
10477TIP3   OH231387   5.621   2.459   6.616
10477TIP3    H131388   5.546   2.452   6.676
10477TIP3    H231389   5.601   2.397   6.546
10478TIP3   OH231390   4.632   2.445   5.825
10478TIP3    H131391   4.568   2.395   5.774
10478TIP3    H231392   4.686   2.488   5.760
10479TIP3   OH231393   5.746   4.125   6.795
10479TIP3    H131394   5.742   4.141   6.701
10479TIP3    H231395   5.825   4.170   6.824
10480TIP3   OH231396   7.523   7.245   0.266
10480TIP3    H131397   7.604   7.263   0.314
10480TIP3    H231398   7.455   7.246   0.333
10481TIP3   OH231399   5.151   2.700   6.475
10481TIP3    H131400   5.199   2.642   6.416
10481TIP3    H231401   5.150   2.653   6.558
10482TIP3   OH231402   4.645   2.168   6.356
10482TIP3    H131403   4.615   2.092   6.405
10482TIP3    H231404   4.682   2.132   6.275
10483TIP3   OH231405   5.120   2.597   6.745
10483TIP3    H131406   5.032   2.630   6.764
10483TIP3    H231407   5.179   2.654   6.795
10484TIP3   OH231408   4.853   2.965   5.848
10484TIP3    H131409   4.781   2.905   5.828
10484TIP3    H231410   4.832   3.001   5.934
10485TIP3   OH231411   5.749   3.214   6.461
10485TIP3    H131412   5.781   3.262   6.385
10485TIP3    H231413   5.669   3.171   6.430
10486TIP3   OH231414   5.313   2.289   5.718
10486TIP3    H131415   5.221   2.266   5.733
10486TIP3    H231416   5.321   2.379   5.751
10487TIP3   OH231417   5.264   3.297   6.859
10487TIP3    H131418   5.308   3.287   6.943
10487TIP3    H231419   5.222   3.383   6.864
10488TIP3   OH231420   5.383   2.535   5.829
10488TIP3    H131421   5.476   2.536   5.851
10488TIP3    H231422   5.370   2.615   5.778
10489TIP3   OH231423   4.555   2.989   6.507
10489TIP3    H131424   4.590   2.965   6.421
10489TIP3    H231425   4.617   2.952   6.569
10490TIP3   OH231426   5.009   3.123   5.690
10490TIP3    H131427   4.962   3.207   5.689
10490TIP3    H231428   4.953   3.065   5.743
10491TIP3   OH231429   7.266   6.917   0.189
10491TIP3    H131430   7.270   6.892   0.282
10491TIP3    H231431   7.194   6.865   0.153
10492TIP3   OH231432   8.000   7.046   0.217
10492TIP3    H131433   7.932   6.988   0.182
10492TIP3    H231434   8.082   7.006   0.188
10493TIP3   OH231435   5.412   3.578   6.750
10493TIP3    H131436   5.317   3.565   6.756
10493TIP3    H231437   5.436   3.618   6.834
10494TIP3   OH231438   5.811   2.625   5.641
10494TIP3    H131439   5.753   2.580   5.580
10494TIP3    H231440   5.813   2.716   5.610
10495TIP3   OH231441   6.050   3.502   6.727
10495TIP3    H131442   5.955   3.486   6.723
10495TIP3    H231443   6.083   3.469   6.644
10496TIP3   OH231444   5.538   3.443   5.574
10496TIP3    H131445   5.510   3.374   5.634
10496TIP3    H231446   5.553   3.398   5.491
10497TIP3   OH231447   5.519   3.076   6.362
10497TIP3    H131448   5.428   3.053   6.383
10497TIP3    H231449   5.556   2.997   6.326
10498TIP3   OH231450   4.668   3.313   6.168
10498TIP3    H131451   4.668   3.390   6.111
10498TIP3    H231452   4.575   3.292   6.179
10499TIP3   OH231453   4.234   2.600   5.878
10499TIP3    H131454   4.277   2.683   5.898
10499TIP3    H231455   4.153   2.601   5.929
10500TIP3   OH231456   4.768   3.068   6.083
10500TIP3    H131457   4.748   3.157   6.111
10500TIP3    H231458   4.740   3.013   6.156
10501TIP3   OH231459   4.949   3.638   6.623
10501TIP3    H131460   4.986   3.710   6.572
10501TIP3    H231461   5.024   3.602   6.671
10502TIP3   OH231462   4.584   3.540   6.015
10502TIP3    H131463   4.497   3.545   6.056
10502TIP3    H231464   4.617   3.630   6.018
10503TIP3   OH231465   5.308   3.294   6.586
10503TIP3    H131466   5.297   3.289   6.682
10503TIP3    H231467   5.376   3.230   6.566
10504TIP3   OH231468   5.297   3.178   5.468
10504TIP3    H131469   5.346   3.155   5.547
10504TIP3    H231470   5.212   3.136   5.480
10505TIP3   OH231471   5.562   3.803   6.634
10505TIP3    H131472   5.489   3.742   6.644
10505TIP3    H231473   5.536   3.860   6.562
10506TIP3   OH231474   5.617   3.645   5.273
10506TIP3    H131475   5.641   3.710   5.206
10506TIP3    H231476   5.544   3.685   5.319
10507TIP3   OH231477   7.474   6.431   0.198
10507TIP3    H131478   7.379   6.438   0.204
10507TIP3    H231479   7.500   6.380   0.275
10508TIP3   OH231480   5.467   3.108   5.674
10508TIP3    H131481   5.453   3.043   5.743
10508TIP3    H231482   5.562   3.110   5.663
10509TIP3   OH231483   4.375   3.521   6.786
10509TIP3    H131484   4.426   3.454   6.831
10509TIP3    H231485   4.396   3.602   6.832
10510TIP3   OH231486   4.650   3.145   5.473
10510TIP3    H131487   4.660   3.054   5.446
10510TIP3    H231488   4.632   3.140   5.567
10511TIP3   OH231489   4.594   3.161   5.745
10511TIP3    H131490   4.665   3.132   5.802
10511TIP3    H231491   4.595   3.257   5.753
10512TIP3   OH231492   4.328   2.851   5.956
10512TIP3    H131493   4.262   2.897   6.008
10512TIP3    H231494   4.347   2.911   5.883
10513TIP3   OH231495   5.470   2.497   6.857
10513TIP3    H131496   5.560   2.528   6.868
10513TIP3    H231497   5.469   2.411   6.899
10514TIP3   OH231498   5.367   2.221   5.989
10514TIP3    H131499   5.352   2.242   5.897
10514TIP3    H231500   5.404   2.300   6.027
10515TIP3   OH231501   4.866   3.353   5.690
10515TIP3    H131502   4.780   3.376   5.726
10515TIP3    H231503   4.886   3.424   5.629
10516TIP3   OH231504   5.029   2.433   6.109
10516TIP3    H131505   5.095   2.498   6.083
10516TIP3    H231506   5.043   2.422   6.203
10517TIP3   OH231507   5.320   2.728   6.893
10517TIP3    H131508   5.348   2.768   6.975
10517TIP3    H231509   5.369   2.645   6.889
10518TIP3   OH231510   5.211   2.107   6.191
10518TIP3    H131511   5.239   2.148   6.272
10518TIP3    H231512   5.268   2.144   6.123
10519TIP3   OH231513   4.613   3.435   5.763
10519TIP3    H131514   4.590   3.505   5.702
10519TIP3    H231515   4.600   3.473   5.849
10520TIP3   OH231516   4.715   2.143   6.004
10520TIP3    H131517   4.703   2.233   6.035
10520TIP3    H231518   4.809   2.127   6.012
10521TIP3   OH231519   5.949   2.618   6.881
10521TIP3    H131520   5.855   2.629   6.894
10521TIP3    H231521   5.957   2.562   6.804
10522TIP3   OH231522   5.612   2.823   6.272
10522TIP3    H131523   5.536   2.765   6.278
10522TIP3    H231524   5.680   2.779   6.323
10523TIP3   OH231525   4.344   3.034   5.742
10523TIP3    H131526   4.415   3.098   5.751
10523TIP3    H231527   4.377   2.970   5.679
10524TIP3   OH231528   4.260   2.322   5.877
10524TIP3    H131529   4.271   2.417   5.883
10524TIP3    H231530   4.196   2.310   5.806
10525TIP3   OH231531   5.590   3.795   6.211
10525TIP3    H131532   5.546   3.844   6.141
10525TIP3    H231533   5.684   3.811   6.196
10526TIP3   OH231534   4.654   2.048   6.742
10526TIP3    H131535   4.627   2.017   6.655
10526TIP3    H231536   4.647   1.971   6.798
10527TIP3   OH231537   4.183   3.294   6.132
10527TIP3    H131538   4.131   3.324   6.206
10527TIP3    H231539   4.143   3.335   6.056
10528TIP3   OH231540   7.207   7.839   0.264
10528TIP3    H131541   7.291   7.842   0.312
10528TIP3    H231542   7.190   7.745   0.253
10529TIP3   OH231543   7.675   7.759   0.307
10529TIP3    H131544   7.768   7.736   0.314
10529TIP3    H231545   7.642   7.704   0.236
10530TIP3   OH231546   4.810   3.345   5.370
10530TIP3    H131547   4.761   3.274   5.411
10530TIP3    H231548   4.884   3.302   5.327
10531TIP3   OH231549   8.298   7.694   0.058
10531TIP3    H131550   8.309   7.623   0.121
10531TIP3    H231551   8.373   7.751   0.072
10532TIP3   OH231552   5.250   3.384   5.292
10532TIP3    H131553   5.281   3.319   5.354
10532TIP3    H231554   5.309   3.377   5.217
10533TIP3   OH231555   7.316   7.243   0.455
10533TIP3    H131556   7.340   7.150   0.463
10533TIP3    H231557   7.230   7.242   0.412
10534TIP3   OH231558   4.473   2.843   5.597
10534TIP3    H131559   4.525   2.818   5.673
10534TIP3    H231560   4.537   2.854   5.527
10535TIP3   OH231561   7.934   7.322   0.233
10535TIP3    H131562   7.890   7.343   0.151
10535TIP3    H231563   7.967   7.233   0.220
10536TIP3   OH231564   5.030   3.065   5.423
10536TIP3    H131565   5.011   3.077   5.516
10536TIP3    H231566   5.017   2.971   5.408
10537TIP3   OH231567   5.583   3.354   6.795
10537TIP3    H131568   5.659   3.382   6.744
10537TIP3    H231569   5.515   3.418   6.773
10538TIP3   OH231570   7.433   6.994   0.455
10538TIP3    H131571   7.500   6.944   0.409
10538TIP3    H231572   7.469   7.007   0.543
10539TIP3   OH231573   4.651   2.780   5.806
10539TIP3    H131574   4.630   2.747   5.894
10539TIP3    H231575   4.697   2.708   5.764
10540TIP3   OH231576   7.787   6.860   0.119
10540TIP3    H131577   7.704   6.907   0.127
10540TIP3    H231578   7.824   6.890   0.036
10541TIP3   OH231579   4.785   2.592   5.651
10541TIP3    H131580   4.756   2.595   5.560
10541TIP3    H231581   4.881   2.598   5.646
10542TIP3   OH231582   8.297   7.244   0.217
10542TIP3    H131583   8.362   7.202   0.160
10542TIP3    H231584   8.291   7.185   0.292
10543TIP3   OH231585   5.587   2.890   5.326
10543TIP3    H131586   5.572   2.847   5.242
10543TIP3    H231587   5.559   2.981   5.312
10544TIP3   OH231588   7.901   6.633   0.224
10544TIP3    H131589   7.902   6.561   0.161
10544TIP3    H231590   7.862   6.706   0.176
10545TIP3   OH231591   5.072   2.423   6.968
10545TIP3    H131592   5.100   2.462   6.885
10545TIP3    H231593   4.981   2.398   6.953
10546TIP3   OH231594   5.081   2.958   6.846
10546TIP3    H131595   5.170   2.974   6.816
10546TIP3    H231596   5.027   3.020   6.797
10547TIP3   OH231597   0.002   6.927   0.274
10547TIP3    H131598   0.020   6.834   0.264
10547TIP3    H231599   0.081   6.970   0.242
10548TIP3   OH231600   5.703   3.179   6.963
10548TIP3    H131601   5.650   3.240   6.912
10548TIP3    H231602   5.792   3.192   6.931
10549TIP3   OH231603   7.792   6.728   0.467
10549TIP3    H131604   7.708   6.685   0.487
10549TIP3    H231605   7.813   6.699   0.378
10550TIP3   OH231606   8.029   6.197   0.116
10550TIP3    H131607   7.988   6.277   0.085
10550TIP3    H231608   7.963   6.129   0.103
10551TIP3   OH231609   8.155   6.676   0.326
10551TIP3    H131610   8.140   6.666   0.420
10551TIP3    H231611   8.071   6.655   0.286
10552TIP3   OH231612   8.412   6.658   0.209
10552TIP3    H131613   8.330   6.643   0.256
10552TIP3    H231614   8.478   6.613   0.262
10553TIP3   OH231615   0.144   6.588   0.348
10553TIP3    H131616   0.153   6.493   0.356
10553TIP3    H231617   0.136   6.620   0.438
10554TIP3   OH231618   7.610   6.508   0.515
10554TIP3    H131619   7.616   6.420   0.477
10554TIP3    H231620   7.664   6.504   0.594
10555TIP3   OH231621   8.108   6.191   0.375
10555TIP3    H131622   8.174   6.122   0.374
10555TIP3    H231623   8.076   6.196   0.285
10556TIP3   OH231624   8.190   6.401   0.534
10556TIP3    H131625   8.165   6.332   0.473
10556TIP3    H231626   8.118   6.464   0.532
10557TIP3   OH231627   4.605   3.644   5.579
10557TIP3    H131628   4.694   3.623   5.552
10557TIP3    H231629   4.567   3.688   5.503
10558TIP3   OH231630   4.071   3.019   5.769
10558TIP3    H131631   4.166   3.033   5.760
10558TIP3    H231632   4.057   2.933   5.728
10559TIP3   OH231633   3.978   3.613   6.216
10559TIP3    H131634   3.914   3.558   6.170
10559TIP3    H231635   4.023   3.553   6.276
10560TIP3   OH231636   4.117   3.449   6.390
10560TIP3    H131637   4.106   3.380   6.455
10560TIP3    H231638   4.169   3.516   6.435
10561TIP3   OH231639   5.855   3.866   6.193
10561TIP3    H131640   5.882   3.890   6.281
10561TIP3    H231641   5.921   3.904   6.136
10562TIP3   OH231642   5.878   3.882   6.477
10562TIP3    H131643   5.830   3.800   6.469
10562TIP3    H231644   5.949   3.863   6.539
10563TIP3   OH231645   0.262   7.583   0.112
10563TIP3    H131646   0.189   7.592   0.175
10563TIP3    H231647   0.305   7.668   0.113
10564TIP3   OH231648   5.746   3.092   5.660
10564TIP3    H131649   5.808   3.160   5.632
10564TIP3    H231650   5.788   3.052   5.736
10565TIP3   OH231651   5.869   2.948   5.863
10565TIP3    H131652   5.803   2.905   5.917
10565TIP3    H231653   5.933   2.982   5.926
10566TIP3   OH231654   5.928   3.350   6.293
10566TIP3    H131655   5.978   3.280   6.252
10566TIP3    H231656   5.929   3.421   6.228
10567TIP3   OH231657   5.738   3.640   6.487
10567TIP3    H131658   5.669   3.685   6.537
10567TIP3    H231659   5.691   3.599   6.415
10568TIP3   OH231660   5.793   2.867   5.506
10568TIP3    H131661   5.722   2.866   5.442
10568TIP3    H231662   5.774   2.943   5.561
10569TIP3   OH231663   5.658   2.518   5.441
10569TIP3    H131664   5.606   2.556   5.370
10569TIP3    H231665   5.644   2.423   5.433
10570TIP3   OH231666   5.674   2.804   6.000
10570TIP3    H131667   5.676   2.710   5.983
10570TIP3    H231668   5.658   2.811   6.094
10571TIP3   OH231669   4.299   2.878   6.764
10571TIP3    H131670   4.289   2.843   6.676
10571TIP3    H231671   4.393   2.876   6.780
10572TIP3   OH231672   5.957   3.230   6.862
10572TIP3    H131673   6.024   3.164   6.846
10572TIP3    H231674   5.965   3.291   6.789
10573TIP3   OH231675   6.134   3.022   6.858
10573TIP3    H131676   6.058   2.978   6.896
10573TIP3    H231677   6.208   2.965   6.881
10574TIP3   OH231678   5.609   2.247   5.419
10574TIP3    H131679   5.671   2.222   5.487
10574TIP3    H231680   5.526   2.206   5.445
10575TIP3   OH231681   5.670   2.540   5.878
10575TIP3    H131682   5.710   2.457   5.904
10575TIP3    H231683   5.721   2.569   5.803
10576TIP3   OH231684   5.829   2.703   6.408
10576TIP3    H131685   5.912   2.723   6.365
10576TIP3    H231686   5.840   2.738   6.497
10577TIP3   OH231687   5.903   2.855   6.637
10577TIP3    H131688   5.825   2.882   6.685
10577TIP3    H231689   5.932   2.934   6.591
10578TIP3   OH231690   7.347   6.566   0.470
10578TIP3    H131691   7.442   6.569   0.484
10578TIP3    H231692   7.319   6.484   0.510
10579TIP3   OH231693   0.693   6.456   0.235
10579TIP3    H131694   0.752   6.395   0.191
10579TIP3    H231695   0.652   6.505   0.163
10580TIP3   OH231696   5.787   2.285   5.936
10580TIP3    H131697   5.825   2.276   6.023
10580TIP3    H231698   5.722   2.215   5.931
10581TIP3   OH231699   4.486   2.268   6.767
10581TIP3    H131700   4.542   2.190   6.768
10581TIP3    H231701   4.547   2.340   6.752
10582TIP3   OH231702   4.275   2.532   6.825
10582TIP3    H131703   4.325   2.522   6.743
10582TIP3    H231704   4.303   2.617   6.859
10583TIP3   OH231705   0.542   6.570   0.038
10583TIP3    H131706   0.458   6.611   0.056
10583TIP3    H231707   0.522   6.496  -0.019
10584TIP3   OH231708   5.839   2.201   5.575
10584TIP3    H131709   5.884   2.139   5.518
10584TIP3    H231710   5.896   2.277   5.578
10585TIP3   OH231711   4.261   2.039   6.329
10585TIP3    H131712   4.174   2.028   6.366
10585TIP3    H231713   4.248   2.094   6.252
10586TIP3   OH231714   5.421   3.757   5.839
10586TIP3    H131715   5.476   3.744   5.762
10586TIP3    H231716   5.466   3.824   5.890
10587TIP3   OH231717   7.324   6.109   0.189
10587TIP3    H131718   7.273   6.107   0.270
10587TIP3    H231719   7.270   6.158   0.128
10588TIP3   OH231720   7.350   7.561   0.279
10588TIP3    H131721   7.257   7.540   0.267
10588TIP3    H231722   7.367   7.541   0.371
10589TIP3   OH231723   4.720   3.597   6.771
10589TIP3    H131724   4.669   3.671   6.738
10589TIP3    H231725   4.805   3.605   6.728
10590TIP3   OH231726   5.130   3.830   6.908
10590TIP3    H131727   5.168   3.824   6.995
10590TIP3    H231728   5.192   3.882   6.858
10591TIP3   OH231729   5.317   3.985   6.777
10591TIP3    H131730   5.379   3.932   6.726
10591TIP3    H231731   5.373   4.040   6.832
10592TIP3   OH231732   6.120   2.319   6.866
10592TIP3    H131733   6.033   2.317   6.827
10592TIP3    H231734   6.153   2.229   6.858
10593TIP3   OH231735   4.384   3.847   6.814
10593TIP3    H131736   4.293   3.866   6.792
10593TIP3    H231737   4.406   3.910   6.882
10594TIP3   OH231738   4.614   3.828   6.664
10594TIP3    H131739   4.531   3.835   6.710
10594TIP3    H231740   4.594   3.852   6.574
10595TIP3   OH231741   5.034   3.845   6.457
10595TIP3    H131742   4.964   3.856   6.392
10595TIP3    H231743   5.044   3.931   6.496
10596TIP3   OH231744   5.299   3.786   6.511
10596TIP3    H131745   5.207   3.801   6.489
10596TIP3    H231746   5.348   3.850   6.460
10597TIP3   OH231747   5.503   3.963   6.411
10597TIP3    H131748   5.497   4.049   6.370
10597TIP3    H231749   5.533   3.905   6.342
10598TIP3   OH231750   4.294   3.622   6.539
10598TIP3    H131751   4.320   3.594   6.627
10598TIP3    H231752   4.365   3.590   6.483
10599TIP3   OH231753   4.496   3.507   6.398
10599TIP3    H131754   4.507   3.424   6.442
10599TIP3    H231755   4.583   3.547   6.398
10600TIP3   OH231756   4.765   3.593   6.415
10600TIP3    H131757   4.784   3.500   6.400
10600TIP3    H231758   4.817   3.616   6.492
10601TIP3   OH231759   5.263   2.204   6.445
10601TIP3    H131760   5.259   2.148   6.523
10601TIP3    H231761   5.356   2.223   6.434
10602TIP3   OH231762   5.831   2.123   6.376
10602TIP3    H131763   5.872   2.175   6.307
10602TIP3    H231764   5.744   2.160   6.385
10603TIP3   OH231765   5.950   2.233   6.158
10603TIP3    H131766   6.020   2.178   6.124
10603TIP3    H231767   5.981   2.323   6.143
10604TIP3   OH231768   4.570   1.943   6.500
10604TIP3    H131769   4.480   1.911   6.507
10604TIP3    H231770   4.623   1.864   6.494
10605TIP3   OH231771   4.386   1.845   6.156
10605TIP3    H131772   4.412   1.896   6.080
10605TIP3    H231773   4.350   1.909   6.217
10606TIP3   OH231774   5.038   1.987   6.391
10606TIP3    H131775   5.085   2.029   6.319
10606TIP3    H231776   5.083   2.016   6.470
10607TIP3   OH231777   5.598   2.075   5.937
10607TIP3    H131778   5.518   2.123   5.958
10607TIP3    H231779   5.588   1.991   5.980
10608TIP3   OH231780   4.067   3.417   5.917
10608TIP3    H131781   3.983   3.382   5.887
10608TIP3    H231782   4.068   3.507   5.886
10609TIP3   OH231783   4.497   1.979   5.919
10609TIP3    H131784   4.541   1.918   5.860
10609TIP3    H231785   4.567   2.034   5.954
10610TIP3   OH231786   4.992   2.174   6.025
10610TIP3    H131787   5.057   2.127   6.078
10610TIP3    H231788   5.004   2.266   6.050
10611TIP3   OH231789   4.862   3.573   5.511
10611TIP3    H131790   4.946   3.599   5.475
10611TIP3    H231791   4.833   3.500   5.455
10612TIP3   OH231792   5.572   3.711   5.610
10612TIP3    H131793   5.565   3.616   5.602
10612TIP3    H231794   5.527   3.745   5.532
10613TIP3   OH231795   7.626   6.239   0.429
10613TIP3    H131796   7.599   6.168   0.487
10613TIP3    H231797   7.719   6.250   0.447
10614TIP3   OH231798   7.884   6.268   0.522
10614TIP3    H131799   7.959   6.245   0.466
10614TIP3    H231800   7.894   6.213   0.600
10615TIP3   OH231801   4.167   3.414   5.568
10615TIP3    H131802   4.168   3.421   5.664
10615TIP3    H231803   4.248   3.368   5.546
10616TIP3   OH231804   0.198   6.317   0.356
10616TIP3    H131805   0.215   6.288   0.446
10616TIP3    H231806   0.283   6.312   0.312
10617TIP3   OH231807   5.781   3.850   6.802
10617TIP3    H131808   5.708   3.821   6.748
10617TIP3    H231809   5.770   3.945   6.808
10618TIP3   OH231810   7.062   3.237   5.544
10618TIP3    H131811   7.034   3.324   5.518
10618TIP3    H231812   6.990   3.179   5.517
10619TIP3   OH231813   7.064   3.226   5.956
10619TIP3    H131814   7.110   3.210   6.039
10619TIP3    H231815   7.018   3.144   5.938
10620TIP3   OH231816   6.360   3.109   6.310
10620TIP3    H131817   6.395   3.049   6.376
10620TIP3    H231818   6.437   3.134   6.258
10621TIP3   OH231819   7.324   3.538   5.637
10621TIP3    H131820   7.312   3.471   5.705
10621TIP3    H231821   7.347   3.617   5.685
10622TIP3   OH231822   6.316   3.524   6.035
10622TIP3    H131823   6.316   3.430   6.016
10622TIP3    H231824   6.391   3.537   6.094
10623TIP3   OH231825   6.036   2.731   5.786
10623TIP3    H131826   5.992   2.812   5.811
10623TIP3    H231827   5.967   2.677   5.748
10624TIP3   OH231828   6.102   3.024   6.002
10624TIP3    H131829   6.152   2.947   6.028
10624TIP3    H231830   6.166   3.081   5.959
10625TIP3   OH231831   6.974   3.981   5.648
10625TIP3    H131832   7.005   3.912   5.589
10625TIP3    H231833   6.964   3.938   5.733
10626TIP3   OH231834   6.860   3.448   5.974
10626TIP3    H131835   6.905   3.371   5.938
10626TIP3    H231836   6.931   3.504   6.004
10627TIP3   OH231837   7.881   2.773   5.984
10627TIP3    H131838   7.898   2.862   6.015
10627TIP3    H231839   7.915   2.771   5.895
10628TIP3   OH231840   7.277   2.939   6.007
10628TIP3    H131841   7.314   2.854   6.030
10628TIP3    H231842   7.238   2.926   5.920
10629TIP3   OH231843   6.629   2.602   5.965
10629TIP3    H131844   6.607   2.675   5.908
10629TIP3    H231845   6.575   2.529   5.933
10630TIP3   OH231846   7.322   2.702   5.599
10630TIP3    H131847   7.388   2.694   5.668
10630TIP3    H231848   7.370   2.736   5.524
10631TIP3   OH231849   6.251   2.811   6.095
10631TIP3    H131850   6.334   2.792   6.138
10631TIP3    H231851   6.254   2.759   6.014
10632TIP3   OH231852   6.676   3.012   5.905
10632TIP3    H131853   6.770   2.995   5.911
10632TIP3    H231854   6.640   2.931   5.869
10633TIP3   OH231855   7.946   2.993   6.156
10633TIP3    H131856   7.860   3.033   6.145
10633TIP3    H231857   7.980   3.031   6.237
10634TIP3   OH231858   6.606   2.604   6.419
10634TIP3    H131859   6.557   2.637   6.344
10634TIP3    H231860   6.549   2.621   6.494
10635TIP3   OH231861   6.965   3.455   5.400
10635TIP3    H131862   6.923   3.426   5.319
10635TIP3    H231863   6.911   3.528   5.431
10636TIP3   OH231864   6.702   3.378   6.193
10636TIP3    H131865   6.641   3.447   6.220
10636TIP3    H231866   6.754   3.419   6.123
10637TIP3   OH231867   7.490   2.718   5.814
10637TIP3    H131868   7.452   2.695   5.899
10637TIP3    H231869   7.547   2.792   5.833
10638TIP3   OH231870   6.499   2.709   6.187
10638TIP3    H131871   6.553   2.785   6.209
10638TIP3    H231872   6.545   2.667   6.113
10639TIP3   OH231873   6.502   3.566   6.251
10639TIP3    H131874   6.520   3.660   6.249
10639TIP3    H231875   6.443   3.554   6.326
10640TIP3   OH231876   5.926   3.277   5.542
10640TIP3    H131877   5.888   3.294   5.456
10640TIP3    H231878   5.950   3.363   5.575
10641TIP3   OH231879   7.373   3.785   5.780
10641TIP3    H131880   7.287   3.774   5.820
10641TIP3    H231881   7.369   3.869   5.736
10642TIP3   OH231882   7.683   2.664   6.150
10642TIP3    H131883   7.597   2.687   6.115
10642TIP3    H231884   7.744   2.694   6.083
10643TIP3   OH231885   6.951   2.297   6.142
10643TIP3    H131886   6.941   2.205   6.165
10643TIP3    H231887   6.876   2.340   6.183
10644TIP3   OH231888   7.070   3.821   5.439
10644TIP3    H131889   7.122   3.741   5.429
10644TIP3    H231890   7.128   3.890   5.407
10645TIP3   OH231891   7.211   3.592   5.389
10645TIP3    H131892   7.140   3.528   5.383
10645TIP3    H231893   7.260   3.567   5.467
10646TIP3   OH231894   7.605   3.669   6.129
10646TIP3    H131895   7.582   3.598   6.069
10646TIP3    H231896   7.588   3.749   6.078
10647TIP3   OH231897   6.888   3.078   5.393
10647TIP3    H131898   6.806   3.123   5.374
10647TIP3    H231899   6.935   3.075   5.309
10648TIP3   OH231900   6.856   2.879   5.091
10648TIP3    H131901   6.922   2.928   5.139
10648TIP3    H231902   6.906   2.814   5.041
10649TIP3   OH231903   7.781   3.334   5.992
10649TIP3    H131904   7.696   3.379   5.989
10649TIP3    H231905   7.818   3.345   5.904
10650TIP3   OH231906   7.245   3.167   5.354
10650TIP3    H131907   7.191   3.195   5.427
10650TIP3    H231908   7.328   3.140   5.393
10651TIP3   OH231909   7.471   3.196   6.283
10651TIP3    H131910   7.468   3.279   6.330
10651TIP3    H231911   7.388   3.192   6.236
10652TIP3   OH231912   6.472   3.147   5.765
10652TIP3    H131913   6.435   3.088   5.699
10652TIP3    H231914   6.546   3.099   5.802
10653TIP3   OH231915   6.623   3.589   5.891
10653TIP3    H131916   6.592   3.550   5.809
10653TIP3    H231917   6.701   3.539   5.913
10654TIP3   OH231918   6.579   3.141   6.133
10654TIP3    H131919   6.617   3.108   6.052
10654TIP3    H231920   6.627   3.222   6.150
10655TIP3   OH231921   7.137   3.774   5.909
10655TIP3    H131922   7.120   3.853   5.961
10655TIP3    H231923   7.115   3.702   5.967
10656TIP3   OH231924   7.077   3.026   5.188
10656TIP3    H131925   7.136   3.083   5.236
10656TIP3    H231926   7.103   3.036   5.096
10657TIP3   OH231927   6.497   3.217   6.604
10657TIP3    H131928   6.504   3.312   6.616
10657TIP3    H231929   6.404   3.200   6.596
10658TIP3   OH231930   6.826   3.691   5.448
10658TIP3    H131931   6.906   3.744   5.454
10658TIP3    H231932   6.764   3.747   5.401
10659TIP3   OH231933   6.508   3.889   6.545
10659TIP3    H131934   6.506   3.859   6.454
10659TIP3    H231935   6.435   3.843   6.587
10660TIP3   OH231936   7.589   2.255   5.244
10660TIP3    H131937   7.511   2.275   5.296
10660TIP3    H231938   7.601   2.331   5.188
10661TIP3   OH231939   6.346   2.991   5.562
10661TIP3    H131940   6.271   3.039   5.527
10661TIP3    H231941   6.312   2.904   5.581
10662TIP3   OH231942   7.390   3.633   4.795
10662TIP3    H131943   7.394   3.726   4.775
10662TIP3    H231944   7.478   3.600   4.777
10663TIP3   OH231945   6.124   3.387   6.492
10663TIP3    H131946   6.056   3.373   6.426
10663TIP3    H231947   6.160   3.300   6.509
10664TIP3   OH231948   5.997   3.570   6.125
10664TIP3    H131949   6.091   3.563   6.105
10664TIP3    H231950   5.990   3.647   6.180
10665TIP3   OH231951   7.833   4.048   6.187
10665TIP3    H131952   7.840   3.953   6.194
10665TIP3    H231953   7.753   4.069   6.234
10666TIP3   OH231954   6.713   3.929   5.267
10666TIP3    H131955   6.663   3.907   5.188
10666TIP3    H231956   6.675   4.011   5.297
10667TIP3   OH231957   6.148   3.778   5.652
10667TIP3    H131958   6.194   3.768   5.736
10667TIP3    H231959   6.099   3.697   5.642
10668TIP3   OH231960   6.915   3.851   4.898
10668TIP3    H131961   6.965   3.777   4.862
10668TIP3    H231962   6.948   3.861   4.987
10669TIP3   OH231963   6.967   3.893   5.168
10669TIP3    H131964   6.880   3.899   5.208
10669TIP3    H231965   7.021   3.854   5.236
10670TIP3   OH231966   7.689   3.164   6.471
10670TIP3    H131967   7.623   3.170   6.403
10670TIP3    H231968   7.719   3.073   6.468
10671TIP3   OH231969   6.323   3.576   6.461
10671TIP3    H131970   6.376   3.563   6.539
10671TIP3    H231971   6.252   3.512   6.470
10672TIP3   OH231972   6.717   2.390   6.273
10672TIP3    H131973   6.635   2.355   6.239
10672TIP3    H231974   6.693   2.470   6.319
10673TIP3   OH231975   7.250   2.507   6.464
10673TIP3    H131976   7.321   2.479   6.523
10673TIP3    H231977   7.170   2.488   6.512
10674TIP3   OH231978   7.484   2.933   6.380
10674TIP3    H131979   7.435   2.930   6.463
10674TIP3    H231980   7.461   3.018   6.342
10675TIP3   OH231981   7.158   3.033   4.929
10675TIP3    H131982   7.113   3.025   4.844
10675TIP3    H231983   7.240   3.077   4.907
10676TIP3   OH231984   6.867   2.427   5.237
10676TIP3    H131985   6.830   2.434   5.325
10676TIP3    H231986   6.828   2.347   5.202
10677TIP3   OH231987   6.654   2.919   6.281
10677TIP3    H131988   6.605   2.927   6.363
10677TIP3    H231989   6.633   2.999   6.232
10678TIP3   OH231990   6.534   2.797   5.799
10678TIP3    H131991   6.445   2.774   5.824
10678TIP3    H231992   6.545   2.763   5.710
10679TIP3   OH231993   7.017   2.875   5.528
10679TIP3    H131994   6.969   2.947   5.487
10679TIP3    H231995   7.075   2.842   5.458
10680TIP3   OH231996   7.206   3.147   6.604
10680TIP3    H131997   7.178   3.078   6.664
10680TIP3    H231998   7.299   3.158   6.620
10681TIP3   OH231999   7.181   2.889   5.755
10681TIP3    H132000   7.114   2.915   5.692
10681TIP3    H232001   7.226   2.815   5.714
10682TIP3   OH232002   6.485   2.937   6.497
10682TIP3    H132003   6.489   3.004   6.565
10682TIP3    H232004   6.463   2.856   6.544
10683TIP3   OH232005   6.530   2.412   5.212
10683TIP3    H132006   6.520   2.414   5.307
10683TIP3    H232007   6.453   2.456   5.178
10684TIP3   OH232008   6.080   2.454   6.073
10684TIP3    H132009   6.156   2.486   6.123
10684TIP3    H232010   6.117   2.426   5.989
10685TIP3   OH232011   6.001   2.430   5.587
10685TIP3    H132012   6.045   2.465   5.510
10685TIP3    H232013   5.937   2.498   5.612
10686TIP3   OH232014   7.218   3.140   6.179
10686TIP3    H132015   7.242   3.072   6.115
10686TIP3    H232016   7.171   3.092   6.248
10687TIP3   OH232017   6.895   2.592   5.854
10687TIP3    H132018   6.816   2.593   5.907
10687TIP3    H232019   6.966   2.586   5.917
10688TIP3   OH232020   6.296   2.674   5.861
10688TIP3    H132021   6.207   2.681   5.826
10688TIP3    H232022   6.322   2.584   5.843
10689TIP3   OH232023   6.552   2.673   5.555
10689TIP3    H132024   6.646   2.685   5.541
10689TIP3    H232025   6.512   2.692   5.470
10690TIP3   OH232026   7.355   2.678   6.063
10690TIP3    H132027   7.331   2.697   6.154
10690TIP3    H232028   7.288   2.618   6.032
10691TIP3   OH232029   6.428   2.699   5.312
10691TIP3    H132030   6.363   2.651   5.262
10691TIP3    H232031   6.481   2.743   5.247
10692TIP3   OH232032   7.544   4.379   6.284
10692TIP3    H132033   7.539   4.395   6.189
10692TIP3    H232034   7.622   4.427   6.312
10693TIP3   OH232035   6.480   3.484   6.691
10693TIP3    H132036   6.562   3.516   6.730
10693TIP3    H232037   6.414   3.498   6.760
10694TIP3   OH232038   6.948   2.953   5.959
10694TIP3    H132039   7.014   2.904   5.909
10694TIP3    H232040   6.946   2.911   6.044
10695TIP3   OH232041   6.446   2.426   5.844
10695TIP3    H132042   6.417   2.351   5.895
10695TIP3    H232043   6.469   2.390   5.758
10696TIP3   OH232044   6.919   2.856   6.228
10696TIP3    H132045   6.831   2.889   6.247
10696TIP3    H232046   6.977   2.911   6.279
10697TIP3   OH232047   6.653   3.217   5.337
10697TIP3    H132048   6.579   3.160   5.316
10697TIP3    H232049   6.630   3.256   5.422
10698TIP3   OH232050   7.545   3.469   5.950
10698TIP3    H132051   7.577   3.519   5.875
10698TIP3    H232052   7.465   3.428   5.919
10699TIP3   OH232053   7.119   2.530   5.239
10699TIP3    H132054   7.026   2.509   5.234
10699TIP3    H232055   7.122   2.625   5.249
10700TIP3   OH232056   7.179   2.795   5.310
10700TIP3    H132057   7.274   2.799   5.319
10700TIP3    H232058   7.155   2.871   5.258
10701TIP3   OH232059   6.347   3.243   5.993
10701TIP3    H132060   6.383   3.222   5.907
10701TIP3    H232061   6.411   3.208   6.055
10702TIP3   OH232062   6.805   3.379   5.179
10702TIP3    H132063   6.758   3.462   5.178
10702TIP3    H232064   6.750   3.321   5.231
10703TIP3   OH232065   6.227   3.152   6.625
10703TIP3    H132066   6.224   3.126   6.717
10703TIP3    H232067   6.151   3.109   6.585
10704TIP3   OH232068   6.965   3.286   6.661
10704TIP3    H132069   6.893   3.237   6.623
10704TIP3    H232070   7.043   3.250   6.618
10705TIP3   OH232071   7.216   3.834   6.242
10705TIP3    H132072   7.141   3.778   6.262
10705TIP3    H232073   7.235   3.879   6.325
10706TIP3   OH232074   7.596   2.883   5.132
10706TIP3    H132075   7.542   2.835   5.070
10706TIP3    H232076   7.600   2.972   5.098
10707TIP3   OH232077   7.852   3.771   6.209
10707TIP3    H132078   7.759   3.747   6.218
10707TIP3    H232079   7.878   3.733   6.126
10708TIP3   OH232080   7.335   3.699   5.066
10708TIP3    H132081   7.304   3.631   5.126
10708TIP3    H232082   7.343   3.655   4.981
10709TIP3   OH232083   7.320   3.333   5.847
10709TIP3    H132084   7.229   3.315   5.872
10709TIP3    H232085   7.351   3.252   5.808
10710TIP3   OH232086   6.456   3.565   5.642
10710TIP3    H132087   6.455   3.644   5.589
10710TIP3    H232088   6.367   3.555   5.675
10711TIP3   OH232089   6.030   2.856   5.365
10711TIP3    H132090   6.072   2.940   5.385
10711TIP3    H232091   5.949   2.858   5.417
10712TIP3   OH232092   6.566   3.323   5.570
10712TIP3    H132093   6.540   3.412   5.592
10712TIP3    H232094   6.537   3.270   5.643
10713TIP3   OH232095   6.747   3.887   6.120
10713TIP3    H132096   6.792   3.958   6.074
10713TIP3    H232097   6.816   3.842   6.168
10714TIP3   OH232098   6.377   3.799   5.498
10714TIP3    H132099   6.291   3.802   5.542
10714TIP3    H232100   6.410   3.889   5.504
10715TIP3   OH232101   7.095   3.557   6.076
10715TIP3    H132102   7.062   3.578   6.164
10715TIP3    H232103   7.170   3.500   6.092
10716TIP3   OH232104   7.089   3.435   4.952
10716TIP3    H132105   7.141   3.408   5.028
10716TIP3    H232106   7.004   3.392   4.965
10717TIP3   OH232107   7.357   4.055   6.126
10717TIP3    H132108   7.289   3.989   6.141
10717TIP3    H232109   7.324   4.107   6.054
10718TIP3   OH232110   7.415   3.905   4.759
10718TIP3    H132111   7.450   3.974   4.702
10718TIP3    H232112   7.340   3.946   4.802
10719TIP3   OH232113   6.427   2.682   6.621
10719TIP3    H132114   6.333   2.698   6.622
10719TIP3    H232115   6.442   2.615   6.688
10720TIP3   OH232116   7.263   3.354   5.147
10720TIP3    H132117   7.248   3.299   5.223
10720TIP3    H232118   7.359   3.359   5.140
10721TIP3   OH232119   6.171   3.778   6.273
10721TIP3    H132120   6.223   3.712   6.319
10721TIP3    H232121   6.197   3.861   6.314
10722TIP3   OH232122   6.446   3.402   4.961
10722TIP3    H132123   6.456   3.311   4.934
10722TIP3    H232124   6.429   3.398   5.055
10723TIP3   OH232125   6.389   3.419   5.232
10723TIP3    H132126   6.455   3.390   5.294
10723TIP3    H232127   6.389   3.515   5.239
10724TIP3   OH232128   6.125   3.109   5.443
10724TIP3    H132129   6.058   3.153   5.495
10724TIP3    H232130   6.142   3.168   5.370
10725TIP3   OH232131   7.285   2.742   6.323
10725TIP3    H132132   7.366   2.781   6.357
10725TIP3    H232133   7.273   2.663   6.376
10726TIP3   OH232134   7.174   2.483   5.508
10726TIP3    H132135   7.154   2.500   5.416
10726TIP3    H232136   7.217   2.563   5.538
10727TIP3   OH232137   6.662   3.609   5.176
10727TIP3    H132138   6.576   3.631   5.211
10727TIP3    H232139   6.682   3.681   5.116
10728TIP3   OH232140   6.834   2.680   5.596
10728TIP3    H132141   6.895   2.749   5.571
10728TIP3    H232142   6.853   2.663   5.688
10729TIP3   OH232143   7.124   2.975   6.379
10729TIP3    H132144   7.154   3.019   6.459
10729TIP3    H232145   7.175   2.894   6.376
10730TIP3   OH232146   6.989   2.383   5.688
10730TIP3    H132147   6.965   2.460   5.739
10730TIP3    H232148   7.057   2.413   5.628
10731TIP3   OH232149   6.409   3.693   5.247
10731TIP3    H132150   6.386   3.763   5.187
10731TIP3    H232151   6.395   3.730   5.334
10732TIP3   OH232152   6.504   2.401   5.491
10732TIP3    H132153   6.492   2.491   5.520
10732TIP3    H232154   6.598   2.385   5.496
10733TIP3   OH232155   7.750   2.893   6.378
10733TIP3    H132156   7.655   2.893   6.385
10733TIP3    H232157   7.767   2.856   6.291
10734TIP3   OH232158   7.406   3.076   5.754
10734TIP3    H132159   7.329   3.020   5.766
10734TIP3    H232160   7.474   3.034   5.808
10735TIP3   OH232161   6.140   3.291   5.229
10735TIP3    H132162   6.210   3.355   5.238
10735TIP3    H232163   6.173   3.227   5.166
10736TIP3   OH232164   6.058   2.579   5.363
10736TIP3    H132165   6.068   2.674   5.370
10736TIP3    H232166   5.985   2.567   5.302
10737TIP3   OH232167   7.386   4.054   5.700
10737TIP3    H132168   7.343   4.103   5.630
10737TIP3    H232169   7.480   4.065   5.684
10738TIP3   OH232170   6.459   2.300   6.230
10738TIP3    H132171   6.429   2.269   6.144
10738TIP3    H232172   6.445   2.225   6.288
10739TIP3   OH232173   5.979   3.551   5.620
10739TIP3    H132174   5.927   3.582   5.694
10739TIP3    H232175   5.938   3.592   5.543
10740TIP3   OH232176   6.171   4.088   6.691
10740TIP3    H132177   6.255   4.092   6.737
10740TIP3    H232178   6.156   3.994   6.677
10741TIP3   OH232179   6.644   4.015   6.742
10741TIP3    H132180   6.735   3.987   6.737
10741TIP3    H232181   6.601   3.974   6.667
10742TIP3   OH232182   6.606   3.600   4.853
10742TIP3    H132183   6.557   3.531   4.897
10742TIP3    H232184   6.680   3.556   4.813
10743TIP3   OH232185   7.269   3.948   6.486
10743TIP3    H132186   7.275   3.877   6.550
10743TIP3    H232187   7.344   4.005   6.507
10744TIP3   OH232188   7.046   3.642   4.778
10744TIP3    H132189   7.075   3.577   4.841
10744TIP3    H232190   7.108   3.635   4.706
10745TIP3   OH232191   6.277   3.485   6.887
10745TIP3    H132192   6.294   3.391   6.895
10745TIP3    H232193   6.192   3.490   6.843
10746TIP3   OH232194   6.270   3.100   5.084
10746TIP3    H132195   6.322   3.076   5.160
10746TIP3    H232196   6.334   3.112   5.014
10747TIP3   OH232197   6.901   3.571   6.641
10747TIP3    H132198   6.924   3.602   6.554
10747TIP3    H232199   6.926   3.479   6.641
10748TIP3   OH232200   6.825   3.321   4.910
10748TIP3    H132201   6.806   3.333   5.003
10748TIP3    H232202   6.813   3.228   4.895
10749TIP3   OH232203   7.380   3.597   6.284
10749TIP3    H132204   7.449   3.637   6.231
10749TIP3    H232205   7.307   3.658   6.277
10750TIP3   OH232206   6.395   3.229   6.892
10750TIP3    H132207   6.464   3.220   6.826
10750TIP3    H232208   6.441   3.254   6.972
10751TIP3   OH232209   6.447   3.036   5.293
10751TIP3    H132210   6.424   3.004   5.381
10751TIP3    H232211   6.492   2.963   5.252
10752TIP3   OH232212   6.758   3.116   6.552
10752TIP3    H132213   6.671   3.155   6.560
10752TIP3    H232214   6.791   3.147   6.467
10753TIP3   OH232215   6.581   2.847   5.138
10753TIP3    H132216   6.551   2.850   5.047
10753TIP3    H232217   6.676   2.853   5.133
10754TIP3   OH232218   7.300   3.497   6.672
10754TIP3    H132219   7.253   3.479   6.591
10754TIP3    H232220   7.273   3.427   6.732
10755TIP3   OH232221   7.383   3.147   4.811
10755TIP3    H132222   7.367   3.104   4.726
10755TIP3    H232223   7.355   3.238   4.797
10756TIP3   OH232224   6.869   2.884   6.647
10756TIP3    H132225   6.867   2.812   6.583
10756TIP3    H232226   6.831   2.959   6.600
10757TIP3   OH232227   6.867   2.681   6.451
10757TIP3    H132228   6.894   2.720   6.368
10757TIP3    H232229   6.776   2.658   6.439
10758TIP3   OH232230   6.879   3.221   6.332
10758TIP3    H132231   6.965   3.259   6.316
10758TIP3    H232232   6.818   3.281   6.288
10759TIP3   OH232233   7.484   3.158   6.696
10759TIP3    H132234   7.521   3.074   6.724
10759TIP3    H232235   7.541   3.186   6.625
10760TIP3   OH232236   7.511   3.423   6.440
10760TIP3    H132237   7.447   3.481   6.401
10760TIP3    H232238   7.595   3.449   6.400
10761TIP3   OH232239   6.745   2.964   6.890
10761TIP3    H132240   6.670   2.905   6.903
10761TIP3    H232241   6.767   2.954   6.797
10762TIP3   OH232242   6.987   2.450   6.551
10762TIP3    H132243   6.947   2.529   6.515
10762TIP3    H232244   6.922   2.381   6.536
10763TIP3   OH232245   7.119   2.931   6.751
10763TIP3    H132246   7.094   2.924   6.843
10763TIP3    H232247   7.038   2.911   6.703
10764TIP3   OH232248   7.356   2.883   6.611
10764TIP3    H132249   7.280   2.882   6.670
10764TIP3    H232250   7.430   2.861   6.668
10765TIP3   OH232251   7.596   2.857   6.753
10765TIP3    H132252   7.613   2.762   6.755
10765TIP3    H232253   7.589   2.881   6.845
10766TIP3   OH232254   0.905   6.756   0.001
10766TIP3    H132255   0.907   6.669  -0.038
10766TIP3    H232256   0.933   6.742   0.092
10767TIP3   OH232257   7.061   2.437   6.814
10767TIP3    H132258   7.130   2.371   6.804
10767TIP3    H232259   7.025   2.448   6.726
10768TIP3   OH232260   7.142   2.656   6.961
10768TIP3    H132261   7.118   2.584   6.902
10768TIP3    H232262   7.069   2.717   6.955
10769TIP3   OH232263   6.402   3.904   5.064
10769TIP3    H132264   6.491   3.880   5.037
10769TIP3    H232265   6.364   3.947   4.988
10770TIP3   OH232266   5.867   3.276   5.254
10770TIP3    H132267   5.961   3.291   5.247
10770TIP3    H232268   5.852   3.190   5.214
10771TIP3   OH232269   5.775   3.869   5.704
10771TIP3    H132270   5.711   3.814   5.659
10771TIP3    H232271   5.819   3.810   5.764
10772TIP3   OH232272   5.915   3.705   5.877
10772TIP3    H132273   5.904   3.636   5.943
10772TIP3    H232274   5.967   3.772   5.922
10773TIP3   OH232275   7.655   4.108   5.684
10773TIP3    H132276   7.676   4.135   5.773
10773TIP3    H232277   7.715   4.157   5.629
10774TIP3   OH232278   7.677   4.134   5.964
10774TIP3    H132279   7.627   4.053   5.960
10774TIP3    H232280   7.746   4.117   6.029
10775TIP3   OH232281   7.746   3.823   6.552
10775TIP3    H132282   7.666   3.833   6.602
10775TIP3    H232283   7.782   3.912   6.545
10776TIP3   OH232284   7.541   3.347   5.145
10776TIP3    H132285   7.599   3.419   5.119
10776TIP3    H232286   7.584   3.309   5.222
10777TIP3   OH232287   7.665   3.207   5.347
10777TIP3    H132288   7.599   3.167   5.404
10777TIP3    H232289   7.729   3.243   5.408
10778TIP3   OH232290   7.716   3.609   5.780
10778TIP3    H132291   7.765   3.537   5.739
10778TIP3    H232292   7.716   3.678   5.713
10779TIP3   OH232293   7.535   3.894   5.980
10779TIP3    H132294   7.465   3.937   6.030
10779TIP3    H232295   7.490   3.852   5.907
10780TIP3   OH232296   7.585   3.122   4.994
10780TIP3    H132297   7.516   3.122   4.928
10780TIP3    H232298   7.568   3.199   5.048
10781TIP3   OH232299   7.448   2.775   4.931
10781TIP3    H132300   7.405   2.815   4.856
10781TIP3    H232301   7.434   2.681   4.920
10782TIP3   OH232302   7.470   3.065   5.485
10782TIP3    H132303   7.475   2.971   5.472
10782TIP3    H232304   7.452   3.075   5.579
10783TIP3   OH232305   6.095   3.131   6.253
10783TIP3    H132306   6.084   3.097   6.164
10783TIP3    H232307   6.189   3.133   6.267
10784TIP3   OH232308   7.751   3.490   6.330
10784TIP3    H132309   7.817   3.422   6.313
10784TIP3    H232310   7.736   3.530   6.244
10785TIP3   OH232311   7.919   3.281   6.372
10785TIP3    H132312   7.846   3.232   6.408
10785TIP3    H232313   7.994   3.223   6.382
10786TIP3   OH232314   7.403   2.505   4.907
10786TIP3    H132315   7.467   2.478   4.973
10786TIP3    H232316   7.321   2.464   4.936
10787TIP3   OH232317   7.468   2.789   5.372
10787TIP3    H132318   7.513   2.706   5.385
10787TIP3    H232319   7.512   2.828   5.295
10788TIP3   OH232320   7.622   2.953   5.891
10788TIP3    H132321   7.702   2.973   5.844
10788TIP3    H232322   7.634   2.992   5.978
10789TIP3   OH232323   7.693   3.106   6.121
10789TIP3    H132324   7.614   3.136   6.166
10789TIP3    H232325   7.724   3.184   6.073
10790TIP3   OH232326   6.307   2.817   6.917
10790TIP3    H132327   6.402   2.809   6.918
10790TIP3    H232328   6.275   2.734   6.953
10791TIP3   OH232329   8.142   2.708   6.667
10791TIP3    H132330   8.204   2.644   6.632
10791TIP3    H232331   8.111   2.755   6.590
10792TIP3   OH232332   7.582   2.538   5.422
10792TIP3    H132333   7.626   2.523   5.506
10792TIP3    H232334   7.518   2.467   5.415
10793TIP3   OH232335   6.292   2.521   6.240
10793TIP3    H132336   6.346   2.443   6.248
10793TIP3    H232337   6.354   2.593   6.227
10794TIP3   OH232338   6.077   2.788   6.320
10794TIP3    H132339   6.123   2.773   6.237
10794TIP3    H232340   6.096   2.879   6.342
10795TIP3   OH232341   7.997   2.812   6.459
10795TIP3    H132342   7.911   2.853   6.456
10795TIP3    H232343   7.988   2.732   6.408
10796TIP3   OH232344   7.635   2.455   5.061
10796TIP3    H132345   7.680   2.396   5.002
10796TIP3    H232346   7.691   2.533   5.065
10797TIP3   OH232347   6.057   2.294   5.817
10797TIP3    H132348   5.971   2.284   5.857
10797TIP3    H232349   6.042   2.349   5.741
10798TIP3   OH232350   7.217   4.015   5.325
10798TIP3    H132351   7.273   4.001   5.248
10798TIP3    H232352   7.264   4.080   5.377
10799TIP3   OH232353   6.281   2.364   6.636
10799TIP3    H132354   6.228   2.355   6.714
10799TIP3    H232355   6.225   2.409   6.573
10800TIP3   OH232356   6.304   3.798   6.715
10800TIP3    H132357   6.210   3.782   6.703
10800TIP3    H232358   6.318   3.790   6.809
10801TIP3   OH232359   6.515   3.845   6.262
10801TIP3    H132360   6.469   3.922   6.230
10801TIP3    H232361   6.603   3.853   6.226
10802TIP3   OH232362   6.916   4.138   6.405
10802TIP3    H132363   6.955   4.098   6.483
10802TIP3    H232364   6.990   4.164   6.351
10803TIP3   OH232365   7.124   4.241   6.256
10803TIP3    H132366   7.185   4.177   6.219
10803TIP3    H232367   7.179   4.295   6.313
10804TIP3   OH232368   7.911   2.576   6.348
10804TIP3    H132369   7.823   2.573   6.309
10804TIP3    H232370   7.945   2.487   6.337
10805TIP3   OH232371   6.181   4.101   6.298
10805TIP3    H132372   6.090   4.122   6.277
10805TIP3    H232373   6.204   4.163   6.367
10806TIP3   OH232374   6.413   4.079   6.151
10806TIP3    H132375   6.330   4.087   6.198
10806TIP3    H232376   6.391   4.103   6.061
10807TIP3   OH232377   6.833   4.098   5.946
10807TIP3    H132378   6.758   4.107   5.887
10807TIP3    H232379   6.840   4.182   5.990
10808TIP3   OH232380   7.100   4.042   5.987
10808TIP3    H132381   7.007   4.057   5.973
10808TIP3    H232382   7.143   4.115   5.941
10809TIP3   OH232383   7.309   4.227   5.901
10809TIP3    H132384   7.298   4.311   5.856
10809TIP3    H232385   7.334   4.166   5.833
10810TIP3   OH232386   6.094   3.876   6.024
10810TIP3    H132387   6.118   3.850   6.113
10810TIP3    H232388   6.165   3.842   5.969
10811TIP3   OH232389   6.297   3.756   5.884
10811TIP3    H132390   6.306   3.673   5.932
10811TIP3    H232391   6.384   3.795   5.888
10812TIP3   OH232392   6.564   3.855   5.906
10812TIP3    H132393   6.585   3.764   5.888
10812TIP3    H232394   6.612   3.876   5.986
10813TIP3   OH232395   7.128   2.504   5.993
10813TIP3    H132396   7.087   2.430   6.038
10813TIP3    H232397   7.195   2.463   5.938
10814TIP3   OH232398   7.627   2.407   5.882
10814TIP3    H132399   7.665   2.456   5.809
10814TIP3    H232400   7.534   2.429   5.879
10815TIP3   OH232401   7.741   2.485   5.644
10815TIP3    H132402   7.811   2.427   5.615
10815TIP3    H232403   7.774   2.573   5.628
10816TIP3   OH232404   6.371   2.201   5.987
10816TIP3    H132405   6.281   2.171   5.995
10816TIP3    H232406   6.423   2.121   5.979
10817TIP3   OH232407   6.181   2.101   5.645
10817TIP3    H132408   6.205   2.153   5.568
10817TIP3    H232409   6.143   2.164   5.706
10818TIP3   OH232410   6.838   2.239   5.881
10818TIP3    H132411   6.884   2.286   5.812
10818TIP3    H232412   6.876   2.270   5.962
10819TIP3   OH232413   7.341   2.388   5.858
10819TIP3    H132414   7.349   2.354   5.768
10819TIP3    H232415   7.343   2.310   5.913
10820TIP3   OH232416   7.395   2.329   5.426
10820TIP3    H132417   7.314   2.376   5.448
10820TIP3    H232418   7.383   2.242   5.464
10821TIP3   OH232419   5.864   3.673   5.402
10821TIP3    H132420   5.779   3.638   5.373
10821TIP3    H232421   5.864   3.764   5.372
10822TIP3   OH232422   6.289   2.235   5.405
10822TIP3    H132423   6.334   2.174   5.347
10822TIP3    H232424   6.358   2.291   5.440
10823TIP3   OH232425   6.779   2.429   5.501
10823TIP3    H132426   6.838   2.377   5.556
10823TIP3    H232427   6.795   2.520   5.527
10824TIP3   OH232428   6.657   3.827   4.995
10824TIP3    H132429   6.742   3.854   4.959
10824TIP3    H232430   6.629   3.755   4.940
10825TIP3   OH232431   7.368   3.968   5.096
10825TIP3    H132432   7.362   3.873   5.090
10825TIP3    H232433   7.323   4.000   5.018
10826TIP3   OH232434   6.586   2.474   6.875
10826TIP3    H132435   6.550   2.407   6.932
10826TIP3    H232436   6.677   2.482   6.902
10827TIP3   OH232437   1.169   6.495   0.058
10827TIP3    H132438   1.246   6.471   0.006
10827TIP3    H232439   1.160   6.424   0.121
10828TIP3   OH232440   5.962   3.671   5.055
10828TIP3    H132441   5.961   3.677   5.150
10828TIP3    H232442   6.043   3.625   5.034
10829TIP3   OH232443   7.650   2.583   6.764
10829TIP3    H132444   7.662   2.559   6.856
10829TIP3    H232445   7.738   2.576   6.727
10830TIP3   OH232446   7.581   4.105   6.287
10830TIP3    H132447   7.506   4.074   6.237
10830TIP3    H232448   7.567   4.200   6.294
10831TIP3   OH232449   8.125   3.350   5.824
10831TIP3    H132450   8.164   3.305   5.900
10831TIP3    H232451   8.197   3.364   5.764
10832TIP3   OH232452   8.119   3.789   5.512
10832TIP3    H132453   8.101   3.695   5.514
10832TIP3    H232454   8.215   3.794   5.516
10833TIP3   OH232455   7.820   2.983   5.272
10833TIP3    H132456   7.781   3.066   5.297
10833TIP3    H232457   7.748   2.935   5.230
10834TIP3   OH232458   7.893   3.287   5.483
10834TIP3    H132459   7.940   3.207   5.506
10834TIP3    H232460   7.961   3.345   5.446
10835TIP3   OH232461   0.316   4.242   5.147
10835TIP3    H132462   0.394   4.197   5.180
10835TIP3    H232463   0.244   4.203   5.197
10836TIP3   OH232464   0.220   3.602   5.372
10836TIP3    H132465   0.238   3.635   5.284
10836TIP3    H232466   0.289   3.639   5.427
10837TIP3   OH232467   8.317   2.794   5.551
10837TIP3    H132468   8.344   2.871   5.501
10837TIP3    H232469   8.362   2.721   5.509
10838TIP3   OH232470   8.023   3.064   5.569
10838TIP3    H132471   8.100   3.048   5.624
10838TIP3    H232472   8.033   3.004   5.495
10839TIP3   OH232473   8.386   3.312   5.377
10839TIP3    H132474   8.479   3.299   5.358
10839TIP3    H232475   8.349   3.224   5.374
10840TIP3   OH232476   8.376   2.855   5.921
10840TIP3    H132477   8.326   2.897   5.851
10840TIP3    H232478   8.316   2.854   5.996
10841TIP3   OH232479   8.455   3.616   5.698
10841TIP3    H132480   8.398   3.684   5.734
10841TIP3    H232481   8.457   3.633   5.604
10842TIP3   OH232482   8.230   2.977   5.725
10842TIP3    H132483   8.296   3.047   5.730
10842TIP3    H232484   8.264   2.917   5.658
10843TIP3   OH232485   8.306   3.830   5.776
10843TIP3    H132486   8.294   3.920   5.747
10843TIP3    H232487   8.229   3.812   5.831
10844TIP3   OH232488   7.711   3.538   5.034
10844TIP3    H132489   7.670   3.556   4.949
10844TIP3    H232490   7.740   3.624   5.064
10845TIP3   OH232491   8.193   3.440   5.242
10845TIP3    H132492   8.157   3.382   5.174
10845TIP3    H232493   8.257   3.386   5.287
10846TIP3   OH232494   8.374   3.874   5.365
10846TIP3    H132495   8.338   3.837   5.284
10846TIP3    H232496   8.425   3.803   5.403
10847TIP3   OH232497   8.327   3.378   5.639
10847TIP3    H132498   8.364   3.344   5.558
10847TIP3    H232499   8.382   3.452   5.662
10848TIP3   OH232500   8.501   3.901   5.954
10848TIP3    H132501   8.450   3.972   5.994
10848TIP3    H232502   8.441   3.861   5.891
10849TIP3   OH232503   8.296   3.508   6.062
10849TIP3    H132504   8.293   3.596   6.100
10849TIP3    H232505   8.205   3.478   6.063
10850TIP3   OH232506   0.034   3.907   4.949
10850TIP3    H132507   0.101   3.975   4.956
10850TIP3    H232508  -0.037   3.949   4.901
10851TIP3   OH232509   8.327   4.097   6.029
10851TIP3    H132510   8.295   4.105   5.939
10851TIP3    H232511   8.248   4.083   6.081
10852TIP3   OH232512   8.120   3.257   5.045
10852TIP3    H132513   8.032   3.283   5.018
10852TIP3    H232514   8.105   3.192   5.114
10853TIP3   OH232515   7.914   3.646   5.976
10853TIP3    H132516   7.846   3.626   5.912
10853TIP3    H232517   7.950   3.560   6.000
10854TIP3   OH232518   7.772   3.836   5.614
10854TIP3    H132519   7.867   3.844   5.617
10854TIP3    H232520   7.740   3.914   5.660
10855TIP3   OH232521   0.170   4.055   5.785
10855TIP3    H132522   0.130   4.116   5.847
10855TIP3    H232523   0.130   3.970   5.806
10856TIP3   OH232524   8.461   4.224   4.762
10856TIP3    H132525   8.466   4.226   4.667
10856TIP3    H232526   8.427   4.310   4.786
10857TIP3   OH232527   7.938   4.033   5.131
10857TIP3    H132528   7.977   4.024   5.218
10857TIP3    H232529   7.888   3.952   5.119
10858TIP3   OH232530   0.398   4.126   4.734
10858TIP3    H132531   0.325   4.184   4.714
10858TIP3    H232532   0.366   4.072   4.807
10859TIP3   OH232533   8.102   3.842   5.954
10859TIP3    H132534   8.154   3.829   6.033
10859TIP3    H232535   8.034   3.774   5.959
10860TIP3   OH232536   8.457   2.625   5.802
10860TIP3    H132537   8.377   2.598   5.757
10860TIP3    H232538   8.437   2.712   5.836
10861TIP3   OH232539   8.408   3.170   5.805
10861TIP3    H132540   8.356   3.190   5.883
10861TIP3    H232541   8.393   3.245   5.747
10862TIP3   OH232542   8.203   3.116   5.263
10862TIP3    H132543   8.162   3.043   5.309
10862TIP3    H232544   8.283   3.079   5.225
10863TIP3   OH232545   8.244   3.194   6.025
10863TIP3    H132546   8.278   3.231   6.105
10863TIP3    H232547   8.217   3.105   6.049
10864TIP3   OH232548   8.328   2.679   4.691
10864TIP3    H132549   8.290   2.649   4.773
10864TIP3    H232550   8.255   2.715   4.641
10865TIP3   OH232551   7.861   2.710   5.560
10865TIP3    H132552   7.924   2.744   5.623
10865TIP3    H232553   7.911   2.698   5.480
10866TIP3   OH232554   7.791   2.688   5.080
10866TIP3    H132555   7.834   2.723   5.002
10866TIP3    H232556   7.727   2.754   5.105
10867TIP3   OH232557   8.067   2.899   5.355
10867TIP3    H132558   7.982   2.912   5.314
10867TIP3    H232559   8.098   2.816   5.318
10868TIP3   OH232560   8.377   2.893   4.983
10868TIP3    H132561   8.449   2.897   4.919
10868TIP3    H232562   8.301   2.928   4.936
10869TIP3   OH232563   8.164   2.958   4.831
10869TIP3    H132564   8.090   2.908   4.798
10869TIP3    H232565   8.210   2.988   4.752
10870TIP3   OH232566   8.265   3.765   6.176
10870TIP3    H132567   8.347   3.783   6.224
10870TIP3    H232568   8.198   3.761   6.244
10871TIP3   OH232569   8.205   2.669   5.268
10871TIP3    H132570   8.186   2.606   5.337
10871TIP3    H232571   8.211   2.616   5.188
10872TIP3   OH232572   0.170   3.119   5.853
10872TIP3    H132573   0.080   3.147   5.842
10872TIP3    H232574   0.201   3.104   5.763
10873TIP3   OH232575   8.477   3.441   4.902
10873TIP3    H132576   8.419   3.366   4.887
10873TIP3    H232577   8.442   3.484   4.980
10874TIP3   OH232578   0.407   3.774   5.772
10874TIP3    H132579   0.439   3.698   5.821
10874TIP3    H232580   0.361   3.827   5.837
10875TIP3   OH232581   8.115   3.510   5.497
10875TIP3    H132582   8.141   3.499   5.406
10875TIP3    H232583   8.180   3.462   5.547
10876TIP3   OH232584   0.075   3.531   4.658
10876TIP3    H132585   0.051   3.624   4.655
10876TIP3    H232586   0.044   3.501   4.744
10877TIP3   OH232587   8.026   3.434   6.121
10877TIP3    H132588   8.051   3.419   6.213
10877TIP3    H232589   7.965   3.364   6.100
10878TIP3   OH232590   0.220   3.522   6.139
10878TIP3    H132591   0.147   3.466   6.114
10878TIP3    H232592   0.295   3.463   6.149
10879TIP3   OH232593   8.247   3.811   5.111
10879TIP3    H132594   8.241   3.896   5.068
10879TIP3    H232595   8.156   3.784   5.123
10880TIP3   OH232596   7.820   3.111   4.851
10880TIP3    H132597   7.858   3.197   4.868
10880TIP3    H232598   7.739   3.110   4.902
10881TIP3   OH232599   8.396   3.582   5.127
10881TIP3    H132600   8.358   3.670   5.128
10881TIP3    H232601   8.331   3.528   5.172
10882TIP3   OH232602  -0.002   4.142   5.593
10882TIP3    H132603   0.035   4.225   5.563
10882TIP3    H232604   0.073   4.093   5.627
10883TIP3   OH232605   8.170   4.052   4.989
10883TIP3    H132606   8.086   4.052   5.035
10883TIP3    H232607   8.197   4.143   4.988
10884TIP3   OH232608   8.214   2.914   6.139
10884TIP3    H132609   8.120   2.931   6.137
10884TIP3    H232610   8.224   2.840   6.200
10885TIP3   OH232611   7.966   4.035   5.762
10885TIP3    H132612   8.011   3.966   5.812
10885TIP3    H232613   7.977   4.114   5.814
10886TIP3   OH232614   8.148   3.644   4.483
10886TIP3    H132615   8.107   3.561   4.460
10886TIP3    H232616   8.189   3.628   4.568
10887TIP3   OH232617   8.102   3.737   4.787
10887TIP3    H132618   8.196   3.736   4.804
10887TIP3    H232619   8.082   3.827   4.764
10888TIP3   OH232620   7.897   3.366   4.928
10888TIP3    H132621   7.833   3.409   4.984
10888TIP3    H232622   7.912   3.428   4.857
10889TIP3   OH232623   0.020   3.797   4.603
10889TIP3    H132624  -0.054   3.838   4.648
10889TIP3    H232625   0.080   3.870   4.586
10890TIP3   OH232626   8.072   3.998   4.734
10890TIP3    H132627   8.090   4.069   4.672
10890TIP3    H232628   8.096   4.034   4.819
10891TIP3   OH232629   8.280   2.629   4.971
10891TIP3    H132630   8.279   2.724   4.983
10891TIP3    H232631   8.373   2.605   4.979
10892TIP3   OH232632   7.902   3.566   4.732
10892TIP3    H132633   7.968   3.632   4.753
10892TIP3    H232634   7.946   3.507   4.670
10893TIP3   OH232635   7.843   2.835   4.857
10893TIP3    H132636   7.850   2.931   4.861
10893TIP3    H232637   7.775   2.819   4.792
10894TIP3   OH232638   8.205   2.550   5.717
10894TIP3    H132639   8.193   2.526   5.625
10894TIP3    H232640   8.208   2.467   5.763
10895TIP3   OH232641   7.774   3.807   5.107
10895TIP3    H132642   7.721   3.838   5.181
10895TIP3    H232643   7.734   3.847   5.030
10896TIP3   OH232644   7.960   4.347   6.178
10896TIP3    H132645   8.041   4.350   6.229
10896TIP3    H232646   7.939   4.254   6.172
10897TIP3   OH232647   8.419   4.283   6.210
10897TIP3    H132648   8.500   4.245   6.244
10897TIP3    H232649   8.392   4.223   6.140
10898TIP3   OH232650   8.447   3.921   4.327
10898TIP3    H132651   8.408   3.837   4.350
10898TIP3    H232652   8.537   3.899   4.300
10899TIP3   OH232653   8.073   3.740   6.371
10899TIP3    H132654   8.095   3.647   6.371
10899TIP3    H232655   7.991   3.745   6.321
10900TIP3   OH232656   8.020   3.363   4.600
10900TIP3    H132657   8.068   3.324   4.673
10900TIP3    H232658   8.077   3.349   4.524
10901TIP3   OH232659   0.076   3.753   6.172
10901TIP3    H132660   0.044   3.786   6.089
10901TIP3    H232661   0.122   3.672   6.150
10902TIP3   OH232662   0.065   3.524   4.392
10902TIP3    H132663   0.072   3.507   4.486
10902TIP3    H232664   0.031   3.443   4.356
10903TIP3   OH232665   8.181   3.483   6.367
10903TIP3    H132666   8.234   3.415   6.328
10903TIP3    H232667   8.225   3.504   6.449
10904TIP3   OH232668   8.206   3.283   4.792
10904TIP3    H132669   8.171   3.264   4.879
10904TIP3    H232670   8.245   3.201   4.763
10905TIP3   OH232671   0.022   3.353   6.063
10905TIP3    H132672  -0.061   3.400   6.071
10905TIP3    H232673   0.046   3.361   5.970
10906TIP3   OH232674   8.310   3.068   4.626
10906TIP3    H132675   8.342   3.145   4.579
10906TIP3    H232676   8.369   2.998   4.599
10907TIP3   OH232677   0.152   3.181   6.242
10907TIP3    H132678   0.106   3.101   6.216
10907TIP3    H232679   0.108   3.251   6.193
10908TIP3   OH232680   0.159   2.866   5.955
10908TIP3    H132681   0.164   2.951   5.911
10908TIP3    H232682   0.070   2.835   5.936
10909TIP3   OH232683   0.112   3.424   5.821
10909TIP3    H132684   0.200   3.461   5.819
10909TIP3    H232685   0.059   3.481   5.766
10910TIP3   OH232686   8.328   3.257   6.288
10910TIP3    H132687   8.355   3.171   6.320
10910TIP3    H232688   8.406   3.311   6.294
10911TIP3   OH232689   8.352   3.016   6.427
10911TIP3    H132690   8.360   2.926   6.394
10911TIP3    H232691   8.400   3.015   6.510
10912TIP3   OH232692   8.186   4.175   4.561
10912TIP3    H132693   8.279   4.164   4.540
10912TIP3    H232694   8.146   4.206   4.480
10913TIP3   OH232695   7.637   3.530   4.748
10913TIP3    H132696   7.731   3.549   4.743
10913TIP3    H232697   7.629   3.443   4.707
10914TIP3   OH232698   7.569   4.128   5.190
10914TIP3    H132699   7.506   4.073   5.145
10914TIP3    H232700   7.614   4.068   5.250
10915TIP3   OH232701   7.709   3.965   5.364
10915TIP3    H132702   7.699   3.893   5.426
10915TIP3    H232703   7.758   4.032   5.411
10916TIP3   OH232704   7.873   3.387   5.738
10916TIP3    H132705   7.870   3.356   5.647
10916TIP3    H232706   7.966   3.384   5.760
10917TIP3   OH232707   8.084   3.065   6.391
10917TIP3    H132708   8.180   3.067   6.397
10917TIP3    H232709   8.060   2.982   6.432
10918TIP3   OH232710   8.045   2.771   5.759
10918TIP3    H132711   8.104   2.696   5.747
10918TIP3    H232712   8.102   2.847   5.751
10919TIP3   OH232713   7.864   3.050   5.800
10919TIP3    H132714   7.904   3.036   5.714
10919TIP3    H232715   7.895   3.136   5.828
10920TIP3   OH232716   7.856   2.538   5.298
10920TIP3    H132717   7.772   2.533   5.342
10920TIP3    H232718   7.842   2.598   5.225
10921TIP3   OH232719   8.076   2.638   6.128
10921TIP3    H132720   8.020   2.619   6.203
10921TIP3    H232721   8.018   2.677   6.063
10922TIP3   OH232722   8.111   4.069   6.197
10922TIP3    H132723   8.017   4.051   6.189
10922TIP3    H232724   8.128   4.061   6.291
10923TIP3   OH232725   8.286   4.104   5.755
10923TIP3    H132726   8.227   4.169   5.718
10923TIP3    H232727   8.366   4.111   5.704
10924TIP3   OH232728   0.178   4.315   5.906
10924TIP3    H132729   0.237   4.252   5.947
10924TIP3    H232730   0.214   4.330   5.819
10925TIP3   OH232731   0.518   4.537   5.783
10925TIP3    H132732   0.555   4.573   5.702
10925TIP3    H232733   0.547   4.597   5.851
10926TIP3   OH232734   7.964   4.361   5.792
10926TIP3    H132735   7.873   4.381   5.772
10926TIP3    H232736   7.988   4.425   5.859
10927TIP3   OH232737   8.174   4.317   5.628
10927TIP3    H132738   8.092   4.330   5.676
10927TIP3    H232739   8.154   4.347   5.539
10928TIP3   OH232740   0.060   4.391   5.500
10928TIP3    H132741   0.041   4.416   5.410
10928TIP3    H232742  -0.002   4.442   5.553
10929TIP3   OH232743   0.302   4.246   5.464
10929TIP3    H132744   0.240   4.313   5.492
10929TIP3    H232745   0.375   4.294   5.425
10930TIP3   OH232746   7.884   4.140   5.517
10930TIP3    H132747   7.910   4.110   5.605
10930TIP3    H232748   7.949   4.102   5.459
10931TIP3   OH232749   8.069   4.014   5.369
10931TIP3    H132750   8.083   3.932   5.416
10931TIP3    H232751   8.153   4.060   5.374
10932TIP3   OH232752   8.315   4.133   5.391
10932TIP3    H132753   8.342   4.045   5.367
10932TIP3    H232754   8.366   4.154   5.469
10933TIP3   OH232755   8.161   2.460   5.454
10933TIP3    H132756   8.070   2.431   5.465
10933TIP3    H232757   8.213   2.380   5.463
10934TIP3   OH232758   7.983   2.349   5.130
10934TIP3    H132759   7.995   2.404   5.052
10934TIP3    H232760   7.942   2.407   5.194
10935TIP3   OH232761   7.659   3.930   4.892
10935TIP3    H132762   7.576   3.893   4.862
10935TIP3    H232763   7.658   4.020   4.861
10936TIP3   OH232764   8.056   2.485   4.901
10936TIP3    H132765   8.093   2.422   4.839
10936TIP3    H232766   8.131   2.538   4.929
10937TIP3   OH232767   8.452   4.132   4.499
10937TIP3    H132768   8.529   4.088   4.535
10937TIP3    H232769   8.424   4.075   4.427
10938TIP3   OH232770   8.363   2.738   6.353
10938TIP3    H132771   8.351   2.677   6.426
10938TIP3    H232772   8.456   2.734   6.334
10939TIP3   OH232773   7.745   3.932   4.556
10939TIP3    H132774   7.753   3.940   4.651
10939TIP3    H232775   7.827   3.892   4.528
10940TIP3   OH232776   1.314   4.284   6.722
10940TIP3    H132777   1.281   4.370   6.696
10940TIP3    H232778   1.243   4.223   6.700
10941TIP3   OH232779   6.968   0.282   0.176
10941TIP3    H132780   7.020   0.255   0.252
10941TIP3    H232781   6.931   0.200   0.143
10942TIP3   OH232782   6.295   0.185   0.511
10942TIP3    H132783   6.270   0.094   0.529
10942TIP3    H232784   6.379   0.178   0.465
10943TIP3   OH232785   1.570   4.584   6.813
10943TIP3    H132786   1.560   4.516   6.879
10943TIP3    H232787   1.594   4.662   6.863
10944TIP3   OH232788   6.267   0.560   0.204
10944TIP3    H132789   6.243   0.468   0.217
10944TIP3    H232790   6.363   0.559   0.200
10945TIP3   OH232791   6.030   0.083   0.198
10945TIP3    H132792   6.074   0.014   0.247
10945TIP3    H232793   6.086   0.160   0.210
10946TIP3   OH232794   1.228   5.016   6.830
10946TIP3    H132795   1.255   4.951   6.765
10946TIP3    H232796   1.236   4.971   6.914
10947TIP3   OH232797   6.784   0.497   0.209
10947TIP3    H132798   6.823   0.416   0.176
10947TIP3    H232799   6.858   0.550   0.238
10948TIP3   OH232800   4.977   7.836   0.200
10948TIP3    H132801   4.996   7.919   0.243
10948TIP3    H232802   5.004   7.849   0.109
10949TIP3   OH232803   4.359   7.989   0.236
10949TIP3    H132804   4.400   7.907   0.263
10949TIP3    H232805   4.324   7.970   0.148
10950TIP3   OH232806   3.737   7.655   0.188
10950TIP3    H132807   3.710   7.730   0.136
10950TIP3    H232808   3.680   7.584   0.159
10951TIP3   OH232809   1.575   3.742   6.769
10951TIP3    H132810   1.642   3.733   6.837
10951TIP3    H232811   1.622   3.777   6.693
10952TIP3   OH232812   3.353   7.895   0.300
10952TIP3    H132813   3.423   7.857   0.353
10952TIP3    H232814   3.353   7.842   0.220
10953TIP3   OH232815   6.601   0.053   0.133
10953TIP3    H132816   6.695   0.042   0.120
10953TIP3    H232817   6.562  -0.027   0.099
10954TIP3   OH232818   7.880   0.037   0.376
10954TIP3    H132819   7.787   0.035   0.396
10954TIP3    H232820   7.919   0.089   0.447
10955TIP3   OH232821   3.661   7.733   0.685
10955TIP3    H132822   3.597   7.756   0.618
10955TIP3    H232823   3.622   7.659   0.732
10956TIP3   OH232824   1.202   4.498   6.583
10956TIP3    H132825   1.165   4.476   6.498
10956TIP3    H232826   1.150   4.572   6.614
10957TIP3   OH232827   6.635   0.424   0.432
10957TIP3    H132828   6.571   0.487   0.466
10957TIP3    H232829   6.676   0.469   0.358
10958TIP3   OH232830   4.583   7.773   0.035
10958TIP3    H132831   4.542   7.748   0.118
10958TIP3    H232832   4.635   7.850   0.057
10959TIP3   OH232833   3.590   7.794   0.393
10959TIP3    H132834   3.650   7.862   0.426
10959TIP3    H232835   3.645   7.740   0.336
10960TIP3   OH232836   6.452   0.594   0.559
10960TIP3    H132837   6.402   0.666   0.521
10960TIP3    H232838   6.399   0.565   0.634
10961TIP3   OH232839   7.279   0.822   0.017
10961TIP3    H132840   7.191   0.813   0.053
10961TIP3    H232841   7.278   0.906  -0.029
10962TIP3   OH232842   4.765   7.716   0.335
10962TIP3    H132843   4.676   7.724   0.301
10962TIP3    H232844   4.820   7.753   0.266
10963TIP3   OH232845   4.097   7.333   0.248
10963TIP3    H132846   4.092   7.248   0.290
10963TIP3    H232847   4.036   7.388   0.297
10964TIP3   OH232848   1.316   4.863   6.613
10964TIP3    H132849   1.369   4.784   6.603
10964TIP3    H232850   1.374   4.933   6.581
10965TIP3   OH232851   1.467   4.642   6.564
10965TIP3    H132852   1.414   4.565   6.542
10965TIP3    H232853   1.512   4.618   6.645
10966TIP3   OH232854   7.516   0.716   0.357
10966TIP3    H132855   7.499   0.640   0.301
10966TIP3    H232856   7.500   0.792   0.301
10967TIP3   OH232857   1.140   4.125   6.571
10967TIP3    H132858   1.063   4.179   6.555
10967TIP3    H232859   1.184   4.121   6.486
10968TIP3   OH232860   1.113   3.922   6.263
10968TIP3    H132861   1.178   3.971   6.313
10968TIP3    H232862   1.164   3.855   6.217
10969TIP3   OH232863   7.707   0.383   0.219
10969TIP3    H132864   7.621   0.426   0.218
10969TIP3    H232865   7.739   0.393   0.129
10970TIP3   OH232866   1.494   4.213   6.530
10970TIP3    H132867   1.440   4.240   6.604
10970TIP3    H232868   1.577   4.184   6.569
10971TIP3   OH232869   7.382   0.260   0.509
10971TIP3    H132870   7.372   0.341   0.560
10971TIP3    H232871   7.306   0.257   0.452
10972TIP3   OH232872   6.391   0.186   0.012
10972TIP3    H132873   6.358   0.124  -0.053
10972TIP3    H232874   6.468   0.143   0.049
10973TIP3   OH232875   6.538   0.611   0.132
10973TIP3    H132876   6.520   0.588   0.041
10973TIP3    H232877   6.624   0.572   0.149
10974TIP3   OH232878   6.525   0.179   0.368
10974TIP3    H132879   6.556   0.144   0.284
10974TIP3    H232880   6.570   0.263   0.377
10975TIP3   OH232881   7.037   0.813   0.143
10975TIP3    H132882   7.034   0.890   0.199
10975TIP3    H232883   7.029   0.739   0.203
10976TIP3   OH232884   6.665   0.714   0.686
10976TIP3    H132885   6.607   0.774   0.733
10976TIP3    H232886   6.605   0.658   0.636
10977TIP3   OH232887   1.326   4.073   6.364
10977TIP3    H132888   1.386   4.129   6.414
10977TIP3    H232889   1.353   4.084   6.273
10978TIP3   OH232890   6.384   0.261   0.770
10978TIP3    H132891   6.377   0.348   0.811
10978TIP3    H232892   6.332   0.269   0.690
10979TIP3   OH232893   1.069   4.742   6.622
10979TIP3    H132894   1.153   4.788   6.629
10979TIP3    H232895   1.010   4.804   6.580
10980TIP3   OH232896   6.459   0.878   0.764
10980TIP3    H132897   6.440   0.896   0.672
10980TIP3    H232898   6.374   0.880   0.807
10981TIP3   OH232899   1.837   3.297   6.416
10981TIP3    H132900   1.760   3.318   6.469
10981TIP3    H232901   1.850   3.375   6.361
10982TIP3   OH232902   0.616   4.019   6.746
10982TIP3    H132903   0.533   4.066   6.737
10982TIP3    H232904   0.591   3.928   6.760
10983TIP3   OH232905   1.655   4.673   5.971
10983TIP3    H132906   1.656   4.766   5.952
10983TIP3    H232907   1.745   4.643   5.952
10984TIP3   OH232908   7.752   1.075   0.419
10984TIP3    H132909   7.757   0.980   0.431
10984TIP3    H232910   7.670   1.101   0.463
10985TIP3   OH232911   6.853   0.844   0.538
10985TIP3    H132912   6.853   0.935   0.569
10985TIP3    H232913   6.786   0.801   0.591
10986TIP3   OH232914   0.959   4.975   6.442
10986TIP3    H132915   0.909   4.957   6.363
10986TIP3    H232916   0.926   5.059   6.474
10987TIP3   OH232917   1.164   4.895   6.073
10987TIP3    H132918   1.214   4.821   6.038
10987TIP3    H232919   1.197   4.906   6.162
10988TIP3   OH232920   1.212   4.935   6.343
10988TIP3    H132921   1.127   4.943   6.386
10988TIP3    H232922   1.270   4.898   6.410
10989TIP3   OH232923   7.611   0.262   0.684
10989TIP3    H132924   7.537   0.252   0.624
10989TIP3    H232925   7.637   0.173   0.705
10990TIP3   OH232926   3.760   7.499   0.567
10990TIP3    H132927   3.720   7.465   0.487
10990TIP3    H232928   3.688   7.506   0.629
10991TIP3   OH232929   4.321   7.568   0.666
10991TIP3    H132930   4.373   7.501   0.710
10991TIP3    H232931   4.283   7.619   0.737
10992TIP3   OH232932   7.395  -0.004   0.594
10992TIP3    H132933   7.338  -0.006   0.671
10992TIP3    H232934   7.385   0.084   0.558
10993TIP3   OH232935   1.406   4.083   6.105
10993TIP3    H132936   1.365   4.070   6.020
10993TIP3    H232937   1.490   4.125   6.086
10994TIP3   OH232938   1.115   3.477   6.411
10994TIP3    H132939   1.076   3.484   6.498
10994TIP3    H232940   1.082   3.395   6.376
10995TIP3   OH232941   6.565  -0.024   0.543
10995TIP3    H132942   6.508  -0.013   0.619
10995TIP3    H232943   6.557   0.057   0.494
10996TIP3   OH232944   3.634   7.852   0.027
10996TIP3    H132945   3.543   7.833   0.052
10996TIP3    H232946   3.642   7.818  -0.062
10997TIP3   OH232947   1.271   3.922   6.701
10997TIP3    H132948   1.222   3.994   6.661
10997TIP3    H232949   1.326   3.889   6.630
10998TIP3   OH232950   7.128   0.231   0.839
10998TIP3    H132951   7.091   0.165   0.899
10998TIP3    H232952   7.221   0.230   0.857
10999TIP3   OH232953   1.439   3.932   6.921
10999TIP3    H132954   1.372   3.956   6.857
10999TIP3    H232955   1.484   3.857   6.882
11000TIP3   OH232956   6.358  -0.014   0.743
11000TIP3    H132957   6.363   0.079   0.766
11000TIP3    H232958   6.367  -0.060   0.826
11001TIP3   OH232959   0.794   3.456   6.399
11001TIP3    H132960   0.777   3.449   6.493
11001TIP3    H232961   0.718   3.502   6.363
11002TIP3   OH232962   3.192   7.631   0.207
11002TIP3    H132963   3.239   7.648   0.288
11002TIP3    H232964   3.143   7.551   0.223
11003TIP3   OH232965   0.282   3.578   6.847
11003TIP3    H132966   0.351   3.567   6.781
11003TIP3    H232967   0.318   3.640   6.910
11004TIP3   OH232968   7.143   0.199   0.378
11004TIP3    H132969   7.166   0.124   0.323
11004TIP3    H232970   7.106   0.160   0.457
11005TIP3   OH232971   3.995   7.652   0.067
11005TIP3    H132972   3.914   7.648   0.118
11005TIP3    H232973   4.064   7.651   0.133
11006TIP3   OH232974   3.400   7.722   0.069
11006TIP3    H132975   3.319   7.689   0.108
11006TIP3    H232976   3.452   7.644   0.050
11007TIP3   OH232977   0.801   3.719   6.722
11007TIP3    H132978   0.895   3.732   6.710
11007TIP3    H232979   0.762   3.742   6.638
11008TIP3   OH232980   4.460   7.724   0.276
11008TIP3    H132981   4.438   7.747   0.367
11008TIP3    H232982   4.387   7.670   0.247
11009TIP3   OH232983   0.668   3.762   6.481
11009TIP3    H132984   0.621   3.698   6.428
11009TIP3    H232985   0.732   3.801   6.421
11010TIP3   OH232986   7.461   1.416   0.516
11010TIP3    H132987   7.454   1.432   0.422
11010TIP3    H232988   7.541   1.462   0.542
11011TIP3   OH232989   6.378   0.518   0.877
11011TIP3    H132990   6.453   0.557   0.921
11011TIP3    H232991   6.305   0.531   0.939
11012TIP3   OH232992   4.041   8.031   0.133
11012TIP3    H132993   4.111   7.974   0.100
11012TIP3    H232994   4.045   8.021   0.228
11013TIP3   OH232995   3.554   7.491   0.044
11013TIP3    H132996   3.506   7.417   0.080
11013TIP3    H232997   3.585   7.461  -0.042
11014TIP3   OH232998   4.022   8.026   0.404
11014TIP3    H132999   3.961   7.955   0.420
11014TIP3    H233000   4.063   8.043   0.489
11015TIP3   OH233001   0.925   4.302   6.521
11015TIP3    H133002   0.869   4.224   6.511
11015TIP3    H233003   0.901   4.338   6.607
11016TIP3   OH233004   7.462   0.508   0.183
11016TIP3    H133005   7.495   0.557   0.107
11016TIP3    H233006   7.381   0.467   0.151
11017TIP3   OH233007   1.367   3.579   6.408
11017TIP3    H133008   1.274   3.558   6.407
11017TIP3    H233009   1.370   3.674   6.422
11018TIP3   OH233010   6.982   0.591   0.582
11018TIP3    H133011   7.020   0.580   0.669
11018TIP3    H233012   6.939   0.676   0.586
11019TIP3   OH233013   1.430   3.840   6.484
11019TIP3    H133014   1.525   3.843   6.494
11019TIP3    H233015   1.409   3.918   6.432
11020TIP3   OH233016   6.235   0.281   0.233
11020TIP3    H133017   6.294   0.243   0.168
11020TIP3    H233018   6.266   0.245   0.316
11021TIP3   OH233019   1.066   4.438   6.335
11021TIP3    H133020   1.018   4.521   6.337
11021TIP3    H233021   1.018   4.381   6.396
11022TIP3   OH233022   6.884   0.355   0.864
11022TIP3    H133023   6.830   0.309   0.799
11022TIP3    H233024   6.973   0.326   0.845
11023TIP3   OH233025   7.123   0.870   0.456
11023TIP3    H133026   7.029   0.852   0.465
11023TIP3    H233027   7.146   0.915   0.537
11024TIP3   OH233028   1.850   3.930   6.310
11024TIP3    H133029   1.793   3.885   6.248
11024TIP3    H233030   1.856   4.020   6.275
11025TIP3   OH233031   7.762   0.797   0.447
11025TIP3    H133032   7.667   0.784   0.442
11025TIP3    H233033   7.795   0.764   0.364
11026TIP3   OH233034   1.577   4.745   6.236
11026TIP3    H133035   1.555   4.675   6.298
11026TIP3    H233036   1.597   4.699   6.154
11027TIP3   OH233037   7.231   0.376   0.080
11027TIP3    H133038   7.139   0.357   0.098
11027TIP3    H233039   7.266   0.294   0.045
11028TIP3   OH233040   0.710   4.618   6.835
11028TIP3    H133041   0.705   4.690   6.772
11028TIP3    H233042   0.640   4.636   6.898
11029TIP3   OH233043   0.242   3.956   6.507
11029TIP3    H133044   0.296   3.985   6.581
11029TIP3    H233045   0.192   3.883   6.541
11030TIP3   OH233046   0.817   4.377   6.758
11030TIP3    H133047   0.781   4.462   6.782
11030TIP3    H233048   0.786   4.318   6.827
11031TIP3   OH233049   6.660   0.937   0.348
11031TIP3    H133050   6.703   1.005   0.297
11031TIP3    H233051   6.731   0.895   0.396
11032TIP3   OH233052   0.640   4.841   6.676
11032TIP3    H133053   0.553   4.858   6.711
11032TIP3    H233054   0.684   4.926   6.681
11033TIP3   OH233055   7.026   0.588   0.311
11033TIP3    H133056   7.014   0.584   0.406
11033TIP3    H233057   7.097   0.527   0.293
11034TIP3   OH233058   1.338   4.480   6.140
11034TIP3    H133059   1.399   4.459   6.212
11034TIP3    H233060   1.254   4.447   6.170
11035TIP3   OH233061   7.277   1.097   0.357
11035TIP3    H133062   7.205   1.035   0.365
11035TIP3    H233063   7.251   1.155   0.286
11036TIP3   OH233064   1.667   4.949   5.939
11036TIP3    H133065   1.708   5.020   5.890
11036TIP3    H233066   1.590   4.988   5.979
11037TIP3   OH233067   1.517   4.411   6.335
11037TIP3    H133068   1.501   4.347   6.405
11037TIP3    H233069   1.612   4.413   6.326
11038TIP3   OH233070   0.706   4.456   6.126
11038TIP3    H133071   0.737   4.371   6.097
11038TIP3    H233072   0.680   4.442   6.217
11039TIP3   OH233073   0.636   4.473   6.403
11039TIP3    H133074   0.701   4.428   6.456
11039TIP3    H233075   0.657   4.566   6.414
11040TIP3   OH233076   0.369   4.133   6.698
11040TIP3    H133077   0.315   4.193   6.750
11040TIP3    H233078   0.394   4.184   6.621
11041TIP3   OH233079   4.379   7.803   0.520
11041TIP3    H133080   4.447   7.862   0.551
11041TIP3    H233081   4.390   7.724   0.573
11042TIP3   OH233082   1.428   3.528   6.674
11042TIP3    H133083   1.408   3.548   6.582
11042TIP3    H233084   1.471   3.607   6.707
11043TIP3   OH233085   0.909   4.660   6.345
11043TIP3    H133086   0.827   4.686   6.387
11043TIP3    H233087   0.935   4.737   6.294
11044TIP3   OH233088   1.080   3.734   6.761
11044TIP3    H133089   1.142   3.803   6.736
11044TIP3    H233090   1.105   3.711   6.851
11045TIP3   OH233091   7.060   0.088   0.612
11045TIP3    H133092   7.050   0.164   0.670
11045TIP3    H233093   7.124   0.033   0.656
11046TIP3   OH233094   1.240   3.428   6.845
11046TIP3    H133095   1.224   3.503   6.903
11046TIP3    H233096   1.311   3.457   6.787
11047TIP3   OH233097   0.653   4.747   6.416
11047TIP3    H133098   0.634   4.823   6.361
11047TIP3    H233099   0.644   4.779   6.506
11048TIP3   OH233100   0.757   3.441   6.677
11048TIP3    H133101   0.736   3.532   6.698
11048TIP3    H233102   0.852   3.438   6.678
11049TIP3   OH233103   4.816   7.933   0.506
11049TIP3    H133104   4.728   7.965   0.527
11049TIP3    H233105   4.800   7.856   0.451
11050TIP3   OH233106   7.322   0.119  -0.009
11050TIP3    H133107   7.247   0.061  -0.001
11050TIP3    H233108   7.391   0.077   0.043
11051TIP3   OH233109   0.373   4.515   6.482
11051TIP3    H133110   0.463   4.504   6.450
11051TIP3    H233111   0.319   4.512   6.403
11052TIP3   OH233112   0.469   3.583   6.641
11052TIP3    H133113   0.483   3.677   6.651
11052TIP3    H233114   0.422   3.574   6.558
11053TIP3   OH233115   1.634   5.096   6.873
11053TIP3    H133116   1.591   5.145   6.802
11053TIP3    H233117   1.727   5.110   6.860
11054TIP3   OH233118   3.579   7.429   0.361
11054TIP3    H133119   3.535   7.405   0.279
11054TIP3    H233120   3.625   7.349   0.387
11055TIP3   OH233121   6.494   1.088   0.952
11055TIP3    H133122   6.561   1.079   1.019
11055TIP3    H233123   6.513   1.020   0.888
11056TIP3   OH233124   0.878   4.647   6.030
11056TIP3    H133125   0.829   4.581   6.079
11056TIP3    H233126   0.954   4.601   5.996
11057TIP3   OH233127   7.177   0.992   0.693
11057TIP3    H133128   7.173   0.914   0.749
11057TIP3    H233129   7.259   1.035   0.717
11058TIP3   OH233130   1.296   4.683   5.958
11058TIP3    H133131   1.325   4.620   6.024
11058TIP3    H233132   1.362   4.677   5.889
11059TIP3   OH233133   0.579   4.209   6.238
11059TIP3    H133134   0.585   4.134   6.297
11059TIP3    H233135   0.649   4.196   6.175
11060TIP3   OH233136   6.816   0.618   0.894
11060TIP3    H133137   6.775   0.636   0.810
11060TIP3    H233138   6.847   0.528   0.887
11061TIP3   OH233139   1.042   4.367   6.070
11061TIP3    H133140   1.042   4.381   6.165
11061TIP3    H233141   1.042   4.272   6.059
11062TIP3   OH233142   7.292   0.648   0.505
11062TIP3    H133143   7.369   0.679   0.457
11062TIP3    H233144   7.224   0.712   0.485
11063TIP3   OH233145   0.778   4.081   6.519
11063TIP3    H133146   0.727   4.050   6.594
11063TIP3    H233147   0.781   4.006   6.460
11064TIP3   OH233148   6.645   0.175   0.774
11064TIP3    H133149   6.557   0.215   0.771
11064TIP3    H233150   6.687   0.205   0.693
11065TIP3   OH233151   0.841   3.891   6.315
11065TIP3    H133152   0.816   3.900   6.223
11065TIP3    H233153   0.936   3.897   6.315
11066TIP3   OH233154   7.178   0.527   0.873
11066TIP3    H133155   7.245   0.488   0.817
11066TIP3    H233156   7.172   0.468   0.948
11067TIP3   OH233157   1.631   4.196   5.989
11067TIP3    H133158   1.618   4.151   5.906
11067TIP3    H233159   1.601   4.286   5.973
11068TIP3   OH233160   3.923   8.002   0.928
11068TIP3    H133161   3.899   7.928   0.872
11068TIP3    H233162   3.881   8.078   0.889
11069TIP3   OH233163   3.907   7.764   0.788
11069TIP3    H133164   3.959   7.803   0.718
11069TIP3    H233165   3.819   7.755   0.750
11070TIP3   OH233166   6.809   0.274   0.580
11070TIP3    H133167   6.872   0.245   0.514
11070TIP3    H233168   6.754   0.338   0.535
11071TIP3   OH233169   7.392   0.220   0.931
11071TIP3    H133170   7.444   0.143   0.955
11071TIP3    H233171   7.455   0.284   0.899
11072TIP3   OH233172   7.408   0.485   0.686
11072TIP3    H133173   7.358   0.547   0.632
11072TIP3    H233174   7.498   0.493   0.654
11073TIP3   OH233175   4.016   7.560   0.624
11073TIP3    H133176   3.993   7.624   0.692
11073TIP3    H233177   3.933   7.521   0.599
11074TIP3   OH233178   7.021   0.023   0.982
11074TIP3    H133179   7.024   0.016   1.078
11074TIP3    H233180   6.928   0.019   0.961
11075TIP3   OH233181   4.375   7.964   0.791
11075TIP3    H133182   4.303   7.980   0.852
11075TIP3    H233183   4.438   7.912   0.842
11076TIP3   OH233184   4.734   7.896   1.138
11076TIP3    H133185   4.754   7.803   1.127
11076TIP3    H233186   4.691   7.902   1.223
11077TIP3   OH233187   4.121   7.451   1.049
11077TIP3    H133188   4.098   7.376   1.105
11077TIP3    H233189   4.114   7.417   0.960
11078TIP3   OH233190   0.652   4.961   6.234
11078TIP3    H133191   0.738   4.935   6.201
11078TIP3    H233192   0.611   5.008   6.162
11079TIP3   OH233193   1.898   5.165   6.857
11079TIP3    H133194   1.924   5.191   6.946
11079TIP3    H233195   1.962   5.207   6.800
11080TIP3   OH233196   7.591   1.177   0.199
11080TIP3    H133197   7.544   1.094   0.192
11080TIP3    H233198   7.662   1.158   0.261
11081TIP3   OH233199   7.633   0.875   0.775
11081TIP3    H133200   7.563   0.881   0.840
11081TIP3    H233201   7.676   0.960   0.779
11082TIP3   OH233202   1.793   4.396   6.322
11082TIP3    H133203   1.855   4.462   6.293
11082TIP3    H233204   1.836   4.355   6.398
11083TIP3   OH233205   1.915   4.252   6.524
11083TIP3    H133206   1.849   4.211   6.580
11083TIP3    H233207   1.981   4.285   6.586
11084TIP3   OH233208   1.969   4.652   6.954
11084TIP3    H133209   2.023   4.583   6.915
11084TIP3    H233210   1.970   4.723   6.890
11085TIP3   OH233211   7.449   0.936   0.206
11085TIP3    H133212   7.382   0.980   0.258
11085TIP3    H233213   7.401   0.894   0.135
11086TIP3   OH233214   1.837   4.170   6.170
11086TIP3    H133215   1.766   4.169   6.105
11086TIP3    H233216   1.819   4.247   6.224
11087TIP3   OH233217   1.691   3.827   6.114
11087TIP3    H133218   1.652   3.861   6.034
11087TIP3    H233219   1.679   3.732   6.109
11088TIP3   OH233220   1.718   4.110   6.661
11088TIP3    H133221   1.725   4.016   6.650
11088TIP3    H233222   1.701   4.122   6.755
11089TIP3   OH233223   7.666   0.537   0.578
11089TIP3    H133224   7.731   0.469   0.560
11089TIP3    H233225   7.678   0.599   0.506
11090TIP3   OH233226   7.852   0.329   0.572
11090TIP3    H133227   7.774   0.295   0.615
11090TIP3    H233228   7.922   0.271   0.599
11091TIP3   OH233229   1.648   3.559   6.094
11091TIP3    H133230   1.717   3.526   6.152
11091TIP3    H233231   1.570   3.509   6.119
11092TIP3   OH233232   1.718   3.834   6.544
11092TIP3    H133233   1.762   3.750   6.558
11092TIP3    H233234   1.763   3.873   6.470
11093TIP3   OH233235   7.538  -0.008   0.122
11093TIP3    H133236   7.619   0.009   0.076
11093TIP3    H233237   7.546   0.039   0.205
11094TIP3   OH233238   7.589   0.161   0.334
11094TIP3    H133239   7.522   0.204   0.387
11094TIP3    H233240   7.640   0.234   0.298
11095TIP3   OH233241   5.235   7.782   0.921
11095TIP3    H133242   5.310   7.736   0.884
11095TIP3    H233243   5.252   7.874   0.905
11096TIP3   OH233244   1.828   3.584   6.598
11096TIP3    H133245   1.874   3.569   6.681
11096TIP3    H233246   1.767   3.510   6.591
11097TIP3   OH233247   3.343   7.575   0.435
11097TIP3    H133248   3.431   7.539   0.421
11097TIP3    H233249   3.355   7.642   0.502
11098TIP3   OH233250   5.068   7.896   0.658
11098TIP3    H133251   4.995   7.957   0.668
11098TIP3    H233252   5.038   7.834   0.592
11099TIP3   OH233253   1.884   3.501   6.238
11099TIP3    H133254   1.927   3.439   6.180
11099TIP3    H233255   1.942   3.577   6.239
11100TIP3   OH233256   3.162   7.342   0.040
11100TIP3    H133257   3.130   7.348   0.130
11100TIP3    H233258   3.135   7.424  -0.001
11101TIP3   OH233259   1.458   5.062   6.498
11101TIP3    H133260   1.516   5.048   6.424
11101TIP3    H233261   1.504   5.125   6.554
11102TIP3   OH233262   6.424   0.910   0.492
11102TIP3    H133263   6.377   0.982   0.451
11102TIP3    H233264   6.509   0.908   0.448
11103TIP3   OH233265   6.856   1.106   0.614
11103TIP3    H133266   6.885   1.104   0.705
11103TIP3    H233267   6.919   1.162   0.569
11104TIP3   OH233268   7.038   1.272   0.494
11104TIP3    H133269   7.100   1.215   0.449
11104TIP3    H233270   7.092   1.324   0.553
11105TIP3   OH233271   4.994   7.676   0.499
11105TIP3    H133272   4.929   7.678   0.429
11105TIP3    H233273   5.037   7.590   0.489
11106TIP3   OH233274   6.318   1.127   0.341
11106TIP3    H133275   6.262   1.197   0.374
11106TIP3    H233276   6.264   1.080   0.278
11107TIP3   OH233277   6.762   1.133   0.178
11107TIP3    H133278   6.702   1.143   0.104
11107TIP3    H233279   6.767   1.221   0.217
11108TIP3   OH233280   7.022   1.077   0.233
11108TIP3    H133281   6.930   1.092   0.213
11108TIP3    H233282   7.068   1.146   0.185
11109TIP3   OH233283   7.217   1.257   0.134
11109TIP3    H133284   7.211   1.343   0.092
11109TIP3    H233285   7.246   1.199   0.064
11110TIP3   OH233286   6.223   0.796   0.072
11110TIP3    H133287   6.218   0.720   0.130
11110TIP3    H233288   6.306   0.837   0.095
11111TIP3   OH233289   6.488   0.888   0.135
11111TIP3    H133290   6.505   0.795   0.119
11111TIP3    H233291   6.538   0.909   0.213
11112TIP3   OH233292   4.242   7.566   0.196
11112TIP3    H133293   4.183   7.491   0.206
11112TIP3    H233294   4.306   7.537   0.131
11113TIP3   OH233295   4.711   7.478   0.116
11113TIP3    H133296   4.753   7.520   0.040
11113TIP3    H233297   4.617   7.491   0.101
11114TIP3   OH233298   1.991   3.532   6.817
11114TIP3    H133299   2.060   3.474   6.786
11114TIP3    H233300   2.027   3.620   6.803
11115TIP3   OH233301   3.435   7.279   0.170
11115TIP3    H133302   3.346   7.260   0.139
11115TIP3    H233303   3.475   7.193   0.181
11116TIP3   OH233304   0.434   3.138   6.815
11116TIP3    H133305   0.461   3.186   6.736
11116TIP3    H233306   0.395   3.205   6.871
11117TIP3   OH233307   3.884   7.312   0.068
11117TIP3    H133308   3.929   7.347  -0.008
11117TIP3    H233309   3.945   7.327   0.141
11118TIP3   OH233310   4.440   7.454   0.048
11118TIP3    H133311   4.455   7.412  -0.036
11118TIP3    H233312   4.438   7.382   0.111
11119TIP3   OH233313   1.646   3.371   6.602
11119TIP3    H133314   1.564   3.418   6.622
11119TIP3    H233315   1.633   3.284   6.640
11120TIP3   OH233316   0.552   3.269   6.585
11120TIP3    H133317   0.608   3.204   6.542
11120TIP3    H233318   0.614   3.330   6.626
11121TIP3   OH233319   1.027   3.482   6.672
11121TIP3    H133320   1.093   3.431   6.720
11121TIP3    H233321   1.043   3.572   6.699
11122TIP3   OH233322   0.905   4.881   6.166
11122TIP3    H133323   0.992   4.907   6.135
11122TIP3    H233324   0.883   4.803   6.114
11123TIP3   OH233325   1.613   5.013   6.272
11123TIP3    H133326   1.606   4.918   6.265
11123TIP3    H233327   1.571   5.046   6.193
11124TIP3   OH233328   4.774   7.633   1.051
11124TIP3    H133329   4.775   7.592   1.137
11124TIP3    H233330   4.867   7.649   1.032
11125TIP3   OH233331   7.503   1.143   0.513
11125TIP3    H133332   7.426   1.114   0.464
11125TIP3    H233333   7.490   1.237   0.525
11126TIP3   OH233334   3.105   4.538   6.211
11126TIP3    H133335   3.072   4.625   6.186
11126TIP3    H233336   3.036   4.478   6.184
11127TIP3   OH233337   3.107   4.532   6.628
11127TIP3    H133338   3.157   4.508   6.706
11127TIP3    H233339   3.063   4.452   6.601
11128TIP3   OH233340   8.069   0.395   0.033
11128TIP3    H133341   8.102   0.340   0.103
11128TIP3    H233342   8.147   0.421  -0.016
11129TIP3   OH233343   3.368   4.837   6.300
11129TIP3    H133344   3.351   4.771   6.367
11129TIP3    H233345   3.390   4.916   6.349
11130TIP3   OH233346   2.387   4.828   6.675
11130TIP3    H133347   2.373   4.733   6.678
11130TIP3    H233348   2.481   4.838   6.663
11131TIP3   OH233349   2.079   4.029   6.452
11131TIP3    H133350   2.037   4.112   6.475
11131TIP3    H233351   2.010   3.977   6.411
11132TIP3   OH233352   2.147   4.324   6.662
11132TIP3    H133353   2.197   4.247   6.691
11132TIP3    H233354   2.212   4.380   6.619
11133TIP3   OH233355   3.020   5.276   6.309
11133TIP3    H133356   3.050   5.210   6.246
11133TIP3    H233357   3.014   5.229   6.392
11134TIP3   OH233358   2.902   4.756   6.633
11134TIP3    H133359   2.943   4.677   6.597
11134TIP3    H233360   2.976   4.810   6.662
11135TIP3   OH233361   3.936   4.071   6.642
11135TIP3    H133362   3.956   4.156   6.682
11135TIP3    H233363   3.963   4.080   6.551
11136TIP3   OH233364   3.321   4.244   6.670
11136TIP3    H133365   3.358   4.159   6.695
11136TIP3    H233366   3.284   4.229   6.583
11137TIP3   OH233367   2.671   3.904   6.632
11137TIP3    H133368   2.651   3.976   6.572
11137TIP3    H233369   2.619   3.831   6.600
11138TIP3   OH233370   3.367   4.003   6.261
11138TIP3    H133371   3.433   3.994   6.330
11138TIP3    H233372   3.416   4.036   6.186
11139TIP3   OH233373   2.296   4.112   6.755
11139TIP3    H133374   2.379   4.095   6.800
11139TIP3    H233375   2.301   4.060   6.675
11140TIP3   OH233376   2.720   4.313   6.571
11140TIP3    H133377   2.814   4.297   6.577
11140TIP3    H233378   2.684   4.232   6.535
11141TIP3   OH233379   3.997   4.290   6.813
11141TIP3    H133380   3.909   4.324   6.802
11141TIP3    H233381   4.019   4.308   6.905
11142TIP3   OH233382   5.490   7.906   0.136
11142TIP3    H133383   5.434   7.939   0.066
11142TIP3    H233384   5.440   7.922   0.216
11143TIP3   OH233385   2.979   4.747   6.086
11143TIP3    H133386   2.951   4.729   5.996
11143TIP3    H233387   2.936   4.830   6.107
11144TIP3   OH233388   2.754   4.678   6.853
11144TIP3    H133389   2.697   4.747   6.887
11144TIP3    H233390   2.797   4.718   6.777
11145TIP3   OH233391   3.534   4.022   6.477
11145TIP3    H133392   3.497   3.997   6.562
11145TIP3    H233393   3.592   4.095   6.496
11146TIP3   OH233394   2.539   4.011   6.852
11146TIP3    H133395   2.596   4.084   6.876
11146TIP3    H233396   2.586   3.968   6.780
11147TIP3   OH233397   8.258   0.871   0.015
11147TIP3    H133398   8.241   0.960  -0.017
11147TIP3    H233399   8.181   0.850   0.068
11148TIP3   OH233400   1.972   4.578   6.206
11148TIP3    H133401   1.937   4.595   6.118
11148TIP3    H233402   1.998   4.664   6.239
11149TIP3   OH233403   3.419   5.083   6.448
11149TIP3    H133404   3.332   5.075   6.487
11149TIP3    H233405   3.416   5.165   6.398
11150TIP3   OH233406   3.732   3.975   6.816
11150TIP3    H133407   3.645   3.993   6.779
11150TIP3    H233408   3.793   3.998   6.746
11151TIP3   OH233409   2.998   3.597   6.803
11151TIP3    H133410   2.990   3.505   6.828
11151TIP3    H233411   2.921   3.639   6.843
11152TIP3   OH233412   3.114   5.117   6.099
11152TIP3    H133413   3.164   5.037   6.087
11152TIP3    H233414   3.173   5.187   6.070
11153TIP3   OH233415   3.267   4.899   6.047
11153TIP3    H133416   3.259   4.819   5.994
11153TIP3    H233417   3.305   4.869   6.129
11154TIP3   OH233418   3.665   4.985   6.773
11154TIP3    H133419   3.626   4.910   6.729
11154TIP3    H233420   3.631   5.062   6.727
11155TIP3   OH233421   2.931   4.380   6.060
11155TIP3    H133422   2.850   4.428   6.039
11155TIP3    H233423   2.978   4.376   5.977
11156TIP3   OH233424   2.902   4.179   5.759
11156TIP3    H133425   2.968   4.229   5.808
11156TIP3    H233426   2.952   4.116   5.708
11157TIP3   OH233427   3.820   4.645   6.661
11157TIP3    H133428   3.735   4.685   6.645
11157TIP3    H233429   3.866   4.652   6.577
11158TIP3   OH233430   3.290   4.473   6.020
11158TIP3    H133431   3.236   4.499   6.095
11158TIP3    H233432   3.372   4.442   6.059
11159TIP3   OH233433   0.685   0.494   0.013
11159TIP3    H133434   0.679   0.573   0.067
11159TIP3    H233435   0.602   0.490  -0.034
11160TIP3   OH233436   2.516   4.449   6.431
11160TIP3    H133437   2.479   4.390   6.365
11160TIP3    H233438   2.590   4.400   6.467
11161TIP3   OH233439   2.647   4.874   6.567
11161TIP3    H133440   2.623   4.856   6.476
11161TIP3    H233441   2.734   4.834   6.577
11162TIP3   OH233442   2.624   4.441   6.800
11162TIP3    H133443   2.660   4.405   6.719
11162TIP3    H233444   2.674   4.521   6.815
11163TIP3   OH233445   3.181   5.076   6.575
11163TIP3    H133446   3.164   5.155   6.625
11163TIP3    H233447   3.161   5.004   6.635
11164TIP3   OH233448   8.458   0.971   0.179
11164TIP3    H133449   8.400   1.031   0.225
11164TIP3    H233450   8.400   0.920   0.122
11165TIP3   OH233451   3.120   4.329   5.859
11165TIP3    H133452   3.179   4.385   5.910
11165TIP3    H233453   3.148   4.342   5.768
11166TIP3   OH233454   8.214   0.529   0.311
11166TIP3    H133455   8.215   0.622   0.335
11166TIP3    H233456   8.120   0.507   0.306
11167TIP3   OH233457   2.864   5.002   6.114
11167TIP3    H133458   2.949   5.045   6.116
11167TIP3    H233459   2.808   5.059   6.061
11168TIP3   OH233460   8.249   1.133   0.263
11168TIP3    H133461   8.223   1.141   0.171
11168TIP3    H233462   8.168   1.117   0.310
11169TIP3   OH233463   3.634   3.556   5.905
11169TIP3    H133464   3.556   3.575   5.957
11169TIP3    H233465   3.646   3.633   5.849
11170TIP3   OH233466   2.391   4.293   6.230
11170TIP3    H133467   2.315   4.337   6.192
11170TIP3    H233468   2.362   4.203   6.243
11171TIP3   OH233469   3.453   4.931   5.459
11171TIP3    H133470   3.452   5.024   5.438
11171TIP3    H233471   3.543   4.903   5.440
11172TIP3   OH233472   7.837   0.686   0.211
11172TIP3    H133473   7.768   0.667   0.147
11172TIP3    H233474   7.873   0.600   0.234
11173TIP3   OH233475   2.034   4.874   6.788
11173TIP3    H133476   2.129   4.869   6.776
11173TIP3    H233477   2.021   4.951   6.844
11174TIP3   OH233478   0.150   1.110   0.037
11174TIP3    H133479   0.144   1.201   0.065
11174TIP3    H233480   0.081   1.066   0.087
11175TIP3   OH233481   2.757   5.226   5.933
11175TIP3    H133482   2.711   5.205   5.851
11175TIP3    H233483   2.721   5.310   5.960
11176TIP3   OH233484   2.192   5.080   6.314
11176TIP3    H133485   2.237   5.073   6.398
11176TIP3    H233486   2.145   4.997   6.305
11177TIP3   OH233487   2.958   5.151   5.561
11177TIP3    H133488   3.009   5.078   5.526
11177TIP3    H233489   2.993   5.163   5.650
11178TIP3   OH233490   3.011   5.197   5.831
11178TIP3    H133491   2.925   5.201   5.873
11178TIP3    H233492   3.069   5.159   5.898
11179TIP3   OH233493   0.928   0.446   0.178
11179TIP3    H133494   0.845   0.449   0.131
11179TIP3    H233495   0.950   0.353   0.183
11180TIP3   OH233496   8.040   0.869   0.184
11180TIP3    H133497   8.089   0.858   0.265
11180TIP3    H233498   7.968   0.807   0.191
11181TIP3   OH233499   2.761   3.690   6.926
11181TIP3    H133500   2.677   3.659   6.893
11181TIP3    H233501   2.739   3.768   6.977
11182TIP3   OH233502   6.137   7.818   0.186
11182TIP3    H133503   6.206   7.791   0.246
11182TIP3    H233504   6.056   7.796   0.232
11183TIP3   OH233505   0.697   0.231   0.107
11183TIP3    H133506   0.653   0.225   0.192
11183TIP3    H233507   0.673   0.317   0.073
11184TIP3   OH233508   3.212   4.358   5.608
11184TIP3    H133509   3.167   4.336   5.527
11184TIP3    H233510   3.296   4.395   5.579
11185TIP3   OH233511   2.915   3.726   5.907
11185TIP3    H133512   2.877   3.732   5.994
11185TIP3    H233513   2.874   3.649   5.868
11186TIP3   OH233514   8.365   0.211   0.005
11186TIP3    H133515   8.317   0.218   0.088
11186TIP3    H233516   8.344   0.291  -0.043
11187TIP3   OH233517   2.579   4.100   6.462
11187TIP3    H133518   2.490   4.074   6.487
11187TIP3    H233519   2.590   4.066   6.374
11188TIP3   OH233520   3.061   4.176   6.192
11188TIP3    H133521   3.012   4.247   6.151
11188TIP3    H233522   3.118   4.143   6.123
11189TIP3   OH233523   0.420   0.454   0.320
11189TIP3    H133524   0.387   0.383   0.375
11189TIP3    H233525   0.512   0.463   0.344
11190TIP3   OH233526   3.230   4.193   6.416
11190TIP3    H133527   3.161   4.216   6.353
11190TIP3    H233528   3.275   4.118   6.377
11191TIP3   OH233529   8.196   0.229   0.221
11191TIP3    H133530   8.217   0.290   0.292
11191TIP3    H233531   8.181   0.146   0.265
11192TIP3   OH233532   2.572   3.715   5.870
11192TIP3    H133533   2.564   3.715   5.966
11192TIP3    H233534   2.493   3.759   5.839
11193TIP3   OH233535   2.119   3.756   6.741
11193TIP3    H133536   2.193   3.791   6.791
11193TIP3    H233537   2.158   3.731   6.657
11194TIP3   OH233538   2.041   3.733   6.253
11194TIP3    H133539   2.087   3.768   6.176
11194TIP3    H233540   1.978   3.801   6.276
11195TIP3   OH233541   3.262   4.442   6.844
11195TIP3    H133542   3.289   4.376   6.781
11195TIP3    H233543   3.222   4.391   6.916
11196TIP3   OH233544   2.940   3.897   6.518
11196TIP3    H133545   2.862   3.895   6.574
11196TIP3    H233546   3.013   3.885   6.578
11197TIP3   OH233547   2.341   3.973   6.523
11197TIP3    H133548   2.252   3.977   6.488
11197TIP3    H233549   2.369   3.883   6.506
11198TIP3   OH233550   2.595   3.975   6.218
11198TIP3    H133551   2.689   3.985   6.205
11198TIP3    H233552   2.557   3.994   6.132
11199TIP3   OH233553   3.401   3.982   6.726
11199TIP3    H133554   3.377   3.999   6.817
11199TIP3    H233555   3.335   3.919   6.696
11200TIP3   OH233556   2.471   4.005   5.975
11200TIP3    H133557   2.407   3.954   5.924
11200TIP3    H233558   2.526   4.047   5.909
11201TIP3   OH233559   3.586   5.683   6.942
11201TIP3    H133560   3.576   5.706   6.849
11201TIP3    H233561   3.660   5.736   6.971
11202TIP3   OH233562   8.197   0.789   0.418
11202TIP3    H133563   8.277   0.809   0.466
11202TIP3    H233564   8.128   0.793   0.484
11203TIP3   OH233565   2.993   4.259   6.622
11203TIP3    H133566   3.055   4.206   6.573
11203TIP3    H233567   2.990   4.218   6.709
11204TIP3   OH233568   2.489   3.727   6.510
11204TIP3    H133569   2.458   3.651   6.559
11204TIP3    H233570   2.522   3.690   6.428
11205TIP3   OH233571   2.965   4.163   6.887
11205TIP3    H133572   2.877   4.191   6.912
11205TIP3    H233573   3.023   4.213   6.944
11206TIP3   OH233574   2.694   4.522   5.999
11206TIP3    H133575   2.622   4.463   5.979
11206TIP3    H233576   2.672   4.559   6.084
11207TIP3   OH233577   3.583   4.776   6.614
11207TIP3    H133578   3.612   4.824   6.537
11207TIP3    H233579   3.504   4.731   6.586
11208TIP3   OH233580   3.166   3.831   5.902
11208TIP3    H133581   3.073   3.808   5.898
11208TIP3    H233582   3.167   3.926   5.911
11209TIP3   OH233583   0.311   0.869   0.072
11209TIP3    H133584   0.318   0.840   0.163
11209TIP3    H233585   0.250   0.943   0.075
11210TIP3   OH233586   3.224   4.096   5.976
11210TIP3    H133587   3.319   4.099   5.982
11210TIP3    H233588   3.201   4.172   5.922
11211TIP3   OH233589   2.396   4.547   6.659
11211TIP3    H133590   2.431   4.523   6.574
11211TIP3    H233591   2.456   4.507   6.722
11212TIP3   OH233592   2.851   4.680   5.841
11212TIP3    H133593   2.803   4.764   5.841
11212TIP3    H233594   2.796   4.622   5.894
11213TIP3   OH233595   7.945   0.462   0.344
11213TIP3    H133596   7.947   0.438   0.436
11213TIP3    H233597   7.871   0.411   0.308
11214TIP3   OH233598   0.176   0.591   0.366
11214TIP3    H133599   0.110   0.529   0.334
11214TIP3    H233600   0.259   0.554   0.336
11215TIP3   OH233601   3.256   5.147   6.892
11215TIP3    H133602   3.162   5.129   6.898
11215TIP3    H233603   3.280   5.180   6.978
11216TIP3   OH233604   3.646   4.184   5.796
11216TIP3    H133605   3.591   4.137   5.734
11216TIP3    H233606   3.651   4.273   5.761
11217TIP3   OH233607   3.377   4.999   5.722
11217TIP3    H133608   3.349   4.927   5.777
11217TIP3    H233609   3.395   4.959   5.637
11218TIP3   OH233610   3.360   4.633   6.517
11218TIP3    H133611   3.269   4.609   6.537
11218TIP3    H233612   3.397   4.555   6.477
11219TIP3   OH233613   2.510   4.871   6.318
11219TIP3    H133614   2.511   4.948   6.261
11219TIP3    H233615   2.417   4.851   6.330
11220TIP3   OH233616   2.072   4.157   6.023
11220TIP3    H133617   2.116   4.239   6.045
11220TIP3    H233618   1.992   4.158   6.077
11221TIP3   OH233619   2.608   4.625   6.233
11221TIP3    H133620   2.590   4.715   6.261
11221TIP3    H233621   2.579   4.571   6.307
11222TIP3   OH233622   2.791   5.195   6.774
11222TIP3    H133623   2.827   5.268   6.723
11222TIP3    H233624   2.866   5.161   6.822
11223TIP3   OH233625   2.424   5.099   6.164
11223TIP3    H133626   2.338   5.103   6.206
11223TIP3    H233627   2.457   5.188   6.168
11224TIP3   OH233628   3.145   4.849   6.736
11224TIP3    H133629   3.145   4.850   6.832
11224TIP3    H233630   3.206   4.780   6.713
11225TIP3   OH233631   3.140   4.736   5.621
11225TIP3    H133632   3.186   4.716   5.702
11225TIP3    H233633   3.055   4.693   5.629
11226TIP3   OH233634   3.403   5.361   6.781
11226TIP3    H133635   3.334   5.298   6.798
11226TIP3    H233636   3.370   5.416   6.710
11227TIP3   OH233637   3.459   5.205   5.423
11227TIP3    H133638   3.487   5.269   5.358
11227TIP3    H233639   3.385   5.246   5.468
11228TIP3   OH233640   5.333   7.997   0.348
11228TIP3    H133641   5.239   7.984   0.359
11228TIP3    H233642   5.373   7.942   0.416
11229TIP3   OH233643   3.309   4.684   5.840
11229TIP3    H133644   3.292   4.610   5.898
11229TIP3    H233645   3.402   4.678   5.821
11230TIP3   OH233646   7.880   1.072  -0.003
11230TIP3    H133647   7.932   1.006   0.043
11230TIP3    H233648   7.900   1.154   0.042
11231TIP3   OH233649   2.487   4.701   5.624
11231TIP3    H133650   2.499   4.610   5.596
11231TIP3    H233651   2.471   4.696   5.718
11232TIP3   OH233652   2.434   4.718   5.897
11232TIP3    H133653   2.507   4.689   5.950
11232TIP3    H233654   2.436   4.814   5.904
11233TIP3   OH233655   2.169   4.407   6.106
11233TIP3    H133656   2.104   4.453   6.158
11233TIP3    H233657   2.189   4.467   6.034
11234TIP3   OH233658   0.498   0.038   0.047
11234TIP3    H133659   0.579   0.078   0.081
11234TIP3    H233660   0.487  -0.042   0.098
11235TIP3   OH233661   3.219   3.784   6.171
11235TIP3    H133662   3.199   3.801   6.079
11235TIP3    H233663   3.262   3.864   6.201
11236TIP3   OH233664   2.705   4.909   5.841
11236TIP3    H133665   2.620   4.933   5.876
11236TIP3    H233666   2.727   4.980   5.780
11237TIP3   OH233667   2.876   3.983   6.261
11237TIP3    H133668   2.938   4.050   6.235
11237TIP3    H233669   2.897   3.964   6.353
11238TIP3   OH233670   0.337   0.269   0.103
11238TIP3    H133671   0.363   0.309   0.185
11238TIP3    H233672   0.386   0.187   0.099
11239TIP3   OH233673   3.034   3.684   6.352
11239TIP3    H133674   3.013   3.762   6.403
11239TIP3    H233675   3.102   3.713   6.291
11240TIP3   OH233676   2.452   4.992   5.912
11240TIP3    H133677   2.431   5.063   5.851
11240TIP3    H233678   2.441   5.031   5.999
11241TIP3   OH233679   2.547   3.703   6.150
11241TIP3    H133680   2.537   3.792   6.181
11241TIP3    H233681   2.641   3.686   6.156
11242TIP3   OH233682   0.958   0.167   0.087
11242TIP3    H133683   0.864   0.181   0.100
11242TIP3    H233684   0.963   0.104   0.015
11243TIP3   OH233685   3.452   4.381   6.420
11243TIP3    H133686   3.376   4.324   6.428
11243TIP3    H233687   3.520   4.337   6.471
11244TIP3   OH233688   2.184   4.593   5.893
11244TIP3    H133689   2.256   4.655   5.903
11244TIP3    H233690   2.217   4.528   5.830
11245TIP3   OH233691   2.104   3.881   6.032
11245TIP3    H133692   2.112   3.976   6.034
11245TIP3    H233693   2.052   3.863   5.954
11246TIP3   OH233694   3.432   5.350   6.360
11246TIP3    H133695   3.387   5.400   6.291
11246TIP3    H233696   3.525   5.362   6.341
11247TIP3   OH233697   2.497   3.612   6.886
11247TIP3    H133698   2.468   3.578   6.801
11247TIP3    H233699   2.491   3.537   6.945
11248TIP3   OH233700   2.026   4.850   6.287
11248TIP3    H133701   1.977   4.882   6.362
11248TIP3    H233702   1.986   4.892   6.211
11249TIP3   OH233703   7.884   1.382   0.414
11249TIP3    H133704   7.966   1.387   0.463
11249TIP3    H233705   7.869   1.288   0.403
11250TIP3   OH233706   8.347   1.306   0.455
11250TIP3    H133707   8.440   1.284   0.467
11250TIP3    H233708   8.318   1.248   0.384
11251TIP3   OH233709   2.651   4.899   5.520
11251TIP3    H133710   2.602   4.828   5.561
11251TIP3    H233711   2.725   4.856   5.478
11252TIP3   OH233712   0.478   1.236   0.203
11252TIP3    H133713   0.487   1.168   0.269
11252TIP3    H233714   0.551   1.295   0.220
11253TIP3   OH233715   3.091   4.942   5.443
11253TIP3    H133716   3.123   4.877   5.505
11253TIP3    H233717   3.150   4.935   5.368
11254TIP3   OH233718   7.990   0.779   0.605
11254TIP3    H133719   8.009   0.685   0.612
11254TIP3    H233720   7.904   0.782   0.563
11255TIP3   OH233721   2.310   4.400   5.748
11255TIP3    H133722   2.362   4.374   5.824
11255TIP3    H233723   2.374   4.411   5.678
11256TIP3   OH233724   0.109   0.866   0.384
11256TIP3    H133725   0.062   0.886   0.303
11256TIP3    H233726   0.140   0.776   0.373
11257TIP3   OH233727   2.871   4.624   5.573
11257TIP3    H133728   2.853   4.636   5.666
11257TIP3    H233729   2.860   4.530   5.558
11258TIP3   OH233730   3.421   4.895   6.943
11258TIP3    H133731   3.448   4.973   6.894
11258TIP3    H233732   3.327   4.906   6.955
11259TIP3   OH233733   8.113   0.525   0.606
11259TIP3    H133734   8.189   0.504   0.552
11259TIP3    H233735   8.149   0.551   0.690
11260TIP3   OH233736   2.490   4.337   5.956
11260TIP3    H133737   2.472   4.302   6.043
11260TIP3    H233738   2.537   4.266   5.911
11261TIP3   OH233739   8.459   0.410   0.266
11261TIP3    H133740   8.376   0.457   0.274
11261TIP3    H233741   8.496   0.440   0.183
11262TIP3   OH233742   2.625   4.150   5.799
11262TIP3    H133743   2.597   4.151   5.708
11262TIP3    H233744   2.721   4.154   5.795
11263TIP3   OH233745   0.467   0.788   0.366
11263TIP3    H133746   0.535   0.744   0.314
11263TIP3    H233747   0.460   0.735   0.446
11264TIP3   OH233748   3.436   4.453   5.473
11264TIP3    H133749   3.418   4.406   5.392
11264TIP3    H233750   3.406   4.542   5.457
11265TIP3   OH233751   0.069   0.183   0.369
11265TIP3    H133752   0.071   0.107   0.310
11265TIP3    H233753   0.030   0.253   0.316
11266TIP3   OH233754   5.746   7.994   0.173
11266TIP3    H133755   5.773   8.028   0.088
11266TIP3    H233756   5.655   7.966   0.160
11267TIP3   OH233757   0.091   0.507   0.052
11267TIP3    H133758   0.179   0.519   0.016
11267TIP3    H233759   0.037   0.569   0.003
11268TIP3   OH233760   0.680   0.465   0.431
11268TIP3    H133761   0.710   0.375   0.442
11268TIP3    H233762   0.760   0.514   0.413
11269TIP3   OH233763   0.726   0.729   0.170
11269TIP3    H133764   0.670   0.787   0.118
11269TIP3    H233765   0.815   0.749   0.139
11270TIP3   OH233766   8.453   0.301   0.600
11270TIP3    H133767   8.386   0.235   0.620
11270TIP3    H233768   8.482   0.279   0.511
11271TIP3   OH233769   5.868   7.753   0.244
11271TIP3    H133770   5.824   7.835   0.222
11271TIP3    H233771   5.799   7.687   0.239
11272TIP3   OH233772   0.326   0.239   0.452
11272TIP3    H133773   0.321   0.221   0.546
11272TIP3    H233774   0.240   0.214   0.418
11273TIP3   OH233775   0.575   0.184   0.340
11273TIP3    H133776   0.495   0.182   0.392
11273TIP3    H233777   0.643   0.150   0.399
11274TIP3   OH233778   0.810   0.138   0.486
11274TIP3    H133779   0.824   0.044   0.494
11274TIP3    H233780   0.807   0.170   0.577
11275TIP3   OH233781   8.302   0.082   0.661
11275TIP3    H133782   8.313   0.004   0.606
11275TIP3    H233783   8.350   0.063   0.741
11276TIP3   OH233784   5.964   7.772   0.494
11276TIP3    H133785   6.008   7.688   0.509
11276TIP3    H233786   5.924   7.763   0.408
11277TIP3   OH233787   6.048   7.993   0.617
11277TIP3    H133788   6.030   7.914   0.566
11277TIP3    H233789   5.965   8.041   0.618
11278TIP3   OH233790   2.445   5.200   5.727
11278TIP3    H133791   2.535   5.179   5.702
11278TIP3    H233792   2.409   5.247   5.652
11279TIP3   OH233793   1.912   4.577   5.920
11279TIP3    H133794   2.006   4.592   5.912
11279TIP3    H233795   1.898   4.491   5.880
11280TIP3   OH233796   1.818   5.169   6.367
11280TIP3    H133797   1.754   5.114   6.322
11280TIP3    H233798   1.863   5.110   6.427
11281TIP3   OH233799   1.959   5.006   6.541
11281TIP3    H133800   1.949   4.938   6.607
11281TIP3    H233801   2.010   5.074   6.585
11282TIP3   OH233802   3.700   5.408   6.335
11282TIP3    H133803   3.713   5.449   6.420
11282TIP3    H233804   3.755   5.458   6.276
11283TIP3   OH233805   3.698   5.459   6.614
11283TIP3    H133806   3.660   5.371   6.617
11283TIP3    H233807   3.775   5.453   6.671
11284TIP3   OH233808   0.940   1.133   0.235
11284TIP3    H133809   0.868   1.135   0.298
11284TIP3    H233810   0.981   1.219   0.243
11285TIP3   OH233811   3.586   4.651   5.811
11285TIP3    H133812   3.647   4.718   5.780
11285TIP3    H233813   3.630   4.612   5.886
11286TIP3   OH233814   3.712   4.508   6.013
11286TIP3    H133815   3.644   4.467   6.066
11286TIP3    H233816   3.776   4.541   6.076
11287TIP3   OH233817   3.783   4.919   6.458
11287TIP3    H133818   3.828   4.845   6.416
11287TIP3    H233819   3.778   4.986   6.390
11288TIP3   OH233820   3.581   5.206   6.639
11288TIP3    H133821   3.513   5.252   6.688
11288TIP3    H233822   3.535   5.165   6.566
11289TIP3   OH233823   3.635   4.425   5.659
11289TIP3    H133824   3.566   4.425   5.592
11289TIP3    H233825   3.616   4.502   5.713
11290TIP3   OH233826   3.494   4.074   5.597
11290TIP3    H133827   3.443   4.115   5.527
11290TIP3    H233828   3.482   3.980   5.583
11291TIP3   OH233829   3.514   4.366   6.149
11291TIP3    H133830   3.519   4.272   6.135
11291TIP3    H233831   3.497   4.376   6.243
11292TIP3   OH233832   2.141   4.442   6.909
11292TIP3    H133833   2.131   4.403   6.823
11292TIP3    H233834   2.235   4.437   6.927
11293TIP3   OH233835   0.991   0.797   0.020
11293TIP3    H133836   1.053   0.729   0.046
11293TIP3    H233837   0.935   0.755  -0.046
11294TIP3   OH233838   1.145   0.576   0.077
11294TIP3    H133839   1.070   0.527   0.113
11294TIP3    H233840   1.220   0.518   0.092
11295TIP3   OH233841   3.451   3.801   5.563
11295TIP3    H133842   3.515   3.778   5.631
11295TIP3    H233843   3.369   3.765   5.595
11296TIP3   OH233844   3.515   4.092   6.034
11296TIP3    H133845   3.558   4.007   6.048
11296TIP3    H233846   3.559   4.129   5.958
11297TIP3   OH233847   3.668   4.256   6.552
11297TIP3    H133848   3.749   4.274   6.504
11297TIP3    H233849   3.683   4.293   6.639
11298TIP3   OH233850   3.741   4.407   6.780
11298TIP3    H133851   3.665   4.433   6.832
11298TIP3    H233852   3.770   4.487   6.737
11299TIP3   OH233853   8.034   0.130   0.627
11299TIP3    H133854   8.129   0.123   0.634
11299TIP3    H233855   8.001   0.046   0.657
11300TIP3   OH233856   7.034   8.015   0.380
11300TIP3    H133857   7.096   7.954   0.341
11300TIP3    H233858   6.997   8.063   0.306
11301TIP3   OH233859   3.625   3.840   6.087
11301TIP3    H133860   3.669   3.824   6.170
11301TIP3    H233861   3.562   3.768   6.078
11302TIP3   OH233862   2.328   3.828   6.913
11302TIP3    H133863   2.383   3.749   6.916
11302TIP3    H233864   2.390   3.899   6.896
11303TIP3   OH233865   7.782   0.080   0.030
11303TIP3    H133866   7.833   0.077  -0.051
11303TIP3    H233867   7.822   0.151   0.080
11304TIP3   OH233868   1.220   0.117   0.181
11304TIP3    H133869   1.135   0.154   0.204
11304TIP3    H233870   1.199   0.040   0.127
11305TIP3   OH233871   3.680   3.759   5.723
11305TIP3    H133872   3.724   3.696   5.666
11305TIP3    H233873   3.739   3.834   5.725
11306TIP3   OH233874   2.103   3.600   6.482
11306TIP3    H133875   2.016   3.586   6.517
11306TIP3    H233876   2.090   3.653   6.404
11307TIP3   OH233877   3.262   5.315   5.990
11307TIP3    H133878   3.315   5.301   5.912
11307TIP3    H233879   3.308   5.384   6.039
11308TIP3   OH233880   5.198   7.704   0.308
11308TIP3    H133881   5.162   7.711   0.396
11308TIP3    H233882   5.129   7.739   0.251
11309TIP3   OH233883   8.026   1.104   0.428
11309TIP3    H133884   7.933   1.083   0.417
11309TIP3    H233885   8.043   1.091   0.521
11310TIP3   OH233886   2.561   5.153   6.920
11310TIP3    H133887   2.510   5.227   6.888
11310TIP3    H233888   2.646   5.163   6.877
11311TIP3   OH233889   0.138   1.378   0.116
11311TIP3    H133890   0.175   1.371   0.204
11311TIP3    H233891   0.200   1.432   0.067
11312TIP3   OH233892   3.158   5.544   6.928
11312TIP3    H133893   3.221   5.490   6.880
11312TIP3    H233894   3.212   5.600   6.984
11313TIP3   OH233895   6.797   7.880   0.079
11313TIP3    H133896   6.708   7.866   0.047
11313TIP3    H233897   6.838   7.793   0.073
11314TIP3   OH233898   7.892   1.397   0.024
11314TIP3    H133899   7.800   1.415   0.002
11314TIP3    H233900   7.914   1.461   0.091
11315TIP3   OH233901   2.455   5.385   6.814
11315TIP3    H133902   2.372   5.393   6.861
11315TIP3    H233903   2.434   5.410   6.724
11316TIP3   OH233904   2.872   5.403   6.606
11316TIP3    H133905   2.802   5.415   6.542
11316TIP3    H233906   2.884   5.489   6.647
11317TIP3   OH233907   3.136   5.339   6.657
11317TIP3    H133908   3.045   5.359   6.637
11317TIP3    H233909   3.186   5.406   6.610
11318TIP3   OH233910   3.334   5.515   6.558
11318TIP3    H133911   3.334   5.602   6.519
11318TIP3    H233912   3.367   5.458   6.488
11319TIP3   OH233913   2.135   5.180   6.689
11319TIP3    H133914   2.158   5.153   6.777
11319TIP3    H233915   2.206   5.148   6.634
11320TIP3   OH233916   2.337   5.066   6.548
11320TIP3    H133917   2.348   4.982   6.593
11320TIP3    H233918   2.424   5.105   6.549
11321TIP3   OH233919   2.606   5.151   6.566
11321TIP3    H133920   2.624   5.059   6.551
11321TIP3    H233921   2.658   5.174   6.643
11322TIP3   OH233922   3.169   3.801   6.652
11322TIP3    H133923   3.130   3.728   6.700
11322TIP3    H233924   3.238   3.760   6.599
11323TIP3   OH233925   3.673   3.711   6.547
11323TIP3    H133926   3.709   3.758   6.472
11323TIP3    H233927   3.579   3.727   6.542
11324TIP3   OH233928   3.784   3.788   6.308
11324TIP3    H133929   3.853   3.729   6.278
11324TIP3    H233930   3.820   3.876   6.295
11325TIP3   OH233931   2.409   3.501   6.650
11325TIP3    H133932   2.319   3.468   6.656
11325TIP3    H233933   2.462   3.422   6.644
11326TIP3   OH233934   2.218   3.401   6.306
11326TIP3    H133935   2.248   3.451   6.229
11326TIP3    H233936   2.187   3.468   6.367
11327TIP3   OH233937   2.879   3.543   6.545
11327TIP3    H133938   2.929   3.588   6.476
11327TIP3    H233939   2.922   3.569   6.626
11328TIP3   OH233940   3.388   3.688   6.521
11328TIP3    H133941   3.397   3.653   6.433
11328TIP3    H233942   3.389   3.611   6.578
11329TIP3   OH233943   3.440   3.630   6.088
11329TIP3    H133944   3.358   3.675   6.110
11329TIP3    H233945   3.429   3.543   6.127
11330TIP3   OH233946   1.911   4.974   6.072
11330TIP3    H133947   1.827   4.937   6.044
11330TIP3    H233948   1.910   5.064   6.039
11331TIP3   OH233949   2.333   3.535   6.070
11331TIP3    H133950   2.378   3.473   6.012
11331TIP3    H233951   2.403   3.592   6.103
11332TIP3   OH233952   2.822   3.730   6.168
11332TIP3    H133953   2.881   3.678   6.222
11332TIP3    H233954   2.840   3.821   6.194
11333TIP3   OH233955   2.702   5.127   5.661
11333TIP3    H133956   2.786   5.154   5.625
11333TIP3    H233957   2.674   5.054   5.605
11334TIP3   OH233958   3.410   5.268   5.760
11334TIP3    H133959   3.404   5.173   5.752
11334TIP3    H233960   3.366   5.301   5.682
11335TIP3   OH233961   5.493   7.853   0.544
11335TIP3    H133962   5.425   7.792   0.573
11335TIP3    H233963   5.572   7.824   0.589
11336TIP3   OH233964   5.727   7.797   0.703
11336TIP3    H133965   5.801   7.775   0.647
11336TIP3    H233966   5.731   7.734   0.775
11337TIP3   OH233967   2.010   4.975   5.719
11337TIP3    H133968   2.014   4.979   5.815
11337TIP3    H233969   2.090   4.928   5.694
11338TIP3   OH233970   6.540   7.883   0.495
11338TIP3    H133971   6.557   7.856   0.585
11338TIP3    H233972   6.625   7.877   0.452
11339TIP3   OH233973   3.625   5.408   6.946
11339TIP3    H133974   3.551   5.381   6.892
11339TIP3    H233975   3.617   5.503   6.952
11340TIP3   OH233976   4.901   4.793   5.695
11340TIP3    H133977   4.869   4.881   5.671
11340TIP3    H233978   4.831   4.734   5.667
11341TIP3   OH233979   4.898   4.786   6.113
11341TIP3    H133980   4.949   4.768   6.192
11341TIP3    H233981   4.856   4.703   6.091
11342TIP3   OH233982   4.199   4.655   6.465
11342TIP3    H133983   4.236   4.598   6.533
11342TIP3    H233984   4.273   4.680   6.410
11343TIP3   OH233985   5.164   5.093   5.788
11343TIP3    H133986   5.152   5.027   5.856
11343TIP3    H233987   5.187   5.173   5.835
11344TIP3   OH233988   4.188   5.089   6.170
11344TIP3    H133989   4.172   4.994   6.170
11344TIP3    H233990   4.282   5.097   6.152
11345TIP3   OH233991   3.874   4.286   5.939
11345TIP3    H133992   3.832   4.369   5.961
11345TIP3    H233993   3.806   4.234   5.898
11346TIP3   OH233994   3.940   4.581   6.158
11346TIP3    H133995   3.991   4.504   6.183
11346TIP3    H233996   4.002   4.636   6.110
11347TIP3   OH233997   4.818   5.531   5.798
11347TIP3    H133998   4.847   5.466   5.733
11347TIP3    H233999   4.819   5.484   5.881
11348TIP3   OH234000   4.701   5.009   6.125
11348TIP3    H134001   4.744   4.930   6.091
11348TIP3    H234002   4.774   5.065   6.154
11349TIP3   OH234003   5.731   4.331   6.134
11349TIP3    H134004   5.752   4.415   6.175
11349TIP3    H234005   5.753   4.343   6.042
11350TIP3   OH234006   5.115   4.499   6.157
11350TIP3    H134007   5.153   4.415   6.182
11350TIP3    H234008   5.078   4.484   6.071
11351TIP3   OH234009   4.467   4.160   6.118
11351TIP3    H134010   4.447   4.232   6.058
11351TIP3    H234011   4.415   4.087   6.085
11352TIP3   OH234012   5.163   4.260   5.749
11352TIP3    H134013   5.228   4.251   5.818
11352TIP3    H234014   5.212   4.293   5.674
11353TIP3   OH234015   4.092   4.366   6.242
11353TIP3    H134016   4.175   4.348   6.286
11353TIP3    H234017   4.096   4.316   6.161
11354TIP3   OH234018   4.514   4.569   6.061
11354TIP3    H134019   4.608   4.553   6.066
11354TIP3    H234020   4.478   4.489   6.024
11355TIP3   OH234021   5.796   4.549   6.303
11355TIP3    H134022   5.708   4.585   6.296
11355TIP3    H234023   5.830   4.584   6.385
11356TIP3   OH234024   4.449   4.159   6.569
11356TIP3    H134025   4.398   4.191   6.495
11356TIP3    H234026   4.393   4.173   6.645
11357TIP3   OH234027   4.784   5.006   5.564
11357TIP3    H134028   4.749   4.986   5.478
11357TIP3    H234029   4.737   5.086   5.590
11358TIP3   OH234030   4.550   4.930   6.343
11358TIP3    H134031   4.496   5.001   6.377
11358TIP3    H234032   4.597   4.969   6.269
11359TIP3   OH234033   5.329   4.278   5.965
11359TIP3    H134034   5.292   4.254   6.049
11359TIP3    H234035   5.387   4.352   5.984
11360TIP3   OH234036   4.336   4.264   6.339
11360TIP3    H134037   4.392   4.339   6.361
11360TIP3    H234038   4.382   4.221   6.266
11361TIP3   OH234039   4.392   5.134   6.448
11361TIP3    H134040   4.370   5.219   6.412
11361TIP3    H234041   4.319   5.112   6.505
11362TIP3   OH234042   3.766   4.833   5.693
11362TIP3    H134043   3.731   4.849   5.605
11362TIP3    H234044   3.791   4.920   5.725
11363TIP3   OH234045   5.206   5.340   5.930
11363TIP3    H134046   5.119   5.332   5.968
11363TIP3    H234047   5.205   5.423   5.883
11364TIP3   OH234048   5.528   4.226   6.304
11364TIP3    H134049   5.442   4.247   6.268
11364TIP3    H234050   5.590   4.252   6.235
11365TIP3   OH234051   4.793   3.853   6.292
11365TIP3    H134052   4.785   3.761   6.316
11365TIP3    H234053   4.717   3.895   6.332
11366TIP3   OH234054   4.910   5.373   5.587
11366TIP3    H134055   4.961   5.292   5.576
11366TIP3    H234056   4.968   5.442   5.557
11367TIP3   OH234057   5.062   5.153   5.537
11367TIP3    H134058   5.026   5.072   5.501
11367TIP3    H234059   5.103   5.127   5.619
11368TIP3   OH234060   5.439   5.233   6.275
11368TIP3    H134061   5.424   5.159   6.217
11368TIP3    H234062   5.423   5.310   6.220
11369TIP3   OH234063   4.727   4.635   5.542
11369TIP3    H134064   4.647   4.683   5.523
11369TIP3    H234065   4.775   4.632   5.459
11370TIP3   OH234066   4.699   4.434   5.239
11370TIP3    H134067   4.764   4.484   5.289
11370TIP3    H234068   4.749   4.369   5.191
11371TIP3   OH234069   5.627   4.891   6.136
11371TIP3    H134070   5.542   4.936   6.137
11371TIP3    H234071   5.661   4.906   6.048
11372TIP3   OH234072   5.085   4.724   5.505
11372TIP3    H134073   5.031   4.751   5.579
11372TIP3    H234074   5.168   4.696   5.545
11373TIP3   OH234075   5.315   4.753   6.443
11373TIP3    H134076   5.313   4.836   6.491
11373TIP3    H234077   5.232   4.752   6.395
11374TIP3   OH234078   4.311   4.706   5.917
11374TIP3    H134079   4.274   4.647   5.851
11374TIP3    H234080   4.384   4.657   5.954
11375TIP3   OH234081   4.444   5.128   6.056
11375TIP3    H134082   4.421   5.111   5.965
11375TIP3    H234083   4.531   5.089   6.066
11376TIP3   OH234084   4.415   4.698   6.287
11376TIP3    H134085   4.453   4.662   6.206
11376TIP3    H234086   4.466   4.777   6.305
11377TIP3   OH234087   4.967   5.332   6.059
11377TIP3    H134088   4.955   5.412   6.111
11377TIP3    H234089   4.953   5.261   6.121
11378TIP3   OH234090   4.592   5.240   6.607
11378TIP3    H134091   4.532   5.297   6.654
11378TIP3    H234092   4.536   5.188   6.549
11379TIP3   OH234093   4.917   4.584   5.338
11379TIP3    H134094   4.977   4.640   5.388
11379TIP3    H234095   4.944   4.594   5.247
11380TIP3   OH234096   4.353   4.798   6.708
11380TIP3    H134097   4.353   4.888   6.743
11380TIP3    H234098   4.261   4.773   6.706
11381TIP3   OH234099   4.660   5.256   5.599
11381TIP3    H134100   4.744   5.301   5.603
11381TIP3    H234101   4.604   5.315   5.549
11382TIP3   OH234102   4.373   5.389   6.692
11382TIP3    H134103   4.352   5.400   6.600
11382TIP3    H234104   4.292   5.355   6.731
11383TIP3   OH234105   5.430   3.811   5.393
11383TIP3    H134106   5.352   3.831   5.445
11383TIP3    H234107   5.443   3.888   5.338
11384TIP3   OH234108   4.186   4.550   5.715
11384TIP3    H134109   4.110   4.594   5.677
11384TIP3    H234110   4.157   4.460   5.728
11385TIP3   OH234111   5.245   5.186   4.943
11385TIP3    H134112   5.245   5.280   4.925
11385TIP3    H234113   5.336   5.159   4.926
11386TIP3   OH234114   3.946   4.953   6.685
11386TIP3    H134115   3.901   4.942   6.601
11386TIP3    H234116   4.001   4.875   6.694
11387TIP3   OH234117   3.819   5.140   6.283
11387TIP3    H134118   3.914   5.151   6.275
11387TIP3    H234119   3.788   5.223   6.319
11388TIP3   OH234120   5.674   5.597   6.338
11388TIP3    H134121   5.679   5.502   6.350
11388TIP3    H234122   5.594   5.623   6.383
11389TIP3   OH234123   4.779   5.381   6.462
11389TIP3    H134124   4.773   5.472   6.491
11389TIP3    H234125   4.713   5.334   6.515
11390TIP3   OH234126   4.553   5.481   5.421
11390TIP3    H134127   4.508   5.462   5.339
11390TIP3    H234128   4.519   5.566   5.448
11391TIP3   OH234129   3.988   5.337   5.800
11391TIP3    H134130   4.034   5.327   5.884
11391TIP3    H234131   3.940   5.254   5.790
11392TIP3   OH234132   4.755   5.408   5.049
11392TIP3    H134133   4.806   5.335   5.013
11392TIP3    H234134   4.790   5.421   5.137
11393TIP3   OH234135   4.807   5.453   5.318
11393TIP3    H134136   4.722   5.457   5.361
11393TIP3    H234137   4.866   5.420   5.385
11394TIP3   OH234138   5.561   4.711   6.608
11394TIP3    H134139   5.480   4.721   6.559
11394TIP3    H234140   5.581   4.618   6.604
11395TIP3   OH234141   4.187   5.113   6.631
11395TIP3    H134142   4.228   5.104   6.717
11395TIP3    H234143   4.105   5.063   6.638
11396TIP3   OH234144   4.556   3.945   6.420
11396TIP3    H134145   4.472   3.912   6.388
11396TIP3    H234146   4.533   4.025   6.468
11397TIP3   OH234147   5.097   4.064   6.618
11397TIP3    H134148   5.167   4.038   6.678
11397TIP3    H234149   5.016   4.045   6.666
11398TIP3   OH234150   5.321   4.489   6.534
11398TIP3    H134151   5.280   4.487   6.620
11398TIP3    H234152   5.305   4.578   6.502
11399TIP3   OH234153   4.999   4.595   5.080
11399TIP3    H134154   4.953   4.587   4.996
11399TIP3    H234155   5.082   4.637   5.057
11400TIP3   OH234156   4.706   3.987   5.388
11400TIP3    H134157   4.670   3.994   5.476
11400TIP3    H234158   4.669   3.906   5.353
11401TIP3   OH234159   4.493   4.473   6.429
11401TIP3    H134160   4.448   4.481   6.513
11401TIP3    H234161   4.472   4.553   6.382
11402TIP3   OH234162   4.374   4.356   5.950
11402TIP3    H134163   4.285   4.330   5.974
11402TIP3    H234164   4.386   4.322   5.861
11403TIP3   OH234165   4.857   4.433   5.678
11403TIP3    H134166   4.809   4.504   5.636
11403TIP3    H234167   4.915   4.400   5.609
11404TIP3   OH234168   5.043   4.701   6.755
11404TIP3    H134169   5.016   4.632   6.815
11404TIP3    H234170   5.136   4.715   6.775
11405TIP3   OH234171   5.022   4.448   5.904
11405TIP3    H134172   4.955   4.472   5.840
11405TIP3    H234173   5.068   4.374   5.865
11406TIP3   OH234174   4.325   4.486   6.650
11406TIP3    H134175   4.380   4.535   6.712
11406TIP3    H234176   4.306   4.404   6.695
11407TIP3   OH234177   4.371   3.970   5.364
11407TIP3    H134178   4.360   3.971   5.459
11407TIP3    H234179   4.293   4.014   5.330
11408TIP3   OH234180   3.913   4.012   6.231
11408TIP3    H134181   3.989   4.044   6.279
11408TIP3    H234182   3.949   3.985   6.146
11409TIP3   OH234183   3.840   3.989   5.739
11409TIP3    H134184   3.885   4.024   5.662
11409TIP3    H234185   3.776   4.057   5.761
11410TIP3   OH234186   5.056   4.699   6.331
11410TIP3    H134187   5.083   4.633   6.267
11410TIP3    H234188   5.016   4.649   6.402
11411TIP3   OH234189   4.736   4.152   6.004
11411TIP3    H134190   4.658   4.151   6.060
11411TIP3    H234191   4.809   4.142   6.065
11412TIP3   OH234192   4.137   4.229   6.009
11412TIP3    H134193   4.048   4.234   5.974
11412TIP3    H234194   4.164   4.139   5.992
11413TIP3   OH234195   4.391   4.232   5.705
11413TIP3    H134196   4.486   4.242   5.692
11413TIP3    H234197   4.353   4.250   5.620
11414TIP3   OH234198   5.195   4.237   6.212
11414TIP3    H134199   5.171   4.255   6.303
11414TIP3    H234200   5.128   4.175   6.182
11415TIP3   OH234201   4.268   4.262   5.462
11415TIP3    H134202   4.204   4.211   5.412
11415TIP3    H234203   4.323   4.304   5.396
11416TIP3   OH234204   5.383   5.940   6.430
11416TIP3    H134205   5.377   5.958   6.336
11416TIP3    H234206   5.462   5.986   6.458
11417TIP3   OH234207   4.315   5.026   6.870
11417TIP3    H134208   4.393   5.063   6.913
11417TIP3    H234209   4.291   4.951   6.924
11418TIP3   OH234210   4.787   4.513   6.110
11418TIP3    H134211   4.852   4.464   6.059
11418TIP3    H234212   4.787   4.470   6.195
11419TIP3   OH234213   4.285   3.982   5.997
11419TIP3    H134214   4.255   3.907   6.047
11419TIP3    H234215   4.315   3.944   5.914
11420TIP3   OH234216   4.761   4.415   6.377
11420TIP3    H134217   4.673   4.445   6.399
11420TIP3    H234218   4.819   4.467   6.431
11421TIP3   OH234219   4.492   4.778   5.485
11421TIP3    H134220   4.419   4.720   5.465
11421TIP3    H234221   4.469   4.815   5.571
11422TIP3   OH234222   5.389   5.027   6.098
11422TIP3    H134223   5.422   5.076   6.023
11422TIP3    H234224   5.308   4.987   6.066
11423TIP3   OH234225   4.959   4.088   5.388
11423TIP3    H134226   4.866   4.067   5.384
11423TIP3    H234227   4.962   4.183   5.399
11424TIP3   OH234228   4.899   5.108   6.501
11424TIP3    H134229   4.954   5.100   6.579
11424TIP3    H234230   4.864   5.197   6.506
11425TIP3   OH234231   5.020   4.353   5.461
11425TIP3    H134232   5.115   4.356   5.470
11425TIP3    H234233   4.997   4.429   5.408
11426TIP3   OH234234   4.193   4.808   6.146
11426TIP3    H134235   4.225   4.784   6.059
11426TIP3    H234236   4.255   4.769   6.207
11427TIP3   OH234237   4.646   4.937   5.326
11427TIP3    H134238   4.599   5.020   5.325
11427TIP3    H234239   4.592   4.879   5.379
11428TIP3   OH234240   4.087   4.744   6.788
11428TIP3    H134241   4.128   4.741   6.874
11428TIP3    H234242   4.032   4.666   6.785
11429TIP3   OH234243   4.812   4.854   6.791
11429TIP3    H134244   4.749   4.805   6.738
11429TIP3    H234245   4.897   4.816   6.767
11430TIP3   OH234246   5.050   5.389   6.387
11430TIP3    H134247   4.955   5.381   6.392
11430TIP3    H234248   5.075   5.432   6.469
11431TIP3   OH234249   5.444   4.442   5.283
11431TIP3    H134250   5.387   4.396   5.221
11431TIP3    H234251   5.448   4.532   5.250
11432TIP3   OH234252   5.686   5.312   6.365
11432TIP3    H134253   5.591   5.300   6.360
11432TIP3    H234254   5.718   5.282   6.280
11433TIP3   OH234255   5.173   5.258   5.209
11433TIP3    H134256   5.146   5.188   5.268
11433TIP3    H234257   5.188   5.213   5.125
11434TIP3   OH234258   5.155   4.893   5.999
11434TIP3    H134259   5.065   4.871   6.021
11434TIP3    H234260   5.191   4.813   5.961
11435TIP3   OH234261   4.307   5.127   5.805
11435TIP3    H134262   4.309   5.205   5.749
11435TIP3    H234263   4.214   5.106   5.812
11436TIP3   OH234264   3.863   4.415   5.502
11436TIP3    H134265   3.909   4.495   5.525
11436TIP3    H234266   3.785   4.415   5.558
11437TIP3   OH234267   4.405   4.881   5.720
11437TIP3    H134268   4.387   4.971   5.747
11437TIP3    H234269   4.375   4.828   5.794
11438TIP3   OH234270   4.585   5.451   6.262
11438TIP3    H134271   4.620   5.524   6.211
11438TIP3    H234272   4.660   5.417   6.310
11439TIP3   OH234273   4.222   5.355   5.653
11439TIP3    H134274   4.135   5.360   5.693
11439TIP3    H234275   4.255   5.444   5.656
11440TIP3   OH234276   4.942   5.109   6.228
11440TIP3    H134277   4.931   5.103   6.323
11440TIP3    H234278   5.019   5.055   6.210
11441TIP3   OH234279   4.934   4.993   5.107
11441TIP3    H134280   4.984   4.971   5.186
11441TIP3    H234281   4.848   4.953   5.121
11442TIP3   OH234282   5.198   5.617   6.269
11442TIP3    H134283   5.125   5.557   6.278
11442TIP3    H234284   5.173   5.675   6.197
11443TIP3   OH234285   5.258   5.462   4.912
11443TIP3    H134286   5.293   5.531   4.857
11443TIP3    H234287   5.182   5.501   4.955
11444TIP3   OH234288   4.275   4.238   6.776
11444TIP3    H134289   4.180   4.246   6.779
11444TIP3    H234290   4.297   4.178   6.847
11445TIP3   OH234291   5.104   4.926   5.315
11445TIP3    H134292   5.090   4.858   5.381
11445TIP3    H234293   5.199   4.927   5.302
11446TIP3   OH234294   4.015   5.356   6.414
11446TIP3    H134295   4.080   5.297   6.453
11446TIP3    H234296   4.034   5.442   6.452
11447TIP3   OH234297   4.287   4.958   5.109
11447TIP3    H134298   4.297   4.867   5.083
11447TIP3    H234299   4.269   4.954   5.203
11448TIP3   OH234300   4.231   4.975   5.382
11448TIP3    H134301   4.303   4.947   5.437
11448TIP3    H234302   4.231   5.071   5.389
11449TIP3   OH234303   3.964   4.663   5.591
11449TIP3    H134304   3.898   4.708   5.644
11449TIP3    H234305   3.983   4.723   5.519
11450TIP3   OH234306   5.126   4.298   6.473
11450TIP3    H134307   5.205   4.341   6.505
11450TIP3    H234308   5.117   4.220   6.527
11451TIP3   OH234309   5.015   4.041   5.657
11451TIP3    H134310   4.995   4.058   5.565
11451TIP3    H234311   5.058   4.121   5.688
11452TIP3   OH234312   4.501   5.165   5.326
11452TIP3    H134313   4.416   5.189   5.363
11452TIP3    H234314   4.524   5.238   5.269
11453TIP3   OH234315   4.672   4.239   5.747
11453TIP3    H134316   4.735   4.307   5.722
11453TIP3    H234317   4.693   4.221   5.839
11454TIP3   OH234318   4.964   4.533   6.531
11454TIP3    H134319   4.993   4.576   6.612
11454TIP3    H234320   5.015   4.452   6.528
11455TIP3   OH234321   4.830   3.940   5.838
11455TIP3    H134322   4.808   4.018   5.889
11455TIP3    H234323   4.899   3.970   5.778
11456TIP3   OH234324   4.249   5.248   5.400
11456TIP3    H134325   4.227   5.318   5.339
11456TIP3    H234326   4.237   5.287   5.487
11457TIP3   OH234327   4.345   3.959   5.642
11457TIP3    H134328   4.334   4.049   5.672
11457TIP3    H234329   4.439   3.943   5.646
11458TIP3   OH234330   5.587   4.437   6.521
11458TIP3    H134331   5.492   4.445   6.531
11458TIP3    H234332   5.599   4.382   6.444
11459TIP3   OH234333   5.247   4.637   5.906
11459TIP3    H134334   5.170   4.580   5.917
11459TIP3    H234335   5.315   4.595   5.959
11460TIP3   OH234336   3.981   4.849   5.380
11460TIP3    H134337   4.052   4.913   5.389
11460TIP3    H234338   4.014   4.785   5.316
11461TIP3   OH234339   3.899   4.138   5.516
11461TIP3    H134340   3.905   4.233   5.515
11461TIP3    H234341   3.840   4.117   5.443
11462TIP3   OH234342   5.225   5.606   5.845
11462TIP3    H134343   5.184   5.656   5.774
11462TIP3    H234344   5.319   5.618   5.831
11463TIP3   OH234345   4.293   3.859   6.383
11463TIP3    H134346   4.264   3.826   6.298
11463TIP3    H234347   4.284   3.784   6.442
11464TIP3   OH234348   3.820   5.107   5.770
11464TIP3    H134349   3.770   5.140   5.845
11464TIP3    H234350   3.781   5.149   5.694
11465TIP3   OH234351   4.001   5.652   6.867
11465TIP3    H134352   4.087   5.661   6.910
11465TIP3    H234353   3.951   5.596   6.925
11466TIP3   OH234354   4.468   5.575   6.877
11466TIP3    H134355   4.562   5.562   6.890
11466TIP3    H234356   4.444   5.511   6.809
11467TIP3   OH234357   4.447   5.159   5.006
11467TIP3    H134358   4.399   5.088   5.049
11467TIP3    H234359   4.522   5.116   4.965
11468TIP3   OH234360   5.102   5.503   6.632
11468TIP3    H134361   5.109   5.433   6.696
11468TIP3    H234362   5.178   5.558   6.648
11469TIP3   OH234363   4.886   5.198   4.929
11469TIP3    H134364   4.918   5.134   4.992
11469TIP3    H234365   4.947   5.193   4.855
11470TIP3   OH234366   4.109   4.658   5.233
11470TIP3    H134367   4.161   4.633   5.309
11470TIP3    H234368   4.172   4.668   5.162
11471TIP3   OH234369   4.734   5.127   6.815
11471TIP3    H134370   4.697   5.150   6.730
11471TIP3    H234371   4.774   5.041   6.801
11472TIP3   OH234372   4.663   4.879   5.058
11472TIP3    H134373   4.646   4.892   5.151
11472TIP3    H234374   4.653   4.785   5.043
11473TIP3   OH234375   5.216   5.164   6.425
11473TIP3    H134376   5.294   5.193   6.378
11473TIP3    H234377   5.151   5.232   6.408
11474TIP3   OH234378   1.436   0.782   0.072
11474TIP3    H134379   1.513   0.726   0.060
11474TIP3    H234380   1.441   0.809   0.164
11475TIP3   OH234381   4.288   4.594   5.442
11475TIP3    H134382   4.267   4.560   5.529
11475TIP3    H234383   4.334   4.522   5.399
11476TIP3   OH234384   4.578   4.649   6.680
11476TIP3    H134385   4.503   4.708   6.689
11476TIP3    H234386   4.628   4.684   6.606
11477TIP3   OH234387   4.423   4.406   5.287
11477TIP3    H134388   4.394   4.408   5.196
11477TIP3    H234389   4.519   4.410   5.282
11478TIP3   OH234390   5.097   5.050   6.792
11478TIP3    H134391   5.168   5.014   6.739
11478TIP3    H234392   5.094   4.994   6.870
11479TIP3   OH234393   5.225   4.707   4.961
11479TIP3    H134394   5.209   4.663   4.878
11479TIP3    H234395   5.196   4.797   4.947
11480TIP3   OH234396   4.701   4.441   6.807
11480TIP3    H134397   4.707   4.367   6.747
11480TIP3    H234398   4.662   4.511   6.754
11481TIP3   OH234399   4.709   4.241   6.606
11481TIP3    H134400   4.738   4.276   6.522
11481TIP3    H234401   4.618   4.214   6.592
11482TIP3   OH234402   4.724   4.776   6.492
11482TIP3    H134403   4.813   4.797   6.462
11482TIP3    H234404   4.667   4.834   6.441
11483TIP3   OH234405   5.310   4.731   6.856
11483TIP3    H134406   5.351   4.645   6.861
11483TIP3    H234407   5.382   4.791   6.835
11484TIP3   OH234408   5.343   4.993   6.593
11484TIP3    H134409   5.288   5.053   6.542
11484TIP3    H234410   5.432   5.008   6.562
11485TIP3   OH234411   1.746   0.530   0.102
11485TIP3    H134412   1.682   0.462   0.125
11485TIP3    H234413   1.780   0.503   0.017
11486TIP3   OH234414   4.833   4.007   6.700
11486TIP3    H134415   4.791   4.087   6.669
11486TIP3    H234416   4.767   3.938   6.687
11487TIP3   OH234417   4.959   4.487   6.904
11487TIP3    H134418   4.949   4.474   6.998
11487TIP3    H234419   4.873   4.465   6.868
11488TIP3   OH234420   5.205   4.445   6.773
11488TIP3    H134421   5.126   4.442   6.828
11488TIP3    H234422   5.275   4.416   6.830
11489TIP3   OH234423   2.605   0.393  -0.019
11489TIP3    H134424   2.619   0.298  -0.011
11489TIP3    H234425   2.600   0.423   0.072
11490TIP3   OH234426   1.589   0.306   0.169
11490TIP3    H134427   1.592   0.218   0.131
11490TIP3    H234428   1.628   0.296   0.256
11491TIP3   OH234429   4.904   3.993   6.965
11491TIP3    H134430   4.973   3.927   6.960
11491TIP3    H234431   4.872   4.001   6.875
11492TIP3   OH234432   2.157   0.202   0.172
11492TIP3    H134433   2.131   0.130   0.115
11492TIP3    H234434   2.084   0.263   0.169
11493TIP3   OH234435   4.240   5.454   5.215
11493TIP3    H134436   4.331   5.436   5.189
11493TIP3    H234437   4.203   5.501   5.140
11494TIP3   OH234438   3.709   4.836   5.410
11494TIP3    H134439   3.803   4.850   5.400
11494TIP3    H234440   3.692   4.751   5.368
11495TIP3   OH234441   3.614   5.426   5.851
11495TIP3    H134442   3.550   5.372   5.805
11495TIP3    H234443   3.660   5.366   5.909
11496TIP3   OH234444   3.753   5.261   6.023
11496TIP3    H134445   3.740   5.194   6.090
11496TIP3    H234446   3.807   5.328   6.065
11497TIP3   OH234447   5.495   5.661   5.833
11497TIP3    H134448   5.513   5.696   5.920
11497TIP3    H234449   5.548   5.715   5.774
11498TIP3   OH234450   5.508   5.699   6.115
11498TIP3    H134451   5.464   5.614   6.110
11498TIP3    H234452   5.581   5.685   6.175
11499TIP3   OH234453   5.558   5.388   6.685
11499TIP3    H134454   5.487   5.398   6.748
11499TIP3    H234455   5.604   5.472   6.687
11500TIP3   OH234456   5.382   4.907   5.298
11500TIP3    H134457   5.443   4.975   5.268
11500TIP3    H234458   5.426   4.867   5.373
11501TIP3   OH234459   5.508   4.763   5.499
11501TIP3    H134460   5.440   4.723   5.554
11501TIP3    H234461   5.572   4.797   5.561
11502TIP3   OH234462   5.563   5.167   5.931
11502TIP3    H134463   5.615   5.099   5.888
11502TIP3    H234464   5.563   5.240   5.869
11503TIP3   OH234465   5.373   5.454   6.123
11503TIP3    H134466   5.305   5.499   6.174
11503TIP3    H234467   5.326   5.412   6.051
11504TIP3   OH234468   5.429   4.682   5.144
11504TIP3    H134469   5.358   4.681   5.080
11504TIP3    H234470   5.410   4.759   5.199
11505TIP3   OH234471   5.290   4.336   5.084
11505TIP3    H134472   5.237   4.370   5.012
11505TIP3    H234473   5.279   4.241   5.080
11506TIP3   OH234474   5.310   4.623   5.636
11506TIP3    H134475   5.316   4.528   5.624
11506TIP3    H234476   5.293   4.634   5.730
11507TIP3   OH234477   3.935   4.691   6.411
11507TIP3    H134478   3.923   4.656   6.323
11507TIP3    H234479   4.029   4.688   6.426
11508TIP3   OH234480   5.598   5.044   6.497
11508TIP3    H134481   5.666   4.978   6.481
11508TIP3    H234482   5.615   5.112   6.432
11509TIP3   OH234483   5.776   4.835   6.491
11509TIP3    H134484   5.701   4.793   6.534
11509TIP3    H234485   5.850   4.778   6.512
11510TIP3   OH234486   5.243   4.068   5.067
11510TIP3    H134487   5.310   4.036   5.128
11510TIP3    H234488   5.163   4.021   5.091
11511TIP3   OH234489   5.310   4.347   5.521
11511TIP3    H134490   5.353   4.263   5.534
11511TIP3    H234491   5.355   4.386   5.446
11512TIP3   OH234492   5.463   4.512   6.041
11512TIP3    H134493   5.544   4.530   5.993
11512TIP3    H234494   5.477   4.550   6.127
11513TIP3   OH234495   5.537   4.663   6.268
11513TIP3    H134496   5.463   4.693   6.321
11513TIP3    H234497   5.569   4.742   6.225
11514TIP3   OH234498   1.324   0.371   0.128
11514TIP3    H134499   1.419   0.364   0.137
11514TIP3    H234500   1.290   0.287   0.161
11515TIP3   OH234501   5.996   4.261   6.811
11515TIP3    H134502   6.059   4.202   6.769
11515TIP3    H234503   5.959   4.311   6.738
11516TIP3   OH234504   5.421   4.096   5.573
11516TIP3    H134505   5.466   4.080   5.656
11516TIP3    H234506   5.359   4.024   5.565
11517TIP3   OH234507   4.125   4.080   6.401
11517TIP3    H134508   4.179   4.001   6.406
11517TIP3    H234509   4.187   4.150   6.384
11518TIP3   OH234510   3.913   4.347   6.461
11518TIP3    H134511   3.959   4.332   6.378
11518TIP3    H234512   3.953   4.426   6.497
11519TIP3   OH234513   5.847   4.378   6.613
11519TIP3    H134514   5.763   4.418   6.633
11519TIP3    H234515   5.826   4.302   6.559
11520TIP3   OH234516   5.478   4.015   5.213
11520TIP3    H134517   5.521   3.952   5.155
11520TIP3    H234518   5.536   4.091   5.214
11521TIP3   OH234519   3.900   3.860   5.971
11521TIP3    H134520   3.812   3.844   6.005
11521TIP3    H234521   3.886   3.912   5.892
11522TIP3   OH234522   5.054   5.570   5.475
11522TIP3    H134523   5.112   5.559   5.399
11522TIP3    H234524   5.097   5.637   5.528
11523TIP3   OH234525   4.123   3.928   6.791
11523TIP3    H134526   4.069   3.913   6.868
11523TIP3    H234527   4.064   3.968   6.727
11524TIP3   OH234528   4.145   5.349   6.870
11524TIP3    H134529   4.134   5.444   6.874
11524TIP3    H234530   4.156   5.323   6.961
11525TIP3   OH234531   4.354   5.410   6.410
11525TIP3    H134532   4.306   5.486   6.376
11525TIP3    H234533   4.440   5.416   6.368
11526TIP3   OH234534   4.765   5.647   6.545
11526TIP3    H134535   4.804   5.640   6.632
11526TIP3    H234536   4.828   5.699   6.495
11527TIP3   OH234537   4.955   5.798   6.413
11527TIP3    H134538   5.019   5.745   6.365
11527TIP3    H234539   5.009   5.856   6.468
11528TIP3   OH234540   5.759   4.132   6.506
11528TIP3    H134541   5.671   4.123   6.469
11528TIP3    H234542   5.797   4.044   6.499
11529TIP3   OH234543   4.020   5.651   6.455
11529TIP3    H134544   3.930   5.671   6.431
11529TIP3    H234545   4.043   5.718   6.520
11530TIP3   OH234546   4.250   5.641   6.301
11530TIP3    H134547   4.166   5.649   6.346
11530TIP3    H234548   4.231   5.667   6.211
11531TIP3   OH234549   4.669   5.658   6.096
11531TIP3    H134550   4.602   5.672   6.029
11531TIP3    H234551   4.682   5.745   6.135
11532TIP3   OH234552   4.935   5.595   6.147
11532TIP3    H134553   4.843   5.614   6.127
11532TIP3    H234554   4.984   5.662   6.100
11533TIP3   OH234555   5.132   5.771   6.045
11533TIP3    H134556   5.130   5.858   6.006
11533TIP3    H234557   5.163   5.714   5.975
11534TIP3   OH234558   3.929   5.438   6.166
11534TIP3    H134559   3.954   5.416   6.255
11534TIP3    H234560   4.001   5.405   6.112
11535TIP3   OH234561   4.134   5.320   6.034
11535TIP3    H134562   4.147   5.238   6.081
11535TIP3    H234563   4.221   5.361   6.033
11536TIP3   OH234564   4.402   5.407   6.053
11536TIP3    H134565   4.422   5.315   6.037
11536TIP3    H234566   4.455   5.430   6.129
11537TIP3   OH234567   4.965   4.057   6.139
11537TIP3    H134568   4.926   3.985   6.187
11537TIP3    H234569   5.034   4.017   6.086
11538TIP3   OH234570   5.469   3.964   6.032
11538TIP3    H134571   5.506   4.013   5.958
11538TIP3    H234572   5.376   3.984   6.029
11539TIP3   OH234573   5.580   4.045   5.794
11539TIP3    H134574   5.650   3.986   5.766
11539TIP3    H234575   5.617   4.133   5.781
11540TIP3   OH234576   4.206   3.757   6.141
11540TIP3    H134577   4.116   3.725   6.148
11540TIP3    H234578   4.259   3.678   6.133
11541TIP3   OH234579   4.018   3.661   5.795
11541TIP3    H134580   4.046   3.710   5.718
11541TIP3    H234581   3.985   3.727   5.856
11542TIP3   OH234582   4.676   3.799   6.032
11542TIP3    H134583   4.726   3.844   5.963
11542TIP3    H234584   4.719   3.825   6.113
11543TIP3   OH234585   5.183   3.943   6.008
11543TIP3    H134586   5.194   3.908   5.920
11543TIP3    H234587   5.185   3.866   6.065
11544TIP3   OH234588   5.235   3.886   5.575
11544TIP3    H134589   5.155   3.932   5.598
11544TIP3    H234590   5.225   3.799   5.614
11545TIP3   OH234591   3.704   5.232   5.556
11545TIP3    H134592   3.620   5.197   5.525
11545TIP3    H234593   3.706   5.322   5.524
11546TIP3   OH234594   4.131   3.792   5.558
11546TIP3    H134595   4.175   3.730   5.501
11546TIP3    H234596   4.201   3.848   5.592
11547TIP3   OH234597   4.620   3.988   5.652
11547TIP3    H134598   4.678   3.935   5.705
11547TIP3    H234599   4.637   4.078   5.680
11548TIP3   OH234600   4.499   5.386   5.150
11548TIP3    H134601   4.583   5.414   5.113
11548TIP3    H234602   4.471   5.314   5.094
11549TIP3   OH234603   5.208   5.526   5.247
11549TIP3    H134604   5.201   5.431   5.238
11549TIP3    H234605   5.164   5.561   5.169
11550TIP3   OH234606   1.595   0.033   0.085
11550TIP3    H134607   1.560  -0.035   0.142
11550TIP3    H234608   1.687   0.039   0.109
11551TIP3   OH234609   1.845   0.039   0.204
11551TIP3    H134610   1.924   0.016   0.154
11551TIP3    H234611   1.837  -0.031   0.269
11552TIP3   OH234612   3.802   5.229   5.205
11552TIP3    H134613   3.805   5.241   5.300
11552TIP3    H234614   3.884   5.184   5.184
11553TIP3   OH234615   2.669   0.122  -0.008
11553TIP3    H134616   2.685   0.092   0.082
11553TIP3    H234617   2.755   0.117  -0.050
11554TIP3   OH234618   5.423   5.666   6.433
11554TIP3    H134619   5.348   5.636   6.382
11554TIP3    H234620   5.411   5.761   6.442
11555TIP3   OH234621   6.703   5.116   5.182
11555TIP3    H134622   6.642   5.181   5.147
11555TIP3    H234623   6.652   5.035   5.188
11556TIP3   OH234624   6.699   5.033   5.596
11556TIP3    H134625   6.743   5.021   5.680
11556TIP3    H234626   6.653   4.950   5.581
11557TIP3   OH234627   5.994   4.917   5.951
11557TIP3    H134628   6.026   4.856   6.018
11557TIP3    H234629   6.073   4.957   5.914
11558TIP3   OH234630   6.955   5.293   5.280
11558TIP3    H134631   6.954   5.248   5.364
11558TIP3    H234632   6.980   5.383   5.301
11559TIP3   OH234633   5.985   5.339   5.646
11559TIP3    H134634   5.968   5.245   5.653
11559TIP3    H234635   6.081   5.345   5.637
11560TIP3   OH234636   5.673   4.543   5.424
11560TIP3    H134637   5.630   4.625   5.449
11560TIP3    H234638   5.603   4.491   5.384
11561TIP3   OH234639   5.739   4.838   5.637
11561TIP3    H134640   5.790   4.761   5.666
11561TIP3    H234641   5.804   4.895   5.597
11562TIP3   OH234642   6.593   5.821   5.284
11562TIP3    H134643   6.615   5.736   5.247
11562TIP3    H234644   6.555   5.801   5.370
11563TIP3   OH234645   6.507   5.262   5.608
11563TIP3    H134646   6.548   5.179   5.581
11563TIP3    H234647   6.580   5.315   5.640
11564TIP3   OH234648   7.526   4.590   5.617
11564TIP3    H134649   7.546   4.674   5.659
11564TIP3    H234650   7.551   4.603   5.525
11565TIP3   OH234651   6.916   4.758   5.642
11565TIP3    H134652   6.951   4.674   5.671
11565TIP3    H234653   6.876   4.740   5.557
11566TIP3   OH234654   6.265   4.418   5.603
11566TIP3    H134655   6.241   4.490   5.545
11566TIP3    H234656   6.212   4.344   5.574
11567TIP3   OH234657   6.962   4.512   5.231
11567TIP3    H134658   7.025   4.504   5.302
11567TIP3    H234659   7.014   4.540   5.155
11568TIP3   OH234660   5.888   4.625   5.730
11568TIP3    H134661   5.970   4.607   5.776
11568TIP3    H234662   5.892   4.573   5.650
11569TIP3   OH234663   6.316   4.827   5.536
11569TIP3    H134664   6.409   4.807   5.546
11569TIP3    H234665   6.277   4.745   5.504
11570TIP3   OH234666   7.589   4.807   5.789
11570TIP3    H134667   7.499   4.840   5.780
11570TIP3    H234668   7.616   4.836   5.876
11571TIP3   OH234669   6.244   4.414   6.056
11571TIP3    H134670   6.191   4.447   5.983
11571TIP3    H234671   6.190   4.429   6.133
11572TIP3   OH234672   6.581   5.301   5.024
11572TIP3    H134673   6.532   5.263   4.951
11572TIP3    H234674   6.525   5.372   5.056
11573TIP3   OH234675   6.345   5.194   5.826
11573TIP3    H134676   6.287   5.263   5.860
11573TIP3    H234677   6.391   5.236   5.753
11574TIP3   OH234678   7.123   4.539   5.450
11574TIP3    H134679   7.086   4.511   5.534
11574TIP3    H234680   7.182   4.610   5.472
11575TIP3   OH234681   6.133   4.522   5.826
11575TIP3    H134682   6.188   4.596   5.850
11575TIP3    H234683   6.180   4.480   5.754
11576TIP3   OH234684   6.182   5.395   5.928
11576TIP3    H134685   6.165   5.483   5.896
11576TIP3    H234686   6.106   5.373   5.981
11577TIP3   OH234687   5.562   5.089   5.181
11577TIP3    H134688   5.525   5.107   5.095
11577TIP3    H234689   5.585   5.175   5.216
11578TIP3   OH234690   6.993   5.578   5.372
11578TIP3    H134691   6.919   5.574   5.433
11578TIP3    H234692   6.998   5.670   5.347
11579TIP3   OH234693   7.323   4.489   5.789
11579TIP3    H134694   7.236   4.508   5.754
11579TIP3    H234695   7.383   4.514   5.719
11580TIP3   OH234696   6.588   4.109   5.781
11580TIP3    H134697   6.582   4.017   5.808
11580TIP3    H234698   6.513   4.151   5.821
11581TIP3   OH234699   6.708   5.631   5.094
11581TIP3    H134700   6.761   5.581   5.156
11581TIP3    H234701   6.768   5.695   5.057
11582TIP3   OH234702   6.850   5.330   5.004
11582TIP3    H134703   6.754   5.335   4.998
11582TIP3    H234704   6.881   5.417   4.982
11583TIP3   OH234705   7.235   5.495   5.760
11583TIP3    H134706   7.220   5.417   5.706
11583TIP3    H234707   7.217   5.569   5.702
11584TIP3   OH234708   6.552   4.912   5.035
11584TIP3    H134709   6.464   4.946   5.022
11584TIP3    H234710   6.587   4.903   4.946
11585TIP3   OH234711   6.503   4.692   4.734
11585TIP3    H134712   6.570   4.737   4.785
11585TIP3    H234713   6.551   4.626   4.684
11586TIP3   OH234714   7.425   5.146   5.622
11586TIP3    H134715   7.341   5.193   5.623
11586TIP3    H234716   7.459   5.161   5.533
11587TIP3   OH234717   6.919   5.019   5.035
11587TIP3    H134718   6.849   4.958   5.058
11587TIP3    H234719   6.999   4.968   5.047
11588TIP3   OH234720   7.112   5.012   5.929
11588TIP3    H134721   7.110   5.094   5.978
11588TIP3    H234722   7.029   5.009   5.882
11589TIP3   OH234723   6.112   4.964   5.400
11589TIP3    H134724   6.072   4.905   5.336
11589TIP3    H234725   6.184   4.913   5.438
11590TIP3   OH234726   6.249   5.374   5.543
11590TIP3    H134727   6.225   5.358   5.452
11590TIP3    H234728   6.336   5.336   5.552
11591TIP3   OH234729   6.224   4.953   5.769
11591TIP3    H134730   6.260   4.919   5.688
11591TIP3    H234731   6.271   5.034   5.785
11592TIP3   OH234732   6.789   5.580   5.548
11592TIP3    H134733   6.766   5.663   5.591
11592TIP3    H234734   6.765   5.513   5.612
11593TIP3   OH234735   6.381   5.495   6.093
11593TIP3    H134736   6.323   5.554   6.140
11593TIP3    H234737   6.324   5.443   6.036
11594TIP3   OH234738   6.738   4.857   4.824
11594TIP3    H134739   6.798   4.927   4.850
11594TIP3    H234740   6.747   4.853   4.729
11595TIP3   OH234741   6.138   5.044   6.221
11595TIP3    H134742   6.142   5.136   6.248
11595TIP3    H234743   6.045   5.024   6.220
11596TIP3   OH234744   6.449   5.529   5.090
11596TIP3    H134745   6.529   5.581   5.090
11596TIP3    H234746   6.386   5.583   5.042
11597TIP3   OH234747   6.173   5.655   6.178
11597TIP3    H134748   6.144   5.665   6.087
11597TIP3    H234749   6.092   5.636   6.227
11598TIP3   OH234750   7.226   4.068   4.879
11598TIP3    H134751   7.147   4.086   4.930
11598TIP3    H234752   7.237   4.146   4.825
11599TIP3   OH234753   5.983   4.808   5.199
11599TIP3    H134754   5.906   4.854   5.164
11599TIP3    H234755   5.951   4.720   5.219
11600TIP3   OH234756   7.046   5.447   4.432
11600TIP3    H134757   7.045   5.539   4.405
11600TIP3    H234758   7.134   5.416   4.409
11601TIP3   OH234759   5.763   5.204   6.128
11601TIP3    H134760   5.694   5.188   6.063
11601TIP3    H234761   5.798   5.117   6.148
11602TIP3   OH234762   5.608   5.400   5.773
11602TIP3    H134763   5.702   5.418   5.782
11602TIP3    H234764   5.566   5.479   5.807
11603TIP3   OH234765   7.474   5.856   5.822
11603TIP3    H134766   7.483   5.762   5.835
11603TIP3    H234767   7.392   5.879   5.866
11604TIP3   OH234768   6.571   5.633   5.950
11604TIP3    H134769   6.566   5.724   5.979
11604TIP3    H234770   6.503   5.588   6.000
11605TIP3   OH234771   6.352   5.745   4.907
11605TIP3    H134772   6.295   5.724   4.833
11605TIP3    H234773   6.316   5.827   4.942
11606TIP3   OH234774   5.784   5.591   5.281
11606TIP3    H134775   5.826   5.586   5.367
11606TIP3    H234776   5.733   5.511   5.274
11607TIP3   OH234777   6.555   5.669   4.537
11607TIP3    H134778   6.604   5.595   4.500
11607TIP3    H234779   6.588   5.679   4.626
11608TIP3   OH234780   6.606   5.713   4.811
11608TIP3    H134781   6.516   5.718   4.844
11608TIP3    H234782   6.657   5.679   4.884
11609TIP3   OH234783   7.357   4.964   6.095
11609TIP3    H134784   7.273   4.974   6.049
11609TIP3    H234785   7.375   4.870   6.092
11610TIP3   OH234786   5.967   5.388   6.099
11610TIP3    H134787   6.015   5.376   6.181
11610TIP3    H234788   5.893   5.327   6.106
11611TIP3   OH234789   6.352   4.202   5.908
11611TIP3    H134790   6.269   4.167   5.877
11611TIP3    H234791   6.329   4.280   5.959
11612TIP3   OH234792   6.895   4.318   6.107
11612TIP3    H134793   6.966   4.290   6.165
11612TIP3    H234794   6.815   4.299   6.156
11613TIP3   OH234795   7.120   4.749   6.024
11613TIP3    H134796   7.075   4.745   6.109
11613TIP3    H234797   7.099   4.837   5.991
11614TIP3   OH234798   6.793   4.862   4.561
11614TIP3    H134799   6.746   4.849   4.479
11614TIP3    H234800   6.879   4.895   4.535
11615TIP3   OH234801   6.504   4.244   4.876
11615TIP3    H134802   6.468   4.250   4.964
11615TIP3    H234803   6.467   4.163   4.840
11616TIP3   OH234804   6.289   4.730   5.920
11616TIP3    H134805   6.240   4.738   6.002
11616TIP3    H234806   6.268   4.811   5.872
11617TIP3   OH234807   6.170   4.613   5.436
11617TIP3    H134808   6.081   4.588   5.461
11617TIP3    H234809   6.180   4.577   5.348
11618TIP3   OH234810   6.659   4.695   5.167
11618TIP3    H134811   6.612   4.767   5.125
11618TIP3    H234812   6.712   4.657   5.097
11619TIP3   OH234813   6.832   4.956   6.238
11619TIP3    H134814   6.806   4.888   6.300
11619TIP3    H234815   6.924   4.973   6.258
11620TIP3   OH234816   6.827   4.702   5.388
11620TIP3    H134817   6.755   4.717   5.326
11620TIP3    H234818   6.874   4.627   5.351
11621TIP3   OH234819   6.120   4.745   6.137
11621TIP3    H134820   6.132   4.808   6.208
11621TIP3    H234821   6.103   4.662   6.182
11622TIP3   OH234822   6.169   4.228   4.849
11622TIP3    H134823   6.158   4.227   4.944
11622TIP3    H234824   6.090   4.271   4.816
11623TIP3   OH234825   5.709   4.269   5.715
11623TIP3    H134826   5.784   4.301   5.765
11623TIP3    H234827   5.746   4.241   5.632
11624TIP3   OH234828   5.636   4.247   5.224
11624TIP3    H134829   5.682   4.282   5.148
11624TIP3    H234830   5.572   4.314   5.247
11625TIP3   OH234831   6.856   4.957   5.816
11625TIP3    H134832   6.883   4.890   5.753
11625TIP3    H234833   6.815   4.909   5.887
11626TIP3   OH234834   6.533   4.415   5.493
11626TIP3    H134835   6.453   4.411   5.546
11626TIP3    H234836   6.604   4.398   5.554
11627TIP3   OH234837   5.933   4.487   5.497
11627TIP3    H134838   5.844   4.492   5.463
11627TIP3    H234839   5.959   4.396   5.482
11628TIP3   OH234840   6.189   4.487   5.193
11628TIP3    H134841   6.283   4.497   5.177
11628TIP3    H234842   6.148   4.505   5.108
11629TIP3   OH234843   6.990   4.495   5.698
11629TIP3    H134844   6.970   4.510   5.790
11629TIP3    H234845   6.924   4.431   5.669
11630TIP3   OH234846   6.064   4.517   4.952
11630TIP3    H134847   5.999   4.467   4.903
11630TIP3    H234848   6.118   4.557   4.884
11631TIP3   OH234849   7.175   6.193   5.923
11631TIP3    H134850   7.188   6.208   5.830
11631TIP3    H234851   7.243   6.245   5.966
11632TIP3   OH234852   6.124   5.304   6.332
11632TIP3    H134853   6.204   5.326   6.379
11632TIP3    H234854   6.054   5.310   6.397
11633TIP3   OH234855   6.585   4.768   5.597
11633TIP3    H134856   6.643   4.706   5.553
11633TIP3    H234857   6.577   4.735   5.686
11634TIP3   OH234858   6.083   4.238   5.486
11634TIP3    H134859   6.051   4.164   5.538
11634TIP3    H234860   6.112   4.199   5.404
11635TIP3   OH234861   6.556   4.682   5.860
11635TIP3    H134862   6.468   4.708   5.888
11635TIP3    H234863   6.615   4.731   5.917
11636TIP3   OH234864   6.303   5.029   4.984
11636TIP3    H134865   6.230   4.971   4.961
11636TIP3    H234866   6.276   5.070   5.066
11637TIP3   OH234867   7.187   5.284   5.588
11637TIP3    H134868   7.219   5.330   5.510
11637TIP3    H234869   7.107   5.239   5.560
11638TIP3   OH234870   6.755   4.349   4.873
11638TIP3    H134871   6.663   4.323   4.871
11638TIP3    H234872   6.753   4.443   4.885
11639TIP3   OH234873   6.695   5.368   5.988
11639TIP3    H134874   6.737   5.352   6.073
11639TIP3    H234875   6.651   5.452   5.998
11640TIP3   OH234876   6.816   4.615   4.948
11640TIP3    H134877   6.911   4.606   4.956
11640TIP3    H234878   6.804   4.692   4.892
11641TIP3   OH234879   5.990   5.054   5.635
11641TIP3    H134880   6.026   5.034   5.548
11641TIP3    H234881   6.051   5.013   5.696
11642TIP3   OH234882   6.438   5.194   4.813
11642TIP3    H134883   6.387   5.275   4.810
11642TIP3    H234884   6.385   5.134   4.866
11643TIP3   OH234885   5.868   4.974   6.259
11643TIP3    H134886   5.873   4.953   6.352
11643TIP3    H234887   5.793   4.924   6.227
11644TIP3   OH234888   6.597   5.109   6.275
11644TIP3    H134889   6.530   5.047   6.249
11644TIP3    H234890   6.680   5.068   6.249
11645TIP3   OH234891   6.843   5.645   5.870
11645TIP3    H134892   6.749   5.632   5.879
11645TIP3    H234893   6.869   5.688   5.951
11646TIP3   OH234894   7.242   4.706   4.772
11646TIP3    H134895   7.186   4.660   4.710
11646TIP3    H234896   7.249   4.795   4.736
11647TIP3   OH234897   7.483   5.574   5.845
11647TIP3    H134898   7.388   5.561   5.846
11647TIP3    H234899   7.511   5.540   5.761
11648TIP3   OH234900   6.967   5.508   4.690
11648TIP3    H134901   6.946   5.422   4.726
11648TIP3    H234902   6.993   5.489   4.599
11649TIP3   OH234903   6.955   5.134   5.502
11649TIP3    H134904   6.867   5.111   5.532
11649TIP3    H234905   6.992   5.051   5.472
11650TIP3   OH234906   6.098   5.382   5.288
11650TIP3    H134907   6.095   5.462   5.236
11650TIP3    H234908   6.009   5.373   5.323
11651TIP3   OH234909   5.661   4.673   4.996
11651TIP3    H134910   5.705   4.755   5.018
11651TIP3    H234911   5.582   4.673   5.051
11652TIP3   OH234912   6.212   5.143   5.212
11652TIP3    H134913   6.180   5.231   5.234
11652TIP3    H234914   6.179   5.087   5.282
11653TIP3   OH234915   6.381   5.710   5.745
11653TIP3    H134916   6.418   5.783   5.696
11653TIP3    H234917   6.455   5.677   5.797
11654TIP3   OH234918   6.021   5.615   5.142
11654TIP3    H134919   5.933   5.616   5.180
11654TIP3    H234920   6.049   5.706   5.146
11655TIP3   OH234921   6.746   5.359   5.719
11655TIP3    H134922   6.726   5.361   5.812
11655TIP3    H234923   6.829   5.312   5.713
11656TIP3   OH234924   6.720   5.239   4.585
11656TIP3    H134925   6.727   5.220   4.679
11656TIP3    H234926   6.635   5.203   4.560
11657TIP3   OH234927   6.995   5.869   5.754
11657TIP3    H134928   6.922   5.809   5.765
11657TIP3    H234929   6.967   5.929   5.685
11658TIP3   OH234930   7.049   5.719   4.395
11658TIP3    H134931   7.071   5.778   4.323
11658TIP3    H234932   6.977   5.763   4.441
11659TIP3   OH234933   6.073   4.493   6.263
11659TIP3    H134934   5.978   4.499   6.268
11659TIP3    H234935   6.097   4.436   6.336
11660TIP3   OH234936   5.812   5.599   5.906
11660TIP3    H134937   5.863   5.538   5.959
11660TIP3    H234938   5.828   5.684   5.945
11661TIP3   OH234939   6.097   5.214   4.597
11661TIP3    H134940   6.098   5.122   4.569
11661TIP3    H234941   6.072   5.210   4.689
11662TIP3   OH234942   6.026   5.237   4.865
11662TIP3    H134943   6.080   5.207   4.938
11662TIP3    H234944   6.026   5.332   4.873
11663TIP3   OH234945   5.760   4.923   5.078
11663TIP3    H134946   5.695   4.967   5.132
11663TIP3    H234947   5.776   4.984   5.005
11664TIP3   OH234948   6.928   4.550   5.961
11664TIP3    H134949   7.005   4.593   5.999
11664TIP3    H234950   6.915   4.473   6.015
11665TIP3   OH234951   6.810   4.296   5.142
11665TIP3    H134952   6.791   4.313   5.050
11665TIP3    H234953   6.855   4.375   5.173
11666TIP3   OH234954   6.303   5.428   4.815
11666TIP3    H134955   6.217   5.447   4.852
11666TIP3    H234956   6.318   5.499   4.753
11667TIP3   OH234957   6.473   4.498   5.234
11667TIP3    H134958   6.536   4.567   5.213
11667TIP3    H234959   6.490   4.479   5.327
11668TIP3   OH234960   6.764   4.792   6.015
11668TIP3    H134961   6.786   4.836   6.097
11668TIP3    H234962   6.813   4.709   6.018
11669TIP3   OH234963   6.627   4.199   5.327
11669TIP3    H134964   6.607   4.277   5.379
11669TIP3    H234965   6.695   4.227   5.266
11670TIP3   OH234966   6.051   5.508   4.890
11670TIP3    H134967   6.026   5.577   4.829
11670TIP3    H234968   6.036   5.547   4.977
11671TIP3   OH234969   6.142   4.214   5.126
11671TIP3    H134970   6.130   4.303   5.159
11671TIP3    H234971   6.236   4.199   5.132
11672TIP3   OH234972   7.381   4.688   6.003
11672TIP3    H134973   7.288   4.701   6.017
11672TIP3    H234974   7.387   4.625   5.931
11673TIP3   OH234975   7.046   4.890   5.394
11673TIP3    H134976   6.972   4.830   5.404
11673TIP3    H234977   7.116   4.850   5.446
11674TIP3   OH234978   5.774   5.109   4.866
11674TIP3    H134979   5.840   5.178   4.872
11674TIP3    H234980   5.813   5.045   4.806
11675TIP3   OH234981   5.698   4.396   5.003
11675TIP3    H134982   5.704   4.492   5.006
11675TIP3    H234983   5.635   4.378   4.933
11676TIP3   OH234984   7.023   5.859   5.333
11676TIP3    H134985   6.983   5.909   5.262
11676TIP3    H234986   7.117   5.872   5.321
11677TIP3   OH234987   6.091   4.114   5.870
11677TIP3    H134988   6.061   4.081   5.785
11677TIP3    H234989   6.083   4.039   5.929
11678TIP3   OH234990   5.614   5.360   5.261
11678TIP3    H134991   5.570   5.397   5.337
11678TIP3    H234992   5.574   5.403   5.186
11679TIP3   OH234993   5.805   5.903   6.327
11679TIP3    H134994   5.889   5.906   6.373
11679TIP3    H234995   5.785   5.809   6.319
11680TIP3   OH234996   6.277   5.821   6.373
11680TIP3    H134997   6.369   5.796   6.379
11680TIP3    H234998   6.242   5.767   6.302
11681TIP3   OH234999   6.245   5.416   4.489
11681TIP3    H135000   6.197   5.345   4.531
11681TIP3    H235001   6.317   5.372   4.442
11682TIP3   OH235002   6.903   5.763   6.109
11682TIP3    H135003   6.910   5.689   6.170
11682TIP3    H235004   6.980   5.816   6.128
11683TIP3   OH235005   6.682   5.459   4.413
11683TIP3    H135006   6.720   5.391   4.469
11683TIP3    H235007   6.734   5.455   4.333
11684TIP3   OH235008   5.917   5.299   6.520
11684TIP3    H135009   5.936   5.206   6.529
11684TIP3    H235010   5.831   5.302   6.479
11685TIP3   OH235011   5.920   4.923   4.732
11685TIP3    H135012   5.976   4.899   4.806
11685TIP3    H235013   5.981   4.932   4.659
11686TIP3   OH235014   6.536   5.386   6.295
11686TIP3    H135015   6.488   5.406   6.214
11686TIP3    H235016   6.566   5.296   6.283
11687TIP3   OH235017   6.470   5.137   4.544
11687TIP3    H135018   6.443   5.151   4.635
11687TIP3    H235019   6.457   5.044   4.529
11688TIP3   OH235020   7.011   5.417   5.904
11688TIP3    H135021   7.089   5.453   5.861
11688TIP3    H235022   6.944   5.485   5.893
11689TIP3   OH235023   6.035   5.042   6.522
11689TIP3    H135024   6.115   5.019   6.473
11689TIP3    H235025   6.067   5.064   6.610
11690TIP3   OH235026   6.096   4.852   4.937
11690TIP3    H135027   6.065   4.820   5.022
11690TIP3    H235028   6.135   4.775   4.895
11691TIP3   OH235029   6.392   4.931   6.182
11691TIP3    H135030   6.307   4.973   6.189
11691TIP3    H235031   6.425   4.957   6.096
11692TIP3   OH235032   6.223   4.660   4.778
11692TIP3    H135033   6.192   4.665   4.688
11692TIP3    H235034   6.318   4.664   4.770
11693TIP3   OH235035   6.895   5.300   6.272
11693TIP3    H135036   6.967   5.260   6.223
11693TIP3    H235037   6.889   5.249   6.353
11694TIP3   OH235038   7.031   4.964   4.458
11694TIP3    H135039   7.019   4.917   4.376
11694TIP3    H235040   7.002   5.053   4.439
11695TIP3   OH235041   6.497   4.701   6.290
11695TIP3    H135042   6.499   4.629   6.228
11695TIP3    H235043   6.461   4.775   6.241
11696TIP3   OH235044   6.502   4.501   6.090
11696TIP3    H135045   6.529   4.534   6.004
11696TIP3    H235046   6.412   4.473   6.077
11697TIP3   OH235047   6.514   5.024   5.958
11697TIP3    H135048   6.603   5.058   5.947
11697TIP3    H235049   6.459   5.088   5.914
11698TIP3   OH235050   7.102   4.989   6.336
11698TIP3    H135051   7.140   4.901   6.339
11698TIP3    H235052   7.177   5.047   6.325
11699TIP3   OH235053   7.139   5.250   6.077
11699TIP3    H135054   7.083   5.309   6.026
11699TIP3    H235055   7.228   5.267   6.045
11700TIP3   OH235056   6.378   4.789   6.530
11700TIP3    H135057   6.310   4.725   6.551
11700TIP3    H235058   6.409   4.764   6.443
11701TIP3   OH235059   6.626   4.263   6.180
11701TIP3    H135060   6.582   4.342   6.150
11701TIP3    H235061   6.561   4.194   6.170
11702TIP3   OH235062   6.753   4.743   6.391
11702TIP3    H135063   6.743   4.731   6.485
11702TIP3    H235064   6.668   4.720   6.354
11703TIP3   OH235065   6.998   4.702   6.259
11703TIP3    H135066   6.919   4.698   6.314
11703TIP3    H235067   7.067   4.667   6.315
11704TIP3   OH235068   7.238   4.651   6.397
11704TIP3    H135069   7.250   4.557   6.407
11704TIP3    H235070   7.229   4.684   6.486
11705TIP3   OH235071   6.215   4.569   6.595
11705TIP3    H135072   6.219   4.481   6.558
11705TIP3    H235073   6.253   4.560   6.683
11706TIP3   OH235074   6.678   4.262   6.450
11706TIP3    H135075   6.756   4.206   6.449
11706TIP3    H235076   6.650   4.264   6.359
11707TIP3   OH235077   6.785   4.467   6.597
11707TIP3    H135078   6.752   4.397   6.541
11707TIP3    H235079   6.713   4.531   6.599
11708TIP3   OH235080   6.039   5.711   4.701
11708TIP3    H135081   6.127   5.693   4.670
11708TIP3    H235082   5.997   5.757   4.629
11709TIP3   OH235083   5.503   5.093   4.898
11709TIP3    H135084   5.596   5.111   4.889
11709TIP3    H235085   5.490   5.009   4.853
11710TIP3   OH235086   5.416   5.682   5.338
11710TIP3    H135087   5.350   5.629   5.293
11710TIP3    H235088   5.461   5.621   5.397
11711TIP3   OH235089   5.556   5.512   5.508
11711TIP3    H135090   5.544   5.446   5.576
11711TIP3    H235091   5.606   5.582   5.550
11712TIP3   OH235092   7.292   5.917   5.318
11712TIP3    H135093   7.318   5.942   5.407
11712TIP3    H235094   7.350   5.968   5.261
11713TIP3   OH235095   7.320   5.935   5.596
11713TIP3    H135096   7.267   5.856   5.591
11713TIP3    H235097   7.387   5.916   5.662
11714TIP3   OH235098   7.358   5.649   6.168
11714TIP3    H135099   7.285   5.655   6.230
11714TIP3    H235100   7.403   5.733   6.176
11715TIP3   OH235101   7.353   5.418   5.409
11715TIP3    H135102   7.409   5.349   5.371
11715TIP3    H235103   7.359   5.490   5.347
11716TIP3   OH235104   7.162   5.706   5.597
11716TIP3    H135105   7.095   5.750   5.649
11716TIP3    H235106   7.114   5.667   5.524
11717TIP3   OH235107   7.238   4.952   4.639
11717TIP3    H135108   7.166   4.948   4.576
11717TIP3    H235109   7.233   5.040   4.676
11718TIP3   OH235110   7.084   4.598   4.577
11718TIP3    H135111   7.045   4.630   4.495
11718TIP3    H235112   7.072   4.503   4.573
11719TIP3   OH235113   7.108   4.850   5.121
11719TIP3    H135114   7.122   4.757   5.107
11719TIP3    H235115   7.106   4.860   5.217
11720TIP3   OH235116   5.730   4.947   5.889
11720TIP3    H135117   5.721   4.913   5.800
11720TIP3    H235118   5.825   4.946   5.905
11721TIP3   OH235119   7.395   5.302   5.981
11721TIP3    H135120   7.460   5.233   5.967
11721TIP3    H235121   7.412   5.365   5.910
11722TIP3   OH235122   7.569   5.090   5.976
11722TIP3    H135123   7.495   5.046   6.020
11722TIP3    H235124   7.645   5.036   5.998
11723TIP3   OH235125   7.038   4.329   4.554
11723TIP3    H135126   7.106   4.295   4.612
11723TIP3    H235127   6.959   4.280   4.578
11724TIP3   OH235128   7.107   4.591   4.999
11724TIP3    H135129   7.150   4.507   5.013
11724TIP3    H235130   7.153   4.631   4.926
11725TIP3   OH235131   7.261   4.770   5.526
11725TIP3    H135132   7.343   4.787   5.481
11725TIP3    H235133   7.273   4.807   5.613
11726TIP3   OH235134   7.331   4.919   5.753
11726TIP3    H135135   7.259   4.948   5.809
11726TIP3    H235136   7.364   4.999   5.713
11727TIP3   OH235137   5.950   4.626   6.541
11727TIP3    H135138   6.044   4.623   6.556
11727TIP3    H235139   5.917   4.545   6.579
11728TIP3   OH235140   7.788   4.524   6.297
11728TIP3    H135141   7.850   4.463   6.258
11728TIP3    H235142   7.751   4.571   6.223
11729TIP3   OH235143   7.219   4.346   5.058
11729TIP3    H135144   7.263   4.332   5.142
11729TIP3    H235145   7.156   4.274   5.052
11730TIP3   OH235146   5.922   4.335   5.882
11730TIP3    H135147   5.977   4.257   5.890
11730TIP3    H235148   5.985   4.406   5.868
11731TIP3   OH235149   5.707   4.602   5.948
11731TIP3    H135150   5.758   4.593   5.867
11731TIP3    H235151   5.734   4.687   5.984
11732TIP3   OH235152   7.644   4.634   6.093
11732TIP3    H135153   7.559   4.673   6.115
11732TIP3    H235154   7.621   4.556   6.042
11733TIP3   OH235155   7.272   4.273   4.700
11733TIP3    H135156   7.314   4.210   4.640
11733TIP3    H235157   7.331   4.348   4.701
11734TIP3   OH235158   5.696   4.115   5.456
11734TIP3    H135159   5.608   4.100   5.491
11734TIP3    H235160   5.681   4.168   5.378
11735TIP3   OH235161   6.881   5.797   4.977
11735TIP3    H135162   6.928   5.800   4.893
11735TIP3    H235163   6.907   5.878   5.021
11736TIP3   OH235164   5.920   4.184   6.276
11736TIP3    H135165   5.867   4.172   6.355
11736TIP3    H235166   5.860   4.225   6.214
11737TIP3   OH235167   5.952   5.617   6.346
11737TIP3    H135168   5.858   5.602   6.335
11737TIP3    H235169   5.967   5.607   6.440
11738TIP3   OH235170   6.150   5.672   5.892
11738TIP3    H135171   6.096   5.743   5.857
11738TIP3    H235172   6.234   5.682   5.848
11739TIP3   OH235173   6.564   5.899   6.026
11739TIP3    H135174   6.600   5.892   6.115
11739TIP3    H235175   6.627   5.954   5.979
11740TIP3   OH235176   6.754   6.056   5.900
11740TIP3    H135177   6.820   5.998   5.863
11740TIP3    H235178   6.803   6.116   5.956
11741TIP3   OH235179   7.554   4.382   5.995
11741TIP3    H135180   7.464   4.365   5.968
11741TIP3    H235181   7.597   4.296   5.989
11742TIP3   OH235182   5.819   5.909   5.939
11742TIP3    H135183   5.728   5.925   5.914
11742TIP3    H235184   5.840   5.979   6.001
11743TIP3   OH235185   6.045   5.903   5.773
11743TIP3    H135186   5.962   5.912   5.821
11743TIP3    H235187   6.025   5.939   5.686
11744TIP3   OH235188   6.479   5.915   5.579
11744TIP3    H135189   6.401   5.922   5.525
11744TIP3    H235190   6.487   6.000   5.621
11745TIP3   OH235191   6.741   5.848   5.619
11745TIP3    H135192   6.647   5.864   5.610
11745TIP3    H235193   6.783   5.922   5.574
11746TIP3   OH235194   6.951   6.042   5.533
11746TIP3    H135195   6.934   6.126   5.489
11746TIP3    H235196   6.973   5.982   5.462
11747TIP3   OH235197   5.726   5.689   5.656
11747TIP3    H135198   5.751   5.665   5.746
11747TIP3    H235199   5.798   5.657   5.602
11748TIP3   OH235200   5.927   5.572   5.515
11748TIP3    H135201   5.939   5.490   5.565
11748TIP3    H235202   6.013   5.613   5.517
11749TIP3   OH235203   6.194   5.647   5.541
11749TIP3    H135204   6.217   5.554   5.538
11749TIP3    H235205   6.245   5.683   5.613
11750TIP3   OH235206   6.759   4.311   5.624
11750TIP3    H135207   6.722   4.240   5.676
11750TIP3    H235208   6.829   4.269   5.573
11751TIP3   OH235209   7.268   4.221   5.517
11751TIP3    H135210   7.303   4.270   5.443
11751TIP3    H235211   7.174   4.238   5.515
11752TIP3   OH235212   7.377   4.306   5.280
11752TIP3    H135213   7.447   4.246   5.252
11752TIP3    H235214   7.413   4.393   5.265
11753TIP3   OH235215   6.003   4.013   5.628
11753TIP3    H135216   5.913   3.981   5.636
11753TIP3    H235217   6.056   3.934   5.621
11754TIP3   OH235218   5.815   3.917   5.282
11754TIP3    H135219   5.841   3.968   5.205
11754TIP3    H235220   5.781   3.983   5.344
11755TIP3   OH235221   6.472   4.057   5.520
11755TIP3    H135222   6.524   4.103   5.454
11755TIP3    H235223   6.513   4.080   5.603
11756TIP3   OH235224   6.982   4.202   5.493
11756TIP3    H135225   6.990   4.164   5.405
11756TIP3    H235226   6.982   4.127   5.552
11757TIP3   OH235227   7.030   4.140   5.062
11757TIP3    H135228   6.949   4.185   5.086
11757TIP3    H235229   7.022   4.053   5.101
11758TIP3   OH235230   5.503   5.485   5.045
11758TIP3    H135231   5.417   5.452   5.016
11758TIP3    H235232   5.505   5.575   5.014
11759TIP3   OH235233   5.925   4.051   5.043
11759TIP3    H135234   5.969   3.988   4.987
11759TIP3    H235235   5.996   4.105   5.078
11760TIP3   OH235236   6.418   4.246   5.139
11760TIP3    H135237   6.473   4.191   5.194
11760TIP3    H235238   6.436   4.336   5.168
11761TIP3   OH235239   6.296   5.642   4.632
11761TIP3    H135240   6.379   5.671   4.594
11761TIP3    H235241   6.268   5.570   4.575
11762TIP3   OH235242   7.007   5.778   4.731
11762TIP3    H135243   6.997   5.683   4.719
11762TIP3    H235244   6.961   5.816   4.655
11763TIP3   OH235245   6.222   4.296   6.510
11763TIP3    H135246   6.187   4.228   6.568
11763TIP3    H235247   6.314   4.303   6.535
11764TIP3   OH235248   6.470   4.305   6.631
11764TIP3    H135249   6.545   4.287   6.574
11764TIP3    H235250   6.468   4.232   6.692
11765TIP3   OH235251   5.593   5.487   4.689
11765TIP3    H135252   5.593   5.503   4.784
11765TIP3    H235253   5.675   5.440   4.673
11766TIP3   OH235254   7.302   4.383   6.420
11766TIP3    H135255   7.316   4.354   6.510
11766TIP3    H235256   7.388   4.377   6.378
11767TIP3   OH235257   7.223   5.920   5.911
11767TIP3    H135258   7.145   5.888   5.865
11767TIP3    H235259   7.202   6.012   5.931
11768TIP3   OH235260   8.491   5.320   4.659
11768TIP3    H135261   8.447   5.402   4.639
11768TIP3    H235262   8.426   5.252   4.643
11769TIP3   OH235263   8.446   5.307   5.068
11769TIP3    H135264   8.490   5.294   5.152
11769TIP3    H235265   8.408   5.222   5.047
11770TIP3   OH235266   7.787   5.171   5.437
11770TIP3    H135267   7.818   5.115   5.508
11770TIP3    H235268   7.866   5.206   5.397
11771TIP3   OH235269   0.239   5.593   4.772
11771TIP3    H135270   0.216   5.549   4.853
11771TIP3    H235271   0.252   5.685   4.797
11772TIP3   OH235272   7.775   5.602   5.136
11772TIP3    H135273   7.761   5.507   5.141
11772TIP3    H235274   7.870   5.611   5.123
11773TIP3   OH235275   7.469   4.796   4.931
11773TIP3    H135276   7.433   4.862   4.990
11773TIP3    H235277   7.392   4.760   4.887
11774TIP3   OH235278   7.535   5.089   5.121
11774TIP3    H135279   7.587   5.014   5.151
11774TIP3    H235280   7.594   5.136   5.061
11775TIP3   OH235281   8.416   6.044   4.775
11775TIP3    H135282   8.444   5.974   4.717
11775TIP3    H235283   8.388   5.999   4.855
11776TIP3   OH235284   8.274   5.526   5.078
11776TIP3    H135285   8.314   5.443   5.052
11776TIP3    H235286   8.347   5.577   5.113
11777TIP3   OH235287   0.161   5.035   5.123
11777TIP3    H135288   0.167   4.950   5.167
11777TIP3    H235289   0.094   5.022   5.055
11778TIP3   OH235290   8.042   4.678   5.093
11778TIP3    H135291   8.014   4.747   5.034
11778TIP3    H235292   7.997   4.600   5.063
11779TIP3   OH235293   0.197   4.776   4.713
11779TIP3    H135294   0.234   4.729   4.788
11779TIP3    H235295   0.195   4.868   4.741
11780TIP3   OH235296   7.683   4.878   5.215
11780TIP3    H135297   7.763   4.859   5.264
11780TIP3    H235298   7.690   4.824   5.136
11781TIP3   OH235299   8.098   5.086   5.028
11781TIP3    H135300   8.191   5.068   5.039
11781TIP3    H235301   8.062   5.004   4.992
11782TIP3   OH235302   8.032   4.681   5.552
11782TIP3    H135303   7.979   4.713   5.479
11782TIP3    H235304   7.978   4.695   5.629
11783TIP3   OH235305   8.365   5.532   4.538
11783TIP3    H135306   8.327   5.499   4.457
11783TIP3    H235307   8.310   5.606   4.562
11784TIP3   OH235308   8.136   5.454   5.305
11784TIP3    H135309   8.074   5.519   5.339
11784TIP3    H235310   8.172   5.494   5.226
11785TIP3   OH235311   7.921   4.776   5.319
11785TIP3    H135312   7.975   4.852   5.341
11785TIP3    H235313   7.966   4.735   5.245
11786TIP3   OH235314   7.965   5.644   5.406
11786TIP3    H135315   7.948   5.733   5.376
11786TIP3    H235316   7.891   5.623   5.462
11787TIP3   OH235317   7.372   5.346   4.660
11787TIP3    H135318   7.328   5.366   4.577
11787TIP3    H235319   7.391   5.432   4.698
11788TIP3   OH235320   0.239   5.850   4.864
11788TIP3    H135321   0.166   5.872   4.922
11788TIP3    H235322   0.268   5.934   4.829
11789TIP3   OH235323   8.323   4.363   5.243
11789TIP3    H135324   8.325   4.277   5.284
11789TIP3    H235325   8.258   4.412   5.293
11790TIP3   OH235326   0.015   5.889   4.567
11790TIP3    H135327   0.068   5.809   4.570
11790TIP3    H235328   0.077   5.958   4.541
11791TIP3   OH235329   0.118   5.624   4.529
11791TIP3    H135330   0.031   5.587   4.538
11791TIP3    H235331   0.159   5.609   4.615
11792TIP3   OH235332   0.603   5.762   5.270
11792TIP3    H135333   0.647   5.677   5.264
11792TIP3    H235334   0.562   5.775   5.185
11793TIP3   OH235335   8.300   5.166   4.524
11793TIP3    H135336   8.219   5.216   4.512
11793TIP3    H235337   8.328   5.145   4.435
11794TIP3   OH235338   8.261   4.922   4.248
11794TIP3    H135339   8.332   4.969   4.291
11794TIP3    H235340   8.305   4.860   4.190
11795TIP3   OH235341   0.169   5.273   4.457
11795TIP3    H135342   0.103   5.296   4.522
11795TIP3    H235343   0.182   5.179   4.467
11796TIP3   OH235344   0.296   5.274   5.493
11796TIP3    H135345   0.352   5.337   5.538
11796TIP3    H235346   0.235   5.329   5.443
11797TIP3   OH235347   7.898   5.219   4.891
11797TIP3    H135348   7.862   5.161   4.824
11797TIP3    H235349   7.971   5.171   4.929
11798TIP3   OH235350   8.030   5.647   5.023
11798TIP3    H135351   8.000   5.630   4.933
11798TIP3    H235352   8.114   5.603   5.029
11799TIP3   OH235353   8.013   5.211   5.261
11799TIP3    H135354   8.047   5.177   5.178
11799TIP3    H235355   8.062   5.293   5.274
11800TIP3   OH235356   0.045   5.880   5.068
11800TIP3    H135357   0.057   5.892   5.162
11800TIP3    H235358   0.016   5.789   5.059
11801TIP3   OH235359   8.174   5.742   5.554
11801TIP3    H135360   8.121   5.800   5.608
11801TIP3    H235361   8.111   5.694   5.501
11802TIP3   OH235362   8.483   5.069   4.323
11802TIP3    H135363   8.477   5.165   4.324
11802TIP3    H235364   8.531   5.049   4.242
11803TIP3   OH235365   7.937   5.310   5.698
11803TIP3    H135366   7.942   5.400   5.731
11803TIP3    H235367   7.844   5.289   5.699
11804TIP3   OH235368   8.255   5.780   4.580
11804TIP3    H135369   8.336   5.831   4.575
11804TIP3    H235370   8.193   5.827   4.523
11805TIP3   OH235371   7.976   5.906   5.662
11805TIP3    H135372   7.945   5.913   5.571
11805TIP3    H235373   7.897   5.883   5.712
11806TIP3   OH235374   7.779   5.061   4.690
11806TIP3    H135375   7.704   5.106   4.652
11806TIP3    H235376   7.750   4.971   4.703
11807TIP3   OH235377   0.452   5.674   3.818
11807TIP3    H135378   0.373   5.727   3.805
11807TIP3    H235379   0.517   5.713   3.759
11808TIP3   OH235380   7.555   5.458   5.610
11808TIP3    H135381   7.488   5.436   5.546
11808TIP3    H235382   7.592   5.373   5.635
11809TIP3   OH235383   7.411   5.649   5.252
11809TIP3    H135384   7.506   5.657   5.254
11809TIP3    H235385   7.379   5.728   5.296
11810TIP3   OH235386   8.376   5.912   5.470
11810TIP3    H135387   8.400   5.933   5.560
11810TIP3    H235388   8.300   5.854   5.478
11811TIP3   OH235389   8.151   6.002   4.390
11811TIP3    H135390   8.097   5.977   4.315
11811TIP3    H235391   8.113   6.085   4.420
11812TIP3   OH235392   7.580   5.848   4.772
11812TIP3    H135393   7.624   5.841   4.857
11812TIP3    H235394   7.531   5.766   4.763
11813TIP3   OH235395   8.327   5.953   4.040
11813TIP3    H135396   8.356   5.873   3.996
11813TIP3    H235397   8.375   5.953   4.123
11814TIP3   OH235398   8.408   5.962   4.310
11814TIP3    H135399   8.315   5.968   4.330
11814TIP3    H235400   8.451   5.953   4.396
11815TIP3   OH235401   7.756   5.646   5.584
11815TIP3    H135402   7.804   5.638   5.666
11815TIP3    H235403   7.685   5.581   5.591
11816TIP3   OH235404   8.124   4.469   5.401
11816TIP3    H135405   8.040   4.436   5.371
11816TIP3    H235406   8.103   4.546   5.454
11817TIP3   OH235407   0.094   4.653   5.651
11817TIP3    H135408   0.145   4.602   5.713
11817TIP3    H235409   0.003   4.627   5.668
11818TIP3   OH235410   0.512   5.115   5.599
11818TIP3    H135411   0.459   5.052   5.648
11818TIP3    H235412   0.462   5.130   5.518
11819TIP3   OH235413   0.127   5.091   4.097
11819TIP3    H135414   0.081   5.141   4.030
11819TIP3    H235415   0.207   5.142   4.114
11820TIP3   OH235416   8.272   4.489   4.366
11820TIP3    H135417   8.240   4.496   4.456
11820TIP3    H235418   8.236   4.407   4.334
11821TIP3   OH235419   8.071   4.987   5.407
11821TIP3    H135420   8.026   4.996   5.491
11821TIP3    H235421   8.051   5.068   5.361
11822TIP3   OH235422   7.959   4.873   4.921
11822TIP3    H135423   7.871   4.846   4.946
11822TIP3    H235424   7.971   4.838   4.833
11823TIP3   OH235425   8.420   4.956   4.655
11823TIP3    H135426   8.376   5.030   4.611
11823TIP3    H235427   8.477   4.919   4.587
11824TIP3   OH235428   0.131   5.247   5.761
11824TIP3    H135429   0.111   5.165   5.807
11824TIP3    H235430   0.226   5.255   5.767
11825TIP3   OH235431   0.045   4.937   4.897
11825TIP3    H135432   0.010   4.976   4.816
11825TIP3    H235433   0.028   4.843   4.888
11826TIP3   OH235434   7.909   5.001   5.629
11826TIP3    H135435   7.930   5.063   5.699
11826TIP3    H235436   7.890   4.919   5.674
11827TIP3   OH235437   7.949   4.485   4.332
11827TIP3    H135438   7.940   4.485   4.427
11827TIP3    H235439   7.873   4.533   4.300
11828TIP3   OH235440   7.502   4.530   5.196
11828TIP3    H135441   7.576   4.561   5.249
11828TIP3    H235442   7.542   4.498   5.115
11829TIP3   OH235443   7.431   4.505   4.715
11829TIP3    H135444   7.475   4.537   4.636
11829TIP3    H235445   7.372   4.576   4.739
11830TIP3   OH235446   0.079   5.235   5.294
11830TIP3    H135447   0.120   5.168   5.240
11830TIP3    H235448   0.063   5.191   5.378
11831TIP3   OH235449   8.289   4.757   4.992
11831TIP3    H135450   8.209   4.730   5.037
11831TIP3    H235451   8.357   4.697   5.025
11832TIP3   OH235452   7.732   4.736   4.985
11832TIP3    H135453   7.642   4.740   4.953
11832TIP3    H235454   7.759   4.646   4.968
11833TIP3   OH235455   7.970   4.746   4.680
11833TIP3    H135456   8.064   4.751   4.666
11833TIP3    H235457   7.932   4.761   4.594
11834TIP3   OH235458   0.145   4.773   5.199
11834TIP3    H135459   0.115   4.788   5.289
11834TIP3    H235460   0.237   4.748   5.207
11835TIP3   OH235461   7.845   4.768   4.439
11835TIP3    H135462   7.780   4.719   4.389
11835TIP3    H235463   7.896   4.815   4.373
11836TIP3   OH235464   7.926   5.567   5.817
11836TIP3    H135465   8.000   5.600   5.867
11836TIP3    H235466   7.854   5.564   5.880
11837TIP3   OH235467   8.360   5.034   5.092
11837TIP3    H135468   8.382   4.961   5.034
11837TIP3    H235469   8.357   4.996   5.180
11838TIP3   OH235470   7.877   4.491   4.969
11838TIP3    H135471   7.845   4.416   5.020
11838TIP3    H235472   7.909   4.452   4.887
11839TIP3   OH235473   8.335   4.946   5.355
11839TIP3    H135474   8.242   4.961   5.373
11839TIP3    H235475   8.381   5.009   5.410
11840TIP3   OH235476   8.062   5.304   4.464
11840TIP3    H135477   7.993   5.240   4.445
11840TIP3    H235478   8.043   5.335   4.552
11841TIP3   OH235479   0.432   5.510   5.153
11841TIP3    H135480   0.472   5.443   5.097
11841TIP3    H235481   0.341   5.513   5.125
11842TIP3   OH235482   8.492   4.632   4.311
11842TIP3    H135483   8.408   4.597   4.341
11842TIP3    H235484   8.508   4.708   4.367
11843TIP3   OH235485   0.018   5.646   5.470
11843TIP3    H135486   0.051   5.606   5.550
11843TIP3    H235487  -0.048   5.708   5.499
11844TIP3   OH235488   0.071   4.851   4.450
11844TIP3    H135489   0.166   4.854   4.454
11844TIP3    H235490   0.047   4.929   4.398
11845TIP3   OH235491   7.789   5.324   5.123
11845TIP3    H135492   7.820   5.296   5.037
11845TIP3    H235493   7.844   5.276   5.185
11846TIP3   OH235494   8.221   5.464   4.312
11846TIP3    H135495   8.174   5.547   4.310
11846TIP3    H235496   8.161   5.404   4.357
11847TIP3   OH235497   7.670   5.241   5.747
11847TIP3    H135498   7.691   5.227   5.840
11847TIP3    H235499   7.599   5.179   5.730
11848TIP3   OH235500   8.370   5.346   5.761
11848TIP3    H135501   8.303   5.285   5.730
11848TIP3    H235502   8.453   5.307   5.733
11849TIP3   OH235503   0.121   5.983   5.318
11849TIP3    H135504   0.041   5.968   5.367
11849TIP3    H235505   0.187   5.928   5.361
11850TIP3   OH235506   0.368   5.749   4.154
11850TIP3    H135507   0.297   5.760   4.216
11850TIP3    H235508   0.351   5.664   4.113
11851TIP3   OH235509   0.181   5.465   5.021
11851TIP3    H135510   0.089   5.439   5.023
11851TIP3    H235511   0.227   5.387   4.991
11852TIP3   OH235512   7.892   5.640   4.778
11852TIP3    H135513   7.891   5.717   4.721
11852TIP3    H235514   7.800   5.620   4.793
11853TIP3   OH235515   7.468   4.924   4.484
11853TIP3    H135516   7.512   5.007   4.502
11853TIP3    H235517   7.389   4.927   4.540
11854TIP3   OH235518   8.005   5.398   4.708
11854TIP3    H135519   7.976   5.487   4.730
11854TIP3    H235520   7.969   5.343   4.778
11855TIP3   OH235521   8.183   5.965   5.247
11855TIP3    H135522   8.209   6.041   5.195
11855TIP3    H235523   8.256   5.952   5.307
11856TIP3   OH235524   7.814   5.865   4.627
11856TIP3    H135525   7.727   5.872   4.667
11856TIP3    H235526   7.848   5.955   4.630
11857TIP3   OH235527   0.005   5.626   5.191
11857TIP3    H135528   0.000   5.626   5.287
11857TIP3    H235529   0.081   5.572   5.171
11858TIP3   OH235530   0.019   5.569   4.083
11858TIP3    H135531   0.088   5.544   4.144
11858TIP3    H235532  -0.048   5.502   4.093
11859TIP3   OH235533   7.862   4.751   5.757
11859TIP3    H135534   7.767   4.760   5.760
11859TIP3    H235535   7.884   4.696   5.831
11860TIP3   OH235536   0.178   5.490   4.292
11860TIP3    H135537   0.183   5.405   4.336
11860TIP3    H235538   0.144   5.550   4.358
11861TIP3   OH235539   7.604   5.850   5.395
11861TIP3    H135540   7.654   5.786   5.445
11861TIP3    H235541   7.621   5.933   5.439
11862TIP3   OH235542   7.878   5.475   4.085
11862TIP3    H135543   7.893   5.385   4.057
11862TIP3    H235544   7.857   5.468   4.178
11863TIP3   OH235545   7.821   5.486   4.356
11863TIP3    H135546   7.896   5.458   4.408
11863TIP3    H235547   7.820   5.582   4.364
11864TIP3   OH235548   7.563   5.176   4.561
11864TIP3    H135549   7.499   5.223   4.613
11864TIP3    H235550   7.581   5.234   4.487
11865TIP3   OH235551   0.110   4.848   5.465
11865TIP3    H135552   0.202   4.877   5.468
11865TIP3    H235553   0.101   4.788   5.539
11866TIP3   OH235554   0.028   4.578   4.625
11866TIP3    H135555   0.075   4.538   4.552
11866TIP3    H235556   0.075   4.660   4.641
11867TIP3   OH235557   8.089   5.697   4.315
11867TIP3    H135558   8.000   5.714   4.344
11867TIP3    H235559   8.104   5.760   4.245
11868TIP3   OH235560   8.246   4.756   4.718
11868TIP3    H135561   8.306   4.824   4.687
11868TIP3    H235562   8.256   4.758   4.814
11869TIP3   OH235563   0.026   5.100   5.522
11869TIP3    H135564   0.066   5.133   5.603
11869TIP3    H235565   0.051   5.008   5.519
11870TIP3   OH235566   8.391   4.478   4.832
11870TIP3    H135567   8.418   4.532   4.906
11870TIP3    H235568   8.433   4.518   4.756
11871TIP3   OH235569   7.831   5.760   4.375
11871TIP3    H135570   7.807   5.829   4.313
11871TIP3    H235571   7.820   5.800   4.461
11872TIP3   OH235572   7.922   4.473   4.612
11872TIP3    H135573   7.909   4.562   4.644
11872TIP3    H235574   8.017   4.460   4.617
11873TIP3   OH235575   0.259   5.219   4.943
11873TIP3    H135576   0.209   5.174   4.874
11873TIP3    H235577   0.243   5.167   5.021
11874TIP3   OH235578   7.569   5.364   4.350
11874TIP3    H135579   7.640   5.428   4.360
11874TIP3    H235580   7.603   5.301   4.286
11875TIP3   OH235581   7.492   4.646   4.488
11875TIP3    H135582   7.502   4.742   4.490
11875TIP3    H235583   7.433   4.630   4.415
11876TIP3   OH235584   0.305   6.128   4.835
11876TIP3    H135585   0.268   6.175   4.760
11876TIP3    H235586   0.398   6.153   4.836
11877TIP3   OH235587   7.873   4.370   5.357
11877TIP3    H135588   7.848   4.336   5.272
11877TIP3    H235589   7.866   4.296   5.417
11878TIP3   OH235590   7.411   5.621   4.746
11878TIP3    H135591   7.364   5.656   4.822
11878TIP3    H235592   7.370   5.663   4.671
11879TIP3   OH235593   7.562   6.145   5.811
11879TIP3    H135594   7.644   6.144   5.861
11879TIP3    H235595   7.536   6.053   5.806
11880TIP3   OH235596   8.022   6.125   5.826
11880TIP3    H135597   8.104   6.163   5.795
11880TIP3    H235598   8.010   6.046   5.774
11881TIP3   OH235599   8.037   5.673   3.984
11881TIP3    H135600   7.985   5.604   4.025
11881TIP3    H235601   8.106   5.625   3.937
11882TIP3   OH235602   8.398   5.729   3.909
11882TIP3    H135603   8.450   5.674   3.967
11882TIP3    H235604   8.450   5.737   3.830
11883TIP3   OH235605   7.715   5.545   5.994
11883TIP3    H135606   7.731   5.451   6.005
11883TIP3    H235607   7.627   5.550   5.956
11884TIP3   OH235608   7.701   5.173   4.208
11884TIP3    H135609   7.752   5.148   4.286
11884TIP3    H235610   7.767   5.188   4.140
11885TIP3   OH235611   8.306   5.616   5.764
11885TIP3    H135612   8.256   5.629   5.683
11885TIP3    H235613   8.332   5.524   5.761
11886TIP3   OH235614   8.238   5.395   4.046
11886TIP3    H135615   8.236   5.417   4.139
11886TIP3    H235616   8.221   5.301   4.043
11887TIP3   OH235617   0.242   5.525   5.367
11887TIP3    H135618   0.291   5.583   5.309
11887TIP3    H235619   0.169   5.578   5.397
11888TIP3   OH235620   7.832   5.282   5.992
11888TIP3    H135621   7.917   5.257   5.957
11888TIP3    H235622   7.848   5.300   6.084
11889TIP3   OH235623   7.873   5.109   4.422
11889TIP3    H135624   7.853   5.074   4.509
11889TIP3    H235625   7.914   5.036   4.375
11890TIP3   OH235626   8.174   5.176   5.657
11890TIP3    H135627   8.092   5.225   5.668
11890TIP3    H235628   8.210   5.207   5.574
11891TIP3   OH235629   7.987   4.917   4.262
11891TIP3    H135630   7.963   4.924   4.169
11891TIP3    H235631   8.083   4.914   4.261
11892TIP3   OH235632   0.148   5.523   5.679
11892TIP3    H135633   0.244   5.525   5.678
11892TIP3    H235634   0.126   5.440   5.721
11893TIP3   OH235635   8.293   4.962   5.780
11893TIP3    H135636   8.294   4.887   5.721
11893TIP3    H235637   8.252   5.032   5.729
11894TIP3   OH235638   8.292   4.762   5.579
11894TIP3    H135639   8.322   4.799   5.496
11894TIP3    H235640   8.199   4.742   5.564
11895TIP3   OH235641   8.297   5.283   5.442
11895TIP3    H135642   8.385   5.291   5.406
11895TIP3    H235643   8.247   5.351   5.396
11896TIP3   OH235644   0.411   5.286   5.791
11896TIP3    H135645   0.434   5.237   5.712
11896TIP3    H235646   0.468   5.250   5.859
11897TIP3   OH235647   0.419   5.535   5.578
11897TIP3    H135648   0.357   5.555   5.508
11897TIP3    H235649   0.490   5.487   5.533
11898TIP3   OH235650   8.155   5.060   6.008
11898TIP3    H135651   8.094   4.992   6.034
11898TIP3    H235652   8.194   5.028   5.926
11899TIP3   OH235653   8.362   4.508   5.682
11899TIP3    H135654   8.313   4.587   5.656
11899TIP3    H235655   8.299   4.437   5.671
11900TIP3   OH235656   0.060   5.009   5.872
11900TIP3    H135657   0.079   4.985   5.962
11900TIP3    H235658  -0.031   4.983   5.859
11901TIP3   OH235659   0.303   4.979   5.736
11901TIP3    H135660   0.213   4.976   5.769
11901TIP3    H235661   0.356   4.950   5.810
11902TIP3   OH235662   0.431   4.919   5.974
11902TIP3    H135663   0.477   4.837   5.991
11902TIP3    H235664   0.357   4.918   6.036
11903TIP3   OH235665   8.012   4.827   6.077
11903TIP3    H135666   8.017   4.738   6.041
11903TIP3    H235667   8.048   4.819   6.165
11904TIP3   OH235668   8.469   4.498   5.939
11904TIP3    H135669   8.530   4.425   5.941
11904TIP3    H235670   8.428   4.493   5.852
11905TIP3   OH235671   0.052   4.721   6.077
11905TIP3    H135672   0.032   4.649   6.018
11905TIP3    H235673  -0.022   4.781   6.069
11906TIP3   OH235674   7.819   5.966   4.191
11906TIP3    H135675   7.910   5.948   4.167
11906TIP3    H235676   7.783   6.013   4.117
11907TIP3   OH235677   7.297   5.346   4.376
11907TIP3    H135678   7.391   5.362   4.370
11907TIP3    H235679   7.285   5.260   4.336
11908TIP3   OH235680   7.208   5.939   4.825
11908TIP3    H135681   7.147   5.882   4.778
11908TIP3    H235682   7.254   5.881   4.886
11909TIP3   OH235683   7.349   5.774   4.999
11909TIP3    H135684   7.342   5.706   5.066
11909TIP3    H235685   7.400   5.844   5.041
11910TIP3   OH235686   0.348   6.051   5.108
11910TIP3    H135687   0.435   6.049   5.148
11910TIP3    H235688   0.365   6.071   5.016
11911TIP3   OH235689   0.482   5.059   4.658
11911TIP3    H135690   0.575   5.036   4.664
11911TIP3    H235691   0.482   5.149   4.625
11912TIP3   OH235692   7.524   5.205   5.370
11912TIP3    H135693   7.515   5.168   5.282
11912TIP3    H235694   7.618   5.202   5.387
11913TIP3   OH235695   7.746   4.886   6.034
11913TIP3    H135696   7.841   4.879   6.043
11913TIP3    H235697   7.713   4.804   6.070
11914TIP3   OH235698   7.710   4.593   5.371
11914TIP3    H135699   7.762   4.513   5.377
11914TIP3    H235700   7.775   4.662   5.358
11915TIP3   OH235701   7.506   4.857   5.436
11915TIP3    H135702   7.555   4.851   5.354
11915TIP3    H235703   7.535   4.940   5.474
11916TIP3   OH235704   7.493   4.370   4.944
11916TIP3    H135705   7.406   4.352   4.978
11916TIP3    H235706   7.478   4.424   4.866
11917TIP3   OH235707   0.153   6.094   4.454
11917TIP3    H135708   0.206   6.088   4.374
11917TIP3    H235709   0.194   6.164   4.504
11918TIP3   OH235710   7.705   4.438   5.762
11918TIP3    H135711   7.652   4.424   5.840
11918TIP3    H235712   7.647   4.482   5.700
11919TIP3   OH235713   7.755   5.868   5.825
11919TIP3    H135714   7.660   5.859   5.813
11919TIP3    H235715   7.768   5.868   5.920
11920TIP3   OH235716   7.946   5.920   5.380
11920TIP3    H135717   7.895   5.994   5.347
11920TIP3    H235718   8.032   5.930   5.339
11921TIP3   OH235719   7.609   6.165   5.419
11921TIP3    H135720   7.518   6.185   5.395
11921TIP3    H235721   7.630   6.228   5.488
11922TIP3   OH235722   7.842   6.151   5.273
11922TIP3    H135723   7.759   6.158   5.320
11922TIP3    H235724   7.822   6.180   5.184
11923TIP3   OH235725   8.235   6.189   5.101
11923TIP3    H135726   8.187   6.201   5.020
11923TIP3    H235727   8.193   6.249   5.163
11924TIP3   OH235728   0.152   6.249   5.044
11924TIP3    H135729   0.114   6.336   5.029
11924TIP3    H235730   0.197   6.228   4.963
11925TIP3   OH235731   7.523   5.950   5.147
11925TIP3    H135732   7.549   5.923   5.235
11925TIP3    H235733   7.595   5.918   5.091
11926TIP3   OH235734   7.726   5.836   5.006
11926TIP3    H135735   7.736   5.753   5.052
11926TIP3    H235736   7.813   5.876   5.008
11927TIP3   OH235737   7.997   5.923   5.030
11927TIP3    H135738   8.013   5.830   5.015
11927TIP3    H235739   8.048   5.944   5.108
11928TIP3   OH235740  -0.004   4.594   5.056
11928TIP3    H135741   0.004   4.521   5.118
11928TIP3    H235742   0.051   4.663   5.092
11929TIP3   OH235743   7.796   4.269   5.112
11929TIP3    H135744   7.707   4.237   5.120
11929TIP3    H235745   7.850   4.190   5.104
11930TIP3   OH235746   7.605   4.171   4.767
11930TIP3    H135747   7.633   4.220   4.690
11930TIP3    H235748   7.575   4.238   4.829
11931TIP3   OH235749   8.227   4.317   4.989
11931TIP3    H135750   8.276   4.376   4.932
11931TIP3    H235751   8.260   4.338   5.077
11932TIP3   OH235752   0.455   4.393   4.963
11932TIP3    H135753   0.389   4.413   4.896
11932TIP3    H235754   0.410   4.335   5.024
11933TIP3   OH235755   7.291   5.745   4.533
11933TIP3    H135756   7.208   5.714   4.497
11933TIP3    H235757   7.299   5.835   4.500
11934TIP3   OH235758   7.714   4.304   4.532
11934TIP3    H135759   7.759   4.241   4.477
11934TIP3    H235760   7.784   4.361   4.565
11935TIP3   OH235761   8.193   4.503   4.630
11935TIP3    H135762   8.243   4.449   4.692
11935TIP3    H235763   8.217   4.593   4.652
11936TIP3   OH235764   8.077   5.901   4.128
11936TIP3    H135765   8.156   5.940   4.091
11936TIP3    H235766   8.054   5.830   4.068
11937TIP3   OH235767   0.313   6.064   4.223
11937TIP3    H135768   0.359   5.982   4.202
11937TIP3    H235769   0.253   6.077   4.150
11938TIP3   OH235770   8.017   4.552   5.998
11938TIP3    H135771   7.979   4.487   6.056
11938TIP3    H235772   8.109   4.559   6.025
11939TIP3   OH235773   8.262   4.556   6.123
11939TIP3    H135774   8.340   4.535   6.072
11939TIP3    H235775   8.258   4.487   6.189
11940TIP3   OH235776   7.393   5.741   4.179
11940TIP3    H135777   7.399   5.762   4.272
11940TIP3    H235778   7.475   5.696   4.159
11941TIP3   OH235779   0.958   6.097   6.353
11941TIP3    H135780   0.940   6.153   6.429
11941TIP3    H235781   0.872   6.065   6.326
11942TIP3   OH235782   0.963   6.066   6.745
11942TIP3    H135783   0.991   6.066   6.837
11942TIP3    H235784   0.915   5.984   6.734
11943TIP3   OH235785   1.207   6.386   6.447
11943TIP3    H135786   1.203   6.321   6.518
11943TIP3    H235787   1.231   6.467   6.491
11944TIP3   OH235788   0.887   6.880   6.432
11944TIP3    H135789   0.896   6.788   6.407
11944TIP3    H235790   0.897   6.880   6.527
11945TIP3   OH235791   0.779   6.269   6.791
11945TIP3    H135792   0.836   6.201   6.754
11945TIP3    H235793   0.836   6.345   6.799
11946TIP3   OH235794   1.778   5.632   6.796
11946TIP3    H135795   1.800   5.714   6.840
11946TIP3    H235796   1.803   5.646   6.705
11947TIP3   OH235797   1.176   5.800   6.818
11947TIP3    H135798   1.212   5.715   6.845
11947TIP3    H235799   1.132   5.782   6.736
11948TIP3   OH235800   1.216   5.561   6.412
11948TIP3    H135801   1.278   5.552   6.484
11948TIP3    H235802   1.268   5.595   6.339
11949TIP3   OH235803   7.516   1.838   0.024
11949TIP3    H135804   7.428   1.874   0.016
11949TIP3    H235805   7.549   1.874   0.107
11950TIP3   OH235806   0.806   6.316   6.198
11950TIP3    H135807   0.898   6.293   6.183
11950TIP3    H235808   0.809   6.395   6.252
11951TIP3   OH235809   1.379   5.576   6.628
11951TIP3    H135810   1.339   5.554   6.712
11951TIP3    H235811   1.435   5.651   6.647
11952TIP3   OH235812   1.247   6.638   6.579
11952TIP3    H135813   1.154   6.626   6.597
11952TIP3    H235814   1.253   6.726   6.543
11953TIP3   OH235815   1.577   5.523   6.963
11953TIP3    H135816   1.492   5.551   6.932
11953TIP3    H235817   1.639   5.550   6.895
11954TIP3   OH235818   6.534   1.142   0.006
11954TIP3    H135819   6.523   1.050   0.028
11954TIP3    H235820   6.473   1.188   0.064
11955TIP3   OH235821   0.946   6.650   6.251
11955TIP3    H135822   0.993   6.567   6.243
11955TIP3    H235823   1.007   6.715   6.217
11956TIP3   OH235824   1.078   6.408   6.207
11956TIP3    H135825   1.125   6.354   6.143
11956TIP3    H235826   1.126   6.397   6.288
11957TIP3   OH235827   1.534   6.532   6.889
11957TIP3    H135828   1.498   6.460   6.838
11957TIP3    H235829   1.500   6.611   6.845
11958TIP3   OH235830   0.768   5.944   6.213
11958TIP3    H135831   0.674   5.930   6.201
11958TIP3    H235832   0.805   5.937   6.125
11959TIP3   OH235833   0.797   5.652   5.946
11959TIP3    H135834   0.839   5.728   5.987
11959TIP3    H235835   0.859   5.623   5.879
11960TIP3   OH235836   1.681   6.189   6.799
11960TIP3    H135837   1.593   6.226   6.795
11960TIP3    H235838   1.717   6.204   6.712
11961TIP3   OH235839   1.126   6.010   6.160
11961TIP3    H135840   1.075   6.043   6.234
11961TIP3    H235841   1.210   5.984   6.199
11962TIP3   OH235842   7.032   2.011   0.119
11962TIP3    H135843   7.045   2.087   0.176
11962TIP3    H235844   6.943   2.020   0.086
11963TIP3   OH235845   0.979   6.619   6.631
11963TIP3    H135846   0.966   6.697   6.685
11963TIP3    H235847   0.965   6.546   6.691
11964TIP3   OH235848   0.942   5.883   6.001
11964TIP3    H135849   1.005   5.931   6.056
11964TIP3    H235850   0.971   5.900   5.911
11965TIP3   OH235851   1.474   5.112   6.052
11965TIP3    H135852   1.397   5.132   6.106
11965TIP3    H235853   1.487   5.191   5.999
11966TIP3   OH235854   1.299   6.498   5.605
11966TIP3    H135855   1.304   6.592   5.588
11966TIP3    H235856   1.388   6.466   5.586
11967TIP3   OH235857   7.398   2.915   0.011
11967TIP3    H135858   7.399   2.824   0.041
11967TIP3    H235859   7.318   2.951   0.048
11968TIP3   OH235860   0.856   6.749   5.712
11968TIP3    H135861   0.876   6.667   5.667
11968TIP3    H235862   0.840   6.724   5.803
11969TIP3   OH235863   0.844   6.764   5.999
11969TIP3    H135864   0.799   6.720   6.071
11969TIP3    H235865   0.933   6.778   6.032
11970TIP3   OH235866   7.295   1.988   0.332
11970TIP3    H135867   7.206   1.990   0.368
11970TIP3    H235868   7.309   1.896   0.309
11971TIP3   OH235869   6.824   1.357   0.336
11971TIP3    H135870   6.892   1.330   0.397
11971TIP3    H235871   6.742   1.336   0.381
11972TIP3   OH235872   7.039   1.764   0.239
11972TIP3    H135873   7.010   1.772   0.330
11972TIP3    H235874   7.032   1.852   0.203
11973TIP3   OH235875   1.018   5.915   5.744
11973TIP3    H135876   0.988   5.893   5.656
11973TIP3    H235877   1.106   5.950   5.732
11974TIP3   OH235878   0.926   5.751   6.339
11974TIP3    H135879   0.884   5.829   6.303
11974TIP3    H235880   0.981   5.719   6.267
11975TIP3   OH235881   6.751   1.884   0.459
11975TIP3    H135882   6.688   1.836   0.513
11975TIP3    H235883   6.834   1.838   0.472
11976TIP3   OH235884   1.072   5.739   6.573
11976TIP3    H135885   1.009   5.768   6.507
11976TIP3    H235886   1.121   5.669   6.531
11977TIP3   OH235887   6.769   1.995   0.042
11977TIP3    H135888   6.799   1.931  -0.023
11977TIP3    H235889   6.720   1.944   0.105
11978TIP3   OH235890   0.796   5.464   6.655
11978TIP3    H135891   0.730   5.494   6.718
11978TIP3    H235892   0.873   5.444   6.709
11979TIP3   OH235893   1.240   5.532   6.866
11979TIP3    H135894   1.221   5.548   6.958
11979TIP3    H235895   1.171   5.473   6.837
11980TIP3   OH235896   7.084   3.285   0.088
11980TIP3    H135897   7.094   3.279  -0.007
11980TIP3    H235898   7.173   3.300   0.121
11981TIP3   OH235899   0.862   5.804   6.759
11981TIP3    H135900   0.926   5.754   6.709
11981TIP3    H235901   0.849   5.754   6.840
11982TIP3   OH235902   6.457   1.699   0.085
11982TIP3    H135903   6.398   1.774   0.077
11982TIP3    H235904   6.534   1.732   0.131
11983TIP3   OH235905   1.443   6.312   6.749
11983TIP3    H135906   1.471   6.363   6.672
11983TIP3    H235907   1.355   6.283   6.727
11984TIP3   OH235908   0.969   5.395   6.054
11984TIP3    H135909   0.888   5.381   6.104
11984TIP3    H235910   0.992   5.486   6.071
11985TIP3   OH235911   6.572   2.355   0.173
11985TIP3    H135912   6.583   2.304   0.254
11985TIP3    H235913   6.502   2.417   0.194
11986TIP3   OH235914   1.077   5.648   6.120
11986TIP3    H135915   1.171   5.641   6.140
11986TIP3    H235916   1.072   5.719   6.056
11987TIP3   OH235917   0.644   6.227   5.988
11987TIP3    H135918   0.637   6.322   5.989
11987TIP3    H235919   0.681   6.204   6.074
11988TIP3   OH235920   6.543   2.100   0.594
11988TIP3    H135921   6.533   2.104   0.499
11988TIP3    H235922   6.637   2.093   0.609
11989TIP3   OH235923   6.786   2.623   0.185
11989TIP3    H135924   6.706   2.665   0.216
11989TIP3    H235925   6.856   2.663   0.236
11990TIP3   OH235926   1.488   5.747   5.950
11990TIP3    H135927   1.428   5.702   5.890
11990TIP3    H235928   1.495   5.835   5.915
11991TIP3   OH235929   7.414   2.634   0.075
11991TIP3    H135930   7.323   2.606   0.063
11991TIP3    H235931   7.459   2.603  -0.004
11992TIP3   OH235932   1.207   6.551   5.864
11992TIP3    H135933   1.184   6.473   5.915
11992TIP3    H235934   1.235   6.517   5.779
11993TIP3   OH235935   1.205   6.191   6.650
11993TIP3    H135936   1.121   6.164   6.688
11993TIP3    H235937   1.244   6.109   6.618
11994TIP3   OH235938   0.992   6.437   6.857
11994TIP3    H135939   0.961   6.408   6.943
11994TIP3    H235940   1.088   6.433   6.863
11995TIP3   OH235941   0.983   6.292   5.764
11995TIP3    H135942   1.027   6.271   5.846
11995TIP3    H235943   0.901   6.244   5.767
11996TIP3   OH235944   1.232   6.916   6.886
11996TIP3    H135945   1.154   6.860   6.886
11996TIP3    H235946   1.211   6.987   6.825
11997TIP3   OH235947   1.304   6.783   5.588
11997TIP3    H135948   1.362   6.850   5.551
11997TIP3    H235949   1.218   6.804   5.554
11998TIP3   OH235950   1.153   6.229   5.989
11998TIP3    H135951   1.137   6.153   6.044
11998TIP3    H235952   1.246   6.227   5.970
11999TIP3   OH235953   6.843   1.582   0.183
11999TIP3    H135954   6.919   1.630   0.215
11999TIP3    H235955   6.837   1.506   0.241
12000TIP3   OH235956   1.070   5.344   6.321
12000TIP3    H135957   1.048   5.368   6.231
12000TIP3    H235958   1.114   5.422   6.357
12001TIP3   OH235959   0.744   5.551   6.396
12001TIP3    H135960   0.803   5.626   6.385
12001TIP3    H235961   0.750   5.530   6.489
12002TIP3   OH235962   6.674   1.800   0.214
12002TIP3    H135963   6.697   1.829   0.302
12002TIP3    H235964   6.729   1.723   0.199
12003TIP3   OH235965   0.876   5.245   6.494
12003TIP3    H135966   0.845   5.324   6.539
12003TIP3    H235967   0.947   5.275   6.437
12004TIP3   OH235968   7.305   1.724   0.236
12004TIP3    H135969   7.210   1.728   0.243
12004TIP3    H235970   7.321   1.670   0.158
12005TIP3   OH235971   1.297   5.936   6.567
12005TIP3    H135972   1.220   5.884   6.590
12005TIP3    H235973   1.367   5.898   6.619
12006TIP3   OH235974   1.279   6.905   6.509
12006TIP3    H135975   1.235   6.937   6.430
12006TIP3    H235976   1.372   6.916   6.492
12007TIP3   OH235977   6.716   2.843   0.352
12007TIP3    H135978   6.754   2.817   0.436
12007TIP3    H235979   6.764   2.923   0.328
12008TIP3   OH235980   0.930   6.511   5.589
12008TIP3    H135981   0.969   6.446   5.647
12008TIP3    H235982   0.983   6.508   5.509
12009TIP3   OH235983   0.719   6.166   5.732
12009TIP3    H135984   0.683   6.187   5.818
12009TIP3    H235985   0.693   6.075   5.716
12010TIP3   OH235986   6.919   2.463   0.004
12010TIP3    H135987   7.011   2.458   0.030
12010TIP3    H235988   6.878   2.518   0.071
12011TIP3   OH235989   6.813   2.383   0.542
12011TIP3    H135990   6.812   2.369   0.447
12011TIP3    H235991   6.795   2.296   0.578
12012TIP3   OH235992   1.258   6.007   5.637
12012TIP3    H135993   1.249   5.962   5.553
12012TIP3    H235994   1.239   6.099   5.616
12013TIP3   OH235995   6.396   1.492   0.275
12013TIP3    H135996   6.416   1.552   0.204
12013TIP3    H235997   6.341   1.543   0.335
12014TIP3   OH235998   6.468   2.085   0.065
12014TIP3    H135999   6.519   2.146   0.118
12014TIP3    H236000   6.430   2.138  -0.005
12015TIP3   OH236001   7.057   1.978   0.485
12015TIP3    H136002   7.015   1.931   0.557
12015TIP3    H236003   7.077   2.064   0.521
12016TIP3   OH236004   7.083   2.225   0.280
12016TIP3    H136005   7.029   2.302   0.264
12016TIP3    H236006   7.167   2.245   0.239
12017TIP3   OH236007   6.549   1.281   0.361
12017TIP3    H136008   6.505   1.361   0.332
12017TIP3    H236009   6.483   1.213   0.353
12018TIP3   OH236010   6.660   1.692   0.619
12018TIP3    H136011   6.654   1.761   0.684
12018TIP3    H236012   6.612   1.618   0.658
12019TIP3   OH236013   6.935   1.684   0.482
12019TIP3    H136014   6.866   1.643   0.535
12019TIP3    H236015   7.015   1.672   0.533
12020TIP3   OH236016   7.176   1.668   0.626
12020TIP3    H136017   7.186   1.573   0.632
12020TIP3    H236018   7.170   1.697   0.717
12021TIP3   OH236019   6.623   1.250   0.620
12021TIP3    H136020   6.690   1.182   0.620
12021TIP3    H236021   6.590   1.252   0.531
12022TIP3   OH236022   6.727   1.443   0.769
12022TIP3    H136023   6.692   1.372   0.713
12022TIP3    H236024   6.649   1.490   0.799
12023TIP3   OH236025   1.540   6.965   6.464
12023TIP3    H136026   1.564   6.988   6.554
12023TIP3    H236027   1.599   7.018   6.409
12024TIP3   OH236028   1.578   6.987   6.730
12024TIP3    H136029   1.529   6.906   6.741
12024TIP3    H236030   1.652   6.978   6.791
12025TIP3   OH236031   7.321   2.633   0.352
12025TIP3    H136032   7.245   2.691   0.345
12025TIP3    H236033   7.378   2.660   0.280
12026TIP3   OH236034   1.427   6.209   5.961
12026TIP3    H136035   1.488   6.276   5.929
12026TIP3    H236036   1.472   6.169   6.035
12027TIP3   OH236037   1.555   6.067   6.161
12027TIP3    H136038   1.490   6.028   6.220
12027TIP3    H236039   1.622   6.102   6.220
12028TIP3   OH236040   1.610   6.469   6.589
12028TIP3    H136041   1.666   6.401   6.552
12028TIP3    H236042   1.615   6.541   6.526
12029TIP3   OH236043   1.424   6.755   6.765
12029TIP3    H136044   1.357   6.804   6.813
12029TIP3    H236045   1.375   6.706   6.699
12030TIP3   OH236046   1.474   5.984   5.807
12030TIP3    H136047   1.400   5.982   5.746
12030TIP3    H236048   1.458   6.062   5.861
12031TIP3   OH236049   1.321   5.645   5.761
12031TIP3    H136050   1.282   5.675   5.679
12031TIP3    H236051   1.312   5.549   5.759
12032TIP3   OH236052   1.353   5.924   6.297
12032TIP3    H136053   1.368   5.829   6.289
12032TIP3    H236054   1.337   5.937   6.390
12033TIP3   OH236055   7.325   2.329   0.157
12033TIP3    H136056   7.388   2.257   0.160
12033TIP3    H236057   7.329   2.361   0.067
12034TIP3   OH236058   7.492   2.120   0.202
12034TIP3    H136059   7.420   2.076   0.247
12034TIP3    H236060   7.569   2.067   0.225
12035TIP3   OH236061   1.281   5.376   5.741
12035TIP3    H136062   1.357   5.345   5.790
12035TIP3    H236063   1.211   5.316   5.765
12036TIP3   OH236064   1.356   5.642   6.181
12036TIP3    H136065   1.401   5.559   6.195
12036TIP3    H236066   1.404   5.684   6.109
12037TIP3   OH236067   1.511   5.810   6.698
12037TIP3    H136068   1.591   5.829   6.650
12037TIP3    H236069   1.525   5.846   6.785
12038TIP3   OH236070   1.597   5.952   6.922
12038TIP3    H136071   1.519   5.972   6.973
12038TIP3    H236072   1.623   6.036   6.884
12039TIP3   OH236073   7.706   1.554   0.529
12039TIP3    H136074   7.770   1.492   0.493
12039TIP3    H236075   7.674   1.601   0.452
12040TIP3   OH236076   1.466   5.394   6.236
12040TIP3    H136077   1.513   5.381   6.318
12040TIP3    H236078   1.406   5.320   6.231
12041TIP3   OH236079   7.571   1.670   0.327
12041TIP3    H136080   7.494   1.712   0.367
12041TIP3    H236081   7.534   1.598   0.275
12042TIP3   OH236082   1.520   5.318   5.872
12042TIP3    H136083   1.565   5.254   5.817
12042TIP3    H236084   1.579   5.393   5.877
12043TIP3   OH236085   1.092   6.838   6.108
12043TIP3    H136086   1.158   6.841   6.038
12043TIP3    H236087   1.125   6.898   6.174
12044TIP3   OH236088   6.651   3.037   0.050
12044TIP3    H136089   6.736   3.023   0.093
12044TIP3    H236090   6.620   3.121   0.085
12045TIP3   OH236091   7.469   1.425   0.228
12045TIP3    H136092   7.381   1.415   0.191
12045TIP3    H236093   7.507   1.338   0.221
12046TIP3   OH236094   0.943   6.942   6.704
12046TIP3    H136095   0.919   6.939   6.797
12046TIP3    H236096   1.016   7.004   6.701
12047TIP3   OH236097   1.192   7.098   6.686
12047TIP3    H136098   1.181   7.179   6.637
12047TIP3    H236099   1.219   7.034   6.620
12048TIP3   OH236100   1.015   5.358   6.791
12048TIP3    H136101   0.978   5.286   6.842
12048TIP3    H236102   1.084   5.317   6.738
12049TIP3   OH236103   1.516   5.262   6.689
12049TIP3    H136104   1.554   5.313   6.618
12049TIP3    H236105   1.424   5.289   6.692
12050TIP3   OH236106   1.627   5.349   6.455
12050TIP3    H136107   1.697   5.288   6.428
12050TIP3    H236108   1.665   5.436   6.442
12051TIP3   OH236109   0.745   5.094   6.693
12051TIP3    H136110   0.783   5.146   6.623
12051TIP3    H236111   0.793   5.121   6.772
12052TIP3   OH236112   1.228   5.235   6.667
12052TIP3    H136113   1.252   5.196   6.583
12052TIP3    H236114   1.230   5.162   6.729
12053TIP3   OH236115   1.281   5.183   6.238
12053TIP3    H136116   1.204   5.231   6.269
12053TIP3    H236117   1.273   5.096   6.278
12054TIP3   OH236118   0.747   5.355   6.210
12054TIP3    H136119   0.740   5.273   6.258
12054TIP3    H236120   0.738   5.423   6.277
12055TIP3   OH236121   1.260   6.818   5.884
12055TIP3    H136122   1.243   6.724   5.889
12055TIP3    H236123   1.261   6.836   5.790
12056TIP3   OH236124   7.222   1.402   0.654
12056TIP3    H136125   7.237   1.369   0.742
12056TIP3    H236126   7.308   1.400   0.613
12057TIP3   OH236127   7.126   3.005   0.062
12057TIP3    H136128   7.044   2.971   0.026
12057TIP3    H236129   7.106   3.095   0.088
12058TIP3   OH236130   2.742   6.349   5.845
12058TIP3    H136131   2.709   6.436   5.824
12058TIP3    H236132   2.672   6.290   5.819
12059TIP3   OH236133   2.742   6.343   6.261
12059TIP3    H136134   2.790   6.325   6.341
12059TIP3    H236135   2.698   6.261   6.240
12060TIP3   OH236136   2.039   6.216   6.615
12060TIP3    H136137   2.073   6.159   6.684
12060TIP3    H236138   2.116   6.249   6.570
12061TIP3   OH236139   3.002   6.647   5.933
12061TIP3    H136140   2.991   6.584   6.004
12061TIP3    H236141   3.024   6.729   5.978
12062TIP3   OH236142   2.025   6.634   6.306
12062TIP3    H136143   2.010   6.540   6.312
12062TIP3    H236144   2.120   6.643   6.298
12063TIP3   OH236145   1.718   5.842   6.089
12063TIP3    H136146   1.679   5.927   6.113
12063TIP3    H236147   1.645   5.793   6.051
12064TIP3   OH236148   1.790   6.145   6.296
12064TIP3    H136149   1.839   6.068   6.325
12064TIP3    H236150   1.857   6.208   6.269
12065TIP3   OH236151   2.655   7.091   5.944
12065TIP3    H136152   2.687   7.024   5.885
12065TIP3    H236153   2.644   7.047   6.028
12066TIP3   OH236154   2.543   6.568   6.272
12066TIP3    H136155   2.584   6.488   6.238
12066TIP3    H236156   2.616   6.622   6.301
12067TIP3   OH236157   3.577   5.887   6.283
12067TIP3    H136158   3.596   5.972   6.323
12067TIP3    H236159   3.603   5.897   6.191
12068TIP3   OH236160   2.957   6.056   6.307
12068TIP3    H136161   2.995   5.972   6.332
12068TIP3    H236162   2.921   6.041   6.220
12069TIP3   OH236163   2.308   5.719   6.270
12069TIP3    H136164   2.289   5.791   6.211
12069TIP3    H236165   2.255   5.646   6.238
12070TIP3   OH236166   3.004   5.817   5.898
12070TIP3    H136167   3.069   5.808   5.968
12070TIP3    H236168   3.053   5.850   5.823
12071TIP3   OH236169   1.933   5.929   6.392
12071TIP3    H136170   2.016   5.912   6.438
12071TIP3    H236171   1.939   5.877   6.312
12072TIP3   OH236172   2.359   6.128   6.206
12072TIP3    H136173   2.453   6.111   6.213
12072TIP3    H236174   2.323   6.046   6.170
12073TIP3   OH236175   3.638   6.105   6.454
12073TIP3    H136176   3.550   6.141   6.446
12073TIP3    H236177   3.673   6.145   6.534
12074TIP3   OH236178   2.291   5.715   6.718
12074TIP3    H136179   2.239   5.751   6.646
12074TIP3    H236180   2.238   5.730   6.796
12075TIP3   OH236181   2.612   6.559   5.723
12075TIP3    H136182   2.587   6.544   5.632
12075TIP3    H236183   2.571   6.642   5.746
12076TIP3   OH236184   2.389   6.492   6.489
12076TIP3    H136185   2.334   6.562   6.524
12076TIP3    H236186   2.437   6.532   6.416
12077TIP3   OH236187   3.171   5.836   6.114
12077TIP3    H136188   3.134   5.813   6.199
12077TIP3    H236189   3.229   5.910   6.133
12078TIP3   OH236190   2.176   5.825   6.491
12078TIP3    H136191   2.231   5.899   6.514
12078TIP3    H236192   2.223   5.782   6.419
12079TIP3   OH236193   2.230   6.693   6.591
12079TIP3    H136194   2.217   6.782   6.560
12079TIP3    H236195   2.153   6.674   6.644
12080TIP3   OH236196   1.605   6.390   5.843
12080TIP3    H136197   1.576   6.410   5.754
12080TIP3    H236198   1.631   6.474   5.880
12081TIP3   OH236199   3.045   6.895   6.068
12081TIP3    H136200   2.963   6.888   6.117
12081TIP3    H236201   3.043   6.982   6.029
12082TIP3   OH236202   3.376   5.782   6.457
12082TIP3    H136203   3.289   5.802   6.423
12082TIP3    H236204   3.435   5.808   6.386
12083TIP3   OH236205   2.632   5.411   6.442
12083TIP3    H136206   2.625   5.319   6.467
12083TIP3    H236207   2.557   5.453   6.482
12084TIP3   OH236208   2.753   6.931   5.736
12084TIP3    H136209   2.803   6.850   5.724
12084TIP3    H236210   2.813   7.001   5.709
12085TIP3   OH236211   2.903   6.710   5.682
12085TIP3    H136212   2.898   6.630   5.629
12085TIP3    H236213   2.939   6.681   5.765
12086TIP3   OH236214   3.280   6.792   6.427
12086TIP3    H136215   3.265   6.719   6.367
12086TIP3    H236216   3.254   6.870   6.377
12087TIP3   OH236217   2.568   6.190   5.692
12087TIP3    H136218   2.489   6.241   5.674
12087TIP3    H236219   2.617   6.191   5.610
12088TIP3   OH236220   2.538   5.992   5.389
12088TIP3    H136221   2.603   6.042   5.439
12088TIP3    H236222   2.590   5.927   5.342
12089TIP3   OH236223   3.465   6.448   6.290
12089TIP3    H136224   3.381   6.494   6.287
12089TIP3    H236225   3.503   6.461   6.203
12090TIP3   OH236226   2.926   6.282   5.654
12090TIP3    H136227   2.871   6.308   5.728
12090TIP3    H236228   3.009   6.254   5.694
12091TIP3   OH236229   3.154   6.308   6.588
12091TIP3    H136230   3.148   6.387   6.643
12091TIP3    H236231   3.071   6.306   6.540
12092TIP3   OH236232   2.155   6.263   6.066
12092TIP3    H136233   2.120   6.204   6.000
12092TIP3    H236234   2.230   6.216   6.103
12093TIP3   OH236235   2.288   6.684   6.204
12093TIP3    H136236   2.267   6.668   6.112
12093TIP3    H236237   2.375   6.647   6.216
12094TIP3   OH236238   2.260   6.257   6.433
12094TIP3    H136239   2.298   6.221   6.353
12094TIP3    H236240   2.310   6.336   6.451
12095TIP3   OH236241   2.828   6.895   6.228
12095TIP3    H136242   2.809   6.972   6.282
12095TIP3    H236243   2.809   6.821   6.285
12096TIP3   OH236244   2.432   6.791   6.756
12096TIP3    H136245   2.373   6.850   6.802
12096TIP3    H236246   2.375   6.739   6.699
12097TIP3   OH236247   2.758   6.141   5.487
12097TIP3    H136248   2.818   6.198   5.536
12097TIP3    H236249   2.784   6.151   5.396
12098TIP3   OH236250   2.190   6.346   6.881
12098TIP3    H136251   2.196   6.438   6.905
12098TIP3    H236252   2.096   6.328   6.879
12099TIP3   OH236253   2.502   6.816   5.749
12099TIP3    H136254   2.588   6.859   5.752
12099TIP3    H236255   2.446   6.876   5.700
12100TIP3   OH236256   2.225   6.949   6.840
12100TIP3    H136257   2.195   6.962   6.750
12100TIP3    H236258   2.145   6.933   6.891
12101TIP3   OH236259   3.271   5.370   5.543
12101TIP3    H136260   3.193   5.390   5.594
12101TIP3    H236261   3.284   5.446   5.487
12102TIP3   OH236262   2.031   6.107   5.862
12102TIP3    H136263   1.954   6.153   5.827
12102TIP3    H236264   2.000   6.019   5.881
12103TIP3   OH236265   3.090   6.742   5.095
12103TIP3    H136266   3.088   6.836   5.074
12103TIP3    H236267   3.179   6.715   5.075
12104TIP3   OH236268   1.823   6.507   6.786
12104TIP3    H136269   1.745   6.491   6.732
12104TIP3    H236270   1.854   6.419   6.810
12105TIP3   OH236271   1.666   6.695   6.427
12105TIP3    H136272   1.762   6.703   6.430
12105TIP3    H236273   1.633   6.775   6.466
12106TIP3   OH236274   3.536   7.166   6.483
12106TIP3    H136275   3.534   7.071   6.486
12106TIP3    H236276   3.455   7.193   6.526
12107TIP3   OH236277   2.619   6.935   6.614
12107TIP3    H136278   2.617   7.026   6.645
12107TIP3    H236279   2.553   6.890   6.667
12108TIP3   OH236280   2.395   7.041   5.571
12108TIP3    H136281   2.350   7.022   5.489
12108TIP3    H236282   2.360   7.125   5.599
12109TIP3   OH236283   1.828   6.893   5.950
12109TIP3    H136284   1.876   6.887   6.033
12109TIP3    H236285   1.783   6.808   5.943
12110TIP3   OH236286   2.596   6.965   5.199
12110TIP3    H136287   2.647   6.892   5.164
12110TIP3    H236288   2.632   6.979   5.287
12111TIP3   OH236289   2.649   7.012   5.470
12111TIP3    H136290   2.563   7.017   5.511
12111TIP3    H236291   2.706   6.975   5.537
12112TIP3   OH236292   3.388   6.270   6.755
12112TIP3    H136293   3.309   6.277   6.701
12112TIP3    H236294   3.410   6.177   6.754
12113TIP3   OH236295   2.014   6.698   6.759
12113TIP3    H136296   2.065   6.686   6.839
12113TIP3    H236297   1.946   6.631   6.764
12114TIP3   OH236298   2.397   5.502   6.570
12114TIP3    H136299   2.312   5.470   6.539
12114TIP3    H236300   2.375   5.582   6.618
12115TIP3   OH236301   2.937   5.620   6.768
12115TIP3    H136302   3.007   5.596   6.829
12115TIP3    H236303   2.856   5.603   6.816
12116TIP3   OH236304   3.158   6.045   6.684
12116TIP3    H136305   3.116   6.042   6.770
12116TIP3    H236306   3.138   6.132   6.651
12117TIP3   OH236307   2.836   6.148   5.226
12117TIP3    H136308   2.795   6.139   5.141
12117TIP3    H236309   2.920   6.190   5.208
12118TIP3   OH236310   2.543   5.549   5.537
12118TIP3    H136311   2.510   5.554   5.627
12118TIP3    H236312   2.509   5.466   5.503
12119TIP3   OH236313   2.333   6.033   6.581
12119TIP3    H136314   2.286   6.042   6.665
12119TIP3    H236315   2.312   6.114   6.534
12120TIP3   OH236316   2.217   5.913   6.099
12120TIP3    H136317   2.128   5.888   6.124
12120TIP3    H236318   2.228   5.878   6.010
12121TIP3   OH236319   2.698   5.988   5.827
12121TIP3    H136320   2.650   6.060   5.786
12121TIP3    H236321   2.757   5.956   5.759
12122TIP3   OH236322   2.882   6.257   6.905
12122TIP3    H136323   2.855   6.189   6.966
12122TIP3    H236324   2.974   6.273   6.926
12123TIP3   OH236325   2.865   6.006   6.054
12123TIP3    H136326   2.797   6.030   5.991
12123TIP3    H236327   2.910   5.932   6.013
12124TIP3   OH236328   2.166   6.046   6.801
12124TIP3    H136329   2.191   6.107   6.870
12124TIP3    H236330   2.150   5.963   6.847
12125TIP3   OH236331   2.208   5.526   5.511
12125TIP3    H136332   2.201   5.528   5.606
12125TIP3    H236333   2.131   5.574   5.480
12126TIP3   OH236334   1.759   5.571   6.376
12126TIP3    H136335   1.828   5.606   6.432
12126TIP3    H236336   1.803   5.546   6.295
12127TIP3   OH236337   1.677   5.549   5.890
12127TIP3    H136338   1.723   5.584   5.813
12127TIP3    H236339   1.616   5.618   5.914
12128TIP3   OH236340   2.897   6.256   6.480
12128TIP3    H136341   2.923   6.189   6.417
12128TIP3    H236342   2.856   6.207   6.551
12129TIP3   OH236343   2.575   5.709   6.154
12129TIP3    H136344   2.499   5.709   6.211
12129TIP3    H236345   2.650   5.699   6.214
12130TIP3   OH236346   1.980   5.787   6.161
12130TIP3    H136347   1.891   5.791   6.126
12130TIP3    H236348   2.008   5.698   6.145
12131TIP3   OH236349   2.231   5.788   5.855
12131TIP3    H136350   2.325   5.799   5.843
12131TIP3    H236351   2.194   5.807   5.769
12132TIP3   OH236352   3.038   5.794   6.361
12132TIP3    H136353   3.014   5.811   6.452
12132TIP3    H236354   2.972   5.732   6.330
12133TIP3   OH236355   2.109   5.816   5.610
12133TIP3    H136356   2.045   5.768   5.558
12133TIP3    H236357   2.164   5.861   5.546
12134TIP3   OH236358   7.847   2.599   0.044
12134TIP3    H136359   7.925   2.625   0.093
12134TIP3    H236360   7.777   2.598   0.110
12135TIP3   OH236361   2.629   6.070   6.260
12135TIP3    H136362   2.696   6.021   6.212
12135TIP3    H236363   2.627   6.030   6.347
12136TIP3   OH236364   2.126   5.540   6.150
12136TIP3    H136365   2.095   5.465   6.200
12136TIP3    H236366   2.161   5.503   6.069
12137TIP3   OH236367   2.600   5.975   6.528
12137TIP3    H136368   2.513   6.007   6.550
12137TIP3    H236369   2.659   6.029   6.581
12138TIP3   OH236370   2.334   6.336   5.634
12138TIP3    H136371   2.260   6.278   5.614
12138TIP3    H236372   2.312   6.374   5.719
12139TIP3   OH236373   3.229   6.587   6.249
12139TIP3    H136374   3.263   6.635   6.174
12139TIP3    H236375   3.148   6.546   6.218
12140TIP3   OH236376   2.798   5.648   5.536
12140TIP3    H136377   2.704   5.629   5.533
12140TIP3    H236378   2.803   5.742   5.549
12141TIP3   OH236379   2.737   6.663   6.646
12141TIP3    H136380   2.783   6.658   6.730
12141TIP3    H236381   2.697   6.750   6.646
12142TIP3   OH236382   2.861   5.910   5.610
12142TIP3    H136383   2.957   5.914   5.619
12142TIP3    H236384   2.839   5.987   5.558
12143TIP3   OH236385   2.024   6.344   6.296
12143TIP3    H136386   2.063   6.328   6.210
12143TIP3    H236387   2.090   6.313   6.358
12144TIP3   OH236388   2.488   6.495   5.473
12144TIP3    H136389   2.441   6.578   5.473
12144TIP3    H236390   2.435   6.437   5.528
12145TIP3   OH236391   7.587   2.274  -0.019
12145TIP3    H136392   7.602   2.251   0.073
12145TIP3    H236393   7.519   2.214  -0.048
12146TIP3   OH236394   2.647   6.406   6.942
12146TIP3    H136395   2.579   6.346   6.911
12146TIP3    H236396   2.729   6.366   6.914
12147TIP3   OH236397   2.894   6.919   6.538
12147TIP3    H136398   2.799   6.927   6.548
12147TIP3    H236399   2.930   6.974   6.607
12148TIP3   OH236400   3.283   6.001   5.435
12148TIP3    H136401   3.225   5.956   5.374
12148TIP3    H236402   3.289   6.090   5.400
12149TIP3   OH236403   3.524   6.884   6.508
12149TIP3    H136404   3.431   6.864   6.495
12149TIP3    H236405   3.567   6.849   6.429
12150TIP3   OH236406   3.014   6.816   5.357
12150TIP3    H136407   2.987   6.744   5.414
12150TIP3    H236408   3.033   6.774   5.273
12151TIP3   OH236409   2.998   6.450   6.150
12151TIP3    H136410   2.907   6.427   6.171
12151TIP3    H236411   3.034   6.370   6.112
12152TIP3   OH236412   2.150   6.686   5.953
12152TIP3    H136413   2.149   6.762   5.896
12152TIP3    H236414   2.059   6.674   5.979
12153TIP3   OH236415   1.706   5.973   5.657
12153TIP3    H136416   1.752   6.054   5.679
12153TIP3    H236417   1.628   5.975   5.712
12154TIP3   OH236418   2.242   6.439   5.867
12154TIP3    H136419   2.225   6.529   5.893
12154TIP3    H236420   2.216   6.386   5.942
12155TIP3   OH236421   2.429   7.011   6.411
12155TIP3    H136422   2.465   7.086   6.362
12155TIP3    H236423   2.503   6.977   6.460
12156TIP3   OH236424   2.061   6.912   5.801
12156TIP3    H136425   1.975   6.918   5.843
12156TIP3    H236426   2.096   7.001   5.806
12157TIP3   OH236427   2.785   6.659   6.374
12157TIP3    H136428   2.775   6.657   6.469
12157TIP3    H236429   2.858   6.599   6.357
12158TIP3   OH236430   2.777   6.551   5.262
12158TIP3    H136431   2.827   6.533   5.342
12158TIP3    H236432   2.690   6.514   5.279
12159TIP3   OH236433   3.096   7.017   5.061
12159TIP3    H136434   3.123   7.081   4.996
12159TIP3    H236435   3.022   7.058   5.106
12160TIP3   OH236436   7.790   1.785  -0.014
12160TIP3    H136437   7.695   1.793  -0.008
12160TIP3    H236438   7.815   1.734   0.063
12161TIP3   OH236439   2.947   6.495   5.478
12161TIP3    H136440   2.931   6.421   5.537
12161TIP3    H236441   3.041   6.491   5.459
12162TIP3   OH236442   1.853   6.903   6.566
12162TIP3    H136443   1.907   6.843   6.618
12162TIP3    H236444   1.865   6.988   6.607
12163TIP3   OH236445   2.128   6.518   5.261
12163TIP3    H136446   2.139   6.426   5.235
12163TIP3    H236447   2.111   6.514   5.355
12164TIP3   OH236448   2.071   6.532   5.534
12164TIP3    H136449   2.143   6.504   5.590
12164TIP3    H236450   2.072   6.628   5.541
12165TIP3   OH236451   1.806   6.221   5.743
12165TIP3    H136452   1.741   6.268   5.796
12165TIP3    H236453   1.826   6.282   5.672
12166TIP3   OH236454   2.967   5.852   6.621
12166TIP3    H136455   3.044   5.897   6.656
12166TIP3    H236456   2.957   5.775   6.677
12167TIP3   OH236457   2.855   5.599   5.805
12167TIP3    H136458   2.836   5.617   5.713
12167TIP3    H236459   2.899   5.678   5.837
12168TIP3   OH236460   2.341   6.722   5.475
12168TIP3    H136461   2.256   6.746   5.513
12168TIP3    H236462   2.364   6.796   5.420
12169TIP3   OH236463   2.511   5.797   5.898
12169TIP3    H136464   2.574   5.865   5.872
12169TIP3    H236465   2.532   5.779   5.989
12170TIP3   OH236466   2.806   6.092   6.681
12170TIP3    H136467   2.831   6.135   6.762
12170TIP3    H236468   2.855   6.009   6.682
12171TIP3   OH236469   2.672   5.498   5.988
12171TIP3    H136470   2.650   5.575   6.040
12171TIP3    H236471   2.740   5.528   5.928
12172TIP3   OH236472   2.088   6.804   5.550
12172TIP3    H136473   2.068   6.874   5.488
12172TIP3    H236474   2.077   6.845   5.636
12173TIP3   OH236475   2.186   5.516   5.789
12173TIP3    H136476   2.175   5.605   5.821
12173TIP3    H236477   2.280   5.499   5.795
12174TIP3   OH236478   3.423   6.001   6.673
12174TIP3    H136479   3.328   6.003   6.683
12174TIP3    H236480   3.437   5.951   6.592
12175TIP3   OH236481   3.090   6.194   6.056
12175TIP3    H136482   3.013   6.138   6.067
12175TIP3    H236483   3.158   6.152   6.109
12176TIP3   OH236484   1.822   6.407   5.530
12176TIP3    H136485   1.892   6.471   5.540
12176TIP3    H236486   1.856   6.343   5.467
12177TIP3   OH236487   1.742   5.697   5.668
12177TIP3    H136488   1.751   5.792   5.673
12177TIP3    H236489   1.696   5.681   5.586
12178TIP3   OH236490   3.064   7.170   6.015
12178TIP3    H136491   3.019   7.219   5.946
12178TIP3    H236492   3.157   7.187   5.999
12179TIP3   OH236493   2.133   5.417   6.533
12179TIP3    H136494   2.104   5.383   6.449
12179TIP3    H236495   2.125   5.343   6.593
12180TIP3   OH236496   1.661   6.656   5.933
12180TIP3    H136497   1.623   6.697   6.011
12180TIP3    H236498   1.621   6.703   5.859
12181TIP3   OH236499   7.534   3.198   0.017
12181TIP3    H136500   7.617   3.193   0.064
12181TIP3    H236501   7.500   3.109   0.017
12182TIP3   OH236502   7.995   3.110   0.093
12182TIP3    H136503   8.088   3.089   0.105
12182TIP3    H236504   7.967   3.054   0.021
12183TIP3   OH236505   2.286   6.719   5.156
12183TIP3    H136506   2.239   6.647   5.199
12183TIP3    H236507   2.361   6.677   5.114
12184TIP3   OH236508   2.996   7.055   6.752
12184TIP3    H136509   2.969   6.996   6.823
12184TIP3    H236510   3.056   7.117   6.793
12185TIP3   OH236511   2.726   6.755   5.080
12185TIP3    H136512   2.761   6.691   5.142
12185TIP3    H236513   2.785   6.749   5.004
12186TIP3   OH236514   7.641   2.572   0.225
12186TIP3    H136515   7.657   2.478   0.228
12186TIP3    H236516   7.557   2.580   0.180
12187TIP3   OH236517   1.949   6.215   5.384
12187TIP3    H136518   2.002   6.191   5.461
12187TIP3    H236519   2.014   6.228   5.314
12188TIP3   OH236520   2.577   6.680   6.964
12188TIP3    H136521   2.536   6.706   6.882
12188TIP3    H236522   2.610   6.592   6.948
12189TIP3   OH236523   2.498   6.436   5.205
12189TIP3    H136524   2.484   6.449   5.299
12189TIP3    H236525   2.489   6.341   5.192
12190TIP3   OH236526   3.068   6.708   6.584
12190TIP3    H136527   3.139   6.744   6.530
12190TIP3    H236528   2.995   6.769   6.570
12191TIP3   OH236529   7.754   2.319   0.231
12191TIP3    H136530   7.834   2.295   0.184
12191TIP3    H236531   7.785   2.345   0.318
12192TIP3   OH236532   2.128   6.153   5.592
12192TIP3    H136533   2.110   6.121   5.681
12192TIP3    H236534   2.175   6.080   5.551
12193TIP3   OH236535   2.436   6.225   6.841
12193TIP3    H136536   2.353   6.272   6.849
12193TIP3    H236537   2.473   6.254   6.757
12194TIP3   OH236538   2.263   5.963   5.436
12194TIP3    H136539   2.235   5.967   5.344
12194TIP3    H236540   2.358   5.969   5.432
12195TIP3   OH236541   0.125   2.610   0.005
12195TIP3    H136542   0.187   2.565  -0.052
12195TIP3    H236543   0.114   2.551   0.079
12196TIP3   OH236544   3.063   6.262   5.116
12196TIP3    H136545   3.051   6.218   5.031
12196TIP3    H236546   3.036   6.352   5.100
12197TIP3   OH236547   2.542   6.000   6.954
12197TIP3    H136548   2.546   5.927   6.892
12197TIP3    H236549   2.507   6.073   6.905
12198TIP3   OH236550   2.551   5.798   6.754
12198TIP3    H136551   2.578   5.836   6.670
12198TIP3    H236552   2.460   5.772   6.740
12199TIP3   OH236553   2.562   6.326   6.624
12199TIP3    H136554   2.651   6.357   6.607
12199TIP3    H236555   2.506   6.389   6.579
12200TIP3   OH236556   0.320   2.273   0.063
12200TIP3    H136557   0.354   2.187   0.089
12200TIP3    H236558   0.389   2.310   0.009
12201TIP3   OH236559   3.169   6.529   6.758
12201TIP3    H136560   3.124   6.592   6.701
12201TIP3    H236561   3.256   6.566   6.770
12202TIP3   OH236562   8.091   2.086   0.253
12202TIP3    H136563   8.021   2.024   0.275
12202TIP3    H236564   8.121   2.058   0.166
12203TIP3   OH236565   2.673   5.564   6.849
12203TIP3    H136566   2.632   5.645   6.818
12203TIP3    H236567   2.606   5.496   6.837
12204TIP3   OH236568   8.465   2.037   0.114
12204TIP3    H136569   8.455   2.026   0.209
12204TIP3    H236570   8.379   2.015   0.079
12205TIP3   OH236571   0.208   1.989  -0.019
12205TIP3    H136572   0.130   1.990   0.037
12205TIP3    H236573   0.279   1.963   0.039
12206TIP3   OH236574   0.444   1.951   0.130
12206TIP3    H136575   0.460   1.857   0.138
12206TIP3    H236576   0.439   1.982   0.220
12207TIP3   OH236577   7.932   1.861   0.319
12207TIP3    H136578   7.934   1.773   0.281
12207TIP3    H236579   7.972   1.852   0.405
12208TIP3   OH236580   8.414   1.543   0.174
12208TIP3    H136581   8.482   1.477   0.168
12208TIP3    H236582   8.381   1.551   0.084
12209TIP3   OH236583   8.501   1.762   0.317
12209TIP3    H136584   8.473   1.689   0.262
12209TIP3    H236585   8.427   1.822   0.317
12210TIP3   OH236586   2.079   7.007   5.362
12210TIP3    H136587   2.170   6.992   5.338
12210TIP3    H236588   2.043   7.057   5.288
12211TIP3   OH236589   1.550   6.391   5.556
12211TIP3    H136590   1.644   6.407   5.548
12211TIP3    H236591   1.536   6.305   5.517
12212TIP3   OH236592   1.458   6.975   6.001
12212TIP3    H136593   1.396   6.920   5.953
12212TIP3    H236594   1.503   6.915   6.060
12213TIP3   OH236595   1.603   6.812   6.171
12213TIP3    H136596   1.594   6.748   6.242
12213TIP3    H236597   1.653   6.884   6.210
12214TIP3   OH236598   3.323   7.246   5.981
12214TIP3    H136599   3.354   7.271   6.068
12214TIP3    H236600   3.394   7.272   5.922
12215TIP3   OH236601   3.343   7.250   6.270
12215TIP3    H136602   3.292   7.170   6.272
12215TIP3    H236603   3.419   7.232   6.326
12216TIP3   OH236604   3.422   6.935   6.857
12216TIP3    H136605   3.344   6.939   6.913
12216TIP3    H236606   3.456   7.025   6.858
12217TIP3   OH236607   3.223   6.466   5.448
12217TIP3    H136608   3.284   6.533   5.416
12217TIP3    H236609   3.269   6.426   5.522
12218TIP3   OH236610   3.352   6.323   5.648
12218TIP3    H136611   3.285   6.283   5.704
12218TIP3    H236612   3.416   6.358   5.710
12219TIP3   OH236613   3.405   6.723   6.080
12219TIP3    H136614   3.456   6.652   6.041
12219TIP3    H236615   3.409   6.794   6.016
12220TIP3   OH236616   3.186   7.010   6.282
12220TIP3    H136617   3.100   7.026   6.323
12220TIP3    H236618   3.165   6.972   6.197
12221TIP3   OH236619   3.272   6.240   5.294
12221TIP3    H136620   3.201   6.238   5.230
12221TIP3    H236621   3.253   6.318   5.347
12222TIP3   OH236622   3.123   5.896   5.240
12222TIP3    H136623   3.083   5.933   5.161
12222TIP3    H236624   3.112   5.802   5.232
12223TIP3   OH236625   3.152   6.183   5.786
12223TIP3    H136626   3.159   6.088   5.773
12223TIP3    H236627   3.135   6.193   5.879
12224TIP3   OH236628   1.777   6.252   6.550
12224TIP3    H136629   1.768   6.217   6.461
12224TIP3    H236630   1.871   6.249   6.567
12225TIP3   OH236631   3.457   6.642   6.692
12225TIP3    H136632   3.511   6.563   6.690
12225TIP3    H236633   3.417   6.646   6.606
12226TIP3   OH236634   3.605   6.411   6.673
12226TIP3    H136635   3.531   6.355   6.695
12226TIP3    H236636   3.681   6.355   6.682
12227TIP3   OH236637   3.082   5.627   5.217
12227TIP3    H136638   3.150   5.596   5.276
12227TIP3    H236639   3.003   5.579   5.242
12228TIP3   OH236640   3.150   5.905   5.671
12228TIP3    H136641   3.195   5.822   5.684
12228TIP3    H236642   3.195   5.944   5.596
12229TIP3   OH236643   3.306   6.069   6.190
12229TIP3    H136644   3.387   6.088   6.142
12229TIP3    H236645   3.320   6.107   6.277
12230TIP3   OH236646   3.380   6.218   6.420
12230TIP3    H136647   3.303   6.247   6.469
12230TIP3    H236648   3.409   6.297   6.374
12231TIP3   OH236649   7.669   1.917   0.257
12231TIP3    H136650   7.762   1.920   0.278
12231TIP3    H236651   7.638   1.834   0.292
12232TIP3   OH236652   3.821   5.841   6.956
12232TIP3    H136653   3.893   5.788   6.920
12232TIP3    H236654   3.787   5.888   6.880
12233TIP3   OH236655   3.262   5.655   5.724
12233TIP3    H136656   3.307   5.638   5.807
12233TIP3    H236657   3.200   5.582   5.716
12234TIP3   OH236658   1.965   5.639   6.550
12234TIP3    H136659   2.020   5.561   6.556
12234TIP3    H236660   2.027   5.711   6.535
12235TIP3   OH236661   1.753   5.903   6.606
12235TIP3    H136662   1.806   5.899   6.527
12235TIP3    H236663   1.783   5.981   6.652
12236TIP3   OH236664   3.682   5.948   6.751
12236TIP3    H136665   3.595   5.986   6.764
12236TIP3    H236666   3.665   5.868   6.702
12237TIP3   OH236667   3.317   5.573   5.362
12237TIP3    H136668   3.361   5.511   5.304
12237TIP3    H236669   3.374   5.649   5.363
12238TIP3   OH236670   1.741   5.406   6.114
12238TIP3    H136671   1.654   5.397   6.154
12238TIP3    H236672   1.726   5.464   6.039
12239TIP3   OH236673   2.902   7.131   5.631
12239TIP3    H136674   2.953   7.116   5.551
12239TIP3    H236675   2.949   7.199   5.677
12240TIP3   OH236676   7.629   1.471  -0.003
12240TIP3    H136677   7.578   1.464   0.077
12240TIP3    H236678   7.571   1.516  -0.064
12241TIP3   OH236679   7.672   2.907   0.067
12241TIP3    H136680   7.580   2.901   0.041
12241TIP3    H236681   7.671   2.907   0.163
12242TIP3   OH236682   2.200   6.965   6.556
12242TIP3    H136683   2.145   7.035   6.522
12242TIP3    H236684   2.285   6.979   6.515
12243TIP3   OH236685   2.638   7.217   6.668
12243TIP3    H136686   2.661   7.198   6.758
12243TIP3    H236687   2.722   7.220   6.622
12244TIP3   OH236688   3.586   5.709   6.648
12244TIP3    H136689   3.502   5.716   6.603
12244TIP3    H236690   3.611   5.617   6.639
12245TIP3   OH236691   1.861   7.205   6.597
12245TIP3    H136692   1.773   7.227   6.566
12245TIP3    H236693   1.884   7.275   6.658
12246TIP3   OH236694   2.084   7.185   6.440
12246TIP3    H136695   2.003   7.194   6.491
12246TIP3    H236696   2.061   7.217   6.353
12247TIP3   OH236697   2.512   7.223   6.249
12247TIP3    H136698   2.440   7.235   6.188
12247TIP3    H236699   2.518   7.306   6.297
12248TIP3   OH236700   2.775   7.158   6.315
12248TIP3    H136701   2.684   7.176   6.290
12248TIP3    H236702   2.824   7.229   6.274
12249TIP3   OH236703   2.955   7.365   6.184
12249TIP3    H136704   2.914   7.391   6.101
12249TIP3    H236705   3.005   7.287   6.163
12250TIP3   OH236706   1.778   6.997   6.313
12250TIP3    H136707   1.799   6.974   6.404
12250TIP3    H236708   1.851   6.962   6.262
12251TIP3   OH236709   1.979   6.873   6.179
12251TIP3    H136710   1.989   6.791   6.226
12251TIP3    H236711   2.065   6.914   6.184
12252TIP3   OH236712   2.244   6.963   6.204
12252TIP3    H136713   2.265   6.870   6.191
12252TIP3    H236714   2.295   6.988   6.281
12253TIP3   OH236715   2.806   5.615   6.287
12253TIP3    H136716   2.767   5.542   6.336
12253TIP3    H236717   2.875   5.574   6.235
12254TIP3   OH236718   3.311   5.523   6.185
12254TIP3    H136719   3.348   5.571   6.110
12254TIP3    H236720   3.218   5.543   6.182
12255TIP3   OH236721   3.422   5.601   5.946
12255TIP3    H136722   3.490   5.541   5.914
12255TIP3    H236723   3.458   5.688   5.933
12256TIP3   OH236724   2.046   5.314   6.291
12256TIP3    H136725   1.957   5.281   6.299
12256TIP3    H236726   2.100   5.235   6.285
12257TIP3   OH236727   1.845   5.209   5.936
12257TIP3    H136728   1.880   5.260   5.863
12257TIP3    H236729   1.818   5.274   6.001
12258TIP3   OH236730   2.516   5.358   6.181
12258TIP3    H136731   2.566   5.403   6.114
12258TIP3    H236732   2.558   5.384   6.263
12259TIP3   OH236733   3.025   5.502   6.158
12259TIP3    H136734   3.037   5.467   6.070
12259TIP3    H236735   3.026   5.425   6.215
12260TIP3   OH236736   3.076   5.444   5.725
12260TIP3    H136737   2.996   5.490   5.748
12260TIP3    H236738   3.066   5.357   5.764
12261TIP3   OH236739   1.549   6.788   5.723
12261TIP3    H136740   1.464   6.757   5.691
12261TIP3    H236741   1.557   6.876   5.686
12262TIP3   OH236742   1.970   5.351   5.706
12262TIP3    H136743   2.016   5.290   5.648
12262TIP3    H236744   2.039   5.407   5.741
12263TIP3   OH236745   2.461   5.545   5.802
12263TIP3    H136746   2.521   5.493   5.856
12263TIP3    H236747   2.477   5.636   5.830
12264TIP3   OH236748   2.340   6.944   5.301
12264TIP3    H136749   2.424   6.973   5.264
12264TIP3    H236750   2.312   6.873   5.244
12265TIP3   OH236751   3.046   7.084   5.398
12265TIP3    H136752   3.041   6.989   5.389
12265TIP3    H236753   3.003   7.118   5.320
12266TIP3   OH236754   7.937   1.590   0.233
12266TIP3    H136755   7.901   1.523   0.292
12266TIP3    H236756   8.030   1.596   0.258
12267TIP3   OH236757   8.188   1.592   0.352
12267TIP3    H136758   8.267   1.571   0.303
12267TIP3    H236759   8.181   1.524   0.419
12268TIP3   OH236760   1.644   6.789   5.358
12268TIP3    H136761   1.656   6.815   5.450
12268TIP3    H236762   1.725   6.743   5.336
12269TIP3   OH236763   0.510   1.679   0.143
12269TIP3    H136764   0.525   1.650   0.233
12269TIP3    H236765   0.596   1.673   0.101
12270TIP3   OH236766   3.288   7.232   6.583
12270TIP3    H136767   3.216   7.180   6.618
12270TIP3    H236768   3.272   7.320   6.616
12271TIP3   OH236769   4.538   6.606   5.333
12271TIP3    H136770   4.507   6.694   5.310
12271TIP3    H236771   4.467   6.548   5.305
12272TIP3   OH236772   4.532   6.601   5.748
12272TIP3    H136773   4.583   6.585   5.828
12272TIP3    H236774   4.492   6.517   5.727
12273TIP3   OH236775   3.836   6.476   6.103
12273TIP3    H136776   3.871   6.418   6.171
12273TIP3    H236777   3.913   6.498   6.049
12274TIP3   OH236778   4.799   6.908   5.424
12274TIP3    H136779   4.789   6.841   5.492
12274TIP3    H236780   4.823   6.987   5.471
12275TIP3   OH236781   3.814   6.895   5.799
12275TIP3    H136782   3.803   6.800   5.799
12275TIP3    H236783   3.909   6.907   5.790
12276TIP3   OH236784   3.512   6.098   5.578
12276TIP3    H136785   3.471   6.182   5.599
12276TIP3    H236786   3.442   6.048   5.536
12277TIP3   OH236787   3.582   6.400   5.790
12277TIP3    H136788   3.632   6.322   5.816
12277TIP3    H236789   3.648   6.459   5.753
12278TIP3   OH236790   4.454   7.347   5.435
12278TIP3    H136791   4.483   7.281   5.372
12278TIP3    H236792   4.453   7.301   5.519
12279TIP3   OH236793   4.339   6.824   5.764
12279TIP3    H136794   4.383   6.745   5.730
12279TIP3    H236795   4.411   6.880   5.793
12280TIP3   OH236796   5.374   6.141   5.770
12280TIP3    H136797   5.392   6.224   5.815
12280TIP3    H236798   5.398   6.157   5.679
12281TIP3   OH236799   4.749   6.315   5.794
12281TIP3    H136800   4.789   6.232   5.820
12281TIP3    H236801   4.713   6.298   5.707
12282TIP3   OH236802   4.103   5.974   5.756
12282TIP3    H136803   4.085   6.047   5.697
12282TIP3    H236804   4.050   5.901   5.722
12283TIP3   OH236805   4.800   6.074   5.387
12283TIP3    H136806   4.865   6.065   5.457
12283TIP3    H236807   4.850   6.107   5.312
12284TIP3   OH236808   3.727   6.182   5.880
12284TIP3    H136809   3.811   6.165   5.924
12284TIP3    H236810   3.733   6.132   5.799
12285TIP3   OH236811   4.153   6.383   5.697
12285TIP3    H136812   4.247   6.368   5.702
12285TIP3    H236813   4.117   6.303   5.660
12286TIP3   OH236814   5.420   6.353   5.948
12286TIP3    H136815   5.342   6.403   5.923
12286TIP3    H236816   5.410   6.340   6.043
12287TIP3   OH236817   4.086   5.973   6.205
12287TIP3    H136818   4.035   6.008   6.132
12287TIP3    H236819   4.031   5.990   6.282
12288TIP3   OH236820   4.419   6.819   5.203
12288TIP3    H136821   4.387   6.799   5.115
12288TIP3    H236822   4.374   6.900   5.228
12289TIP3   OH236823   4.190   6.743   5.982
12289TIP3    H136824   4.133   6.814   6.013
12289TIP3    H236825   4.238   6.781   5.909
12290TIP3   OH236826   4.966   6.090   5.603
12290TIP3    H136827   4.927   6.070   5.688
12290TIP3    H236828   5.024   6.165   5.621
12291TIP3   OH236829   3.972   6.080   5.977
12291TIP3    H136830   4.027   6.155   5.999
12291TIP3    H236831   4.017   6.037   5.904
12292TIP3   OH236832   4.026   6.946   6.075
12292TIP3    H136833   4.014   7.036   6.044
12292TIP3    H236834   3.948   6.928   6.128
12293TIP3   OH236835   3.402   6.648   5.329
12293TIP3    H136836   3.368   6.665   5.241
12293TIP3    H236837   3.428   6.735   5.362
12294TIP3   OH236838   4.840   7.154   5.565
12294TIP3    H136839   4.752   7.146   5.603
12294TIP3    H236840   4.838   7.238   5.520
12295TIP3   OH236841   5.172   6.035   5.940
12295TIP3    H136842   5.086   6.061   5.908
12295TIP3    H236843   5.233   6.061   5.872
12296TIP3   OH236844   4.430   5.668   5.928
12296TIP3    H136845   4.422   5.576   5.953
12296TIP3    H236846   4.354   5.710   5.968
12297TIP3   OH236847   4.547   7.189   5.225
12297TIP3    H136848   4.598   7.108   5.214
12297TIP3    H236849   4.605   7.258   5.194
12298TIP3   OH236850   4.698   6.969   5.174
12298TIP3    H136851   4.667   6.887   5.135
12298TIP3    H236852   4.739   6.943   5.256
12299TIP3   OH236853   5.085   7.053   5.918
12299TIP3    H136854   5.072   6.978   5.860
12299TIP3    H236855   5.069   7.130   5.862
12300TIP3   OH236856   4.364   6.449   5.180
12300TIP3    H136857   4.284   6.497   5.160
12300TIP3    H236858   4.412   6.447   5.097
12301TIP3   OH236859   4.334   6.249   4.878
12301TIP3    H136860   4.399   6.299   4.927
12301TIP3    H236861   4.385   6.183   4.831
12302TIP3   OH236862   5.244   6.686   5.743
12302TIP3    H136863   5.168   6.744   5.751
12302TIP3    H236864   5.292   6.718   5.667
12303TIP3   OH236865   4.722   6.539   5.142
12303TIP3    H136866   4.667   6.566   5.216
12303TIP3    H236867   4.804   6.511   5.182
12304TIP3   OH236868   4.953   6.567   6.072
12304TIP3    H136869   4.956   6.649   6.121
12304TIP3    H236870   4.868   6.569   6.028
12305TIP3   OH236871   3.950   6.519   5.554
12305TIP3    H136872   3.914   6.461   5.487
12305TIP3    H236873   4.024   6.471   5.590
12306TIP3   OH236874   4.079   6.941   5.694
12306TIP3    H136875   4.059   6.924   5.602
12306TIP3    H236876   4.167   6.905   5.706
12307TIP3   OH236877   4.053   6.513   5.922
12307TIP3    H136878   4.090   6.478   5.841
12307TIP3    H236879   4.104   6.592   5.940
12308TIP3   OH236880   4.603   7.147   5.698
12308TIP3    H136881   4.593   7.226   5.751
12308TIP3    H236882   4.591   7.075   5.760
12309TIP3   OH236883   4.239   7.041   6.233
12309TIP3    H136884   4.181   7.097   6.284
12309TIP3    H236885   4.181   6.989   6.177
12310TIP3   OH236886   4.554   6.398   4.976
12310TIP3    H136887   4.614   6.455   5.025
12310TIP3    H236888   4.581   6.407   4.885
12311TIP3   OH236889   3.978   6.615   6.395
12311TIP3    H136890   3.974   6.709   6.412
12311TIP3    H236891   3.887   6.588   6.381
12312TIP3   OH236892   4.298   7.070   5.236
12312TIP3    H136893   4.382   7.115   5.240
12312TIP3    H236894   4.242   7.130   5.185
12313TIP3   OH236895   4.016   7.170   6.315
12313TIP3    H136896   3.980   7.202   6.232
12313TIP3    H236897   3.944   7.178   6.377
12314TIP3   OH236898   5.067   5.625   5.029
12314TIP3    H136899   4.989   5.646   5.082
12314TIP3    H236900   5.080   5.703   4.974
12315TIP3   OH236901   3.825   6.364   5.351
12315TIP3    H136902   3.750   6.410   5.315
12315TIP3    H236903   3.793   6.274   5.364
12316TIP3   OH236904   4.885   7.000   4.582
12316TIP3    H136905   4.884   7.094   4.562
12316TIP3    H236906   4.975   6.973   4.562
12317TIP3   OH236907   3.606   6.761   6.278
12317TIP3    H136908   3.538   6.743   6.213
12317TIP3    H236909   3.640   6.676   6.303
12318TIP3   OH236910   3.482   6.942   5.916
12318TIP3    H136911   3.573   6.929   5.887
12318TIP3    H236912   3.486   7.018   5.973
12319TIP3   OH236913   5.298   7.422   5.962
12319TIP3    H136914   5.341   7.337   5.971
12319TIP3    H236915   5.232   7.423   6.031
12320TIP3   OH236916   4.416   7.193   6.092
12320TIP3    H136917   4.412   7.283   6.126
12320TIP3    H236918   4.353   7.145   6.145
12321TIP3   OH236919   4.190   7.296   5.058
12321TIP3    H136920   4.146   7.276   4.976
12321TIP3    H236921   4.155   7.381   5.085
12322TIP3   OH236922   3.625   7.151   5.438
12322TIP3    H136923   3.670   7.143   5.523
12322TIP3    H236924   3.578   7.068   5.428
12323TIP3   OH236925   4.392   7.222   4.686
12323TIP3    H136926   4.442   7.149   4.650
12323TIP3    H236927   4.427   7.235   4.774
12324TIP3   OH236928   4.444   7.267   4.955
12324TIP3    H136929   4.359   7.271   4.998
12324TIP3    H236930   4.503   7.232   5.022
12325TIP3   OH236931   5.185   6.535   6.269
12325TIP3    H136932   5.130   6.552   6.193
12325TIP3    H236933   5.222   6.448   6.254
12326TIP3   OH236934   3.798   6.952   6.236
12326TIP3    H136935   3.849   6.949   6.317
12326TIP3    H236936   3.732   6.884   6.247
12327TIP3   OH236937   4.193   5.759   6.058
12327TIP3    H136938   4.109   5.728   6.023
12327TIP3    H236939   4.171   5.840   6.104
12328TIP3   OH236940   4.736   5.878   6.254
12328TIP3    H136941   4.807   5.854   6.314
12328TIP3    H236942   4.656   5.861   6.304
12329TIP3   OH236943   4.963   6.304   6.168
12329TIP3    H136944   4.920   6.301   6.254
12329TIP3    H236945   4.949   6.394   6.138
12330TIP3   OH236946   4.636   6.404   4.717
12330TIP3    H136947   4.590   6.398   4.633
12330TIP3    H236948   4.719   6.448   4.696
12331TIP3   OH236949   4.343   5.801   5.026
12331TIP3    H136950   4.307   5.807   5.115
12331TIP3    H236951   4.306   5.720   4.991
12332TIP3   OH236952   4.130   6.288   6.063
12332TIP3    H136953   4.088   6.299   6.148
12332TIP3    H236954   4.109   6.368   6.015
12333TIP3   OH236955   4.013   6.169   5.587
12333TIP3    H136956   3.923   6.145   5.611
12333TIP3    H236957   4.024   6.136   5.498
12334TIP3   OH236958   4.494   6.246   5.314
12334TIP3    H136959   4.446   6.317   5.273
12334TIP3    H236960   4.552   6.214   5.245
12335TIP3   OH236961   4.689   6.509   6.383
12335TIP3    H136962   4.663   6.443   6.447
12335TIP3    H236963   4.782   6.526   6.403
12336TIP3   OH236964   4.657   6.261   5.542
12336TIP3    H136965   4.591   6.285   5.477
12336TIP3    H236966   4.704   6.187   5.503
12337TIP3   OH236967   3.958   6.300   6.284
12337TIP3    H136968   4.020   6.351   6.338
12337TIP3    H236969   3.943   6.220   6.334
12338TIP3   OH236970   4.007   5.783   4.999
12338TIP3    H136971   3.998   5.786   5.094
12338TIP3    H236972   3.930   5.829   4.966
12339TIP3   OH236973   3.551   5.824   5.870
12339TIP3    H136974   3.624   5.860   5.920
12339TIP3    H236975   3.588   5.804   5.784
12340TIP3   OH236976   3.474   5.805   5.376
12340TIP3    H136977   3.519   5.839   5.298
12340TIP3    H236978   3.411   5.873   5.399
12341TIP3   OH236979   4.688   6.514   5.967
12341TIP3    H136980   4.717   6.449   5.904
12341TIP3    H236981   4.651   6.463   6.040
12342TIP3   OH236982   4.371   5.965   5.639
12342TIP3    H136983   4.294   5.965   5.697
12342TIP3    H236984   4.445   5.956   5.699
12343TIP3   OH236985   3.774   6.044   5.648
12343TIP3    H136986   3.685   6.048   5.612
12343TIP3    H236987   3.803   5.954   5.629
12344TIP3   OH236988   4.028   6.045   5.342
12344TIP3    H136989   4.122   6.056   5.330
12344TIP3    H236990   3.990   6.065   5.256
12345TIP3   OH236991   4.829   6.053   5.846
12345TIP3    H136992   4.809   6.069   5.938
12345TIP3    H236993   4.762   5.992   5.817
12346TIP3   OH236994   3.907   6.074   5.098
12346TIP3    H136995   3.842   6.025   5.048
12346TIP3    H236996   3.960   6.118   5.032
12347TIP3   OH236997   3.952   6.883   6.496
12347TIP3    H136998   4.037   6.883   6.540
12347TIP3    H236999   3.918   6.972   6.510
12348TIP3   OH237000   4.425   6.326   5.746
12348TIP3    H137001   4.492   6.281   5.694
12348TIP3    H237002   4.427   6.282   5.831
12349TIP3   OH237003   3.922   5.797   5.632
12349TIP3    H137004   3.891   5.721   5.681
12349TIP3    H237005   3.952   5.761   5.548
12350TIP3   OH237006   4.399   6.226   6.016
12350TIP3    H137007   4.311   6.260   6.037
12350TIP3    H237008   4.458   6.279   6.070
12351TIP3   OH237009   4.129   6.592   5.122
12351TIP3    H137010   4.056   6.534   5.101
12351TIP3    H237011   4.106   6.630   5.207
12352TIP3   OH237012   5.022   6.852   5.736
12352TIP3    H137013   5.058   6.900   5.661
12352TIP3    H237014   4.942   6.811   5.701
12353TIP3   OH237015   4.596   5.904   5.024
12353TIP3    H137016   4.503   5.883   5.021
12353TIP3    H237017   4.600   5.998   5.036
12354TIP3   OH237018   4.543   6.923   6.139
12354TIP3    H137019   4.591   6.915   6.221
12354TIP3    H237020   4.497   7.007   6.147
12355TIP3   OH237021   4.658   6.167   5.098
12355TIP3    H137022   4.753   6.171   5.107
12355TIP3    H237023   4.636   6.244   5.046
12356TIP3   OH237024   3.823   6.611   5.781
12356TIP3    H137025   3.859   6.590   5.695
12356TIP3    H237026   3.888   6.578   5.843
12357TIP3   OH237027   4.284   6.751   4.963
12357TIP3    H137028   4.236   6.834   4.962
12357TIP3    H237029   4.229   6.693   5.016
12358TIP3   OH237030   3.703   6.540   6.421
12358TIP3    H137031   3.714   6.519   6.514
12358TIP3    H237032   3.633   6.483   6.391
12359TIP3   OH237033   4.456   6.653   6.415
12359TIP3    H137034   4.405   6.621   6.341
12359TIP3    H237035   4.543   6.616   6.402
12360TIP3   OH237036   4.687   7.199   6.008
12360TIP3    H137037   4.592   7.189   6.021
12360TIP3    H237038   4.717   7.240   6.089
12361TIP3   OH237039   5.079   6.256   4.920
12361TIP3    H137040   5.023   6.209   4.858
12361TIP3    H237041   5.083   6.346   4.887
12362TIP3   OH237042   5.342   7.137   6.008
12362TIP3    H137043   5.247   7.128   6.012
12362TIP3    H237044   5.367   7.094   5.926
12363TIP3   OH237045   4.810   7.072   4.846
12363TIP3    H137046   4.783   7.001   4.904
12363TIP3    H237047   4.827   7.028   4.762
12364TIP3   OH237048   4.792   6.709   5.634
12364TIP3    H137049   4.701   6.687   5.655
12364TIP3    H237050   4.829   6.629   5.597
12365TIP3   OH237051   3.944   6.942   5.440
12365TIP3    H137052   3.946   7.019   5.384
12365TIP3    H237053   3.851   6.923   5.451
12366TIP3   OH237054   3.507   6.229   5.147
12366TIP3    H137055   3.550   6.312   5.168
12366TIP3    H237056   3.427   6.231   5.200
12367TIP3   OH237057   4.040   6.696   5.356
12367TIP3    H137058   4.023   6.786   5.383
12367TIP3    H237059   4.012   6.643   5.430
12368TIP3   OH237060   4.224   7.266   5.896
12368TIP3    H137061   4.261   7.339   5.845
12368TIP3    H237062   4.297   7.233   5.948
12369TIP3   OH237063   3.857   7.170   5.288
12369TIP3    H137064   3.771   7.175   5.330
12369TIP3    H237065   3.891   7.260   5.292
12370TIP3   OH237066   4.581   6.921   5.866
12370TIP3    H137067   4.571   6.919   5.961
12370TIP3    H237068   4.659   6.868   5.848
12371TIP3   OH237069   4.571   6.807   4.744
12371TIP3    H137070   4.621   6.786   4.823
12371TIP3    H237071   4.486   6.767   4.757
12372TIP3   OH237072   4.828   7.434   5.911
12372TIP3    H137073   4.758   7.370   5.919
12372TIP3    H237074   4.802   7.488   5.836
12373TIP3   OH237075   4.893   7.275   4.548
12373TIP3    H137076   4.922   7.340   4.485
12373TIP3    H237077   4.818   7.315   4.592
12374TIP3   OH237078   3.915   6.050   6.414
12374TIP3    H137079   3.820   6.058   6.418
12374TIP3    H237080   3.938   5.997   6.490
12375TIP3   OH237081   4.741   6.742   4.953
12375TIP3    H137082   4.727   6.673   5.018
12375TIP3    H237083   4.836   6.743   4.940
12376TIP3   OH237084   3.644   7.151   6.063
12376TIP3    H137085   3.700   7.086   6.106
12376TIP3    H237086   3.672   7.235   6.099
12377TIP3   OH237087   3.923   6.775   4.748
12377TIP3    H137088   3.933   6.684   4.721
12377TIP3    H237089   3.906   6.770   4.842
12378TIP3   OH237090   3.867   6.790   5.021
12378TIP3    H137091   3.940   6.762   5.075
12378TIP3    H237092   3.868   6.886   5.027
12379TIP3   OH237093   3.602   6.480   5.230
12379TIP3    H137094   3.537   6.525   5.282
12379TIP3    H237095   3.622   6.539   5.158
12380TIP3   OH237096   4.768   6.112   6.108
12380TIP3    H137097   4.845   6.157   6.141
12380TIP3    H237098   4.759   6.035   6.164
12381TIP3   OH237099   4.653   5.855   5.293
12381TIP3    H137100   4.633   5.873   5.201
12381TIP3    H237101   4.696   5.935   5.325
12382TIP3   OH237102   4.137   6.979   4.963
12382TIP3    H137103   4.052   7.004   4.999
12382TIP3    H237104   4.161   7.051   4.905
12383TIP3   OH237105   4.308   6.054   5.384
12383TIP3    H137106   4.370   6.121   5.358
12383TIP3    H237107   4.329   6.035   5.475
12384TIP3   OH237108   4.602   6.346   6.168
12384TIP3    H137109   4.632   6.392   6.246
12384TIP3    H237110   4.655   6.267   6.165
12385TIP3   OH237111   4.468   5.754   5.474
12385TIP3    H137112   4.446   5.831   5.526
12385TIP3    H237113   4.537   5.784   5.414
12386TIP3   OH237114   3.885   7.063   5.037
12386TIP3    H137115   3.864   7.133   4.975
12386TIP3    H237116   3.874   7.103   5.123
12387TIP3   OH237117   3.981   5.773   5.278
12387TIP3    H137118   3.971   5.863   5.308
12387TIP3    H237119   4.076   5.757   5.283
12388TIP3   OH237120   5.230   6.265   6.150
12388TIP3    H137121   5.137   6.274   6.167
12388TIP3    H237122   5.235   6.203   6.077
12389TIP3   OH237123   4.884   6.452   5.543
12389TIP3    H137124   4.808   6.395   5.557
12389TIP3    H237125   4.954   6.411   5.595
12390TIP3   OH237126   3.618   6.664   5.017
12390TIP3    H137127   3.689   6.727   5.027
12390TIP3    H237128   3.651   6.600   4.954
12391TIP3   OH237129   3.536   5.952   5.153
12391TIP3    H137130   3.546   6.047   5.158
12391TIP3    H237131   3.485   5.937   5.074
12392TIP3   OH237132   4.861   7.423   5.486
12392TIP3    H137133   4.819   7.473   5.416
12392TIP3    H237134   4.955   7.434   5.470
12393TIP3   OH237135   3.929   5.676   6.016
12393TIP3    H137136   3.901   5.645   5.930
12393TIP3    H237137   3.921   5.600   6.073
12394TIP3   OH237138   3.457   6.921   5.408
12394TIP3    H137139   3.408   6.955   5.483
12394TIP3    H237140   3.417   6.963   5.332
12395TIP3   OH237141   3.671   7.457   6.476
12395TIP3    H137142   3.755   7.455   6.521
12395TIP3    H237143   3.643   7.365   6.473
12396TIP3   OH237144   4.083   6.975   4.643
12396TIP3    H137145   4.035   6.903   4.685
12396TIP3    H237146   4.157   6.931   4.601
12397TIP3   OH237147   4.755   7.314   6.242
12397TIP3    H137148   4.730   7.260   6.317
12397TIP3    H237149   4.823   7.373   6.276
12398TIP3   OH237150   4.522   7.013   4.565
12398TIP3    H137151   4.555   6.948   4.628
12398TIP3    H237152   4.582   7.006   4.491
12399TIP3   OH237153   3.708   6.815   6.710
12399TIP3    H137154   3.773   6.746   6.701
12399TIP3    H237155   3.699   6.851   6.621
12400TIP3   OH237156   3.745   6.472   4.871
12400TIP3    H137157   3.798   6.447   4.947
12400TIP3    H237158   3.809   6.484   4.800
12401TIP3   OH237159   4.352   6.911   6.453
12401TIP3    H137160   4.329   6.951   6.369
12401TIP3    H237161   4.397   6.830   6.429
12402TIP3   OH237162   4.300   6.694   4.695
12402TIP3    H137163   4.283   6.706   4.789
12402TIP3    H237164   4.290   6.600   4.681
12403TIP3   OH237165   4.862   6.978   6.064
12403TIP3    H137166   4.938   7.012   6.015
12403TIP3    H237167   4.792   7.040   6.045
12404TIP3   OH237168   3.880   6.601   6.675
12404TIP3    H137169   3.948   6.596   6.607
12404TIP3    H237170   3.928   6.626   6.754
12405TIP3   OH237171   3.925   6.408   5.079
12405TIP3    H137172   3.906   6.374   5.166
12405TIP3    H237173   3.971   6.336   5.034
12406TIP3   OH237174   4.193   6.456   6.316
12406TIP3    H137175   4.132   6.524   6.344
12406TIP3    H237176   4.249   6.499   6.251
12407TIP3   OH237177   4.057   6.220   4.919
12407TIP3    H137178   4.029   6.223   4.827
12407TIP3    H237179   4.153   6.225   4.915
12408TIP3   OH237180   4.729   6.882   6.432
12408TIP3    H137181   4.811   6.858   6.390
12408TIP3    H237182   4.720   6.818   6.503
12409TIP3   OH237183   4.861   6.520   4.601
12409TIP3    H137184   4.846   6.476   4.517
12409TIP3    H237185   4.834   6.610   4.586
12410TIP3   OH237186   4.338   6.259   6.443
12410TIP3    H137187   4.346   6.184   6.384
12410TIP3    H237188   4.295   6.326   6.391
12411TIP3   OH237189   4.346   6.055   6.244
12411TIP3    H137190   4.376   6.092   6.161
12411TIP3    H237191   4.255   6.030   6.229
12412TIP3   OH237192   4.358   6.595   6.146
12412TIP3    H137193   4.446   6.604   6.108
12412TIP3    H237194   4.302   6.650   6.091
12413TIP3   OH237195   4.956   6.538   6.480
12413TIP3    H137196   4.994   6.454   6.504
12413TIP3    H237197   5.027   6.585   6.435
12414TIP3   OH237198   5.007   6.803   6.214
12414TIP3    H137199   4.951   6.865   6.168
12414TIP3    H237200   5.095   6.818   6.178
12415TIP3   OH237201   4.216   6.347   6.681
12415TIP3    H137202   4.149   6.280   6.697
12415TIP3    H237203   4.250   6.326   6.594
12416TIP3   OH237204   4.470   5.821   6.336
12416TIP3    H137205   4.429   5.901   6.305
12416TIP3    H237206   4.404   5.753   6.321
12417TIP3   OH237207   4.599   6.302   6.540
12417TIP3    H137208   4.593   6.293   6.635
12417TIP3    H237209   4.511   6.283   6.508
12418TIP3   OH237210   4.839   6.248   6.402
12418TIP3    H137211   4.762   6.251   6.459
12418TIP3    H237212   4.911   6.225   6.459
12419TIP3   OH237213   5.072   6.211   6.551
12419TIP3    H137214   5.087   6.117   6.560
12419TIP3    H237215   5.065   6.244   6.641
12420TIP3   OH237216   4.050   6.126   6.746
12420TIP3    H137217   4.058   6.038   6.709
12420TIP3    H237218   4.090   6.119   6.833
12421TIP3   OH237219   4.539   5.807   6.600
12421TIP3    H137220   4.610   5.743   6.596
12421TIP3    H237221   4.509   5.815   6.509
12422TIP3   OH237222   4.629   6.024   6.745
12422TIP3    H137223   4.601   5.953   6.687
12422TIP3    H237224   4.556   6.086   6.744
12423TIP3   OH237225   3.877   7.271   4.852
12423TIP3    H137226   3.968   7.251   4.826
12423TIP3    H237227   3.841   7.317   4.776
12424TIP3   OH237228   3.345   6.647   5.045
12424TIP3    H137229   3.439   6.662   5.035
12424TIP3    H237230   3.331   6.561   5.004
12425TIP3   OH237231   3.252   7.240   5.491
12425TIP3    H137232   3.188   7.186   5.445
12425TIP3    H237233   3.297   7.179   5.551
12426TIP3   OH237234   3.392   7.074   5.664
12426TIP3    H137235   3.379   7.007   5.731
12426TIP3    H237236   3.444   7.142   5.708
12427TIP3   OH237237   5.130   7.478   5.466
12427TIP3    H137238   5.152   7.506   5.555
12427TIP3    H237239   5.183   7.534   5.409
12428TIP3   OH237240   5.144   7.505   5.748
12428TIP3    H137241   5.095   7.423   5.741
12428TIP3    H237242   5.217   7.484   5.806
12429TIP3   OH237243   5.201   7.208   6.315
12429TIP3    H137244   5.124   7.217   6.372
12429TIP3    H237245   5.245   7.293   6.322
12430TIP3   OH237246   5.020   6.722   4.935
12430TIP3    H137247   5.080   6.790   4.905
12430TIP3    H237248   5.064   6.683   5.011
12431TIP3   OH237249   5.145   6.579   5.138
12431TIP3    H137250   5.077   6.539   5.192
12431TIP3    H237251   5.210   6.609   5.202
12432TIP3   OH237252   5.197   6.981   5.563
12432TIP3    H137253   5.254   6.915   5.522
12432TIP3    H237254   5.198   7.054   5.501
12433TIP3   OH237255   5.003   7.267   5.761
12433TIP3    H137256   4.933   7.307   5.812
12433TIP3    H237257   4.958   7.222   5.690
12434TIP3   OH237258   5.065   6.496   4.783
12434TIP3    H137259   4.995   6.495   4.718
12434TIP3    H237260   5.047   6.573   4.837
12435TIP3   OH237261   4.927   6.149   4.720
12435TIP3    H137262   4.880   6.188   4.646
12435TIP3    H237263   4.914   6.055   4.710
12436TIP3   OH237264   4.946   6.438   5.273
12436TIP3    H137265   4.954   6.343   5.261
12436TIP3    H237266   4.930   6.449   5.367
12437TIP3   OH237267   3.573   6.505   6.044
12437TIP3    H137268   3.564   6.471   5.955
12437TIP3    H237269   3.667   6.505   6.060
12438TIP3   OH237270   5.269   6.848   6.111
12438TIP3    H137271   5.334   6.783   6.083
12438TIP3    H237272   5.271   6.915   6.042
12439TIP3   OH237273   4.881   5.880   4.696
12439TIP3    H137274   4.946   5.852   4.759
12439TIP3    H237275   4.800   5.837   4.724
12440TIP3   OH237276   4.946   6.162   5.158
12440TIP3    H137277   4.990   6.078   5.172
12440TIP3    H237278   4.991   6.201   5.083
12441TIP3   OH237279   5.100   6.324   5.675
12441TIP3    H137280   5.181   6.342   5.628
12441TIP3    H237281   5.113   6.364   5.761
12442TIP3   OH237282   5.171   6.476   5.901
12442TIP3    H137283   5.096   6.508   5.952
12442TIP3    H237284   5.198   6.551   5.848
12443TIP3   OH237285   3.785   6.197   6.689
12443TIP3    H137286   3.879   6.193   6.702
12443TIP3    H237287   3.751   6.116   6.727
12444TIP3   OH237288   5.630   6.077   6.446
12444TIP3    H137289   5.694   6.018   6.407
12444TIP3    H237290   5.596   6.128   6.372
12445TIP3   OH237291   5.058   5.912   5.211
12445TIP3    H137292   5.106   5.897   5.292
12445TIP3    H237293   4.997   5.839   5.205
12446TIP3   OH237294   3.761   5.896   6.042
12446TIP3    H137295   3.816   5.817   6.043
12446TIP3    H237296   3.822   5.968   6.024
12447TIP3   OH237297   3.550   6.162   6.099
12447TIP3    H137298   3.598   6.150   6.017
12447TIP3    H237299   3.582   6.244   6.135
12448TIP3   OH237300   5.490   6.191   6.245
12448TIP3    H137301   5.416   6.242   6.276
12448TIP3    H237302   5.451   6.118   6.196
12449TIP3   OH237303   5.111   5.829   4.848
12449TIP3    H137304   5.156   5.767   4.791
12449TIP3    H237305   5.169   5.905   4.852
12450TIP3   OH237306   3.536   5.671   5.605
12450TIP3    H137307   3.449   5.658   5.641
12450TIP3    H237308   3.522   5.725   5.527
12451TIP3   OH237309   4.692   7.386   5.113
12451TIP3    H137310   4.748   7.373   5.036
12451TIP3    H237311   4.738   7.452   5.165
12452TIP3   OH237312   3.759   5.727   6.421
12452TIP3    H137313   3.707   5.725   6.501
12452TIP3    H237314   3.704   5.775   6.358
12453TIP3   OH237315   3.816   7.137   6.513
12453TIP3    H137316   3.721   7.151   6.505
12453TIP3    H237317   3.843   7.197   6.582
12454TIP3   OH237318   3.987   7.219   6.030
12454TIP3    H137319   3.940   7.297   5.999
12454TIP3    H237320   4.076   7.229   5.994
12455TIP3   OH237321   4.402   7.454   6.185
12455TIP3    H137322   4.433   7.434   6.273
12455TIP3    H237323   4.471   7.509   6.147
12456TIP3   OH237324   4.589   7.611   6.050
12456TIP3    H137325   4.645   7.552   6.000
12456TIP3    H237326   4.650   7.667   6.099
12457TIP3   OH237327   5.387   5.952   6.139
12457TIP3    H137328   5.303   5.949   6.093
12457TIP3    H237329   5.421   5.863   6.133
12458TIP3   OH237330   3.656   7.464   6.087
12458TIP3    H137331   3.564   7.481   6.070
12458TIP3    H237332   3.681   7.529   6.152
12459TIP3   OH237333   3.887   7.457   5.934
12459TIP3    H137334   3.804   7.463   5.981
12459TIP3    H237335   3.867   7.484   5.845
12460TIP3   OH237336   4.307   7.473   5.729
12460TIP3    H137337   4.237   7.486   5.666
12460TIP3    H237338   4.318   7.559   5.771
12461TIP3   OH237339   4.573   7.414   5.780
12461TIP3    H137340   4.480   7.430   5.760
12461TIP3    H237341   4.620   7.481   5.730
12462TIP3   OH237342   4.777   7.593   5.686
12462TIP3    H137343   4.772   7.680   5.644
12462TIP3    H237344   4.806   7.535   5.616
12463TIP3   OH237345   3.565   7.249   5.815
12463TIP3    H137346   3.590   7.223   5.903
12463TIP3    H237347   3.636   7.218   5.759
12464TIP3   OH237348   3.769   7.136   5.675
12464TIP3    H137349   3.780   7.051   5.718
12464TIP3    H237350   3.856   7.176   5.675
12465TIP3   OH237351   4.038   7.221   5.690
12465TIP3    H137352   4.057   7.128   5.676
12465TIP3    H237353   4.092   7.245   5.766
12466TIP3   OH237354   4.601   5.873   5.774
12466TIP3    H137355   4.562   5.800   5.823
12466TIP3    H237356   4.671   5.833   5.722
12467TIP3   OH237357   5.109   5.775   5.661
12467TIP3    H137358   5.149   5.825   5.590
12467TIP3    H237359   5.019   5.805   5.664
12468TIP3   OH237360   5.224   5.861   5.427
12468TIP3    H137361   5.292   5.800   5.398
12468TIP3    H237362   5.262   5.948   5.414
12469TIP3   OH237363   3.843   5.572   5.775
12469TIP3    H137364   3.753   5.540   5.781
12469TIP3    H237365   3.896   5.493   5.769
12470TIP3   OH237366   3.655   5.474   5.430
12470TIP3    H137367   3.683   5.524   5.353
12470TIP3    H237368   3.622   5.540   5.491
12471TIP3   OH237369   4.314   5.613   5.668
12471TIP3    H137370   4.363   5.658   5.599
12471TIP3    H237371   4.357   5.641   5.749
12472TIP3   OH237372   4.818   5.758   5.646
12472TIP3    H137373   4.834   5.723   5.559
12472TIP3    H237374   4.821   5.681   5.703
12473TIP3   OH237375   4.873   5.701   5.213
12473TIP3    H137376   4.793   5.748   5.235
12473TIP3    H237377   4.862   5.614   5.252
12474TIP3   OH237378   3.340   7.046   5.194
12474TIP3    H137379   3.257   7.011   5.163
12474TIP3    H237380   3.342   7.136   5.162
12475TIP3   OH237381   3.767   5.607   5.194
12475TIP3    H137382   3.812   5.546   5.135
12475TIP3    H237383   3.836   5.663   5.228
12476TIP3   OH237384   4.257   5.801   5.290
12476TIP3    H137385   4.317   5.750   5.344
12476TIP3    H237386   4.272   5.892   5.316
12477TIP3   OH237387   4.136   7.201   4.787
12477TIP3    H137388   4.220   7.228   4.750
12477TIP3    H237389   4.107   7.129   4.730
12478TIP3   OH237390   4.843   7.340   4.884
12478TIP3    H137391   4.837   7.245   4.875
12478TIP3    H237392   4.799   7.374   4.805
12479TIP3   OH237393   4.066   5.845   6.666
12479TIP3    H137394   4.031   5.779   6.726
12479TIP3    H237395   4.159   5.852   6.689
12480TIP3   OH237396   4.321   5.848   6.777
12480TIP3    H137397   4.396   5.841   6.717
12480TIP3    H237398   4.334   5.777   6.839
12481TIP3   OH237399   3.441   7.044   4.843
12481TIP3    H137400   3.445   7.054   4.938
12481TIP3    H237401   3.522   6.998   4.820
12482TIP3   OH237402   5.139   5.943   6.565
12482TIP3    H137403   5.154   5.912   6.654
12482TIP3    H237404   5.225   5.939   6.523
12483TIP3   OH237405   5.043   7.505   6.068
12483TIP3    H137406   4.968   7.465   6.025
12483TIP3    H237407   5.082   7.562   6.002
12484TIP3   OH237408   6.370   6.847   4.792
12484TIP3    H137409   6.342   6.937   4.778
12484TIP3    H237410   6.296   6.793   4.764
12485TIP3   OH237411   6.329   6.842   5.226
12485TIP3    H137412   6.374   6.831   5.310
12485TIP3    H237413   6.283   6.759   5.211
12486TIP3   OH237414   5.635   6.734   5.575
12486TIP3    H137415   5.662   6.701   5.660
12486TIP3    H237416   5.716   6.744   5.525
12487TIP3   OH237417   6.590   7.163   4.910
12487TIP3    H137418   6.569   7.107   4.985
12487TIP3    H237419   6.618   7.245   4.950
12488TIP3   OH237420   5.628   7.167   5.293
12488TIP3    H137421   5.610   7.073   5.292
12488TIP3    H237422   5.720   7.174   5.267
12489TIP3   OH237423   5.306   6.356   5.061
12489TIP3    H137424   5.265   6.439   5.087
12489TIP3    H237425   5.236   6.306   5.021
12490TIP3   OH237426   5.380   6.640   5.276
12490TIP3    H137427   5.431   6.567   5.310
12490TIP3    H237428   5.437   6.681   5.211
12491TIP3   OH237429   6.249   7.601   4.908
12491TIP3    H137430   6.287   7.531   4.855
12491TIP3    H237431   6.243   7.563   4.996
12492TIP3   OH237432   6.140   7.072   5.240
12492TIP3    H137433   6.179   6.993   5.203
12492TIP3    H237434   6.215   7.123   5.271
12493TIP3   OH237435   7.167   6.396   5.247
12493TIP3    H137436   7.185   6.483   5.283
12493TIP3    H237437   7.201   6.400   5.157
12494TIP3   OH237438   6.562   6.582   5.267
12494TIP3    H137439   6.593   6.496   5.295
12494TIP3    H237440   6.503   6.564   5.194
12495TIP3   OH237441   6.623   6.347   4.873
12495TIP3    H137442   6.664   6.334   4.959
12495TIP3    H237443   6.664   6.282   4.817
12496TIP3   OH237444   5.539   6.437   5.375
12496TIP3    H137445   5.625   6.421   5.414
12496TIP3    H237446   5.540   6.387   5.293
12497TIP3   OH237447   5.947   6.635   5.190
12497TIP3    H137448   6.039   6.609   5.199
12497TIP3    H237449   5.904   6.559   5.153
12498TIP3   OH237450   7.221   6.610   5.428
12498TIP3    H137451   7.151   6.664   5.391
12498TIP3    H237452   7.186   6.579   5.512
12499TIP3   OH237453   5.878   6.248   5.713
12499TIP3    H137454   5.832   6.248   5.629
12499TIP3    H237455   5.811   6.274   5.777
12500TIP3   OH237456   6.234   7.079   4.686
12500TIP3    H137457   6.191   7.050   4.606
12500TIP3    H237458   6.180   7.152   4.717
12501TIP3   OH237459   5.978   7.005   5.450
12501TIP3    H137460   5.906   7.068   5.455
12501TIP3    H237461   6.032   7.036   5.377
12502TIP3   OH237462   6.769   6.349   5.098
12502TIP3    H137463   6.727   6.326   5.181
12502TIP3    H237464   6.826   6.423   5.120
12503TIP3   OH237465   5.792   6.320   5.446
12503TIP3    H137466   5.850   6.389   5.478
12503TIP3    H237467   5.842   6.277   5.377
12504TIP3   OH237468   5.198   6.905   4.817
12504TIP3    H137469   5.162   6.923   4.730
12504TIP3    H237470   5.222   6.991   4.850
12505TIP3   OH237471   6.643   7.398   5.052
12505TIP3    H137472   6.556   7.391   5.093
12505TIP3    H237473   6.641   7.483   5.007
12506TIP3   OH237474   6.957   6.311   5.422
12506TIP3    H137475   6.869   6.324   5.386
12506TIP3    H237476   7.016   6.330   5.350
12507TIP3   OH237477   6.250   5.929   5.433
12507TIP3    H137478   6.222   5.840   5.414
12507TIP3    H237479   6.170   5.974   5.460
12508TIP3   OH237480   6.359   7.426   4.714
12508TIP3    H137481   6.415   7.350   4.698
12508TIP3    H237482   6.413   7.501   4.687
12509TIP3   OH237483   6.491   7.163   4.652
12509TIP3    H137484   6.401   7.135   4.669
12509TIP3    H237485   6.534   7.160   4.738
12510TIP3   OH237486   6.848   7.304   5.398
12510TIP3    H137487   6.840   7.234   5.333
12510TIP3    H237488   6.835   7.384   5.347
12511TIP3   OH237489   6.166   6.706   4.664
12511TIP3    H137490   6.082   6.751   4.655
12511TIP3    H237491   6.207   6.713   4.578
12512TIP3   OH237492   6.134   6.506   4.363
12512TIP3    H137493   6.198   6.562   4.409
12512TIP3    H237494   6.188   6.444   4.314
12513TIP3   OH237495   7.051   6.958   5.242
12513TIP3    H137496   6.969   7.007   5.248
12513TIP3    H237497   7.080   6.971   5.152
12514TIP3   OH237498   6.741   6.813   5.536
12514TIP3    H137499   6.744   6.893   5.588
12514TIP3    H237500   6.654   6.813   5.496
12515TIP3   OH237501   5.749   6.774   5.043
12515TIP3    H137502   5.711   6.718   4.975
12515TIP3    H237503   5.817   6.720   5.082
12516TIP3   OH237504   5.882   7.195   5.178
12516TIP3    H137505   5.853   7.181   5.088
12516TIP3    H237506   5.970   7.157   5.181
12517TIP3   OH237507   5.860   6.756   5.419
12517TIP3    H137508   5.891   6.720   5.337
12517TIP3    H237509   5.907   6.840   5.427
12518TIP3   OH237510   6.406   7.388   5.181
12518TIP3    H137511   6.385   7.472   5.222
12518TIP3    H237512   6.386   7.323   5.248
12519TIP3   OH237513   6.000   7.310   5.716
12519TIP3    H137514   5.940   7.356   5.775
12519TIP3    H237515   5.946   7.286   5.641
12520TIP3   OH237516   6.359   6.682   4.452
12520TIP3    H137517   6.397   6.766   4.477
12520TIP3    H237518   6.381   6.671   4.360
12521TIP3   OH237519   6.102   7.321   4.727
12521TIP3    H137520   6.185   7.368   4.729
12521TIP3    H237521   6.042   7.379   4.680
12522TIP3   OH237522   5.801   7.433   5.850
12522TIP3    H137523   5.766   7.481   5.775
12522TIP3    H237524   5.752   7.466   5.925
12523TIP3   OH237525   6.865   5.885   4.520
12523TIP3    H137526   6.785   5.907   4.569
12523TIP3    H237527   6.877   5.960   4.461
12524TIP3   OH237528   5.625   6.629   4.831
12524TIP3    H137529   5.543   6.665   4.799
12524TIP3    H237530   5.604   6.540   4.860
12525TIP3   OH237531   6.672   7.254   4.065
12525TIP3    H137532   6.672   7.348   4.044
12525TIP3    H237533   6.762   7.226   4.047
12526TIP3   OH237534   5.388   6.992   5.787
12526TIP3    H137535   5.335   6.981   5.708
12526TIP3    H237536   5.461   6.931   5.776
12527TIP3   OH237537   5.243   7.215   5.404
12527TIP3    H137538   5.338   7.228   5.413
12527TIP3    H237539   5.204   7.293   5.443
12528TIP3   OH237540   6.203   7.446   5.589
12528TIP3    H137541   6.205   7.538   5.615
12528TIP3    H237542   6.131   7.408   5.640
12529TIP3   OH237543   5.989   7.553   4.546
12529TIP3    H137544   5.943   7.534   4.464
12529TIP3    H237545   5.954   7.638   4.573
12530TIP3   OH237546   5.421   7.406   4.921
12530TIP3    H137547   5.465   7.399   5.006
12530TIP3    H237548   5.372   7.325   4.913
12531TIP3   OH237549   6.188   7.477   4.173
12531TIP3    H137550   6.239   7.405   4.136
12531TIP3    H237551   6.224   7.489   4.261
12532TIP3   OH237552   6.241   7.518   4.446
12532TIP3    H137553   6.155   7.523   4.488
12532TIP3    H237554   6.301   7.492   4.516
12533TIP3   OH237555   7.086   6.736   5.787
12533TIP3    H137556   7.018   6.803   5.797
12533TIP3    H237557   7.046   6.669   5.732
12534TIP3   OH237558   5.994   6.014   5.514
12534TIP3    H137559   5.901   5.989   5.520
12534TIP3    H237560   5.999   6.070   5.437
12535TIP3   OH237561   6.531   6.137   5.742
12535TIP3    H137562   6.597   6.109   5.805
12535TIP3    H237563   6.447   6.117   5.784
12536TIP3   OH237564   6.770   6.574   5.673
12536TIP3    H137565   6.712   6.576   5.750
12536TIP3    H237566   6.745   6.652   5.623
12537TIP3   OH237567   6.435   6.648   4.194
12537TIP3    H137568   6.389   6.645   4.110
12537TIP3    H237569   6.516   6.694   4.175
12538TIP3   OH237570   6.144   6.048   4.519
12538TIP3    H137571   6.107   6.057   4.606
12538TIP3    H237572   6.100   5.972   4.481
12539TIP3   OH237573   5.925   6.537   5.574
12539TIP3    H137574   5.872   6.544   5.653
12539TIP3    H237575   5.901   6.614   5.522
12540TIP3   OH237576   5.793   6.451   5.061
12540TIP3    H137577   5.722   6.402   5.103
12540TIP3    H237578   5.811   6.404   4.980
12541TIP3   OH237579   6.288   6.499   4.797
12541TIP3    H137580   6.235   6.571   4.764
12541TIP3    H237581   6.343   6.473   4.723
12542TIP3   OH237582   6.489   6.816   5.918
12542TIP3    H137583   6.448   6.736   5.950
12542TIP3    H237584   6.580   6.811   5.949
12543TIP3   OH237585   6.439   6.516   5.031
12543TIP3    H137586   6.372   6.545   4.970
12543TIP3    H237587   6.467   6.431   4.998
12544TIP3   OH237588   5.762   6.590   5.792
12544TIP3    H137589   5.733   6.660   5.850
12544TIP3    H237590   5.739   6.509   5.839
12545TIP3   OH237591   5.808   6.046   4.484
12545TIP3    H137592   5.797   6.045   4.580
12545TIP3    H237593   5.729   6.090   4.452
12546TIP3   OH237594   5.359   6.082   5.355
12546TIP3    H137595   5.428   6.121   5.409
12546TIP3    H237596   5.401   6.068   5.270
12547TIP3   OH237597   5.271   6.060   4.862
12547TIP3    H137598   5.318   6.094   4.786
12547TIP3    H237599   5.210   6.129   4.886
12548TIP3   OH237600   6.478   6.766   5.450
12548TIP3    H137601   6.508   6.701   5.387
12548TIP3    H237602   6.446   6.714   5.524
12549TIP3   OH237603   5.569   6.305   5.139
12549TIP3    H137604   5.482   6.304   5.100
12549TIP3    H237605   5.605   6.219   5.118
12550TIP3   OH237606   5.831   6.319   4.824
12550TIP3    H137607   5.917   6.297   4.789
12550TIP3    H237608   5.774   6.321   4.747
12551TIP3   OH237609   6.632   6.319   5.338
12551TIP3    H137610   6.610   6.336   5.429
12551TIP3    H237611   6.565   6.258   5.308
12552TIP3   OH237612   5.693   6.329   4.587
12552TIP3    H137613   5.631   6.279   4.535
12552TIP3    H237614   5.750   6.372   4.522
12553TIP3   OH237615   6.217   6.572   5.245
12553TIP3    H137616   6.257   6.496   5.202
12553TIP3    H237617   6.206   6.545   5.336
12554TIP3   OH237618   5.714   6.070   5.112
12554TIP3    H137619   5.696   5.989   5.158
12554TIP3    H237620   5.800   6.098   5.144
12555TIP3   OH237621   6.190   6.500   5.510
12555TIP3    H137622   6.099   6.516   5.536
12555TIP3    H237623   6.242   6.552   5.570
12556TIP3   OH237624   5.928   6.844   4.619
12556TIP3    H137625   5.853   6.789   4.596
12556TIP3    H237626   5.904   6.883   4.703
12557TIP3   OH237627   6.813   7.097   5.219
12557TIP3    H137628   6.849   7.145   5.144
12557TIP3    H237629   6.728   7.065   5.189
12558TIP3   OH237630   6.385   6.167   4.511
12558TIP3    H137631   6.296   6.132   4.507
12558TIP3    H237632   6.375   6.262   4.509
12559TIP3   OH237633   6.314   7.185   5.621
12559TIP3    H137634   6.340   7.180   5.713
12559TIP3    H237635   6.276   7.272   5.611
12560TIP3   OH237636   6.456   6.451   4.576
12560TIP3    H137637   6.537   6.429   4.528
12560TIP3    H237638   6.423   6.529   4.532
12561TIP3   OH237639   5.634   6.891   5.268
12561TIP3    H137640   5.669   6.857   5.185
12561TIP3    H237641   5.669   6.832   5.334
12562TIP3   OH237642   6.081   7.005   4.461
12562TIP3    H137643   6.035   7.089   4.456
12562TIP3    H237644   6.023   6.948   4.513
12563TIP3   OH237645   6.216   6.923   5.899
12563TIP3    H137646   6.147   6.862   5.874
12563TIP3    H237647   6.296   6.886   5.860
12564TIP3   OH237648   6.471   7.442   5.511
12564TIP3    H137649   6.375   7.445   5.518
12564TIP3    H237650   6.502   7.491   5.587
12565TIP3   OH237651   6.883   6.531   4.412
12565TIP3    H137652   6.824   6.480   4.356
12565TIP3    H237653   6.888   6.617   4.369
12566TIP3   OH237654   7.099   7.321   5.503
12566TIP3    H137655   7.007   7.333   5.478
12566TIP3    H237656   7.146   7.318   5.419
12567TIP3   OH237657   6.598   7.313   4.326
12567TIP3    H137658   6.561   7.237   4.372
12567TIP3    H237659   6.621   7.281   4.239
12568TIP3   OH237660   6.570   6.976   5.131
12568TIP3    H137661   6.482   6.952   5.159
12568TIP3    H237662   6.598   6.901   5.078
12569TIP3   OH237663   5.738   7.198   4.933
12569TIP3    H137664   5.738   7.274   4.876
12569TIP3    H237665   5.646   7.179   4.948
12570TIP3   OH237666   5.299   6.484   4.637
12570TIP3    H137667   5.343   6.567   4.658
12570TIP3    H237668   5.220   6.486   4.691
12571TIP3   OH237669   5.844   6.954   4.851
12571TIP3    H137670   5.819   7.043   4.877
12571TIP3    H237671   5.813   6.898   4.923
12572TIP3   OH237672   6.016   7.521   5.383
12572TIP3    H137673   6.048   7.595   5.332
12572TIP3    H237674   6.092   7.492   5.434
12573TIP3   OH237675   5.657   7.423   4.778
12573TIP3    H137676   5.570   7.429   4.816
12573TIP3    H237677   5.691   7.512   4.780
12574TIP3   OH237678   6.377   7.165   5.353
12574TIP3    H137679   6.360   7.167   5.448
12574TIP3    H237680   6.467   7.132   5.346
12575TIP3   OH237681   6.370   7.056   4.228
12575TIP3    H137682   6.407   7.023   4.309
12575TIP3    H237683   6.281   7.021   4.225
12576TIP3   OH237684   6.599   7.693   5.394
12576TIP3    H137685   6.525   7.634   5.381
12576TIP3    H237686   6.596   7.752   5.319
12577TIP3   OH237687   6.683   7.526   4.035
12577TIP3    H137688   6.720   7.589   3.974
12577TIP3    H237689   6.607   7.570   4.072
12578TIP3   OH237690   5.696   6.331   5.908
12578TIP3    H137691   5.601   6.339   5.916
12578TIP3    H237692   5.722   6.271   5.978
12579TIP3   OH237693   6.520   6.970   4.450
12579TIP3    H137694   6.510   7.032   4.521
12579TIP3    H237695   6.615   6.965   4.435
12580TIP3   OH237696   5.442   7.428   5.528
12580TIP3    H137697   5.518   7.377   5.555
12580TIP3    H237698   5.452   7.512   5.573
12581TIP3   OH237699   5.727   7.028   4.233
12581TIP3    H137700   5.735   6.936   4.207
12581TIP3    H237701   5.705   7.025   4.326
12582TIP3   OH237702   5.662   7.047   4.503
12582TIP3    H137703   5.729   7.018   4.565
12582TIP3    H237704   5.662   7.142   4.510
12583TIP3   OH237705   5.395   6.735   4.716
12583TIP3    H137706   5.329   6.781   4.769
12583TIP3    H237707   5.414   6.795   4.644
12584TIP3   OH237708   6.571   6.371   5.602
12584TIP3    H137709   6.649   6.406   5.644
12584TIP3    H237710   6.552   6.290   5.649
12585TIP3   OH237711   6.446   6.119   4.775
12585TIP3    H137712   6.420   6.125   4.683
12585TIP3    H237713   6.457   6.210   4.803
12586TIP3   OH237714   5.938   7.235   4.451
12586TIP3    H137715   5.852   7.259   4.487
12586TIP3    H237716   5.960   7.307   4.393
12587TIP3   OH237717   6.133   6.286   4.900
12587TIP3    H137718   6.174   6.368   4.874
12587TIP3    H237719   6.082   6.307   4.978
12588TIP3   OH237720   6.414   6.596   5.657
12588TIP3    H137721   6.432   6.605   5.751
12588TIP3    H237722   6.453   6.513   5.633
12589TIP3   OH237723   6.279   6.011   4.977
12589TIP3    H137724   6.244   6.089   5.021
12589TIP3    H237725   6.333   6.046   4.906
12590TIP3   OH237726   5.685   7.318   4.524
12590TIP3    H137727   5.662   7.388   4.463
12590TIP3    H237728   5.673   7.357   4.611
12591TIP3   OH237729   5.778   6.023   4.759
12591TIP3    H137730   5.748   6.080   4.829
12591TIP3    H237731   5.873   6.018   4.770
12592TIP3   OH237732   7.023   6.504   5.624
12592TIP3    H137733   6.933   6.526   5.648
12592TIP3    H237734   7.014   6.439   5.554
12593TIP3   OH237735   6.698   6.627   4.975
12593TIP3    H137736   6.620   6.632   5.030
12593TIP3    H237737   6.771   6.628   5.036
12594TIP3   OH237738   5.413   6.919   4.503
12594TIP3    H137739   5.482   6.984   4.510
12594TIP3    H237740   5.447   6.855   4.439
12595TIP3   OH237741   5.332   6.208   4.638
12595TIP3    H137742   5.344   6.302   4.645
12595TIP3    H237743   5.262   6.197   4.574
12596TIP3   OH237744   6.647   7.658   4.970
12596TIP3    H137745   6.602   7.715   4.907
12596TIP3    H237746   6.740   7.682   4.961
12597TIP3   OH237747   5.727   5.932   5.515
12597TIP3    H137748   5.702   5.904   5.427
12597TIP3    H237749   5.717   5.853   5.569
12598TIP3   OH237750   5.252   7.177   4.896
12598TIP3    H137751   5.205   7.212   4.972
12598TIP3    H237752   5.211   7.220   4.821
12599TIP3   OH237753   5.434   7.672   5.945
12599TIP3    H137754   5.511   7.654   5.999
12599TIP3    H237755   5.384   7.591   5.945
12600TIP3   OH237756   5.913   7.697   5.971
12600TIP3    H137757   5.987   7.639   5.955
12600TIP3    H237758   5.850   7.642   6.019
12601TIP3   OH237759   5.879   7.234   4.129
12601TIP3    H137760   5.832   7.161   4.171
12601TIP3    H237761   5.953   7.192   4.086
12602TIP3   OH237762   6.546   7.548   5.757
12602TIP3    H137763   6.546   7.483   5.827
12602TIP3    H237764   6.632   7.590   5.763
12603TIP3   OH237765   6.318   7.269   4.052
12603TIP3    H137766   6.359   7.205   4.111
12603TIP3    H237767   6.374   7.268   3.974
12604TIP3   OH237768   5.573   7.091   6.157
12604TIP3    H137769   5.541   7.039   6.231
12604TIP3    H237770   5.495   7.112   6.106
12605TIP3   OH237771   5.544   6.729   4.357
12605TIP3    H137772   5.596   6.705   4.434
12605TIP3    H237773   5.609   6.741   4.287
12606TIP3   OH237774   6.131   7.187   5.926
12606TIP3    H137775   6.093   7.215   5.843
12606TIP3    H237776   6.163   7.098   5.909
12607TIP3   OH237777   6.114   6.951   4.192
12607TIP3    H137778   6.089   6.963   4.284
12607TIP3    H237779   6.095   6.858   4.174
12608TIP3   OH237780   6.634   7.221   5.544
12608TIP3    H137781   6.709   7.255   5.496
12608TIP3    H237782   6.566   7.288   5.533
12609TIP3   OH237783   5.722   6.667   4.567
12609TIP3    H137784   5.698   6.640   4.655
12609TIP3    H237785   5.765   6.590   4.529
12610TIP3   OH237786   6.035   6.731   5.812
12610TIP3    H137787   5.939   6.734   5.814
12610TIP3    H237788   6.058   6.761   5.724
12611TIP3   OH237789   5.856   6.472   4.414
12611TIP3    H137790   5.825   6.477   4.324
12611TIP3    H237791   5.952   6.479   4.407
12612TIP3   OH237792   6.529   7.099   5.934
12612TIP3    H137793   6.589   7.098   5.859
12612TIP3    H237794   6.494   7.011   5.939
12613TIP3   OH237795   6.662   6.771   4.093
12613TIP3    H137796   6.649   6.728   4.008
12613TIP3    H237797   6.635   6.862   4.078
12614TIP3   OH237798   6.156   6.505   5.906
12614TIP3    H137799   6.146   6.428   5.850
12614TIP3    H237800   6.108   6.574   5.860
12615TIP3   OH237801   6.144   6.299   5.717
12615TIP3    H137802   6.162   6.334   5.630
12615TIP3    H237803   6.052   6.274   5.715
12616TIP3   OH237804   6.152   6.841   5.590
12616TIP3    H137805   6.239   6.864   5.557
12616TIP3    H237806   6.093   6.903   5.548
12617TIP3   OH237807   6.744   6.811   6.050
12617TIP3    H137808   6.774   6.734   6.001
12617TIP3    H237809   6.798   6.883   6.017
12618TIP3   OH237810   6.770   7.043   5.694
12618TIP3    H137811   6.714   7.102   5.645
12618TIP3    H237812   6.859   7.067   5.667
12619TIP3   OH237813   6.040   6.604   6.148
12619TIP3    H137814   5.968   6.546   6.173
12619TIP3    H237815   6.059   6.582   6.057
12620TIP3   OH237816   6.267   6.071   5.815
12620TIP3    H137817   6.226   6.151   5.782
12620TIP3    H237818   6.201   6.003   5.802
12621TIP3   OH237819   6.383   6.586   6.030
12621TIP3    H137820   6.372   6.552   6.119
12621TIP3    H237821   6.307   6.554   5.983
12622TIP3   OH237822   6.630   6.549   5.903
12622TIP3    H137823   6.552   6.539   5.958
12622TIP3    H237824   6.700   6.509   5.954
12623TIP3   OH237825   6.854   6.474   6.042
12623TIP3    H137826   6.878   6.382   6.043
12623TIP3    H237827   6.863   6.503   6.133
12624TIP3   OH237828   5.868   6.410   6.240
12624TIP3    H137829   5.839   6.329   6.197
12624TIP3    H237830   5.900   6.381   6.326
12625TIP3   OH237831   6.339   6.064   6.081
12625TIP3    H137832   6.407   5.996   6.075
12625TIP3    H237833   6.303   6.069   5.992
12626TIP3   OH237834   6.435   6.286   6.209
12626TIP3    H137835   6.402   6.211   6.159
12626TIP3    H237836   6.360   6.344   6.218
12627TIP3   OH237837   5.672   7.522   4.338
12627TIP3    H137838   5.763   7.507   4.313
12627TIP3    H237839   5.635   7.570   4.264
12628TIP3   OH237840   5.140   6.904   4.529
12628TIP3    H137841   5.234   6.919   4.521
12628TIP3    H237842   5.126   6.818   4.488
12629TIP3   OH237843   5.048   7.496   4.975
12629TIP3    H137844   4.984   7.442   4.929
12629TIP3    H237845   5.093   7.436   5.033
12630TIP3   OH237846   5.189   7.330   5.145
12630TIP3    H137847   5.179   7.264   5.213
12630TIP3    H237848   5.238   7.401   5.186
12631TIP3   OH237849   6.908   7.731   4.967
12631TIP3    H137850   6.923   7.783   5.047
12631TIP3    H237851   6.959   7.775   4.900
12632TIP3   OH237852   6.916   7.778   5.250
12632TIP3    H137853   6.885   7.687   5.245
12632TIP3    H237854   6.988   7.775   5.313
12633TIP3   OH237855   6.807   6.983   4.437
12633TIP3    H137856   6.861   7.042   4.384
12633TIP3    H237857   6.830   7.005   4.527
12634TIP3   OH237858   6.987   7.222   5.046
12634TIP3    H137859   7.038   7.162   4.993
12634TIP3    H237860   6.982   7.302   4.994
12635TIP3   OH237861   6.790   7.530   5.258
12635TIP3    H137862   6.722   7.578   5.306
12635TIP3    H237863   6.745   7.494   5.182
12636TIP3   OH237864   6.868   6.766   4.275
12636TIP3    H137865   6.799   6.764   4.209
12636TIP3    H237866   6.847   6.842   4.329
12637TIP3   OH237867   6.714   6.413   4.234
12637TIP3    H137868   6.680   6.457   4.156
12637TIP3    H237869   6.701   6.320   4.216
12638TIP3   OH237870   5.373   6.775   5.515
12638TIP3    H137871   5.364   6.734   5.429
12638TIP3    H237872   5.467   6.769   5.535
12639TIP3   OH237873   7.034   7.100   5.650
12639TIP3    H137874   7.118   7.054   5.642
12639TIP3    H237875   7.049   7.185   5.608
12640TIP3   OH237876   7.248   6.922   5.622
12640TIP3    H137877   7.181   6.858   5.645
12640TIP3    H237878   7.331   6.874   5.629
12641TIP3   OH237879   6.674   6.145   4.196
12641TIP3    H137880   6.740   6.109   4.255
12641TIP3    H237881   6.595   6.097   4.216
12642TIP3   OH237882   6.779   6.469   4.662
12642TIP3    H137883   6.807   6.378   4.670
12642TIP3    H237884   6.818   6.499   4.580
12643TIP3   OH237885   6.905   6.586   5.159
12643TIP3    H137886   6.989   6.606   5.119
12643TIP3    H237887   6.909   6.627   5.245
12644TIP3   OH237888   6.973   6.738   5.390
12644TIP3    H137889   6.894   6.762   5.438
12644TIP3    H237890   6.996   6.817   5.341
12645TIP3   OH237891   7.422   6.353   5.924
12645TIP3    H137892   7.478   6.281   5.896
12645TIP3    H237893   7.381   6.386   5.844
12646TIP3   OH237894   6.805   6.196   4.729
12646TIP3    H137895   6.872   6.171   4.793
12646TIP3    H237896   6.765   6.112   4.705
12647TIP3   OH237897   5.569   6.157   5.523
12647TIP3    H137898   5.619   6.077   5.532
12647TIP3    H237899   5.633   6.222   5.493
12648TIP3   OH237900   5.346   6.413   5.586
12648TIP3    H137901   5.408   6.407   5.513
12648TIP3    H237902   5.360   6.500   5.623
12649TIP3   OH237903   7.268   6.432   5.709
12649TIP3    H137904   7.176   6.456   5.697
12649TIP3    H237905   7.275   6.345   5.669
12650TIP3   OH237906   6.914   6.087   4.341
12650TIP3    H137907   6.956   6.028   4.279
12650TIP3    H237908   6.965   6.167   4.336
12651TIP3   OH237909   5.326   5.910   5.084
12651TIP3    H137910   5.240   5.909   5.125
12651TIP3    H237911   5.317   5.972   5.011
12652TIP3   OH237912   6.489   7.634   4.603
12652TIP3    H137913   6.532   7.616   4.519
12652TIP3    H237914   6.527   7.717   4.633
12653TIP3   OH237915   5.553   5.974   5.904
12653TIP3    H137916   5.507   5.980   5.988
12653TIP3    H237917   5.499   6.025   5.843
12654TIP3   OH237918   5.791   7.482   5.546
12654TIP3    H137919   5.740   7.555   5.511
12654TIP3    H237920   5.873   7.485   5.496
12655TIP3   OH237921   6.217   7.710   5.656
12655TIP3    H137922   6.249   7.708   5.746
12655TIP3    H237923   6.281   7.764   5.609
12656TIP3   OH237924   6.404   7.862   5.522
12656TIP3    H137925   6.472   7.806   5.485
12656TIP3    H237926   6.451   7.939   5.554
12657TIP3   OH237927   7.196   6.178   5.627
12657TIP3    H137928   7.106   6.157   5.605
12657TIP3    H237929   7.243   6.095   5.623
12658TIP3   OH237930   5.452   7.719   5.580
12658TIP3    H137931   5.363   7.747   5.558
12658TIP3    H237932   5.476   7.773   5.655
12659TIP3   OH237933   5.679   7.703   5.424
12659TIP3    H137934   5.596   7.712   5.472
12659TIP3    H237935   5.657   7.731   5.334
12660TIP3   OH237936   6.097   7.728   5.215
12660TIP3    H137937   6.025   7.741   5.152
12660TIP3    H237938   6.108   7.813   5.256
12661TIP3   OH237939   6.357   7.649   5.253
12661TIP3    H137940   6.267   7.676   5.238
12661TIP3    H237941   6.410   7.719   5.213
12662TIP3   OH237942   6.551   7.832   5.164
12662TIP3    H137943   6.547   7.921   5.127
12662TIP3    H237944   6.586   7.779   5.093
12663TIP3   OH237945   5.357   7.515   5.283
12663TIP3    H137946   5.379   7.491   5.372
12663TIP3    H237947   5.430   7.482   5.230
12664TIP3   OH237948   5.565   7.395   5.156
12664TIP3    H137949   5.576   7.315   5.207
12664TIP3    H237950   5.652   7.436   5.157
12665TIP3   OH237951   5.834   7.477   5.174
12665TIP3    H137952   5.856   7.385   5.159
12665TIP3    H237953   5.883   7.500   5.253
12666TIP3   OH237954   6.426   6.147   5.274
12666TIP3    H137955   6.343   6.116   5.311
12666TIP3    H237956   6.464   6.070   5.232
12667TIP3   OH237957   6.917   6.026   5.141
12667TIP3    H137958   6.952   6.079   5.069
12667TIP3    H237959   6.822   6.040   5.138
12668TIP3   OH237960   7.011   6.118   4.898
12668TIP3    H137961   7.080   6.057   4.874
12668TIP3    H237962   7.051   6.204   4.890
12669TIP3   OH237963   5.646   5.835   5.268
12669TIP3    H137964   5.556   5.805   5.271
12669TIP3    H237965   5.698   5.756   5.256
12670TIP3   OH237966   5.446   5.721   4.910
12670TIP3    H137967   5.477   5.775   4.838
12670TIP3    H237968   5.412   5.784   4.974
12671TIP3   OH237969   6.091   5.880   5.147
12671TIP3    H137970   6.162   5.919   5.096
12671TIP3    H237971   6.046   5.955   5.187
12672TIP3   OH237972   6.644   6.016   5.105
12672TIP3    H137973   6.598   5.983   5.027
12672TIP3    H237974   6.629   5.949   5.171
12673TIP3   OH237975   6.664   5.959   4.699
12673TIP3    H137976   6.583   6.004   4.720
12673TIP3    H237977   6.654   5.871   4.737
12674TIP3   OH237978   5.137   7.302   4.682
12674TIP3    H137979   5.053   7.268   4.651
12674TIP3    H237980   5.139   7.392   4.650
12675TIP3   OH237981   5.561   5.862   4.678
12675TIP3    H137982   5.606   5.801   4.619
12675TIP3    H237983   5.631   5.918   4.713
12676TIP3   OH237984   6.056   6.053   4.781
12676TIP3    H137985   6.088   5.986   4.842
12676TIP3    H237986   6.081   6.136   4.821
12677TIP3   OH237987   5.933   7.458   4.276
12677TIP3    H137988   6.016   7.486   4.238
12677TIP3    H237989   5.903   7.387   4.218
12678TIP3   OH237990   6.614   7.581   4.365
12678TIP3    H137991   6.613   7.486   4.352
12678TIP3    H237992   6.576   7.616   4.284
12679TIP3   OH237993   5.854   6.115   6.145
12679TIP3    H137994   5.820   6.048   6.204
12679TIP3    H237995   5.945   6.126   6.172
12680TIP3   OH237996   6.108   6.116   6.267
12680TIP3    H137997   6.187   6.091   6.218
12680TIP3    H237998   6.096   6.046   6.331
12681TIP3   OH237999   5.233   7.300   4.329
12681TIP3    H138000   5.236   7.315   4.424
12681TIP3    H238001   5.315   7.255   4.309
12682TIP3   OH238002   6.931   6.207   6.053
12682TIP3    H138003   6.944   6.174   6.142
12682TIP3    H238004   7.017   6.200   6.013
12683TIP3   OH238005   8.103   7.085   4.361
12683TIP3    H138006   8.086   7.173   4.326
12683TIP3    H238007   8.045   7.028   4.310
12684TIP3   OH238008   8.078   7.109   4.687
12684TIP3    H138009   8.136   7.041   4.723
12684TIP3    H238010   8.078   7.092   4.593
12685TIP3   OH238011   7.410   6.952   5.073
12685TIP3    H138012   7.447   6.891   5.136
12685TIP3    H238013   7.470   7.027   5.073
12686TIP3   OH238014   7.405   7.388   4.808
12686TIP3    H138015   7.386   7.294   4.805
12686TIP3    H238016   7.496   7.394   4.779
12687TIP3   OH238017   7.114   6.608   4.566
12687TIP3    H138018   7.098   6.696   4.601
12687TIP3    H238019   7.036   6.587   4.515
12688TIP3   OH238020   7.176   6.891   4.732
12688TIP3    H138021   7.230   6.823   4.773
12688TIP3    H238022   7.239   6.957   4.703
12689TIP3   OH238023   7.939   7.336   4.753
12689TIP3    H138024   7.974   7.248   4.741
12689TIP3    H238025   7.993   7.392   4.698
12690TIP3   OH238026   8.313   6.826   4.769
12690TIP3    H138027   8.356   6.743   4.792
12690TIP3    H238028   8.291   6.815   4.676
12691TIP3   OH238029   7.696   6.484   4.728
12691TIP3    H138030   7.677   6.559   4.671
12691TIP3    H238031   7.643   6.413   4.692
12692TIP3   OH238032   8.386   6.587   4.367
12692TIP3    H138033   8.456   6.571   4.431
12692TIP3    H238034   8.431   6.625   4.291
12693TIP3   OH238035   7.319   6.689   4.856
12693TIP3    H138036   7.403   6.683   4.901
12693TIP3    H238037   7.331   6.637   4.776
12694TIP3   OH238038   7.756   6.887   4.648
12694TIP3    H138039   7.848   6.863   4.658
12694TIP3    H238040   7.714   6.808   4.614
12695TIP3   OH238041   7.680   6.485   5.184
12695TIP3    H138042   7.629   6.518   5.110
12695TIP3    H238043   7.626   6.502   5.261
12696TIP3   OH238044   8.013   7.284   4.194
12696TIP3    H138045   7.980   7.278   4.104
12696TIP3    H238046   7.991   7.373   4.221
12697TIP3   OH238047   7.767   7.240   4.953
12697TIP3    H138048   7.706   7.311   4.972
12697TIP3    H238049   7.830   7.278   4.892
12698TIP3   OH238050   0.064   6.594   4.581
12698TIP3    H138051   0.017   6.577   4.662
12698TIP3    H238052   0.067   6.690   4.574
12699TIP3   OH238053   7.564   6.583   4.951
12699TIP3    H138054   7.618   6.659   4.971
12699TIP3    H238055   7.607   6.542   4.877
12700TIP3   OH238056   6.981   7.143   4.298
12700TIP3    H138057   6.952   7.160   4.208
12700TIP3    H238058   6.995   7.230   4.336
12701TIP3   OH238059   8.020   6.183   4.901
12701TIP3    H138060   8.013   6.091   4.927
12701TIP3    H238061   7.944   6.225   4.942
12702TIP3   OH238062   8.305   7.435   4.160
12702TIP3    H138063   8.250   7.388   4.098
12702TIP3    H238064   8.364   7.488   4.106
12703TIP3   OH238065   7.961   6.952   4.155
12703TIP3    H138066   7.881   7.001   4.138
12703TIP3    H238067   8.010   6.956   4.073
12704TIP3   OH238068   7.929   6.753   3.850
12704TIP3    H138069   7.994   6.807   3.897
12704TIP3    H238070   7.982   6.690   3.801
12705TIP3   OH238071   8.289   7.030   4.148
12705TIP3    H138072   8.237   7.060   4.223
12705TIP3    H238073   8.370   6.998   4.187
12706TIP3   OH238074   7.532   7.017   4.537
12706TIP3    H138075   7.497   6.962   4.466
12706TIP3    H238076   7.612   6.971   4.565
12707TIP3   OH238077   7.655   7.398   4.693
12707TIP3    H138078   7.619   7.390   4.604
12707TIP3    H238079   7.745   7.368   4.685
12708TIP3   OH238080   7.657   7.003   4.878
12708TIP3    H138081   7.695   6.977   4.794
12708TIP3    H238082   7.700   7.085   4.900
12709TIP3   OH238083   8.148   6.903   3.947
12709TIP3    H138084   8.201   6.961   4.001
12709TIP3    H238085   8.178   6.920   3.857
12710TIP3   OH238086   7.534   7.135   5.274
12710TIP3    H138087   7.514   7.226   5.250
12710TIP3    H238088   7.451   7.101   5.308
12711TIP3   OH238089   7.926   7.543   4.224
12711TIP3    H138090   7.949   7.591   4.144
12711TIP3    H238091   7.831   7.537   4.221
12712TIP3   OH238092   0.146   6.104   4.013
12712TIP3    H138093   0.067   6.149   4.042
12712TIP3    H238094   0.194   6.170   3.962
12713TIP3   OH238095   7.416   6.873   4.322
12713TIP3    H138096   7.346   6.928   4.288
12713TIP3    H238097   7.380   6.785   4.325
12714TIP3   OH238098   7.181   7.270   5.242
12714TIP3    H138099   7.110   7.259   5.178
12714TIP3    H238100   7.206   7.181   5.265
12715TIP3   OH238101   7.011   7.462   4.911
12715TIP3    H138102   7.104   7.486   4.905
12715TIP3    H238103   6.967   7.542   4.939
12716TIP3   OH238104   7.766   7.765   4.073
12716TIP3    H138105   7.721   7.792   3.993
12716TIP3    H238106   7.835   7.831   4.084
12717TIP3   OH238107   7.167   7.649   4.421
12717TIP3    H138108   7.196   7.617   4.507
12717TIP3    H238109   7.172   7.572   4.364
12718TIP3   OH238110   7.423   7.391   5.223
12718TIP3    H138111   7.422   7.451   5.297
12718TIP3    H238112   7.334   7.355   5.219
12719TIP3   OH238113   7.786   6.273   5.032
12719TIP3    H138114   7.702   6.242   4.999
12719TIP3    H238115   7.766   6.354   5.079
12720TIP3   OH238116   8.219   6.935   3.686
12720TIP3    H138117   8.179   6.914   3.602
12720TIP3    H238118   8.229   7.031   3.684
12721TIP3   OH238119   7.933   6.311   3.999
12721TIP3    H138120   7.895   6.317   4.087
12721TIP3    H238121   7.896   6.231   3.963
12722TIP3   OH238122   7.726   6.789   5.031
12722TIP3    H138123   7.676   6.798   5.113
12722TIP3    H238124   7.701   6.865   4.979
12723TIP3   OH238125   7.606   6.677   4.556
12723TIP3    H138126   7.516   6.654   4.582
12723TIP3    H238127   7.614   6.644   4.467
12724TIP3   OH238128   8.084   6.747   4.280
12724TIP3    H138129   8.036   6.819   4.240
12724TIP3    H238130   8.144   6.717   4.212
12725TIP3   OH238131   8.234   6.773   4.511
12725TIP3    H138132   8.173   6.799   4.442
12725TIP3    H238133   8.284   6.700   4.473
12726TIP3   OH238134   7.557   6.793   5.252
12726TIP3    H138135   7.616   6.850   5.301
12726TIP3    H238136   7.542   6.718   5.309
12727TIP3   OH238137   7.600   6.295   3.973
12727TIP3    H138138   7.589   6.301   4.068
12727TIP3    H238139   7.523   6.340   3.937
12728TIP3   OH238140   7.145   6.343   4.839
12728TIP3    H138141   7.213   6.378   4.895
12728TIP3    H238142   7.186   6.335   4.753
12729TIP3   OH238143   7.063   6.325   4.348
12729TIP3    H138144   7.105   6.356   4.268
12729TIP3    H238145   7.008   6.397   4.376
12730TIP3   OH238146   7.957   6.466   4.611
12730TIP3    H138147   7.878   6.475   4.664
12730TIP3    H238148   8.029   6.467   4.674
12731TIP3   OH238149   7.374   6.547   4.629
12731TIP3    H138150   7.285   6.551   4.592
12731TIP3    H238151   7.405   6.459   4.606
12732TIP3   OH238152   7.619   6.554   4.312
12732TIP3    H138153   7.713   6.568   4.300
12732TIP3    H238154   7.581   6.576   4.227
12733TIP3   OH238155   8.399   6.561   4.809
12733TIP3    H138156   8.390   6.568   4.904
12733TIP3    H238157   8.329   6.501   4.783
12734TIP3   OH238158   7.498   6.584   4.070
12734TIP3    H138159   7.434   6.536   4.016
12734TIP3    H238160   7.552   6.629   4.006
12735TIP3   OH238161   8.011   6.786   4.699
12735TIP3    H138162   8.084   6.778   4.638
12735TIP3    H238163   8.046   6.756   4.783
12736TIP3   OH238164   7.518   6.306   4.601
12736TIP3    H138165   7.488   6.231   4.651
12736TIP3    H238166   7.541   6.271   4.516
12737TIP3   OH238167   7.995   6.730   5.019
12737TIP3    H138168   7.901   6.744   5.009
12737TIP3    H238169   8.033   6.818   5.019
12738TIP3   OH238170   7.731   7.089   4.093
12738TIP3    H138171   7.652   7.040   4.069
12738TIP3    H238172   7.712   7.123   4.180
12739TIP3   OH238173   8.185   6.412   4.001
12739TIP3    H138174   8.092   6.394   3.996
12739TIP3    H238175   8.191   6.507   4.008
12740TIP3   OH238176   8.247   6.674   4.067
12740TIP3    H138177   8.342   6.682   4.079
12740TIP3    H238178   8.222   6.750   4.015
12741TIP3   OH238179   7.413   7.105   4.771
12741TIP3    H138180   7.446   7.094   4.682
12741TIP3    H238181   7.478   7.064   4.827
12742TIP3   OH238182   7.879   7.256   3.939
12742TIP3    H138183   7.813   7.325   3.932
12742TIP3    H238184   7.837   7.187   3.990
12743TIP3   OH238185   7.286   7.037   5.368
12743TIP3    H138186   7.281   7.014   5.460
12743TIP3    H238187   7.212   6.991   5.327
12744TIP3   OH238188   7.535   7.391   4.444
12744TIP3    H138189   7.574   7.452   4.382
12744TIP3    H238190   7.444   7.384   4.415
12745TIP3   OH238191   7.102   6.745   4.125
12745TIP3    H138192   7.146   6.828   4.141
12745TIP3    H238193   7.020   6.751   4.174
12746TIP3   OH238194   7.664   7.168   4.342
12746TIP3    H138195   7.645   7.260   4.364
12746TIP3    H238196   7.619   7.118   4.410
12747TIP3   OH238197   7.393   7.751   4.133
12747TIP3    H138198   7.306   7.791   4.139
12747TIP3    H238199   7.421   7.743   4.224
12748TIP3   OH238200   8.143   7.200   3.645
12748TIP3    H138201   8.170   7.251   3.721
12748TIP3    H238202   8.049   7.191   3.655
12749TIP3   OH238203   7.502   6.552   5.392
12749TIP3    H138204   7.408   6.567   5.397
12749TIP3    H238205   7.520   6.486   5.458
12750TIP3   OH238206   8.336   7.169   3.916
12750TIP3    H138207   8.319   7.134   4.003
12750TIP3    H238208   8.423   7.208   3.922
12751TIP3   OH238209   7.241   7.641   5.049
12751TIP3    H138210   7.299   7.576   5.090
12751TIP3    H238211   7.264   7.724   5.092
12752TIP3   OH238212   7.504   7.288   3.700
12752TIP3    H138213   7.511   7.194   3.682
12752TIP3    H238214   7.553   7.300   3.781
12753TIP3   OH238215   7.415   7.296   4.055
12753TIP3    H138216   7.507   7.271   4.049
12753TIP3    H238217   7.409   7.380   4.009
12754TIP3   OH238218   7.197   6.994   4.204
12754TIP3    H138219   7.130   7.039   4.255
12754TIP3    H238220   7.210   7.050   4.127
12755TIP3   OH238221   8.337   6.602   5.074
12755TIP3    H138222   8.367   6.679   5.122
12755TIP3    H238223   8.243   6.596   5.094
12756TIP3   OH238224   8.239   6.371   4.269
12756TIP3    H138225   8.219   6.388   4.177
12756TIP3    H238226   8.280   6.451   4.300
12757TIP3   OH238227   7.645   7.400   3.909
12757TIP3    H138228   7.569   7.454   3.929
12757TIP3    H238229   7.713   7.462   3.882
12758TIP3   OH238230   7.898   6.561   4.354
12758TIP3    H138231   7.961   6.628   4.327
12758TIP3    H238232   7.918   6.546   4.447
12759TIP3   OH238233   8.058   6.265   4.448
12759TIP3    H138234   8.029   6.341   4.499
12759TIP3    H238235   8.123   6.300   4.387
12760TIP3   OH238236   7.424   7.548   3.960
12760TIP3    H138237   7.410   7.597   3.880
12760TIP3    H238238   7.414   7.612   4.030
12761TIP3   OH238239   7.571   6.284   4.254
12761TIP3    H138240   7.562   6.376   4.280
12761TIP3    H238241   7.665   6.267   4.258
12762TIP3   OH238242   8.515   6.872   4.543
12762TIP3    H138243   8.426   6.876   4.508
12762TIP3    H238244   8.516   6.941   4.609
12763TIP3   OH238245   7.188   7.165   3.984
12763TIP3    H138246   7.257   7.225   4.012
12763TIP3    H238247   7.229   7.111   3.916
12764TIP3   OH238248   7.124   6.468   4.122
12764TIP3    H138249   7.135   6.562   4.131
12764TIP3    H238250   7.084   6.456   4.036
12765TIP3   OH238251   7.524   6.188   4.992
12765TIP3    H138252   7.496   6.157   4.907
12765TIP3    H238253   7.513   6.113   5.050
12766TIP3   OH238254   6.997   7.400   4.393
12766TIP3    H138255   6.985   7.457   4.469
12766TIP3    H238256   6.981   7.457   4.318
12767TIP3   OH238257   7.675   7.480   3.590
12767TIP3    H138258   7.611   7.415   3.620
12767TIP3    H238259   7.748   7.428   3.558
12768TIP3   OH238260   7.338   6.986   3.842
12768TIP3    H138261   7.390   6.965   3.919
12768TIP3    H238262   7.402   6.997   3.772
12769TIP3   OH238263   7.863   7.188   3.668
12769TIP3    H138264   7.852   7.199   3.762
12769TIP3    H238265   7.849   7.094   3.653
12770TIP3   OH238266   7.516   6.920   4.049
12770TIP3    H138267   7.497   6.888   4.137
12770TIP3    H238268   7.562   6.848   4.006
12771TIP3   OH238269   7.764   6.983   5.290
12771TIP3    H138270   7.689   7.042   5.299
12771TIP3    H238271   7.821   7.025   5.227
12772TIP3   OH238272   7.654   6.729   3.898
12772TIP3    H138273   7.624   6.734   3.808
12772TIP3    H238274   7.749   6.735   3.893
12773TIP3   OH238275   7.857   6.748   5.435
12773TIP3    H138276   7.901   6.693   5.370
12773TIP3    H238277   7.841   6.830   5.389
12774TIP3   OH238278   7.945   6.551   5.225
12774TIP3    H138279   7.966   6.605   5.149
12774TIP3    H238280   7.852   6.530   5.215
12775TIP3   OH238281   8.069   6.313   5.294
12775TIP3    H138282   8.032   6.399   5.275
12775TIP3    H238283   7.995   6.253   5.292
12776TIP3   OH238284   7.642   6.640   5.714
12776TIP3    H138285   7.655   6.553   5.676
12776TIP3    H238286   7.728   6.682   5.707
12777TIP3   OH238287   8.131   6.302   5.566
12777TIP3    H138288   8.225   6.282   5.564
12777TIP3    H238289   8.107   6.311   5.474
12778TIP3   OH238290   7.428   7.756   3.792
12778TIP3    H138291   7.483   7.816   3.840
12778TIP3    H238292   7.414   7.798   3.707
12779TIP3   OH238293   6.921   7.149   4.022
12779TIP3    H138294   7.013   7.169   4.007
12779TIP3    H238295   6.906   7.066   3.976
12780TIP3   OH238296   6.810   7.723   4.481
12780TIP3    H138297   6.750   7.671   4.429
12780TIP3    H238298   6.858   7.660   4.534
12781TIP3   OH238299   6.960   7.556   4.639
12781TIP3    H138300   6.944   7.489   4.706
12781TIP3    H238301   7.011   7.623   4.684
12782TIP3   OH238302   8.517   6.662   3.696
12782TIP3    H138303   8.461   6.678   3.620
12782TIP3    H238304   8.498   6.571   3.720
12783TIP3   OH238305   0.011   6.920   4.261
12783TIP3    H138306   0.042   6.842   4.216
12783TIP3    H238307   0.059   6.921   4.344
12784TIP3   OH238308   7.152   6.996   4.990
12784TIP3    H138309   7.143   6.967   4.899
12784TIP3    H238310   7.246   6.992   5.007
12785TIP3   OH238311   8.467   6.395   3.726
12785TIP3    H138312   8.518   6.336   3.670
12785TIP3    H238313   8.378   6.359   3.724
12786TIP3   OH238314   0.028   6.669   4.128
12786TIP3    H138315   0.068   6.584   4.150
12786TIP3    H238316   0.067   6.692   4.043
12787TIP3   OH238317   7.378   6.683   5.728
12787TIP3    H138318   7.473   6.690   5.725
12787TIP3    H238319   7.359   6.597   5.691
12788TIP3   OH238320   0.127   6.429   4.208
12788TIP3    H138321   0.184   6.406   4.282
12788TIP3    H238322   0.072   6.352   4.196
12789TIP3   OH238323   7.350   6.405   5.018
12789TIP3    H138324   7.408   6.329   5.018
12789TIP3    H238325   7.408   6.479   4.999
12790TIP3   OH238326   7.150   6.681   5.078
12790TIP3    H138327   7.198   6.667   4.996
12790TIP3    H238328   7.168   6.772   5.101
12791TIP3   OH238329   7.146   6.187   4.569
12791TIP3    H138330   7.061   6.167   4.608
12791TIP3    H238331   7.126   6.242   4.494
12792TIP3   OH238332   7.348   6.248   5.396
12792TIP3    H138333   7.290   6.226   5.470
12792TIP3    H238334   7.291   6.293   5.334
12793TIP3   OH238335   7.130   7.709   4.799
12793TIP3    H138336   7.165   7.706   4.889
12793TIP3    H238337   7.204   7.681   4.745
12794TIP3   OH238338   7.314   7.588   4.647
12794TIP3    H138339   7.330   7.504   4.691
12794TIP3    H238340   7.401   7.626   4.636
12795TIP3   OH238341   7.572   7.672   4.625
12795TIP3    H138342   7.619   7.591   4.646
12795TIP3    H238343   7.605   7.736   4.689
12796TIP3   OH238344   8.188   6.378   4.753
12796TIP3    H138345   8.144   6.306   4.798
12796TIP3    H238346   8.256   6.336   4.700
12797TIP3   OH238347   0.189   6.307   4.655
12797TIP3    H138348   0.211   6.360   4.578
12797TIP3    H238349   0.094   6.315   4.663
12798TIP3   OH238350   0.305   6.389   4.419
12798TIP3    H138351   0.375   6.327   4.440
12798TIP3    H238352   0.350   6.469   4.393
12799TIP3   OH238353   7.438   6.085   4.750
12799TIP3    H138354   7.347   6.055   4.755
12799TIP3    H238355   7.490   6.005   4.743
12800TIP3   OH238356   7.259   5.987   4.403
12800TIP3    H138357   7.284   6.033   4.323
12800TIP3    H238358   7.227   6.055   4.462
12801TIP3   OH238359   7.907   6.122   4.641
12801TIP3    H138360   7.950   6.171   4.572
12801TIP3    H238361   7.942   6.157   4.722
12802TIP3   OH238362   8.409   6.268   4.623
12802TIP3    H138363   8.421   6.238   4.533
12802TIP3    H238364   8.412   6.188   4.676
12803TIP3   OH238365   8.457   6.213   4.194
12803TIP3    H138366   8.375   6.260   4.209
12803TIP3    H238367   8.442   6.127   4.233
12804TIP3   OH238368   6.927   7.552   4.175
12804TIP3    H138369   6.847   7.506   4.148
12804TIP3    H238370   6.920   7.637   4.132
12805TIP3   OH238371   7.360   6.117   4.167
12805TIP3    H138372   7.405   6.059   4.106
12805TIP3    H238373   7.428   6.175   4.200
12806TIP3   OH238374   7.846   6.309   4.262
12806TIP3    H138375   7.908   6.260   4.317
12806TIP3    H238376   7.860   6.401   4.287
12807TIP3   OH238377   7.765   7.725   3.651
12807TIP3    H138378   7.758   7.774   3.568
12807TIP3    H238379   7.725   7.640   3.632
12808TIP3   OH238380   7.632   6.353   5.629
12808TIP3    H138381   7.599   6.286   5.688
12808TIP3    H238382   7.726   6.359   5.649
12809TIP3   OH238383   7.893   6.350   5.705
12809TIP3    H138384   7.973   6.357   5.653
12809TIP3    H238385   7.913   6.283   5.770
12810TIP3   OH238386   7.017   7.523   3.823
12810TIP3    H138387   7.030   7.567   3.907
12810TIP3    H238388   7.105   7.495   3.797
12811TIP3   OH238389   1.412   7.430   6.407
12811TIP3    H138390   1.434   7.509   6.456
12811TIP3    H238391   1.456   7.440   6.323
12812TIP3   OH238392   0.886   7.273   6.005
12812TIP3    H138393   0.911   7.311   6.090
12812TIP3    H238394   0.886   7.347   5.945
12813TIP3   OH238395   1.472   7.633   6.583
12813TIP3    H138396   1.468   7.726   6.562
12813TIP3    H238397   1.412   7.621   6.655
12814TIP3   OH238398   0.998   7.405   6.231
12814TIP3    H138399   1.023   7.324   6.275
12814TIP3    H238400   1.066   7.468   6.256
12815TIP3   OH238401   1.203   7.353   6.572
12815TIP3    H138402   1.126   7.386   6.527
12815TIP3    H238403   1.276   7.369   6.512
12816TIP3   OH238404   1.080   6.988   5.681
12816TIP3    H138405   1.107   7.038   5.758
12816TIP3    H238406   1.120   7.035   5.607
12817TIP3   OH238407   1.129   7.539   5.589
12817TIP3    H138408   1.071   7.491   5.530
12817TIP3    H238409   1.130   7.628   5.555
12818TIP3   OH238410   1.292   7.537   6.773
12818TIP3    H138411   1.225   7.546   6.841
12818TIP3    H238412   1.263   7.464   6.719
12819TIP3   OH238413   0.921   7.698   6.213
12819TIP3    H138414   0.879   7.613   6.226
12819TIP3    H238415   1.006   7.691   6.255
12820TIP3   OH238416   0.945   7.789   5.245
12820TIP3    H138417   0.889   7.739   5.185
12820TIP3    H238418   1.007   7.834   5.188
12821TIP3   OH238419   1.024   7.994   5.617
12821TIP3    H138420   1.081   8.062   5.582
12821TIP3    H238421   1.074   7.955   5.689
12822TIP3   OH238422   1.193   7.864   5.798
12822TIP3    H138423   1.133   7.824   5.860
12822TIP3    H238424   1.257   7.910   5.852
12823TIP3   OH238425   1.117   7.779   5.458
12823TIP3    H138426   1.050   7.786   5.390
12823TIP3    H238427   1.098   7.852   5.517
12824TIP3   OH238428   0.958   7.451   5.387
12824TIP3    H138429   0.945   7.544   5.372
12824TIP3    H238430   0.919   7.408   5.311
12825TIP3   OH238431   1.023   7.721   5.956
12825TIP3    H138432   1.004   7.632   5.929
12825TIP3    H238433   0.978   7.732   6.040
12826TIP3   OH238434   0.914   7.133   5.456
12826TIP3    H138435   1.010   7.140   5.457
12826TIP3    H238436   0.883   7.222   5.442
12827TIP3   OH238437   1.010   7.460   5.836
12827TIP3    H138438   1.078   7.393   5.846
12827TIP3    H238439   1.034   7.505   5.755
12828TIP3   OH238440   1.159   7.623   6.339
12828TIP3    H138441   1.233   7.658   6.289
12828TIP3    H238442   1.165   7.666   6.424
12829TIP3   OH238443   7.395   3.398   0.147
12829TIP3    H138444   7.446   3.329   0.105
12829TIP3    H238445   7.358   3.448   0.074
12830TIP3   OH238446   1.115   7.179   5.877
12830TIP3    H138447   1.171   7.169   5.954
12830TIP3    H238448   1.029   7.200   5.913
12831TIP3   OH238449   1.584   7.465   6.855
12831TIP3    H138450   1.516   7.531   6.854
12831TIP3    H238451   1.549   7.393   6.803
12832TIP3   OH238452   1.186   7.147   5.487
12832TIP3    H138453   1.233   7.082   5.434
12832TIP3    H238454   1.247   7.221   5.495
12833TIP3   OH238455   1.446   7.228   6.759
12833TIP3    H138456   1.357   7.201   6.736
12833TIP3    H238457   1.496   7.146   6.760
12834TIP3   OH238458   1.175   7.029   6.294
12834TIP3    H138459   1.218   7.087   6.231
12834TIP3    H238460   1.087   7.066   6.303
12835TIP3   OH238461   1.284   7.166   6.088
12835TIP3    H138462   1.352   7.105   6.061
12835TIP3    H238463   1.322   7.253   6.072
12836TIP3   OH238464   0.920   7.121   6.309
12836TIP3    H138465   0.839   7.140   6.262
12836TIP3    H238466   0.902   7.039   6.356
12837TIP3   OH238467   0.837   7.009   5.865
12837TIP3    H138468   0.830   7.089   5.917
12837TIP3    H238469   0.828   6.938   5.929
12838TIP3   OH238470   5.253   0.018   5.517
12838TIP3    H138471   5.246   0.102   5.564
12838TIP3    H238472   5.171   0.010   5.469
12839TIP3   OH238473   5.185   0.124   5.969
12839TIP3    H138474   5.261   0.091   6.017
12839TIP3    H238475   5.154   0.048   5.919
12840TIP3   OH238476   1.690   8.012   6.253
12840TIP3    H138477   1.725   7.964   6.328
12840TIP3    H238478   1.768   8.040   6.205
12841TIP3   OH238479   5.520   0.425   5.638
12841TIP3    H138480   5.439   0.375   5.652
12841TIP3    H238481   5.495   0.516   5.656
12842TIP3   OH238482   4.607   0.378   6.084
12842TIP3    H138483   4.519   0.343   6.094
12842TIP3    H238484   4.633   0.355   5.995
12843TIP3   OH238485   1.354   7.644   5.729
12843TIP3    H138486   1.319   7.729   5.754
12843TIP3    H238487   1.280   7.598   5.690
12844TIP3   OH238488   1.419   7.947   5.937
12844TIP3    H138489   1.470   7.872   5.967
12844TIP3    H238490   1.484   8.005   5.897
12845TIP3   OH238491   5.050   0.354   6.001
12845TIP3    H138492   5.097   0.272   5.986
12845TIP3    H238493   5.029   0.386   5.913
12846TIP3   OH238494   3.210   7.701   5.917
12846TIP3    H138495   3.225   7.784   5.963
12846TIP3    H238496   3.238   7.718   5.827
12847TIP3   OH238497   2.595   7.862   5.948
12847TIP3    H138498   2.632   7.775   5.965
12847TIP3    H238499   2.559   7.855   5.860
12848TIP3   OH238500   1.945   7.531   5.911
12848TIP3    H138501   1.926   7.605   5.853
12848TIP3    H238502   1.889   7.460   5.877
12849TIP3   OH238503   2.635   7.631   5.533
12849TIP3    H138504   2.698   7.626   5.605
12849TIP3    H238505   2.686   7.663   5.459
12850TIP3   OH238506   1.564   7.734   6.039
12850TIP3    H138507   1.648   7.725   6.083
12850TIP3    H238508   1.575   7.688   5.956
12851TIP3   OH238509   2.004   7.936   5.845
12851TIP3    H138510   2.098   7.919   5.851
12851TIP3    H238511   1.967   7.854   5.811
12852TIP3   OH238512   3.263   7.900   6.113
12852TIP3    H138513   3.184   7.951   6.094
12852TIP3    H238514   3.306   7.949   6.183
12853TIP3   OH238515   1.928   7.525   6.357
12853TIP3    H138516   1.875   7.565   6.288
12853TIP3    H238517   1.878   7.539   6.437
12854TIP3   OH238518   5.252   0.284   5.291
12854TIP3    H138519   5.165   0.286   5.252
12854TIP3    H238520   5.238   0.315   5.381
12855TIP3   OH238521   4.863   0.269   6.176
12855TIP3    H138522   4.793   0.332   6.192
12855TIP3    H238523   4.925   0.316   6.120
12856TIP3   OH238524   2.810   7.647   5.742
12856TIP3    H138525   2.767   7.622   5.824
12856TIP3    H238526   2.867   7.720   5.766
12857TIP3   OH238527   1.811   7.638   6.132
12857TIP3    H138528   1.865   7.712   6.159
12857TIP3    H238529   1.859   7.597   6.060
12858TIP3   OH238530   4.108   0.064   5.502
12858TIP3    H138531   4.056   0.074   5.422
12858TIP3    H238532   4.141   0.151   5.521
12859TIP3   OH238533   2.977   7.609   6.048
12859TIP3    H138534   2.893   7.629   6.007
12859TIP3    H238535   3.042   7.638   5.984
12860TIP3   OH238536   2.272   7.227   6.082
12860TIP3    H138537   2.263   7.135   6.106
12860TIP3    H238538   2.195   7.269   6.121
12861TIP3   OH238539   5.515   0.391   5.344
12861TIP3    H138540   5.436   0.370   5.294
12861TIP3    H238541   5.485   0.396   5.435
12862TIP3   OH238542   5.812   0.627   5.938
12862TIP3    H138543   5.789   0.537   5.917
12862TIP3    H238544   5.744   0.656   5.999
12863TIP3   OH238545   2.222   7.970   5.338
12863TIP3    H138546   2.138   8.015   5.326
12863TIP3    H238547   2.261   7.969   5.251
12864TIP3   OH238548   2.174   7.771   5.042
12864TIP3    H138549   2.235   7.833   5.082
12864TIP3    H238550   2.230   7.713   4.991
12865TIP3   OH238551   5.925   0.219   5.902
12865TIP3    H138552   5.839   0.255   5.882
12865TIP3    H238553   5.986   0.292   5.889
12866TIP3   OH238554   5.410   0.030   5.285
12866TIP3    H138555   5.354   0.050   5.360
12866TIP3    H238556   5.496   0.013   5.324
12867TIP3   OH238557   5.636   0.112   6.218
12867TIP3    H138558   5.629   0.188   6.276
12867TIP3    H238559   5.549   0.105   6.178
12868TIP3   OH238560   4.637   0.046   5.696
12868TIP3    H138561   4.600  -0.017   5.634
12868TIP3    H238562   4.710  -0.000   5.737
12869TIP3   OH238563   4.700   0.358   5.833
12869TIP3    H138564   4.656   0.399   5.758
12869TIP3    H238565   4.792   0.353   5.807
12870TIP3   OH238566   4.742   0.044   6.074
12870TIP3    H138567   4.784   0.018   5.993
12870TIP3    H238568   4.788   0.124   6.101
12871TIP3   OH238569   2.390   7.935   5.121
12871TIP3    H138570   2.456   7.986   5.168
12871TIP3    H238571   2.422   7.933   5.031
12872TIP3   OH238572   2.907   7.183   5.180
12872TIP3    H138573   2.830   7.204   5.232
12872TIP3    H238574   2.920   7.260   5.124
12873TIP3   OH238575   1.684   7.883   5.518
12873TIP3    H138576   1.622   7.938   5.469
12873TIP3    H238577   1.631   7.811   5.552
12874TIP3   OH238578   5.880   0.050   6.408
12874TIP3    H138579   5.793   0.065   6.371
12874TIP3    H238580   5.872  -0.032   6.457
12875TIP3   OH238581   2.032   7.317   6.203
12875TIP3    H138582   1.947   7.289   6.170
12875TIP3    H238583   2.013   7.397   6.253
12876TIP3   OH238584   2.557   7.436   6.430
12876TIP3    H138585   2.599   7.414   6.513
12876TIP3    H238586   2.463   7.422   6.446
12877TIP3   OH238587   2.818   7.878   6.339
12877TIP3    H138588   2.759   7.864   6.413
12877TIP3    H238589   2.785   7.957   6.297
12878TIP3   OH238590   2.469   7.904   4.862
12878TIP3    H138591   2.440   7.875   4.776
12878TIP3    H238592   2.496   7.995   4.848
12879TIP3   OH238593   2.181   7.359   5.176
12879TIP3    H138594   2.146   7.364   5.265
12879TIP3    H238595   2.145   7.277   5.141
12880TIP3   OH238596   1.978   7.837   6.221
12880TIP3    H138597   1.954   7.858   6.312
12880TIP3    H238598   1.956   7.916   6.172
12881TIP3   OH238599   1.857   7.726   5.742
12881TIP3    H138600   1.766   7.707   5.768
12881TIP3    H238601   1.863   7.693   5.652
12882TIP3   OH238602   2.336   7.744   5.449
12882TIP3    H138603   2.297   7.826   5.419
12882TIP3    H238604   2.406   7.727   5.386
12883TIP3   OH238605   5.367   0.055   6.542
12883TIP3    H138606   5.342  -0.011   6.607
12883TIP3    H238607   5.458   0.075   6.564
12884TIP3   OH238608   2.503   7.835   5.692
12884TIP3    H138609   2.461   7.898   5.634
12884TIP3    H238610   2.516   7.757   5.637
12885TIP3   OH238611   1.814   7.854   6.459
12885TIP3    H138612   1.873   7.899   6.519
12885TIP3    H238613   1.795   7.770   6.502
12886TIP3   OH238614   1.844   7.340   5.149
12886TIP3    H138615   1.834   7.345   5.244
12886TIP3    H238616   1.768   7.387   5.114
12887TIP3   OH238617   1.408   7.392   6.012
12887TIP3    H138618   1.469   7.428   6.077
12887TIP3    H238619   1.445   7.416   5.927
12888TIP3   OH238620   1.341   7.371   5.531
12888TIP3    H138621   1.378   7.406   5.450
12888TIP3    H238622   1.274   7.434   5.556
12889TIP3   OH238623   2.551   8.048   6.138
12889TIP3    H138624   2.574   7.984   6.070
12889TIP3    H238625   2.506   7.997   6.206
12890TIP3   OH238626   2.210   7.514   5.797
12890TIP3    H138627   2.133   7.518   5.853
12890TIP3    H238628   2.284   7.513   5.858
12891TIP3   OH238629   1.615   7.603   5.803
12891TIP3    H138630   1.528   7.607   5.764
12891TIP3    H238631   1.648   7.516   5.779
12892TIP3   OH238632   1.857   7.592   5.501
12892TIP3    H138633   1.952   7.605   5.490
12892TIP3    H238634   1.820   7.614   5.416
12893TIP3   OH238635   2.685   7.602   5.988
12893TIP3    H138636   2.682   7.607   6.084
12893TIP3    H238637   2.611   7.547   5.965
12894TIP3   OH238638   1.733   7.614   5.258
12894TIP3    H138639   1.667   7.570   5.204
12894TIP3    H238640   1.795   7.651   5.195
12895TIP3   OH238641   2.269   7.871   5.895
12895TIP3    H138642   2.337   7.829   5.844
12895TIP3    H238643   2.274   7.829   5.981
12896TIP3   OH238644   1.760   7.357   5.784
12896TIP3    H138645   1.731   7.280   5.833
12896TIP3    H238646   1.794   7.322   5.702
12897TIP3   OH238647   2.246   7.786   6.168
12897TIP3    H138648   2.157   7.815   6.186
12897TIP3    H238649   2.302   7.840   6.224
12898TIP3   OH238650   4.819   0.093   5.310
12898TIP3    H138651   4.741   0.038   5.308
12898TIP3    H238652   4.820   0.130   5.398
12899TIP3   OH238653   5.692   0.366   5.858
12899TIP3    H138654   5.658   0.409   5.780
12899TIP3    H238655   5.622   0.305   5.884
12900TIP3   OH238656   2.437   7.454   5.172
12900TIP3    H138657   2.343   7.439   5.170
12900TIP3    H238658   2.447   7.548   5.184
12901TIP3   OH238659   5.240   0.381   6.317
12901TIP3    H138660   5.290   0.379   6.398
12901TIP3    H238661   5.165   0.437   6.337
12902TIP3   OH238662   2.513   7.710   5.238
12902TIP3    H138663   2.607   7.722   5.253
12902TIP3    H238664   2.485   7.791   5.196
12903TIP3   OH238665   4.501   0.068   5.931
12903TIP3    H138666   4.537   0.075   5.843
12903TIP3    H238667   4.577   0.050   5.986
12904TIP3   OH238668   4.866   0.293   5.130
12904TIP3    H138669   4.909   0.360   5.184
12904TIP3    H238670   4.854   0.219   5.189
12905TIP3   OH238671   5.123   0.199   6.563
12905TIP3    H138672   5.100   0.190   6.471
12905TIP3    H238673   5.211   0.161   6.570
12906TIP3   OH238674   2.921   7.801   5.079
12906TIP3    H138675   2.864   7.756   5.017
12906TIP3    H238676   2.931   7.889   5.044
12907TIP3   OH238677   6.007   0.555   6.133
12907TIP3    H138678   5.945   0.626   6.117
12907TIP3    H238679   6.023   0.518   6.046
12908TIP3   OH238680   5.468   0.198   5.851
12908TIP3    H138681   5.385   0.217   5.808
12908TIP3    H238682   5.507   0.129   5.798
12909TIP3   OH238683   1.352   7.773   5.302
12909TIP3    H138684   1.408   7.848   5.320
12909TIP3    H238685   1.278   7.783   5.362
12910TIP3   OH238686   4.803   0.208   5.553
12910TIP3    H138687   4.770   0.297   5.541
12910TIP3    H238688   4.742   0.167   5.614
12911TIP3   OH238689   5.352   0.394   6.061
12911TIP3    H138690   5.286   0.385   6.129
12911TIP3    H238691   5.355   0.309   6.018
12912TIP3   OH238692   5.168   0.271   4.981
12912TIP3    H138693   5.251   0.226   4.996
12912TIP3    H238694   5.121   0.216   4.919
12913TIP3   OH238695   1.771   7.588   6.576
12913TIP3    H138696   1.677   7.586   6.593
12913TIP3    H238697   1.810   7.541   6.650
12914TIP3   OH238698   5.418   0.187   5.053
12914TIP3    H138699   5.396   0.154   5.141
12914TIP3    H238700   5.513   0.201   5.057
12915TIP3   OH238701   4.604   0.200   5.088
12915TIP3    H138702   4.556   0.195   5.005
12915TIP3    H238703   4.685   0.246   5.066
12916TIP3   OH238704   4.325  -0.016   5.369
12916TIP3    H138705   4.257   0.008   5.432
12916TIP3    H238706   4.320   0.053   5.302
12917TIP3   OH238707   2.680   7.618   6.260
12917TIP3    H138708   2.697   7.696   6.312
12917TIP3    H238709   2.633   7.559   6.319
12918TIP3   OH238710   2.492   7.411   5.443
12918TIP3    H138711   2.471   7.428   5.351
12918TIP3    H238712   2.532   7.492   5.475
12919TIP3   OH238713   2.132   7.597   5.543
12919TIP3    H138714   2.202   7.651   5.508
12919TIP3    H238715   2.157   7.583   5.635
12920TIP3   OH238716   2.442   7.898   6.342
12920TIP3    H138717   2.454   7.970   6.404
12920TIP3    H238718   2.464   7.819   6.392
12921TIP3   OH238719   2.308   7.311   5.625
12921TIP3    H138720   2.284   7.388   5.677
12921TIP3    H238721   2.375   7.343   5.565
12922TIP3   OH238722   1.819   7.325   5.428
12922TIP3    H138723   1.808   7.414   5.459
12922TIP3    H238724   1.913   7.309   5.432
12923TIP3   OH238725   3.041   7.736   6.295
12923TIP3    H138726   2.961   7.782   6.318
12923TIP3    H238727   3.094   7.800   6.247
12924TIP3   OH238728   2.736   7.995   5.697
12924TIP3    H138729   2.657   7.941   5.702
12924TIP3    H238730   2.799   7.950   5.752
12925TIP3   OH238731   4.262   0.164   5.168
12925TIP3    H138732   4.302   0.250   5.153
12925TIP3    H238733   4.312   0.104   5.112
12926TIP3   OH238734   1.382   7.501   5.296
12926TIP3    H138735   1.390   7.595   5.311
12926TIP3    H238736   1.335   7.493   5.213
12927TIP3   OH238737   1.768   7.236   6.166
12927TIP3    H138738   1.739   7.203   6.081
12927TIP3    H238739   1.763   7.160   6.224
12928TIP3   OH238740   1.578   7.970   5.065
12928TIP3    H138741   1.626   7.958   5.147
12928TIP3    H238742   1.645   7.974   4.997
12929TIP3   OH238743   4.921   0.196   4.878
12929TIP3    H138744   4.909   0.254   4.953
12929TIP3    H238745   4.888   0.111   4.907
12930TIP3   OH238746   5.521   0.487   6.265
12930TIP3    H138747   5.471   0.549   6.319
12930TIP3    H238748   5.454   0.445   6.211
12931TIP3   OH238749   1.786   7.928   5.257
12931TIP3    H138750   1.759   7.887   5.339
12931TIP3    H238751   1.826   7.856   5.207
12932TIP3   OH238752   4.907  -0.019   6.460
12932TIP3    H138753   4.890   0.035   6.537
12932TIP3    H238754   4.962   0.035   6.404
12933TIP3   OH238755   1.903   7.735   5.088
12933TIP3    H138756   1.877   7.727   4.997
12933TIP3    H238757   1.997   7.754   5.084
12934TIP3   OH238758   5.415   0.396   6.550
12934TIP3    H138759   5.497   0.353   6.522
12934TIP3    H238760   5.396   0.357   6.635
12935TIP3   OH238761   5.615   0.041   4.745
12935TIP3    H138762   5.542   0.013   4.691
12935TIP3    H238763   5.674   0.086   4.685
12936TIP3   OH238764   2.215   7.797   6.590
12936TIP3    H138765   2.209   7.719   6.535
12936TIP3    H238766   2.166   7.864   6.542
12937TIP3   OH238767   2.189   7.605   6.384
12937TIP3    H138768   2.213   7.650   6.303
12937TIP3    H238769   2.096   7.586   6.375
12938TIP3   OH238770   5.067   0.135   6.298
12938TIP3    H138771   5.145   0.172   6.257
12938TIP3    H238772   4.994   0.179   6.255
12939TIP3   OH238773   5.638   0.082   6.638
12939TIP3    H138774   5.684   0.014   6.687
12939TIP3    H238775   5.697   0.158   6.639
12940TIP3   OH238776   5.672   0.319   6.405
12940TIP3    H138777   5.619   0.382   6.358
12940TIP3    H238778   5.761   0.333   6.373
12941TIP3   OH238779   1.977   7.904   6.723
12941TIP3    H138780   1.936   7.846   6.788
12941TIP3    H238781   2.066   7.871   6.715
12942TIP3   OH238782   2.297   7.364   6.463
12942TIP3    H138783   2.254   7.446   6.440
12942TIP3    H238784   2.228   7.298   6.457
12943TIP3   OH238785   2.466   7.852   6.697
12943TIP3    H138786   2.478   7.831   6.790
12943TIP3    H238787   2.375   7.830   6.679
12944TIP3   OH238788   2.679   7.770   6.544
12944TIP3    H138789   2.608   7.792   6.603
12944TIP3    H238790   2.748   7.736   6.601
12945TIP3   OH238791   2.912   7.698   6.711
12945TIP3    H138792   2.928   7.618   6.762
12945TIP3    H238793   2.895   7.765   6.777
12946TIP3   OH238794   1.896   7.695   6.886
12946TIP3    H138795   1.883   7.608   6.849
12946TIP3    H238796   1.948   7.680   6.965
12947TIP3   OH238797   2.376   7.329   6.725
12947TIP3    H138798   2.463   7.290   6.723
12947TIP3    H238799   2.350   7.336   6.633
12948TIP3   OH238800   4.011   0.086   5.245
12948TIP3    H138801   4.089   0.132   5.214
12948TIP3    H238802   4.000   0.013   5.184
12949TIP3   OH238803   5.676   0.241   5.101
12949TIP3    H138804   5.689   0.332   5.076
12949TIP3    H238805   5.709   0.236   5.191
12950TIP3   OH238806   5.793   0.160   5.347
12950TIP3    H138807   5.723   0.102   5.375
12950TIP3    H238808   5.868   0.102   5.331
12951TIP3   OH238809   5.778   0.030   4.960
12951TIP3    H138810   5.715   0.025   4.888
12951TIP3    H238811   5.751   0.108   5.010
12952TIP3   OH238812   2.768   7.704   4.878
12952TIP3    H138813   2.719   7.750   4.810
12952TIP3    H238814   2.754   7.611   4.860
12953TIP3   OH238815   2.799   7.973   5.429
12953TIP3    H138816   2.803   7.879   5.415
12953TIP3    H238817   2.778   7.983   5.522
12954TIP3   OH238818   4.258   0.036   6.194
12954TIP3    H138819   4.248   0.004   6.105
12954TIP3    H238820   4.351   0.023   6.214
12955TIP3   OH238821   5.920   0.375   6.315
12955TIP3    H138822   5.981   0.304   6.296
12955TIP3    H238823   5.938   0.441   6.247
12956TIP3   OH238824   6.091   0.167   6.284
12956TIP3    H138825   6.018   0.122   6.327
12956TIP3    H238826   6.168   0.115   6.306
12957TIP3   OH238827   2.722   7.434   4.845
12957TIP3    H138828   2.788   7.407   4.910
12957TIP3    H238829   2.642   7.392   4.874
12958TIP3   OH238830   2.793   7.712   5.313
12958TIP3    H138831   2.836   7.628   5.328
12958TIP3    H238832   2.837   7.747   5.235
12959TIP3   OH238833   2.943   7.871   5.838
12959TIP3    H138834   3.024   7.892   5.792
12959TIP3    H238835   2.953   7.912   5.924
12960TIP3   OH238836   5.851   0.010   6.065
12960TIP3    H138837   5.777   0.042   6.117
12960TIP3    H238838   5.877   0.084   6.011
12961TIP3   OH238839   3.504   7.640   6.596
12961TIP3    H138840   3.563   7.578   6.554
12961TIP3    H238841   3.447   7.671   6.526
12962TIP3   OH238842   2.905   7.463   5.364
12962TIP3    H138843   2.946   7.448   5.449
12962TIP3    H238844   2.840   7.393   5.355
12963TIP3   OH238845   1.601   7.455   6.201
12963TIP3    H138846   1.659   7.379   6.198
12963TIP3    H238847   1.658   7.530   6.184
12964TIP3   OH238848   1.377   7.768   6.250
12964TIP3    H138849   1.437   7.745   6.179
12964TIP3    H238850   1.377   7.864   6.251
12965TIP3   OH238851   3.313   7.747   6.422
12965TIP3    H138852   3.259   7.789   6.489
12965TIP3    H238853   3.255   7.684   6.379
12966TIP3   OH238854   2.954   7.385   4.999
12966TIP3    H138855   2.997   7.323   4.941
12966TIP3    H238856   3.013   7.460   5.002
12967TIP3   OH238857   1.377   7.196   5.738
12967TIP3    H138858   1.295   7.204   5.786
12967TIP3    H238859   1.374   7.267   5.673
12968TIP3   OH238860   1.605   7.276   6.535
12968TIP3    H138861   1.552   7.265   6.613
12968TIP3    H238862   1.550   7.326   6.475
12969TIP3   OH238863   3.209   7.494   6.263
12969TIP3    H138864   3.268   7.513   6.191
12969TIP3    H238865   3.240   7.412   6.300
12970TIP3   OH238866   2.451   7.434   5.929
12970TIP3    H138867   2.410   7.361   5.976
12970TIP3    H238868   2.517   7.391   5.874
12971TIP3   OH238869   2.945   7.343   5.834
12971TIP3    H138870   2.985   7.386   5.759
12971TIP3    H238871   2.851   7.355   5.820
12972TIP3   OH238872   3.059   7.413   5.591
12972TIP3    H138873   3.128   7.355   5.559
12972TIP3    H238874   3.093   7.501   5.576
12973TIP3   OH238875   1.684   7.128   5.924
12973TIP3    H138876   1.594   7.096   5.931
12973TIP3    H238877   1.737   7.049   5.921
12974TIP3   OH238878   1.491   7.011   5.566
12974TIP3    H138879   1.526   7.063   5.493
12974TIP3    H238880   1.459   7.076   5.629
12975TIP3   OH238881   2.155   7.169   5.820
12975TIP3    H138882   2.202   7.217   5.752
12975TIP3    H238883   2.195   7.200   5.902
12976TIP3   OH238884   2.664   7.316   5.793
12976TIP3    H138885   2.673   7.282   5.704
12976TIP3    H238886   2.663   7.238   5.849
12977TIP3   OH238887   2.714   7.259   5.363
12977TIP3    H138888   2.634   7.306   5.385
12977TIP3    H238889   2.702   7.172   5.402
12978TIP3   OH238890   1.609   7.156   5.345
12978TIP3    H138891   1.655   7.101   5.282
12978TIP3    H238892   1.676   7.216   5.379
12979TIP3   OH238893   2.094   7.349   5.439
12979TIP3    H138894   2.157   7.300   5.492
12979TIP3    H238895   2.104   7.439   5.469
12980TIP3   OH238896   1.907   7.423   6.779
12980TIP3    H138897   1.873   7.360   6.842
12980TIP3    H238898   2.000   7.430   6.801
12981TIP3   OH238899   2.164   7.406   6.884
12981TIP3    H138900   2.245   7.398   6.832
12981TIP3    H238901   2.167   7.331   6.943
12982TIP3   OH238902   7.018   0.299   5.041
12982TIP3    H138903   7.011   0.392   5.020
12982TIP3    H238904   6.953   0.256   4.985
12983TIP3   OH238905   7.000   0.398   5.383
12983TIP3    H138906   7.042   0.375   5.466
12983TIP3    H238907   6.961   0.316   5.352
12984TIP3   OH238908   6.281   0.285   5.755
12984TIP3    H138909   6.319   0.218   5.812
12984TIP3    H238910   6.349   0.352   5.748
12985TIP3   OH238911   7.271   0.677   5.088
12985TIP3    H138912   7.248   0.619   5.160
12985TIP3    H238913   7.303   0.757   5.131
12986TIP3   OH238914   6.424   0.575   5.543
12986TIP3    H138915   6.329   0.587   5.543
12986TIP3    H238916   6.448   0.579   5.451
12987TIP3   OH238917   3.149   7.921   5.209
12987TIP3    H138918   3.135   7.995   5.150
12987TIP3    H238919   3.076   7.862   5.192
12988TIP3   OH238920   6.058   0.168   5.411
12988TIP3    H138921   6.092   0.086   5.445
12988TIP3    H238922   6.136   0.219   5.387
12989TIP3   OH238923   6.824   0.622   5.451
12989TIP3    H138924   6.849   0.551   5.392
12989TIP3    H238925   6.906   0.654   5.486
12990TIP3   OH238926   5.005   7.957   5.406
12990TIP3    H138927   5.026   8.040   5.449
12990TIP3    H238928   5.033   7.969   5.315
12991TIP3   OH238929   7.228   0.115   5.439
12991TIP3    H138930   7.267   0.031   5.462
12991TIP3    H238931   7.193   0.101   5.351
12992TIP3   OH238932   3.741   7.786   5.398
12992TIP3    H138933   3.722   7.859   5.338
12992TIP3    H238934   3.688   7.713   5.364
12993TIP3   OH238935   4.434   7.890   5.022
12993TIP3    H138936   4.495   7.884   5.095
12993TIP3    H238937   4.486   7.921   4.949
12994TIP3   OH238938   3.360   7.980   5.528
12994TIP3    H138939   3.445   7.972   5.571
12994TIP3    H238940   3.370   7.931   5.447
12995TIP3   OH238941   6.641   0.174   5.317
12995TIP3    H138942   6.735   0.158   5.329
12995TIP3    H238943   6.605   0.090   5.289
12996TIP3   OH238944   7.905   0.154   5.582
12996TIP3    H138945   7.817   0.192   5.579
12996TIP3    H238946   7.939   0.180   5.668
12997TIP3   OH238947   3.722   7.784   5.844
12997TIP3    H138948   3.671   7.820   5.771
12997TIP3    H238949   3.668   7.799   5.921
12998TIP3   OH238950   6.980   0.511   4.866
12998TIP3    H138951   6.928   0.516   4.786
12998TIP3    H238952   6.986   0.601   4.897
12999TIP3   OH238953   6.684   0.494   5.640
12999TIP3    H138954   6.612   0.552   5.662
12999TIP3    H238955   6.732   0.539   5.571
13000TIP3   OH238956   4.604   7.908   5.237
13000TIP3    H138957   4.567   7.885   5.322
13000TIP3    H238958   4.664   7.980   5.256
13001TIP3   OH238959   3.609   7.892   5.617
13001TIP3    H138960   3.663   7.966   5.641
13001TIP3    H238961   3.656   7.850   5.544
13002TIP3   OH238962   6.557   0.748   5.694
13002TIP3    H138963   6.488   0.696   5.653
13002TIP3    H238964   6.514   0.788   5.770
13003TIP3   OH238965   5.936   0.322   4.998
13003TIP3    H138966   5.862   0.318   4.938
13003TIP3    H238967   5.958   0.415   5.003
13004TIP3   OH238968   4.800   7.852   5.574
13004TIP3    H138969   4.713   7.873   5.538
13004TIP3    H238970   4.861   7.878   5.505
13005TIP3   OH238971   4.066   7.481   5.565
13005TIP3    H138972   4.059   7.389   5.591
13005TIP3    H238973   3.990   7.523   5.605
13006TIP3   OH238974   7.322   0.659   4.806
13006TIP3    H138975   7.258   0.678   4.738
13006TIP3    H238976   7.272   0.661   4.888
13007TIP3   OH238977   7.611   0.875   5.472
13007TIP3    H138978   7.608   0.791   5.428
13007TIP3    H238979   7.665   0.930   5.416
13008TIP3   OH238980   6.855   0.211   4.835
13008TIP3    H138981   6.773   0.258   4.822
13008TIP3    H238982   6.896   0.211   4.749
13009TIP3   OH238983   6.802   0.019   4.530
13009TIP3    H138984   6.864   0.080   4.571
13009TIP3    H238985   6.857  -0.040   4.479
13010TIP3   OH238986   7.738   0.484   5.413
13010TIP3    H138987   7.652   0.526   5.411
13010TIP3    H238988   7.771   0.493   5.324
13011TIP3   OH238989   7.188   0.301   4.794
13011TIP3    H138990   7.134   0.334   4.866
13011TIP3    H238991   7.273   0.284   4.834
13012TIP3   OH238992   7.415   0.345   5.694
13012TIP3    H138993   7.420   0.423   5.750
13012TIP3    H238994   7.330   0.351   5.651
13013TIP3   OH238995   6.427   0.286   5.187
13013TIP3    H138996   6.391   0.226   5.122
13013TIP3    H238997   6.502   0.240   5.224
13014TIP3   OH238998   6.517   0.624   5.294
13014TIP3    H138999   6.550   0.709   5.322
13014TIP3    H239000   6.593   0.580   5.256
13015TIP3   OH239001   6.531   0.284   5.543
13015TIP3    H139002   6.575   0.257   5.463
13015TIP3    H239003   6.577   0.363   5.570
13016TIP3   OH239004   6.756   0.749   5.893
13016TIP3    H139005   6.789   0.836   5.871
13016TIP3    H239006   6.695   0.728   5.822
13017TIP3   OH239007   7.020   0.177   4.617
13017TIP3    H139008   7.082   0.232   4.665
13017TIP3    H239009   7.052   0.178   4.527
13018TIP3   OH239010   6.469   0.407   6.006
13018TIP3    H139011   6.469   0.492   6.049
13018TIP3    H239012   6.378   0.378   6.011
13019TIP3   OH239013   4.704   7.440   4.666
13019TIP3    H139014   4.626   7.460   4.718
13019TIP3    H239015   4.716   7.517   4.610
13020TIP3   OH239016   6.317   0.121   4.998
13020TIP3    H139017   6.252   0.170   4.948
13020TIP3    H239018   6.281   0.032   5.004
13021TIP3   OH239019   6.059   0.458   5.879
13021TIP3    H139020   6.041   0.543   5.838
13021TIP3    H239021   6.154   0.459   5.895
13022TIP3   OH239022   7.669   0.297   5.901
13022TIP3    H139023   7.581   0.320   5.872
13022TIP3    H239024   7.681   0.207   5.869
13023TIP3   OH239025   6.284   0.615   5.868
13023TIP3    H139026   6.348   0.670   5.912
13023TIP3    H239027   6.252   0.669   5.795
13024TIP3   OH239028   3.829   7.574   5.691
13024TIP3    H139029   3.745   7.541   5.659
13024TIP3    H239030   3.807   7.654   5.739
13025TIP3   OH239031   4.369   7.690   5.892
13025TIP3    H139032   4.439   7.665   5.953
13025TIP3    H239033   4.288   7.672   5.940
13026TIP3   OH239034   7.440   0.095   5.806
13026TIP3    H139035   7.392   0.094   5.889
13026TIP3    H239036   7.417   0.178   5.765
13027TIP3   OH239037   7.095   0.152   4.357
13027TIP3    H139038   7.069   0.120   4.271
13027TIP3    H239039   7.118   0.244   4.343
13028TIP3   OH239040   3.975   7.619   4.662
13028TIP3    H139041   3.942   7.623   4.751
13028TIP3    H239042   3.940   7.536   4.628
13029TIP3   OH239043   6.603   0.080   5.707
13029TIP3    H139044   6.560   0.095   5.791
13029TIP3    H239045   6.576   0.155   5.652
13030TIP3   OH239046   3.651   7.979   5.227
13030TIP3    H139047   3.561   7.958   5.252
13030TIP3    H239048   3.660   7.946   5.138
13031TIP3   OH239049   6.977  -0.003   4.947
13031TIP3    H139050   6.931   0.071   4.908
13031TIP3    H239051   7.043  -0.027   4.883
13032TIP3   OH239052   7.177   0.307   6.026
13032TIP3    H139053   7.143   0.238   6.082
13032TIP3    H239054   7.268   0.318   6.054
13033TIP3   OH239055   7.136   0.079   5.185
13033TIP3    H139056   7.085   0.138   5.130
13033TIP3    H239057   7.152   0.003   5.129
13034TIP3   OH239058   6.421   0.097   5.918
13034TIP3    H139059   6.464   0.155   5.980
13034TIP3    H239060   6.410   0.015   5.966
13035TIP3   OH239061   3.640   7.599   4.634
13035TIP3    H139062   3.631   7.600   4.730
13035TIP3    H239063   3.563   7.645   4.603
13036TIP3   OH239064   3.187   7.637   5.507
13036TIP3    H139065   3.261   7.671   5.557
13036TIP3    H239066   3.225   7.608   5.424
13037TIP3   OH239067   3.116   7.612   5.016
13037TIP3    H139068   3.158   7.645   4.937
13037TIP3    H239069   3.052   7.679   5.039
13038TIP3   OH239070   7.148   0.311   5.604
13038TIP3    H139071   7.181   0.248   5.540
13038TIP3    H239072   7.120   0.258   5.679
13039TIP3   OH239073   4.007   7.778   5.282
13039TIP3    H139074   3.931   7.777   5.341
13039TIP3    H239075   4.082   7.767   5.340
13040TIP3   OH239076   3.411   7.856   5.289
13040TIP3    H139077   3.322   7.858   5.253
13040TIP3    H239078   3.442   7.767   5.271
13041TIP3   OH239079   3.659   7.855   4.983
13041TIP3    H139080   3.753   7.866   4.972
13041TIP3    H239081   3.622   7.874   4.897
13042TIP3   OH239082   4.476   7.866   5.487
13042TIP3    H139083   4.452   7.881   5.578
13042TIP3    H239084   4.411   7.803   5.455
13043TIP3   OH239085   3.527   7.882   4.744
13043TIP3    H139086   3.463   7.833   4.692
13043TIP3    H239087   3.588   7.916   4.680
13044TIP3   OH239088   6.460   0.635   6.165
13044TIP3    H139089   6.524   0.640   6.235
13044TIP3    H239090   6.375   0.643   6.209
13045TIP3   OH239091   6.904   0.123   5.382
13045TIP3    H139092   6.970   0.074   5.333
13045TIP3    H239093   6.903   0.081   5.469
13046TIP3   OH239094   3.558   7.611   5.272
13046TIP3    H139095   3.528   7.535   5.322
13046TIP3    H239096   3.593   7.574   5.191
13047TIP3   OH239097   6.871   0.031   5.651
13047TIP3    H139098   6.783   0.059   5.675
13047TIP3    H239099   6.929   0.080   5.709
13048TIP3   OH239100   6.623   0.350   4.809
13048TIP3    H139101   6.546   0.297   4.792
13048TIP3    H239102   6.610   0.385   4.897
13049TIP3   OH239103   7.494   0.606   5.382
13049TIP3    H139104   7.518   0.653   5.302
13049TIP3    H239105   7.410   0.565   5.361
13050TIP3   OH239106   4.233   7.710   4.658
13050TIP3    H139107   4.138   7.696   4.656
13050TIP3    H239108   4.243   7.804   4.671
13051TIP3   OH239109   7.031   0.662   5.796
13051TIP3    H139110   7.064   0.649   5.884
13051TIP3    H239111   6.940   0.691   5.807
13052TIP3   OH239112   4.309   7.966   4.730
13052TIP3    H139113   4.403   7.976   4.742
13052TIP3    H239114   4.281   8.045   4.685
13053TIP3   OH239115   6.287   0.316   5.416
13053TIP3    H139116   6.331   0.315   5.331
13053TIP3    H239117   6.357   0.300   5.479
13054TIP3   OH239118   6.674   0.542   4.623
13054TIP3    H139119   6.716   0.616   4.667
13054TIP3    H239120   6.664   0.476   4.692
13055TIP3   OH239121   6.223   0.308   6.073
13055TIP3    H139122   6.238   0.299   6.167
13055TIP3    H239123   6.141   0.262   6.056
13056TIP3   OH239124   6.931   0.414   6.067
13056TIP3    H139125   6.884   0.386   5.988
13056TIP3    H239126   7.022   0.389   6.052
13057TIP3   OH239127   7.552   0.043   4.567
13057TIP3    H139128   7.493   0.001   4.505
13057TIP3    H239129   7.566   0.131   4.531
13058TIP3   OH239130   7.821   0.854   5.653
13058TIP3    H139131   7.734   0.886   5.628
13058TIP3    H239132   7.862   0.829   5.570
13059TIP3   OH239133   7.256   0.488   5.296
13059TIP3    H139134   7.165   0.465   5.314
13059TIP3    H239135   7.293   0.409   5.256
13060TIP3   OH239136   5.991   0.007   4.781
13060TIP3    H139137   6.046   0.085   4.791
13060TIP3    H239138   5.918   0.021   4.842
13061TIP3   OH239139   6.570   0.470   5.050
13061TIP3    H139140   6.499   0.516   5.005
13061TIP3    H239141   6.524   0.408   5.108
13062TIP3   OH239142   7.081   0.667   5.523
13062TIP3    H139143   7.064   0.675   5.617
13062TIP3    H239144   7.161   0.613   5.518
13063TIP3   OH239145   6.963   0.511   4.466
13063TIP3    H139146   7.049   0.479   4.494
13063TIP3    H239147   6.946   0.464   4.384
13064TIP3   OH239148   3.555   7.859   6.056
13064TIP3    H139149   3.463   7.875   6.078
13064TIP3    H239150   3.595   7.835   6.140
13065TIP3   OH239151   7.210   0.445   4.565
13065TIP3    H139152   7.201   0.400   4.649
13065TIP3    H239153   7.304   0.460   4.556
13066TIP3   OH239154   6.398   0.468   4.567
13066TIP3    H139155   6.346   0.444   4.490
13066TIP3    H239156   6.473   0.515   4.532
13067TIP3   OH239157   6.129   0.236   4.842
13067TIP3    H139158   6.066   0.260   4.910
13067TIP3    H239159   6.123   0.306   4.777
13068TIP3   OH239160   4.405   7.922   5.747
13068TIP3    H139161   4.484   7.962   5.783
13068TIP3    H239162   4.391   7.844   5.801
13069TIP3   OH239163   4.289   7.669   4.930
13069TIP3    H139164   4.271   7.685   4.837
13069TIP3    H239165   4.331   7.749   4.961
13070TIP3   OH239166   3.934   7.861   5.029
13070TIP3    H139167   4.006   7.916   4.997
13070TIP3    H239168   3.956   7.843   5.121
13071TIP3   OH239169   7.082   0.141   5.806
13071TIP3    H139170   7.113   0.179   5.888
13071TIP3    H239171   7.128   0.058   5.799
13072TIP3   OH239172   4.106   7.569   5.112
13072TIP3    H139173   4.085   7.646   5.164
13072TIP3    H239174   4.174   7.598   5.051
13073TIP3   OH239175   3.618   7.585   4.913
13073TIP3    H139176   3.608   7.674   4.946
13073TIP3    H239177   3.712   7.568   4.918
13074TIP3   OH239178   7.703   0.039   5.800
13074TIP3    H139179   7.608   0.043   5.802
13074TIP3    H239180   7.724  -0.008   5.719
13075TIP3   OH239181   7.359   0.251   5.192
13075TIP3    H139182   7.285   0.189   5.196
13075TIP3    H239183   7.429   0.207   5.241
13076TIP3   OH239184   6.043   0.425   4.654
13076TIP3    H139185   6.068   0.510   4.617
13076TIP3    H239186   6.090   0.361   4.601
13077TIP3   OH239187   3.174   7.748   4.789
13077TIP3    H139188   3.185   7.843   4.794
13077TIP3    H239189   3.116   7.735   4.714
13078TIP3   OH239190   3.566   7.486   5.657
13078TIP3    H139191   3.538   7.453   5.572
13078TIP3    H239192   3.556   7.410   5.716
13079TIP3   OH239193   6.216   0.584   6.307
13079TIP3    H139194   6.261   0.500   6.302
13079TIP3    H239195   6.148   0.578   6.239
13080TIP3   OH239196   6.207   0.226   4.552
13080TIP3    H139197   6.256   0.211   4.633
13080TIP3    H239198   6.274   0.223   4.483
13081TIP3   OH239199   6.832   0.657   6.130
13081TIP3    H139200   6.809   0.691   6.043
13081TIP3    H239201   6.868   0.570   6.114
13082TIP3   OH239202   6.701   0.464   4.356
13082TIP3    H139203   6.715   0.514   4.436
13082TIP3    H239204   6.679   0.376   4.386
13083TIP3   OH239205   7.311   0.689   5.701
13083TIP3    H139206   7.350   0.774   5.721
13083TIP3    H239207   7.225   0.692   5.743
13084TIP3   OH239208   6.372   0.359   6.317
13084TIP3    H139209   6.454   0.338   6.272
13084TIP3    H239210   6.400   0.396   6.401
13085TIP3   OH239211   6.419   0.181   4.738
13085TIP3    H139212   6.393   0.137   4.819
13085TIP3    H239213   6.460   0.112   4.686
13086TIP3   OH239214   6.676   0.244   5.951
13086TIP3    H139215   6.611   0.312   5.970
13086TIP3    H239216   6.736   0.285   5.888
13087TIP3   OH239217   3.696   8.000   4.570
13087TIP3    H139218   3.672   7.990   4.478
13087TIP3    H239219   3.790   8.017   4.568
13088TIP3   OH239220   7.198   0.629   6.059
13088TIP3    H139221   7.264   0.569   6.024
13088TIP3    H239222   7.180   0.596   6.147
13089TIP3   OH239223   7.396   0.314   4.229
13089TIP3    H139224   7.340   0.272   4.164
13089TIP3    H239225   7.467   0.353   4.178
13090TIP3   OH239226   6.809   0.048   6.082
13090TIP3    H139227   6.818  -0.026   6.022
13090TIP3    H239228   6.766   0.116   6.030
13091TIP3   OH239229   3.984   7.866   5.878
13091TIP3    H139230   4.011   7.903   5.794
13091TIP3    H239231   3.892   7.841   5.864
13092TIP3   OH239232   6.864   0.370   5.798
13092TIP3    H139233   6.948   0.374   5.753
13092TIP3    H239234   6.803   0.415   5.739
13093TIP3   OH239235   7.425   0.333   6.152
13093TIP3    H139236   7.464   0.249   6.176
13093TIP3    H239237   7.497   0.396   6.162
13094TIP3   OH239238   7.465   0.551   5.874
13094TIP3    H139239   7.404   0.602   5.820
13094TIP3    H239240   7.552   0.580   5.846
13095TIP3   OH239241   6.682   0.148   6.311
13095TIP3    H139242   6.618   0.081   6.335
13095TIP3    H239243   6.719   0.119   6.229
13096TIP3   OH239244   4.107   7.633   5.972
13096TIP3    H139245   4.065   7.713   5.942
13096TIP3    H239246   4.041   7.565   5.959
13097TIP3   OH239247   7.067   0.106   6.173
13097TIP3    H139248   7.066   0.094   6.268
13097TIP3    H239249   6.979   0.082   6.144
13098TIP3   OH239250   7.305   0.042   6.033
13098TIP3    H139251   7.232   0.043   6.095
13098TIP3    H239252   7.380   0.014   6.086
13099TIP3   OH239253   4.709   8.003   6.165
13099TIP3    H139254   4.736   7.912   6.179
13099TIP3    H239255   4.710   8.041   6.253
13100TIP3   OH239256   3.697   7.935   6.379
13100TIP3    H139257   3.708   7.844   6.349
13100TIP3    H239258   3.733   7.935   6.468
13101TIP3   OH239259   4.176   7.620   6.238
13101TIP3    H139260   4.243   7.551   6.240
13101TIP3    H239261   4.149   7.625   6.147
13102TIP3   OH239262   4.275   7.846   6.364
13102TIP3    H139263   4.244   7.768   6.317
13102TIP3    H239264   4.198   7.902   6.370
13103TIP3   OH239265   5.798   0.343   4.751
13103TIP3    H139266   5.874   0.393   4.722
13103TIP3    H239267   5.787   0.274   4.685
13104TIP3   OH239268   7.721   1.076   5.938
13104TIP3    H139269   7.649   1.044   5.992
13104TIP3    H239270   7.758   1.149   5.988
13105TIP3   OH239271   7.473   0.486   4.581
13105TIP3    H139272   7.531   0.552   4.544
13105TIP3    H239273   7.519   0.453   4.658
13106TIP3   OH239274   7.615   0.366   4.780
13106TIP3    H139275   7.551   0.329   4.841
13106TIP3    H239276   7.681   0.406   4.836
13107TIP3   OH239277   7.668   0.753   5.222
13107TIP3    H139278   7.712   0.678   5.180
13107TIP3    H239279   7.629   0.801   5.150
13108TIP3   OH239280   7.572   0.277   4.432
13108TIP3    H139281   7.502   0.280   4.366
13108TIP3    H239282   7.558   0.354   4.486
13109TIP3   OH239283   4.558   7.961   4.369
13109TIP3    H139284   4.514   8.005   4.296
13109TIP3    H239285   4.547   7.868   4.352
13110TIP3   OH239286   7.420   0.230   4.923
13110TIP3    H139287   7.432   0.136   4.910
13110TIP3    H239288   7.407   0.240   5.018
13111TIP3   OH239289   6.030   0.333   5.620
13111TIP3    H139290   6.076   0.259   5.580
13111TIP3    H239291   6.078   0.349   5.702
13112TIP3   OH239292   7.709   0.642   5.792
13112TIP3    H139293   7.769   0.570   5.775
13112TIP3    H239294   7.739   0.712   5.735
13113TIP3   OH239295   7.875   0.429   5.781
13113TIP3    H139296   7.804   0.381   5.824
13113TIP3    H239297   7.954   0.377   5.799
13114TIP3   OH239298   4.518   7.692   4.332
13114TIP3    H139299   4.585   7.665   4.395
13114TIP3    H239300   4.438   7.647   4.361
13115TIP3   OH239301   4.588   7.974   4.801
13115TIP3    H139302   4.631   7.889   4.814
13115TIP3    H239303   4.633   8.012   4.726
13116TIP3   OH239304   7.574   0.126   5.317
13116TIP3    H139305   7.654   0.147   5.269
13116TIP3    H239306   7.590   0.158   5.406
13117TIP3   OH239307   7.649   0.264   5.552
13117TIP3    H139308   7.569   0.292   5.597
13117TIP3    H239309   7.679   0.342   5.506
13118TIP3   OH239310   3.434   7.977   6.322
13118TIP3    H139311   3.526   7.982   6.346
13118TIP3    H239312   3.402   7.899   6.368
13119TIP3   OH239313   4.697   7.723   4.848
13119TIP3    H139314   4.742   7.707   4.931
13119TIP3    H239315   4.635   7.651   4.841
13120TIP3   OH239316   3.399   7.705   5.678
13120TIP3    H139317   3.454   7.628   5.680
13120TIP3    H239318   3.459   7.778   5.661
13121TIP3   OH239319   3.185   7.967   5.751
13121TIP3    H139320   3.242   7.963   5.674
13121TIP3    H239321   3.191   8.057   5.781
13122TIP3   OH239322   5.035   7.945   5.989
13122TIP3    H139323   4.969   7.993   5.939
13122TIP3    H239324   5.062   7.874   5.931
13123TIP3   OH239325   4.748   7.642   4.485
13123TIP3    H139326   4.793   7.580   4.428
13123TIP3    H239327   4.807   7.718   4.489
13124TIP3   OH239328   3.175   7.484   5.248
13124TIP3    H139329   3.087   7.469   5.283
13124TIP3    H239330   3.161   7.535   5.169
13125TIP3   OH239331   3.392   7.559   6.070
13125TIP3    H139332   3.414   7.643   6.111
13125TIP3    H239333   3.335   7.583   5.997
13126TIP3   OH239334   5.040   7.757   5.780
13126TIP3    H139335   4.949   7.747   5.750
13126TIP3    H239336   5.078   7.670   5.768
13127TIP3   OH239337   4.236   7.684   5.412
13127TIP3    H139338   4.199   7.610   5.460
13127TIP3    H239339   4.307   7.645   5.360
13128TIP3   OH239340   4.745   7.592   5.304
13128TIP3    H139341   4.783   7.640   5.230
13128TIP3    H239342   4.652   7.616   5.303
13129TIP3   OH239343   4.857   7.673   5.068
13129TIP3    H139344   4.926   7.614   5.038
13129TIP3    H239345   4.894   7.760   5.056
13130TIP3   OH239346   3.480   7.386   5.414
13130TIP3    H139347   3.390   7.353   5.421
13130TIP3    H239348   3.533   7.307   5.407
13131TIP3   OH239349   3.291   7.287   5.068
13131TIP3    H139350   3.320   7.338   4.991
13131TIP3    H239351   3.260   7.353   5.130
13132TIP3   OH239352   3.950   7.429   5.305
13132TIP3    H139353   4.000   7.474   5.237
13132TIP3    H239354   3.992   7.454   5.387
13133TIP3   OH239355   4.457   7.574   5.284
13133TIP3    H139356   4.470   7.540   5.196
13133TIP3    H239357   4.459   7.496   5.341
13134TIP3   OH239358   4.510   7.514   4.849
13134TIP3    H139359   4.430   7.561   4.872
13134TIP3    H239360   4.499   7.428   4.888
13135TIP3   OH239361   3.405   7.420   4.831
13135TIP3    H139362   3.450   7.359   4.773
13135TIP3    H239363   3.475   7.476   4.866
13136TIP3   OH239364   3.893   7.612   4.927
13136TIP3    H139365   3.954   7.560   4.979
13136TIP3    H239366   3.906   7.702   4.957
13137TIP3   OH239367   3.707   7.663   6.292
13137TIP3    H139368   3.675   7.598   6.354
13137TIP3    H239369   3.800   7.671   6.312
13138TIP3   OH239370   3.956   7.661   6.413
13138TIP3    H139371   4.036   7.649   6.362
13138TIP3    H239372   3.959   7.592   6.479
13139TIP3   OH239373   4.798   7.736   6.196
13139TIP3    H139374   4.786   7.720   6.290
13139TIP3    H239375   4.865   7.674   6.170
13140TIP3   OH239376   0.280   0.630   4.468
13140TIP3    H139377   0.243   0.717   4.479
13140TIP3    H239378   0.207   0.575   4.440
13141TIP3   OH239379   0.239   0.621   4.867
13141TIP3    H139380   0.282   0.612   4.953
13141TIP3    H239381   0.208   0.533   4.847
13142TIP3   OH239382   8.105   0.526   5.218
13142TIP3    H139383   8.136   0.469   5.288
13142TIP3    H239384   8.182   0.540   5.163
13143TIP3   OH239385   0.436   0.995   4.675
13143TIP3    H139386   0.450   0.907   4.710
13143TIP3    H239387   0.520   1.039   4.684
13144TIP3   OH239388   8.219   0.889   4.949
13144TIP3    H139389   8.168   0.813   4.979
13144TIP3    H239390   8.164   0.964   4.971
13145TIP3   OH239391   7.780   0.148   4.704
13145TIP3    H139392   7.740   0.233   4.725
13145TIP3    H239393   7.709   0.097   4.666
13146TIP3   OH239394   7.841   0.442   4.917
13146TIP3    H139395   7.897   0.369   4.940
13146TIP3    H239396   7.897   0.499   4.864
13147TIP3   OH239397   0.122   0.874   4.879
13147TIP3    H139398   0.154   0.787   4.851
13147TIP3    H239399   0.200   0.917   4.913
13148TIP3   OH239400   1.078   0.239   4.933
13148TIP3    H139401   1.111   0.328   4.949
13148TIP3    H239402   1.142   0.199   4.875
13149TIP3   OH239403   0.505   0.376   4.933
13149TIP3    H139404   0.550   0.295   4.957
13149TIP3    H239405   0.474   0.360   4.844
13150TIP3   OH239406   8.371   0.032   4.882
13150TIP3    H139407   8.352   0.103   4.822
13150TIP3    H239408   8.318  -0.041   4.850
13151TIP3   OH239409   0.573   0.128   4.517
13151TIP3    H139410   0.641   0.129   4.584
13151TIP3    H239411   0.611   0.175   4.443
13152TIP3   OH239412   7.997   0.236   5.009
13152TIP3    H139413   8.084   0.227   5.048
13152TIP3    H239414   8.002   0.186   4.927
13153TIP3   OH239415   8.426   0.432   4.796
13153TIP3    H139416   8.517   0.405   4.807
13153TIP3    H239417   8.383   0.353   4.762
13154TIP3   OH239418   8.347   0.024   5.328
13154TIP3    H139419   8.300   0.065   5.255
13154TIP3    H239420   8.292   0.039   5.404
13155TIP3   OH239421   0.123   0.838   4.357
13155TIP3    H139422   0.066   0.786   4.301
13155TIP3    H239423   0.146   0.914   4.303
13156TIP3   OH239424   8.471   0.769   5.084
13156TIP3    H139425   8.428   0.842   5.128
13156TIP3    H239426   8.514   0.809   5.008
13157TIP3   OH239427   0.738   0.168   4.737
13157TIP3    H139428   0.694   0.135   4.815
13157TIP3    H239429   0.771   0.254   4.762
13158TIP3   OH239430   8.247   0.148   5.101
13158TIP3    H139431   8.305   0.221   5.124
13158TIP3    H239432   8.291   0.104   5.028
13159TIP3   OH239433   8.352   0.993   5.212
13159TIP3    H139434   8.388   1.076   5.182
13159TIP3    H239435   8.273   0.980   5.160
13160TIP3   OH239436   7.713   0.564   4.470
13160TIP3    H139437   7.676   0.603   4.391
13160TIP3    H239438   7.749   0.638   4.519
13161TIP3   OH239439   0.892   0.074   5.065
13161TIP3    H139440   0.810   0.092   5.018
13161TIP3    H239441   0.957   0.128   5.020
13162TIP3   OH239442   5.861   7.740   5.053
13162TIP3    H139443   5.851   7.647   5.076
13162TIP3    H239444   5.785   7.782   5.094
13163TIP3   OH239445   0.529   0.980   4.110
13163TIP3    H139446   0.475   0.922   4.164
13163TIP3    H239447   0.618   0.963   4.139
13164TIP3   OH239448   0.114   0.484   4.302
13164TIP3    H139449   0.033   0.534   4.289
13164TIP3    H239450   0.154   0.481   4.215
13165TIP3   OH239451   0.089   0.284   3.995
13165TIP3    H139452   0.149   0.347   4.035
13165TIP3    H239453   0.147   0.221   3.951
13166TIP3   OH239454   0.440   0.499   4.285
13166TIP3    H139455   0.391   0.544   4.354
13166TIP3    H239456   0.516   0.461   4.331
13167TIP3   OH239457   8.237   0.578   4.649
13167TIP3    H139458   8.201   0.514   4.588
13167TIP3    H239459   8.312   0.534   4.689
13168TIP3   OH239460   8.394   0.976   4.754
13168TIP3    H139461   8.333   0.936   4.816
13168TIP3    H239462   8.481   0.951   4.786
13169TIP3   OH239463   8.315   0.550   5.023
13169TIP3    H139464   8.360   0.506   4.951
13169TIP3    H239465   8.372   0.624   5.046
13170TIP3   OH239466   8.504   1.159   5.514
13170TIP3    H139467   8.566   1.092   5.487
13170TIP3    H239468   8.419   1.115   5.514
13171TIP3   OH239469   0.272   0.469   4.074
13171TIP3    H139470   0.341   0.495   4.135
13171TIP3    H239471   0.314   0.473   3.988
13172TIP3   OH239472   8.252   0.643   5.492
13172TIP3    H139473   8.265   0.708   5.561
13172TIP3    H239474   8.159   0.621   5.498
13173TIP3   OH239475   6.487   7.687   4.144
13173TIP3    H139476   6.411   7.709   4.198
13173TIP3    H239477   6.502   7.765   4.091
13174TIP3   OH239478   8.114   0.398   4.478
13174TIP3    H139479   8.047   0.443   4.427
13174TIP3    H239480   8.071   0.317   4.508
13175TIP3   OH239481   7.887   0.756   5.405
13175TIP3    H139482   7.816   0.729   5.346
13175TIP3    H239483   7.923   0.674   5.439
13176TIP3   OH239484   8.082   0.891   5.277
13176TIP3    H139485   8.153   0.863   5.334
13176TIP3    H239486   8.004   0.848   5.312
13177TIP3   OH239487   5.625   7.828   5.182
13177TIP3    H139488   5.541   7.798   5.146
13177TIP3    H239489   5.603   7.907   5.231
13178TIP3   OH239490   6.165   7.945   5.376
13178TIP3    H139491   6.233   7.914   5.436
13178TIP3    H239492   6.083   7.929   5.422
13179TIP3   OH239493   0.393   0.445   3.830
13179TIP3    H139494   0.363   0.435   3.740
13179TIP3    H239495   0.469   0.503   3.824
13180TIP3   OH239496   5.771   7.873   4.149
13180TIP3    H139497   5.738   7.879   4.238
13180TIP3    H239498   5.735   7.791   4.114
13181TIP3   OH239499   8.410   0.327   5.241
13181TIP3    H139500   8.330   0.317   5.292
13181TIP3    H239501   8.453   0.404   5.279
13182TIP3   OH239502   8.278   0.220   4.708
13182TIP3    H139503   8.188   0.197   4.734
13182TIP3    H239504   8.286   0.185   4.619
13183TIP3   OH239505   0.261   0.293   4.441
13183TIP3    H139506   0.209   0.360   4.395
13183TIP3    H239507   0.324   0.262   4.376
13184TIP3   OH239508   0.427   0.321   4.674
13184TIP3    H139509   0.361   0.346   4.609
13184TIP3    H239510   0.479   0.253   4.630
13185TIP3   OH239511   8.199   0.346   5.413
13185TIP3    H139512   8.225   0.412   5.478
13185TIP3    H239513   8.191   0.266   5.464
13186TIP3   OH239514   5.436   7.854   4.121
13186TIP3    H139515   5.427   7.857   4.217
13186TIP3    H239516   5.360   7.902   4.089
13187TIP3   OH239517   4.987   7.898   4.997
13187TIP3    H139518   5.059   7.936   5.047
13187TIP3    H239519   5.025   7.880   4.910
13188TIP3   OH239520   4.911   7.868   4.501
13188TIP3    H139521   4.953   7.902   4.423
13188TIP3    H239522   4.848   7.936   4.526
13189TIP3   OH239523   0.373   0.554   5.099
13189TIP3    H139524   0.433   0.508   5.041
13189TIP3    H239525   0.373   0.502   5.179
13190TIP3   OH239526   0.136   0.016   4.765
13190TIP3    H139527   0.059   0.021   4.821
13190TIP3    H239528   0.210   0.014   4.827
13191TIP3   OH239529   8.040   0.099   4.776
13191TIP3    H139530   7.952   0.103   4.740
13191TIP3    H239531   8.070   0.010   4.756
13192TIP3   OH239532   8.292   0.095   4.465
13192TIP3    H139533   8.386   0.110   4.452
13192TIP3    H239534   8.252   0.117   4.381
13193TIP3   OH239535   0.599   0.114   4.977
13193TIP3    H139536   0.580   0.129   5.070
13193TIP3    H239537   0.529   0.055   4.948
13194TIP3   OH239538   8.163   0.122   4.226
13194TIP3    H139539   8.099   0.076   4.172
13194TIP3    H239540   8.220   0.166   4.162
13195TIP3   OH239541   8.269   0.834   5.688
13195TIP3    H139542   8.281   0.904   5.624
13195TIP3    H239543   8.219   0.874   5.759
13196TIP3   OH239544   0.183   0.347   4.861
13196TIP3    H139545   0.260   0.309   4.819
13196TIP3    H239546   0.184   0.313   4.951
13197TIP3   OH239547   5.356   7.869   4.757
13197TIP3    H139548   5.325   7.792   4.805
13197TIP3    H239549   5.386   7.834   4.673
13198TIP3   OH239550   0.161   0.268   5.132
13198TIP3    H139551   0.074   0.298   5.159
13198TIP3    H239552   0.222   0.317   5.187
13199TIP3   OH239553   8.397   0.654   4.262
13199TIP3    H139554   8.326   0.594   4.239
13199TIP3    H239555   8.365   0.700   4.340
13200TIP3   OH239556   6.027   7.970   4.148
13200TIP3    H139557   5.933   7.952   4.144
13200TIP3    H239558   6.034   8.065   4.157
13201TIP3   OH239559   0.425   0.215   4.222
13201TIP3    H139560   0.518   0.199   4.235
13201TIP3    H239561   0.420   0.306   4.193
13202TIP3   OH239562   8.086   0.588   4.878
13202TIP3    H139563   8.122   0.595   4.790
13202TIP3    H239564   8.160   0.562   4.932
13203TIP3   OH239565   8.497   0.819   4.070
13203TIP3    H139566   8.487   0.904   4.113
13203TIP3    H239567   8.456   0.756   4.130
13204TIP3   OH239568   7.994   0.554   5.550
13204TIP3    H139569   8.021   0.546   5.642
13204TIP3    H239570   7.920   0.493   5.542
13205TIP3   OH239571   0.835   0.296   4.042
13205TIP3    H139572   0.782   0.241   3.985
13205TIP3    H239573   0.837   0.381   3.999
13206TIP3   OH239574   0.470   0.755   4.794
13206TIP3    H139575   0.395   0.696   4.799
13206TIP3    H239576   0.544   0.698   4.771
13207TIP3   OH239577   7.793   0.267   4.265
13207TIP3    H139578   7.845   0.346   4.274
13207TIP3    H239579   7.722   0.278   4.329
13208TIP3   OH239580   8.318   0.787   4.487
13208TIP3    H139581   8.355   0.856   4.542
13208TIP3    H239582   8.282   0.724   4.549
13209TIP3   OH239583   0.370   0.928   4.989
13209TIP3    H139584   0.418   0.901   5.067
13209TIP3    H239585   0.416   0.886   4.916
13210TIP3   OH239586   0.334   0.829   3.817
13210TIP3    H139587   0.382   0.774   3.878
13210TIP3    H239588   0.243   0.799   3.825
13211TIP3   OH239589   8.179   0.097   5.539
13211TIP3    H139590   8.083   0.101   5.546
13211TIP3    H239591   8.206   0.042   5.612
13212TIP3   OH239592   0.498   0.698   3.997
13212TIP3    H139593   0.470   0.736   4.080
13212TIP3    H239594   0.582   0.740   3.979
13213TIP3   OH239595   8.176   0.782   3.946
13213TIP3    H139596   8.188   0.700   3.899
13213TIP3    H239597   8.264   0.820   3.950
13214TIP3   OH239598   7.923   0.504   4.318
13214TIP3    H139599   7.849   0.522   4.376
13214TIP3    H239600   7.933   0.583   4.266
13215TIP3   OH239601   0.545   0.168   5.246
13215TIP3    H139602   0.624   0.194   5.293
13215TIP3    H239603   0.520   0.085   5.287
13216TIP3   OH239604   6.088   7.928   4.419
13216TIP3    H139605   6.068   7.947   4.327
13216TIP3    H239606   6.134   8.006   4.450
13217TIP3   OH239607   0.072   0.107   4.510
13217TIP3    H139608   0.136   0.172   4.483
13217TIP3    H239609   0.092   0.089   4.601
13218TIP3   OH239610   0.355   0.371   5.305
13218TIP3    H139611   0.355   0.382   5.400
13218TIP3    H239612   0.420   0.303   5.288
13219TIP3   OH239613   5.903   7.825   4.598
13219TIP3    H139614   5.878   7.902   4.650
13219TIP3    H239615   5.970   7.857   4.538
13220TIP3   OH239616   5.415   7.840   4.401
13220TIP3    H139617   5.405   7.930   4.430
13220TIP3    H239618   5.509   7.823   4.406
13221TIP3   OH239619   0.623   0.533   4.699
13221TIP3    H139620   0.552   0.469   4.701
13221TIP3    H239621   0.689   0.497   4.758
13222TIP3   OH239622   7.933   0.746   4.173
13222TIP3    H139623   7.958   0.830   4.135
13222TIP3    H239624   7.958   0.682   4.106
13223TIP3   OH239625   7.806  -0.008   4.276
13223TIP3    H139626   7.821   0.086   4.286
13223TIP3    H239627   7.753  -0.015   4.196
13224TIP3   OH239628   5.361   7.752   5.135
13224TIP3    H139629   5.333   7.720   5.050
13224TIP3    H239630   5.350   7.677   5.194
13225TIP3   OH239631   8.023   0.823   5.840
13225TIP3    H139632   8.065   0.739   5.821
13225TIP3    H239633   7.964   0.837   5.765
13226TIP3   OH239634   8.017   0.522   4.027
13226TIP3    H139635   8.071   0.498   4.102
13226TIP3    H239636   8.080   0.532   3.955
13227TIP3   OH239637   8.469   0.731   3.812
13227TIP3    H139638   8.489   0.755   3.902
13227TIP3    H239639   8.494   0.638   3.805
13228TIP3   OH239640   8.148   0.580   5.788
13228TIP3    H139641   8.235   0.611   5.762
13228TIP3    H239642   8.165   0.523   5.863
13229TIP3   OH239643   8.213   0.455   4.213
13229TIP3    H139644   8.188   0.415   4.297
13229TIP3    H239645   8.251   0.383   4.163
13230TIP3   OH239646   8.489   0.519   5.417
13230TIP3    H139647   8.416   0.577   5.440
13230TIP3    H239648   8.551   0.575   5.372
13231TIP3   OH239649   8.322   0.259   4.052
13231TIP3    H139650   8.292   0.256   3.961
13231TIP3    H239651   8.417   0.263   4.046
13232TIP3   OH239652   0.604   0.580   3.700
13232TIP3    H139653   0.594   0.532   3.617
13232TIP3    H239654   0.592   0.672   3.676
13233TIP3   OH239655   0.072   0.304   5.563
13233TIP3    H139656   0.088   0.231   5.503
13233TIP3    H239657   0.047   0.377   5.506
13234TIP3   OH239658   0.109   0.101   5.365
13234TIP3    H139659   0.137   0.139   5.282
13234TIP3    H239660   0.017   0.080   5.352
13235TIP3   OH239661   0.153   0.650   5.247
13235TIP3    H139662   0.232   0.633   5.197
13235TIP3    H239663   0.094   0.693   5.185
13236TIP3   OH239664   8.459   0.390   5.799
13236TIP3    H139665   8.396   0.320   5.818
13236TIP3    H239666   8.493   0.368   5.712
13237TIP3   OH239667   5.899   7.878   5.444
13237TIP3    H139668   5.855   7.960   5.420
13237TIP3    H239669   5.830   7.812   5.440
13238TIP3   OH239670   0.344   0.366   5.585
13238TIP3    H139671   0.373   0.373   5.675
13238TIP3    H239672   0.251   0.344   5.591
13239TIP3   OH239673   8.314   0.158   5.869
13239TIP3    H139674   8.321   0.070   5.832
13239TIP3    H239675   8.360   0.154   5.953
13240TIP3   OH239676   6.027   7.913   5.684
13240TIP3    H139677   6.080   7.833   5.689
13240TIP3    H239678   5.969   7.899   5.609
13241TIP3   OH239679   0.301   0.056   5.901
13241TIP3    H139680   0.336   0.006   5.828
13241TIP3    H239681   0.293   0.145   5.868
13242TIP3   OH239682   7.645   0.626   4.205
13242TIP3    H139683   7.688   0.687   4.145
13242TIP3    H239684   7.622   0.551   4.150
13243TIP3   OH239685   0.787   0.895   4.179
13243TIP3    H139686   0.843   0.969   4.158
13243TIP3    H239687   0.831   0.819   4.141
13244TIP3   OH239688   0.800   0.697   4.383
13244TIP3    H139689   0.758   0.634   4.324
13244TIP3    H239690   0.806   0.777   4.332
13245TIP3   OH239691   0.776   0.532   3.912
13245TIP3    H139692   0.727   0.511   3.832
13245TIP3    H239693   0.783   0.627   3.912
13246TIP3   OH239694   0.675   0.197   3.842
13246TIP3    H139695   0.633   0.233   3.764
13246TIP3    H239696   0.670   0.102   3.830
13247TIP3   OH239697   0.633   0.420   4.450
13247TIP3    H139698   0.726   0.405   4.432
13247TIP3    H239699   0.632   0.476   4.527
13248TIP3   OH239700   7.843   0.556   5.163
13248TIP3    H139701   7.828   0.513   5.079
13248TIP3    H239702   7.937   0.543   5.180
13249TIP3   OH239703   6.306   7.940   3.812
13249TIP3    H139704   6.372   7.915   3.877
13249TIP3    H239705   6.225   7.900   3.843
13250TIP3   OH239706   0.696   0.183   4.262
13250TIP3    H139707   0.747   0.103   4.275
13250TIP3    H239708   0.745   0.231   4.195
13251TIP3   OH239709   0.835   0.414   4.836
13251TIP3    H139710   0.890   0.485   4.802
13251TIP3    H239711   0.859   0.408   4.929
13252TIP3   OH239712   8.044   0.213   5.826
13252TIP3    H139713   8.139   0.218   5.829
13252TIP3    H239714   8.020   0.157   5.900
13253TIP3   OH239715   6.489   7.957   4.312
13253TIP3    H139716   6.529   7.963   4.400
13253TIP3    H239717   6.424   7.887   4.320
13254TIP3   OH239718   5.197   7.974   5.167
13254TIP3    H139719   5.253   7.896   5.166
13254TIP3    H239720   5.257   8.046   5.146
13255TIP3   OH239721   7.818   0.218   5.225
13255TIP3    H139722   7.863   0.209   5.141
13255TIP3    H239723   7.873   0.277   5.277
13256TIP3   OH239724   6.530   7.890   3.965
13256TIP3    H139725   6.576   7.829   3.908
13256TIP3    H239726   6.583   7.970   3.960
13257TIP3   OH239727   4.970   7.736   4.731
13257TIP3    H139728   4.882   7.725   4.767
13257TIP3    H239729   4.957   7.790   4.653
13258TIP3   OH239730   5.194   7.810   5.549
13258TIP3    H139731   5.145   7.805   5.631
13258TIP3    H239732   5.134   7.851   5.487
13259TIP3   OH239733   6.811   8.035   5.235
13259TIP3    H139734   6.720   8.030   5.205
13259TIP3    H239735   6.838   7.944   5.246
13260TIP3   OH239736   6.035   7.951   4.908
13260TIP3    H139737   5.993   7.877   4.953
13260TIP3    H239738   6.102   7.911   4.853
13261TIP3   OH239739   6.524   7.848   4.820
13261TIP3    H139740   6.564   7.885   4.741
13261TIP3    H239741   6.430   7.866   4.811
13262TIP3   OH239742   6.623   7.896   4.573
13262TIP3    H139743   6.695   7.841   4.542
13262TIP3    H239744   6.645   7.984   4.543
13263TIP3   OH239745   5.276   7.642   4.897
13263TIP3    H139746   5.186   7.611   4.904
13263TIP3    H239747   5.329   7.563   4.891
13264TIP3   OH239748   5.088   7.543   4.553
13264TIP3    H139749   5.115   7.594   4.477
13264TIP3    H239750   5.055   7.608   4.615
13265TIP3   OH239751   5.749   7.681   4.791
13265TIP3    H139752   5.796   7.729   4.723
13265TIP3    H239753   5.788   7.713   4.873
13266TIP3   OH239754   6.244   7.836   4.771
13266TIP3    H139755   6.253   7.810   4.679
13266TIP3    H239756   6.247   7.753   4.820
13267TIP3   OH239757   6.297   7.762   4.334
13267TIP3    H139758   6.220   7.813   4.357
13267TIP3    H239759   6.283   7.677   4.375
13268TIP3   OH239760   5.200   7.677   4.318
13268TIP3    H139761   5.245   7.617   4.258
13268TIP3    H239762   5.269   7.733   4.352
13269TIP3   OH239763   5.690   7.869   4.414
13269TIP3    H139764   5.752   7.819   4.467
13269TIP3    H239765   5.703   7.960   4.440
13270TIP3   OH239766   5.503   7.899   5.804
13270TIP3    H139767   5.465   7.827   5.854
13270TIP3    H239768   5.594   7.903   5.833
13271TIP3   OH239769   5.748   7.914   5.933
13271TIP3    H139770   5.824   7.970   5.917
13271TIP3    H239771   5.786   7.828   5.952
13272TIP3   OH239772   1.018   0.406   4.223
13272TIP3    H139773   0.971   0.416   4.306
13272TIP3    H239774   0.954   0.367   4.164
13273TIP3   OH239775   1.122   0.749   4.355
13273TIP3    H139776   1.144   0.678   4.415
13273TIP3    H239777   1.206   0.792   4.337
13274TIP3   OH239778   1.546   0.220   4.405
13274TIP3    H139779   1.586   0.307   4.398
13274TIP3    H239780   1.546   0.186   4.315
13275TIP3   OH239781   1.206   0.523   4.482
13275TIP3    H139782   1.291   0.499   4.519
13275TIP3    H239783   1.190   0.459   4.413
13276TIP3   OH239784   0.949   0.995   3.943
13276TIP3    H139785   1.006   0.945   3.884
13276TIP3    H239786   0.921   1.070   3.892
13277TIP3   OH239787   1.350   0.574   3.876
13277TIP3    H139788   1.332   0.668   3.876
13277TIP3    H239789   1.311   0.543   3.958
13278TIP3   OH239790   1.610   0.418   4.133
13278TIP3    H139791   1.520   0.410   4.165
13278TIP3    H239792   1.612   0.502   4.088
13279TIP3   OH239793   1.536   0.064   3.578
13279TIP3    H139794   1.530   0.067   3.673
13279TIP3    H239795   1.478   0.134   3.548
13280TIP3   OH239796   1.015   0.114   4.455
13280TIP3    H139797   1.010   0.186   4.519
13280TIP3    H239798   1.101   0.124   4.414
13281TIP3   OH239799   1.022   0.101   3.931
13281TIP3    H139800   1.114   0.088   3.954
13281TIP3    H239801   0.994   0.175   3.985
13282TIP3   OH239802   1.378   0.412   4.290
13282TIP3    H139803   1.332   0.411   4.206
13282TIP3    H239804   1.374   0.321   4.321
13283TIP3   OH239805   1.434   0.334   3.755
13283TIP3    H139806   1.371   0.314   3.687
13283TIP3    H239807   1.402   0.416   3.794
13284TIP3   OH239808   1.493   0.113   4.164
13284TIP3    H139809   1.486   0.018   4.157
13284TIP3    H239810   1.582   0.133   4.134
13285TIP3   OH239811   1.000   0.512   3.695
13285TIP3    H139812   1.087   0.543   3.670
13285TIP3    H239813   1.006   0.498   3.790
13286TIP3   OH239814   1.529   0.106   3.857
13286TIP3    H139815   1.512   0.193   3.822
13286TIP3    H239816   1.624   0.101   3.862
13287TIP3   OH239817   1.116   0.249   3.711
13287TIP3    H139818   1.071   0.333   3.719
13287TIP3    H239819   1.071   0.191   3.773
13288TIP3   OH239820   7.017   7.925   4.670
13288TIP3    H139821   7.039   7.912   4.578
13288TIP3    H239822   7.070   7.861   4.717
13289TIP3   OH239823   0.890   0.857   3.660
13289TIP3    H139824   0.934   0.936   3.630
13289TIP3    H239825   0.892   0.798   3.584
13290TIP3   OH239826   1.288   0.146   4.783
13290TIP3    H139827   1.288   0.057   4.747
13290TIP3    H239828   1.379   0.175   4.775
13291TIP3   OH239829   1.208   0.465   4.762
13291TIP3    H139830   1.188   0.539   4.706
13291TIP3    H239831   1.286   0.492   4.811
13292TIP3   OH239832   6.742   7.936   4.188
13292TIP3    H139833   6.653   7.939   4.224
13292TIP3    H239834   6.772   8.027   4.190
13293TIP3   OH239835   1.321   0.000   5.023
13293TIP3    H139836   1.270   0.028   5.100
13293TIP3    H239837   1.304   0.068   4.958
13294TIP3   OH239838   7.016   7.872   4.397
13294TIP3    H139839   6.929   7.838   4.414
13294TIP3    H239840   7.075   7.798   4.411
13295TIP3   OH239841   6.879   7.770   4.019
13295TIP3    H139842   6.878   7.809   3.931
13295TIP3    H239843   6.822   7.827   4.071
13296TIP3   OH239844   1.887  -0.034   4.302
13296TIP3    H139845   1.906  -0.002   4.214
13296TIP3    H239846   1.882   0.044   4.356
13297TIP3   OH239847   6.951   7.871   3.762
13297TIP3    H139848   7.021   7.833   3.710
13297TIP3    H239849   6.993   7.941   3.813
13298TIP3   OH239850   1.801   0.104   3.841
13298TIP3    H139851   1.845   0.052   3.774
13298TIP3    H239852   1.845   0.188   3.840
13299TIP3   OH239853   7.427   5.712   1.103
13299TIP3    H139854   7.435   5.762   1.022
13299TIP3    H239855   7.490   5.641   1.094
13300TIP3   OH239856   7.020   6.011   1.036
13300TIP3    H139857   7.032   5.920   1.010
13300TIP3    H239858   7.094   6.030   1.093
13301TIP3   OH239859   7.180   5.161   1.200
13301TIP3    H139860   7.146   5.107   1.130
13301TIP3    H239861   7.272   5.135   1.208
13302TIP3   OH239862   7.271   5.646   1.336
13302TIP3    H139863   7.307   5.685   1.416
13302TIP3    H239864   7.337   5.664   1.269
13303TIP3   OH239865   7.465   6.098   1.003
13303TIP3    H139866   7.506   6.143   0.929
13303TIP3    H239867   7.377   6.137   1.009
13304TIP3   OH239868   6.612   5.715   1.095
13304TIP3    H139869   6.550   5.649   1.127
13304TIP3    H239870   6.693   5.666   1.080
13305TIP3   OH239871   7.106   5.751   0.998
13305TIP3    H139872   7.129   5.756   1.091
13305TIP3    H239873   7.173   5.804   0.954
13306TIP3   OH239874   7.401   5.228   0.990
13306TIP3    H139875   7.493   5.211   0.970
13306TIP3    H239876   7.386   5.317   0.961
13307TIP3   OH239877   7.723   5.273   1.236
13307TIP3    H139878   7.642   5.221   1.232
13307TIP3    H239879   7.709   5.333   1.309
13308TIP3   OH239880   7.403   6.123   1.281
13308TIP3    H139881   7.438   6.037   1.300
13308TIP3    H239882   7.415   6.135   1.187
13309TIP3   OH239883   0.326   5.629   1.297
13309TIP3    H139884   0.321   5.714   1.252
13309TIP3    H239885   0.285   5.567   1.237
13310TIP3   OH239886   0.619   5.857   1.296
13310TIP3    H139887   0.569   5.799   1.354
13310TIP3    H239888   0.646   5.930   1.351
13311TIP3   OH239889   0.240   6.371   1.329
13311TIP3    H139890   0.310   6.311   1.303
13311TIP3    H239891   0.254   6.385   1.423
13312TIP3   OH239892   0.279   5.838   1.123
13312TIP3    H139893   0.252   5.814   1.034
13312TIP3    H239894   0.234   5.920   1.141
13313TIP3   OH239895   7.794   5.582   1.204
13313TIP3    H139896   7.708   5.561   1.242
13313TIP3    H239897   7.805   5.676   1.219
13314TIP3   OH239898   0.694   6.085   1.430
13314TIP3    H139899   0.652   6.102   1.515
13314TIP3    H239900   0.756   6.157   1.419
13315TIP3   OH239901   0.412   6.182   1.124
13315TIP3    H139902   0.466   6.105   1.103
13315TIP3    H239903   0.471   6.256   1.114
13316TIP3   OH239904   0.575   5.973   1.053
13316TIP3    H139905   0.556   5.900   0.994
13316TIP3    H239906   0.588   5.932   1.139
13317TIP3   OH239907   0.220   5.471   1.097
13317TIP3    H139908   0.137   5.512   1.071
13317TIP3    H239909   0.270   5.465   1.016
13318TIP3   OH239910   0.195   5.250   0.799
13318TIP3    H139911   0.260   5.310   0.836
13318TIP3    H239912   0.239   5.165   0.799
13319TIP3   OH239913   0.570   5.552   1.053
13319TIP3    H139914   0.559   5.571   1.146
13319TIP3    H239915   0.630   5.478   1.050
13320TIP3   OH239916   0.548   6.170   1.648
13320TIP3    H139917   0.541   6.257   1.688
13320TIP3    H239918   0.486   6.117   1.697
13321TIP3   OH239919   0.395   5.429   0.883
13321TIP3    H139920   0.455   5.483   0.934
13321TIP3    H239921   0.424   5.439   0.792
13322TIP3   OH239922   0.156   6.085   1.160
13322TIP3    H139923   0.243   6.126   1.160
13322TIP3    H239924   0.101   6.148   1.112
13323TIP3   OH239925   8.227   5.320   1.250
13323TIP3    H139926   8.171   5.396   1.239
13323TIP3    H239927   8.251   5.320   1.342
13324TIP3   OH239928   0.740   6.016   0.511
13324TIP3    H139929   0.740   6.110   0.494
13324TIP3    H239930   0.824   5.985   0.478
13325TIP3   OH239931   0.050   6.308   0.980
13325TIP3    H139932   0.006   6.291   0.897
13325TIP3    H239933   0.020   6.396   1.005
13326TIP3   OH239934   8.106   6.135   1.415
13326TIP3    H139935   8.075   6.100   1.499
13326TIP3    H239936   8.026   6.156   1.367
13327TIP3   OH239937   0.260   6.234   0.613
13327TIP3    H139938   0.311   6.162   0.576
13327TIP3    H239939   0.293   6.244   0.702
13328TIP3   OH239940   0.305   6.278   0.883
13328TIP3    H139941   0.217   6.284   0.920
13328TIP3    H239942   0.358   6.238   0.953
13329TIP3   OH239943   0.485   5.442   0.630
13329TIP3    H139944   0.447   5.414   0.548
13329TIP3    H239945   0.575   5.468   0.607
13330TIP3   OH239946   0.335   5.253   1.229
13330TIP3    H139947   0.290   5.333   1.201
13330TIP3    H239948   0.388   5.228   1.153
13331TIP3   OH239949   8.405   5.038   1.273
13331TIP3    H139950   8.488   5.032   1.226
13331TIP3    H239951   8.339   5.053   1.205
13332TIP3   OH239952   8.273   5.066   1.023
13332TIP3    H139953   8.196   5.038   0.972
13332TIP3    H239954   8.330   5.109   0.960
13333TIP3   OH239955   8.478   5.604   1.035
13333TIP3    H139956   8.413   5.537   1.016
13333TIP3    H239957   8.457   5.635   1.123
13334TIP3   OH239958   0.360   4.996   0.839
13334TIP3    H139959   0.389   4.912   0.875
13334TIP3    H239960   0.391   5.061   0.902
13335TIP3   OH239961   0.463   5.185   0.999
13335TIP3    H139962   0.552   5.150   0.994
13335TIP3    H239963   0.468   5.270   0.956
13336TIP3   OH239964   0.144   5.763   0.886
13336TIP3    H139965   0.097   5.846   0.884
13336TIP3    H239966   0.086   5.704   0.935
13337TIP3   OH239967   0.694   6.086   0.781
13337TIP3    H139968   0.650   6.023   0.838
13337TIP3    H239969   0.702   6.041   0.697
13338TIP3   OH239970   8.281   5.946   1.314
13338TIP3    H139971   8.325   6.011   1.259
13338TIP3    H239972   8.223   5.997   1.370
13339TIP3   OH239973   7.938   5.160   1.064
13339TIP3    H139974   7.984   5.241   1.041
13339TIP3    H239975   7.851   5.188   1.090
13340TIP3   OH239976   8.421   5.713   1.276
13340TIP3    H139977   8.368   5.791   1.295
13340TIP3    H239978   8.494   5.717   1.338
13341TIP3   OH239979   8.267   6.199   1.191
13341TIP3    H139980   8.209   6.189   1.265
13341TIP3    H239981   8.301   6.288   1.198
13342TIP3   OH239982   0.427   5.816   0.653
13342TIP3    H139983   0.469   5.795   0.736
13342TIP3    H239984   0.344   5.769   0.655
13343TIP3   OH239985   0.764   6.289   0.476
13343TIP3    H139986   0.775   6.345   0.399
13343TIP3    H239987   0.693   6.330   0.525
13344TIP3   OH239988   0.585   5.759   0.875
13344TIP3    H139989   0.561   5.691   0.938
13344TIP3    H239990   0.678   5.745   0.859
13345TIP3   OH239991   8.312   5.775   0.677
13345TIP3    H139992   8.318   5.685   0.648
13345TIP3    H239993   8.295   5.769   0.771
13346TIP3   OH239994   8.248   5.794   0.945
13346TIP3    H139995   8.322   5.770   1.002
13346TIP3    H239996   8.244   5.890   0.951
13347TIP3   OH239997   8.054   5.514   1.188
13347TIP3    H139998   7.959   5.523   1.196
13347TIP3    H239999   8.086   5.603   1.172
13348TIP3   OH240000   8.499   5.992   0.888
13348TIP3    H140001   8.410   6.015   0.916
13348TIP3    H240002   8.525   6.064   0.831
13349TIP3   OH240003   0.182   5.027   1.214
13349TIP3    H140004   0.221   5.114   1.213
13349TIP3    H240005   0.254   4.968   1.194
13350TIP3   OH240006   8.237   6.068   0.954
13350TIP3    H140007   8.224   6.136   0.888
13350TIP3    H240008   8.249   6.116   1.036
13351TIP3   OH240009   8.002   5.673   0.922
13351TIP3    H140010   8.070   5.738   0.943
13351TIP3    H240011   8.047   5.608   0.868
13352TIP3   OH240012   7.976   4.891   1.009
13352TIP3    H140013   7.963   4.981   1.039
13352TIP3    H240014   7.939   4.837   1.079
13353TIP3   OH240015   0.759   6.397   1.396
13353TIP3    H140016   0.683   6.425   1.345
13353TIP3    H240017   0.833   6.440   1.355
13354TIP3   OH240018   7.785   5.846   1.332
13354TIP3    H140019   7.808   5.933   1.367
13354TIP3    H240020   7.753   5.864   1.244
13355TIP3   OH240021   8.452   5.985   0.569
13355TIP3    H140022   8.408   5.912   0.612
13355TIP3    H240023   8.526   5.945   0.523
13356TIP3   OH240024   0.390   6.030   0.486
13356TIP3    H140025   0.420   5.961   0.545
13356TIP3    H240026   0.446   6.022   0.409
13357TIP3   OH240027   8.125   5.470   0.795
13357TIP3    H140028   8.178   5.443   0.870
13357TIP3    H240029   8.188   5.485   0.725
13358TIP3   OH240030   0.175   5.700   0.620
13358TIP3    H140031   0.153   5.713   0.712
13358TIP3    H240032   0.160   5.606   0.605
13359TIP3   OH240033   8.299   5.398   0.996
13359TIP3    H140034   8.278   5.360   1.080
13359TIP3    H240035   8.345   5.329   0.949
13360TIP3   OH240036   8.424   5.211   0.842
13360TIP3    H140037   8.394   5.217   0.751
13360TIP3    H240038   8.519   5.222   0.836
13361TIP3   OH240039   0.721   5.527   0.509
13361TIP3    H140040   0.702   5.483   0.426
13361TIP3    H240041   0.695   5.618   0.495
13362TIP3   OH240042   8.246   6.281   0.780
13362TIP3    H140043   8.336   6.264   0.750
13362TIP3    H240044   8.204   6.325   0.707
13363TIP3   OH240045   7.747   5.661   0.850
13363TIP3    H140046   7.839   5.670   0.875
13363TIP3    H240047   7.735   5.566   0.839
13364TIP3   OH240048   7.630   6.315   1.340
13364TIP3    H140049   7.553   6.317   1.283
13364TIP3    H240050   7.596   6.290   1.426
13365TIP3   OH240051   0.926   6.575   1.275
13365TIP3    H140052   0.914   6.641   1.343
13365TIP3    H240053   0.882   6.612   1.198
13366TIP3   OH240054   0.859   5.701   0.876
13366TIP3    H140055   0.900   5.773   0.827
13366TIP3    H240056   0.921   5.683   0.947
13367TIP3   OH240057   0.903   5.488   0.705
13367TIP3    H140058   0.838   5.494   0.635
13367TIP3    H240059   0.880   5.559   0.765
13368TIP3   OH240060   0.691   5.166   0.649
13368TIP3    H140061   0.761   5.224   0.619
13368TIP3    H240062   0.737   5.090   0.686
13369TIP3   OH240063   0.568   6.390   1.045
13369TIP3    H140064   0.623   6.381   0.967
13369TIP3    H240065   0.611   6.458   1.097
13370TIP3   OH240066   0.212   6.469   1.597
13370TIP3    H140067   0.137   6.495   1.544
13370TIP3    H240068   0.178   6.464   1.686
13371TIP3   OH240069   0.468   6.455   1.710
13371TIP3    H140070   0.388   6.453   1.658
13371TIP3    H240071   0.526   6.514   1.663
13372TIP3   OH240072   0.619   6.637   1.566
13372TIP3    H140073   0.617   6.731   1.548
13372TIP3    H240074   0.647   6.597   1.484
13373TIP3   OH240075   7.726   6.114   1.100
13373TIP3    H140076   7.645   6.066   1.116
13373TIP3    H240077   7.699   6.192   1.052
13374TIP3   OH240078   0.003   6.213   0.710
13374TIP3    H140079   0.086   6.240   0.673
13374TIP3    H240080  -0.026   6.141   0.654
13375TIP3   OH240081   0.722   6.354   0.813
13375TIP3    H140082   0.717   6.259   0.807
13375TIP3    H240083   0.673   6.386   0.738
13376TIP3   OH240084   7.902   6.116   0.745
13376TIP3    H140085   7.825   6.064   0.769
13376TIP3    H240086   7.968   6.050   0.723
13377TIP3   OH240087   0.999   5.894   0.751
13377TIP3    H140088   1.034   5.870   0.665
13377TIP3    H240089   1.009   5.989   0.755
13378TIP3   OH240090   1.820   6.600   0.486
13378TIP3    H140091   1.806   6.573   0.395
13378TIP3    H240092   1.801   6.694   0.486
13379TIP3   OH240093   1.244   6.453   0.794
13379TIP3    H140094   1.272   6.371   0.835
13379TIP3    H240095   1.156   6.434   0.763
13380TIP3   OH240096   2.032   6.502   0.088
13380TIP3    H140097   2.063   6.425   0.041
13380TIP3    H240098   2.112   6.541   0.124
13381TIP3   OH240099   1.120   5.488   0.540
13381TIP3    H140100   1.152   5.578   0.544
13381TIP3    H240101   1.048   5.485   0.603
13382TIP3   OH240102   1.499   6.451   0.672
13382TIP3    H140103   1.411   6.441   0.707
13382TIP3    H240104   1.512   6.546   0.667
13383TIP3   OH240105   1.584   6.052   0.153
13383TIP3    H140106   1.592   5.961   0.125
13383TIP3    H240107   1.545   6.047   0.240
13384TIP3   OH240108   1.488   6.089   0.423
13384TIP3    H140109   1.465   6.080   0.515
13384TIP3    H240110   1.507   6.182   0.411
13385TIP3   OH240111   1.187   5.763   0.580
13385TIP3    H140112   1.265   5.757   0.635
13385TIP3    H240113   1.209   5.827   0.513
13386TIP3   OH240114   1.803   6.205   0.342
13386TIP3    H140115   1.728   6.259   0.367
13386TIP3    H240116   1.874   6.268   0.329
13387TIP3   OH240117   1.562   6.351   0.423
13387TIP3    H140118   1.540   6.427   0.368
13387TIP3    H240119   1.549   6.381   0.512
13388TIP3   OH240120   1.246   5.954   0.387
13388TIP3    H140121   1.309   6.026   0.386
13388TIP3    H240122   1.284   5.888   0.330
13389TIP3   OH240123   1.082   5.190   0.558
13389TIP3    H140124   1.088   5.285   0.548
13389TIP3    H240125   1.166   5.164   0.596
13390TIP3   OH240126   1.066   6.153   0.809
13390TIP3    H140127   1.032   6.208   0.879
13390TIP3    H240128   1.065   6.209   0.731
13391TIP3   OH240129   1.724   6.270   0.056
13391TIP3    H140130   1.679   6.196   0.097
13391TIP3    H240131   1.799   6.230   0.012
13392TIP3   OH240132   7.800   2.291   6.879
13392TIP3    H140133   7.847   2.227   6.932
13392TIP3    H240134   7.851   2.297   6.798
13393TIP3   OH240135   1.387   5.761   0.259
13393TIP3    H140136   1.424   5.717   0.335
13393TIP3    H240137   1.460   5.766   0.197
13394TIP3   OH240138   1.911   6.026   0.103
13394TIP3    H140139   1.858   6.058   0.175
13394TIP3    H240140   1.901   5.931   0.106
13395TIP3   OH240141   1.539   6.594   0.278
13395TIP3    H140142   1.629   6.566   0.256
13395TIP3    H240143   1.499   6.611   0.193
13396TIP3   OH240144   0.978   5.926   0.410
13396TIP3    H140145   1.072   5.944   0.414
13396TIP3    H240146   0.972   5.833   0.389
13397TIP3   OH240147   0.924   6.524   0.890
13397TIP3    H140148   0.859   6.466   0.850
13397TIP3    H240149   0.974   6.466   0.949
13398TIP3   OH240150   1.068   6.354   1.057
13398TIP3    H140151   1.108   6.271   1.084
13398TIP3    H240152   1.094   6.416   1.125
13399TIP3   OH240153   1.018   6.325   0.600
13399TIP3    H140154   0.935   6.284   0.576
13399TIP3    H240155   1.011   6.415   0.566
13400TIP3   OH240156   1.785   6.494   0.210
13400TIP3    H140157   1.871   6.513   0.173
13400TIP3    H240158   1.752   6.420   0.160
13401TIP3   OH240159   1.098   6.310   0.257
13401TIP3    H140160   1.093   6.313   0.353
13401TIP3    H240161   1.179   6.262   0.238
13402TIP3   OH240162   5.277   7.210   1.252
13402TIP3    H140163   5.209   7.277   1.240
13402TIP3    H240164   5.295   7.179   1.163
13403TIP3   OH240165   5.268   7.645   1.156
13403TIP3    H140166   5.253   7.698   1.079
13403TIP3    H240167   5.210   7.570   1.145
13404TIP3   OH240168   6.772   7.133   1.526
13404TIP3    H140169   6.716   7.203   1.495
13404TIP3    H240170   6.712   7.063   1.552
13405TIP3   OH240171   7.007   7.540   1.501
13405TIP3    H140172   6.965   7.455   1.513
13405TIP3    H240173   7.041   7.563   1.588
13406TIP3   OH240174   6.628   7.949   1.480
13406TIP3    H140175   6.679   7.875   1.447
13406TIP3    H240176   6.604   7.925   1.569
13407TIP3   OH240177   6.580   7.334   1.416
13407TIP3    H140178   6.626   7.363   1.338
13407TIP3    H240179   6.550   7.415   1.458
13408TIP3   OH240180   6.775   7.774   1.316
13408TIP3    H140181   6.830   7.701   1.287
13408TIP3    H240182   6.818   7.852   1.281
13409TIP3   OH240183   6.963   7.599   1.222
13409TIP3    H140184   6.966   7.518   1.171
13409TIP3    H240185   6.990   7.573   1.310
13410TIP3   OH240186   6.593   6.961   1.174
13410TIP3    H140187   6.536   6.963   1.251
13410TIP3    H240188   6.657   7.030   1.190
13411TIP3   OH240189   6.583   6.894   0.906
13411TIP3    H140190   6.582   6.921   0.998
13411TIP3    H240191   6.639   6.816   0.904
13412TIP3   OH240192   6.805   7.111   1.247
13412TIP3    H140193   6.824   7.078   1.335
13412TIP3    H240194   6.889   7.110   1.202
13413TIP3   OH240195   6.871   6.931   0.993
13413TIP3    H140196   6.887   7.015   1.035
13413TIP3    H240197   6.850   6.952   0.902
13414TIP3   OH240198   6.533   7.602   1.448
13414TIP3    H140199   6.554   7.660   1.375
13414TIP3    H240200   6.440   7.619   1.466
13415TIP3   OH240201   7.227   6.210   1.009
13415TIP3    H140202   7.142   6.185   0.972
13415TIP3    H240203   7.233   6.304   0.994
13416TIP3   OH240204   7.095   7.566   0.647
13416TIP3    H140205   7.094   7.660   0.628
13416TIP3    H240206   7.186   7.539   0.629
13417TIP3   OH240207   6.480   7.969   1.053
13417TIP3    H140208   6.401   7.936   1.010
13417TIP3    H240209   6.455   8.054   1.089
13418TIP3   OH240210   6.602   7.800   0.748
13418TIP3    H140211   6.650   7.728   0.705
13418TIP3    H240212   6.642   7.806   0.835
13419TIP3   OH240213   6.709   7.832   1.002
13419TIP3    H140214   6.626   7.868   1.035
13419TIP3    H240215   6.768   7.834   1.076
13420TIP3   OH240216   6.823   7.018   0.746
13420TIP3    H140217   6.787   6.984   0.664
13420TIP3    H240218   6.911   7.048   0.723
13421TIP3   OH240219   6.508   6.388   1.053
13421TIP3    H140220   6.457   6.360   1.129
13421TIP3    H240221   6.554   6.309   1.025
13422TIP3   OH240222   6.742   6.771   1.393
13422TIP3    H140223   6.713   6.764   1.302
13422TIP3    H240224   6.818   6.829   1.390
13423TIP3   OH240225   6.193   6.365   1.056
13423TIP3    H140226   6.217   6.326   1.140
13423TIP3    H240227   6.118   6.421   1.077
13424TIP3   OH240228   6.012   6.468   1.249
13424TIP3    H140229   5.936   6.526   1.246
13424TIP3    H240230   6.081   6.522   1.288
13425TIP3   OH240231   6.297   7.173   1.311
13425TIP3    H140232   6.219   7.167   1.366
13425TIP3    H240233   6.304   7.266   1.289
13426TIP3   OH240234   6.856   6.472   0.960
13426TIP3    H140235   6.818   6.450   1.045
13426TIP3    H240236   6.915   6.546   0.978
13427TIP3   OH240237   6.986   6.694   1.038
13427TIP3    H140238   7.043   6.715   1.112
13427TIP3    H240239   6.969   6.778   0.996
13428TIP3   OH240240   6.534   7.386   0.916
13428TIP3    H140241   6.517   7.479   0.932
13428TIP3    H240242   6.552   7.350   1.003
13429TIP3   OH240243   7.341   6.833   0.829
13429TIP3    H140244   7.251   6.805   0.813
13429TIP3    H240245   7.333   6.926   0.850
13430TIP3   OH240246   7.033   7.644   0.908
13430TIP3    H140247   7.004   7.573   0.966
13430TIP3    H240248   7.045   7.603   0.823
13431TIP3   OH240249   6.065   7.738   1.349
13431TIP3    H140250   6.013   7.706   1.423
13431TIP3    H240251   6.064   7.833   1.360
13432TIP3   OH240252   6.787   7.426   0.807
13432TIP3    H140253   6.846   7.414   0.881
13432TIP3    H240254   6.702   7.396   0.838
13433TIP3   OH240255   7.101   7.840   0.619
13433TIP3    H140256   7.128   7.905   0.555
13433TIP3    H240257   7.026   7.880   0.664
13434TIP3   OH240258   6.961   7.390   1.025
13434TIP3    H140259   6.907   7.312   1.024
13434TIP3    H240260   7.051   7.357   1.021
13435TIP3   OH240261   6.142   7.341   0.722
13435TIP3    H140262   6.157   7.250   0.696
13435TIP3    H240263   6.159   7.342   0.816
13436TIP3   OH240264   5.975   7.476   1.136
13436TIP3    H140265   6.024   7.394   1.148
13436TIP3    H240266   6.035   7.532   1.087
13437TIP3   OH240267   6.940   6.525   1.349
13437TIP3    H140268   6.858   6.516   1.300
13437TIP3    H240269   6.930   6.608   1.396
13438TIP3   OH240270   6.453   7.632   0.976
13438TIP3    H140271   6.453   7.674   1.062
13438TIP3    H240272   6.409   7.694   0.919
13439TIP3   OH240273   6.202   7.636   1.140
13439TIP3    H140274   6.216   7.718   1.092
13439TIP3    H240275   6.155   7.662   1.219
13440TIP3   OH240276   5.835   7.229   1.139
13440TIP3    H140277   5.844   7.323   1.121
13440TIP3    H240278   5.923   7.200   1.159
13441TIP3   OH240279   1.402  -0.001   1.592
13441TIP3    H140280   1.358   0.050   1.523
13441TIP3    H240281   1.492  -0.010   1.561
13442TIP3   OH240282   6.302   7.559   0.689
13442TIP3    H140283   6.254   7.477   0.703
13442TIP3    H240284   6.380   7.534   0.640
13443TIP3   OH240285   6.733   7.604   0.616
13443TIP3    H140286   6.769   7.547   0.683
13443TIP3    H240287   6.791   7.593   0.541
13444TIP3   OH240288   5.989   7.134   0.896
13444TIP3    H140289   6.043   7.124   0.974
13444TIP3    H240290   6.043   7.098   0.825
13445TIP3   OH240291   6.445   7.258   0.693
13445TIP3    H140292   6.475   7.283   0.780
13445TIP3    H240293   6.454   7.163   0.691
13446TIP3   OH240294   6.119   6.968   1.151
13446TIP3    H140295   6.185   6.934   1.211
13446TIP3    H240296   6.142   6.931   1.065
13447TIP3   OH240297   6.192   6.689   1.084
13447TIP3    H140298   6.253   6.699   1.011
13447TIP3    H240299   6.247   6.661   1.157
13448TIP3   OH240300   7.072   7.105   0.663
13448TIP3    H140301   7.064   7.054   0.582
13448TIP3    H240302   7.038   7.191   0.641
13449TIP3   OH240303   6.015   7.906   0.880
13449TIP3    H140304   6.041   7.814   0.880
13449TIP3    H240305   6.034   7.936   0.791
13450TIP3   OH240306   5.567   7.210   1.098
13450TIP3    H140307   5.662   7.208   1.110
13450TIP3    H240308   5.544   7.119   1.075
13451TIP3   OH240309   1.674   0.047   1.535
13451TIP3    H140310   1.646   0.116   1.596
13451TIP3    H240311   1.726   0.093   1.469
13452TIP3   OH240312   7.228   7.317   1.006
13452TIP3    H140313   7.285   7.384   0.968
13452TIP3    H240314   7.278   7.283   1.080
13453TIP3   OH240315   7.374   7.187   1.194
13453TIP3    H140316   7.322   7.124   1.243
13453TIP3    H240317   7.443   7.214   1.254
13454TIP3   OH240318   7.455   7.606   1.658
13454TIP3    H140319   7.498   7.526   1.626
13454TIP3    H240320   7.396   7.631   1.587
13455TIP3   OH240321   7.280   7.102   0.840
13455TIP3    H140322   7.207   7.099   0.778
13455TIP3    H240323   7.264   7.181   0.891
13456TIP3   OH240324   7.087   6.758   0.755
13456TIP3    H140325   7.072   6.757   0.661
13456TIP3    H240326   7.098   6.665   0.778
13457TIP3   OH240327   7.251   6.982   1.318
13457TIP3    H140328   7.234   6.892   1.290
13457TIP3    H240329   7.218   6.986   1.407
13458TIP3   OH240330   7.125   6.488   0.750
13458TIP3    H140331   7.210   6.476   0.793
13458TIP3    H240332   7.073   6.413   0.777
13459TIP3   OH240333   7.138   6.717   1.263
13459TIP3    H140334   7.168   6.665   1.338
13459TIP3    H240335   7.212   6.716   1.202
13460TIP3   OH240336   7.257   6.373   1.329
13460TIP3    H140337   7.224   6.388   1.418
13460TIP3    H240338   7.184   6.396   1.272
13461TIP3   OH240339   7.364   6.424   0.872
13461TIP3    H140340   7.410   6.355   0.824
13461TIP3    H240341   7.425   6.498   0.872
13462TIP3   OH240342   6.897   7.971   1.176
13462TIP3    H140343   6.958   7.954   1.104
13462TIP3    H240344   6.946   8.028   1.236
13463TIP3   OH240345   6.916   6.272   1.180
13463TIP3    H140346   6.874   6.318   1.253
13463TIP3    H240347   6.979   6.214   1.223
13464TIP3   OH240348   5.542   7.700   1.332
13464TIP3    H140349   5.549   7.681   1.239
13464TIP3    H240350   5.520   7.793   1.336
13465TIP3   OH240351   6.334   7.811   0.802
13465TIP3    H140352   6.422   7.823   0.768
13465TIP3    H240353   6.300   7.734   0.755
13466TIP3   OH240354   7.053   7.912   0.954
13466TIP3    H140355   7.050   7.817   0.946
13466TIP3    H240356   7.009   7.944   0.875
13467TIP3   OH240357   5.744   7.613   0.935
13467TIP3    H140358   5.670   7.603   0.995
13467TIP3    H240359   5.776   7.523   0.922
13468TIP3   OH240360   0.042   7.430   0.896
13468TIP3    H140361   0.009   7.518   0.875
13468TIP3    H240362  -0.027   7.371   0.867
13469TIP3   OH240363   0.040   7.434   1.313
13469TIP3    H140364   0.086   7.408   1.393
13469TIP3    H240365  -0.000   7.353   1.281
13470TIP3   OH240366   7.855   7.357   1.620
13470TIP3    H140367   7.849   7.293   1.691
13470TIP3    H240368   7.940   7.341   1.580
13471TIP3   OH240369   0.304   7.725   0.985
13471TIP3    H140370   0.289   7.662   1.055
13471TIP3    H240371   0.326   7.806   1.030
13472TIP3   OH240372   7.805   7.733   1.390
13472TIP3    H140373   7.714   7.730   1.421
13472TIP3    H240374   7.823   7.643   1.360
13473TIP3   OH240375   7.520   6.964   1.108
13473TIP3    H140376   7.469   7.045   1.115
13473TIP3    H240377   7.530   6.935   1.198
13474TIP3   OH240378   7.608   7.220   1.335
13474TIP3    H140379   7.648   7.149   1.385
13474TIP3    H240380   7.661   7.225   1.255
13475TIP3   OH240381   2.798   0.145   1.003
13475TIP3    H140382   2.822   0.083   0.934
13475TIP3    H240383   2.815   0.097   1.084
13476TIP3   OH240384   8.349   7.651   1.336
13476TIP3    H140385   8.387   7.571   1.300
13476TIP3    H240386   8.424   7.708   1.352
13477TIP3   OH240387   0.838   6.987   1.311
13477TIP3    H140388   0.864   7.054   1.374
13477TIP3    H240389   0.850   7.028   1.226
13478TIP3   OH240390   0.252   7.133   1.362
13478TIP3    H140391   0.292   7.049   1.382
13478TIP3    H240392   0.216   7.122   1.273
13479TIP3   OH240393   8.128   6.794   1.314
13479TIP3    H140394   8.107   6.877   1.271
13479TIP3    H240395   8.068   6.731   1.275
13480TIP3   OH240396   0.305   6.898   0.947
13480TIP3    H140397   0.373   6.887   1.014
13480TIP3    H240398   0.352   6.932   0.871
13481TIP3   OH240399   7.743   7.015   1.444
13481TIP3    H140400   7.820   6.976   1.486
13481TIP3    H240401   7.700   6.942   1.400
13482TIP3   OH240402   8.168   7.222   1.246
13482TIP3    H140403   8.263   7.210   1.245
13482TIP3    H240404   8.134   7.138   1.215
13483TIP3   OH240405   0.888   7.174   1.502
13483TIP3    H140406   0.806   7.223   1.494
13483TIP3    H240407   0.911   7.180   1.595
13484TIP3   OH240408   8.410   7.641   0.778
13484TIP3    H140409   8.385   7.624   0.687
13484TIP3    H240410   8.368   7.724   0.799
13485TIP3   OH240411   8.222   7.557   1.564
13485TIP3    H140412   8.155   7.623   1.583
13485TIP3    H240413   8.272   7.595   1.491
13486TIP3   OH240414   0.480   6.907   1.154
13486TIP3    H140415   0.438   6.884   1.237
13486TIP3    H240416   0.529   6.987   1.173
13487TIP3   OH240417   7.973   6.896   1.533
13487TIP3    H140418   8.042   6.955   1.567
13487TIP3    H240419   8.020   6.833   1.478
13488TIP3   OH240420   8.016   7.743   1.627
13488TIP3    H140421   8.062   7.804   1.685
13488TIP3    H240422   7.961   7.691   1.686
13489TIP3   OH240423   7.410   7.484   0.882
13489TIP3    H140424   7.379   7.499   0.793
13489TIP3    H240425   7.435   7.570   0.915
13490TIP3   OH240426   0.339   7.970   1.125
13490TIP3    H140427   0.249   7.966   1.159
13490TIP3    H240428   0.342   8.052   1.076
13491TIP3   OH240429   0.617   6.912   1.482
13491TIP3    H140430   0.529   6.905   1.444
13491TIP3    H240431   0.672   6.941   1.410
13492TIP3   OH240432   8.462   6.509   1.475
13492TIP3    H140433   8.451   6.416   1.454
13492TIP3    H240434   8.385   6.531   1.528
13493TIP3   OH240435   0.049   8.006   0.786
13493TIP3    H140436   0.098   7.925   0.773
13493TIP3    H240437   0.107   8.076   0.756
13494TIP3   OH240438   0.201   7.788   0.733
13494TIP3    H140439   0.198   7.709   0.679
13494TIP3    H240440   0.240   7.758   0.816
13495TIP3   OH240441   0.563   7.866   1.479
13495TIP3    H140442   0.552   7.791   1.420
13495TIP3    H240443   0.552   7.943   1.423
13496TIP3   OH240444   8.368   7.273   0.743
13496TIP3    H140445   8.287   7.321   0.725
13496TIP3    H240446   8.413   7.271   0.659
13497TIP3   OH240447   8.337   7.071   0.442
13497TIP3    H140448   8.403   7.122   0.490
13497TIP3    H240449   8.388   7.008   0.391
13498TIP3   OH240450   0.752   7.520   1.318
13498TIP3    H140451   0.671   7.570   1.324
13498TIP3    H240452   0.785   7.537   1.230
13499TIP3   OH240453   0.226   7.362   0.704
13499TIP3    H140454   0.171   7.389   0.778
13499TIP3    H240455   0.308   7.335   0.745
13500TIP3   OH240456   0.442   7.376   1.625
13500TIP3    H140457   0.454   7.459   1.672
13500TIP3    H240458   0.357   7.385   1.582
13501TIP3   OH240459   7.956   7.340   1.106
13501TIP3    H140460   7.918   7.279   1.042
13501TIP3    H240461   8.031   7.293   1.142
13502TIP3   OH240462   8.091   7.763   1.306
13502TIP3    H140463   8.060   7.750   1.217
13502TIP3    H240464   8.180   7.728   1.307
13503TIP3   OH240465   8.095   7.322   1.492
13503TIP3    H140466   8.116   7.299   1.402
13503TIP3    H240467   8.144   7.402   1.509
13504TIP3   OH240468   0.094   7.977   1.247
13504TIP3    H140469   0.092   8.054   1.303
13504TIP3    H240470   0.094   7.903   1.307
13505TIP3   OH240471   8.189   7.901   1.787
13505TIP3    H140472   8.162   7.969   1.848
13505TIP3    H240473   8.234   7.836   1.842
13506TIP3   OH240474   0.058   7.219   0.539
13506TIP3    H140475   0.117   7.277   0.587
13506TIP3    H240476   0.084   7.230   0.447
13507TIP3   OH240477   8.296   7.897   0.809
13507TIP3    H140478   8.382   7.938   0.807
13507TIP3    H240479   8.242   7.951   0.750
13508TIP3   OH240480   0.576   6.450   0.598
13508TIP3    H140481   0.496   6.467   0.648
13508TIP3    H240482   0.587   6.526   0.542
13509TIP3   OH240483   7.825   7.178   0.916
13509TIP3    H140484   7.750   7.225   0.880
13509TIP3    H240485   7.791   7.091   0.938
13510TIP3   OH240486   0.390   7.822   0.146
13510TIP3    H140487   0.388   7.916   0.124
13510TIP3    H240488   0.480   7.795   0.125
13511TIP3   OH240489   7.428   7.808   1.462
13511TIP3    H140490   7.498   7.801   1.527
13511TIP3    H240491   7.373   7.881   1.493
13512TIP3   OH240492   3.637   0.193   1.555
13512TIP3    H140493   3.655   0.100   1.568
13512TIP3    H240494   3.543   0.201   1.570
13513TIP3   OH240495   2.751  -0.001   1.654
13513TIP3    H140496   2.760   0.088   1.687
13513TIP3    H240497   2.666  -0.030   1.686
13514TIP3   OH240498   2.528   0.104   0.622
13514TIP3    H140499   2.483   0.084   0.539
13514TIP3    H240500   2.493   0.189   0.648
13515TIP3   OH240501   7.628   7.978   0.989
13515TIP3    H140502   7.671   7.970   1.074
13515TIP3    H240503   7.578   7.897   0.979
13516TIP3   OH240504   2.729   0.032   0.248
13516TIP3    H140505   2.779  -0.042   0.213
13516TIP3    H240506   2.764   0.044   0.336
13517TIP3   OH240507   2.781   0.077   0.518
13517TIP3    H140508   2.696   0.080   0.561
13517TIP3    H240509   2.841   0.043   0.584
13518TIP3   OH240510   0.732   7.334   1.735
13518TIP3    H140511   0.645   7.371   1.751
13518TIP3    H240512   0.719   7.240   1.737
13519TIP3   OH240513   0.432   7.144   1.771
13519TIP3    H140514   0.388   7.173   1.851
13519TIP3    H240515   0.430   7.221   1.714
13520TIP3   OH240516   0.141   7.232   0.281
13520TIP3    H140517   0.094   7.222   0.198
13520TIP3    H240518   0.224   7.273   0.256
13521TIP3   OH240519   8.351   6.620   0.588
13521TIP3    H140520   8.312   6.629   0.676
13521TIP3    H240521   8.311   6.541   0.552
13522TIP3   OH240522   8.162   7.087   1.615
13522TIP3    H140523   8.138   7.106   1.706
13522TIP3    H240524   8.136   7.165   1.566
13523TIP3   OH240525   8.050   6.999   1.145
13523TIP3    H140526   7.958   6.983   1.165
13523TIP3    H240527   8.063   6.961   1.058
13524TIP3   OH240528   0.002   7.074   0.877
13524TIP3    H140529  -0.048   7.144   0.836
13524TIP3    H240530   0.058   7.040   0.806
13525TIP3   OH240531   0.164   7.087   1.102
13525TIP3    H140532   0.100   7.111   1.034
13525TIP3    H240533   0.211   7.011   1.065
13526TIP3   OH240534   8.018   6.611   0.566
13526TIP3    H140535   8.007   6.620   0.661
13526TIP3    H240536   7.941   6.653   0.529
13527TIP3   OH240537   7.584   6.819   1.332
13527TIP3    H140538   7.513   6.816   1.396
13527TIP3    H240539   7.581   6.733   1.289
13528TIP3   OH240540   7.531   6.641   0.891
13528TIP3    H140541   7.584   6.669   0.816
13528TIP3    H240542   7.458   6.703   0.893
13529TIP3   OH240543   0.176   7.330   1.534
13529TIP3    H140544   0.204   7.260   1.475
13529TIP3    H240545   0.166   7.287   1.619
13530TIP3   OH240546   8.382   6.788   1.196
13530TIP3    H140547   8.302   6.791   1.248
13530TIP3    H240548   8.452   6.793   1.261
13531TIP3   OH240549   7.805   6.892   1.154
13531TIP3    H140550   7.710   6.886   1.149
13531TIP3    H240551   7.835   6.802   1.165
13532TIP3   OH240552   8.041   6.868   0.900
13532TIP3    H140553   8.134   6.883   0.880
13532TIP3    H240554   7.995   6.889   0.819
13533TIP3   OH240555   0.346   6.872   1.398
13533TIP3    H140556   0.332   6.881   1.493
13533TIP3    H240557   0.275   6.815   1.369
13534TIP3   OH240558   7.907   6.896   0.663
13534TIP3    H140559   7.844   6.845   0.612
13534TIP3    H240560   7.962   6.940   0.598
13535TIP3   OH240561   3.356   0.548   1.721
13535TIP3    H140562   3.279   0.574   1.670
13535TIP3    H240563   3.382   0.628   1.767
13536TIP3   OH240564   8.441   7.173   1.274
13536TIP3    H140565   8.505   7.124   1.223
13536TIP3    H240566   8.439   7.129   1.359
13537TIP3   OH240567   7.937   6.644   1.183
13537TIP3    H140568   7.912   6.578   1.248
13537TIP3    H240569   7.947   6.594   1.102
13538TIP3   OH240570   8.419   7.054   1.519
13538TIP3    H140571   8.328   7.058   1.548
13538TIP3    H240572   8.468   7.029   1.597
13539TIP3   OH240573   8.131   7.416   0.689
13539TIP3    H140574   8.059   7.356   0.670
13539TIP3    H240575   8.107   7.456   0.772
13540TIP3   OH240576   0.519   7.664   1.296
13540TIP3    H140577   0.553   7.715   1.223
13540TIP3    H240578   0.439   7.624   1.263
13541TIP3   OH240579   0.102   6.725   0.587
13541TIP3    H140580   0.009   6.702   0.582
13541TIP3    H240581   0.103   6.820   0.595
13542TIP3   OH240582   0.024   7.747   1.671
13542TIP3    H140583   0.076   7.731   1.750
13542TIP3    H240584  -0.003   7.839   1.678
13543TIP3   OH240585   0.161   6.990   0.661
13543TIP3    H140586   0.257   6.995   0.666
13543TIP3    H240587   0.137   7.065   0.607
13544TIP3   OH240588   7.861   7.478   1.326
13544TIP3    H140589   7.890   7.431   1.247
13544TIP3    H240590   7.850   7.410   1.392
13545TIP3   OH240591   8.287   7.573   0.529
13545TIP3    H140592   8.241   7.657   0.528
13545TIP3    H240593   8.232   7.516   0.582
13546TIP3   OH240594   3.025   0.024   1.576
13546TIP3    H140595   2.930   0.016   1.585
13546TIP3    H240596   3.054   0.058   1.660
13547TIP3   OH240597   0.586   7.082   0.485
13547TIP3    H140598   0.529   7.034   0.424
13547TIP3    H240599   0.588   7.171   0.450
13548TIP3   OH240600   0.811   7.935   1.572
13548TIP3    H140601   0.717   7.924   1.559
13548TIP3    H240602   0.850   7.898   1.493
13549TIP3   OH240603   0.315   7.894   0.408
13549TIP3    H140604   0.285   7.822   0.463
13549TIP3    H240605   0.333   7.853   0.323
13550TIP3   OH240606   0.289   7.532   1.200
13550TIP3    H140607   0.198   7.508   1.221
13550TIP3    H240608   0.325   7.453   1.161
13551TIP3   OH240609   7.948   7.775   1.037
13551TIP3    H140610   7.948   7.847   0.975
13551TIP3    H240611   7.868   7.726   1.018
13552TIP3   OH240612   7.522   7.068   0.706
13552TIP3    H140613   7.568   7.149   0.729
13552TIP3    H240614   7.439   7.074   0.754
13553TIP3   OH240615   8.041   7.529   0.919
13553TIP3    H140616   8.042   7.616   0.961
13553TIP3    H240617   8.013   7.470   0.988
13554TIP3   OH240618   2.572   0.069   1.431
13554TIP3    H140619   2.600   0.149   1.386
13554TIP3    H240620   2.649   0.041   1.480
13555TIP3   OH240621   2.204  -0.026   0.861
13555TIP3    H140622   2.114  -0.019   0.891
13555TIP3    H240623   2.235   0.065   0.859
13556TIP3   OH240624   0.099   7.750   1.408
13556TIP3    H140625   0.080   7.739   1.502
13556TIP3    H240626   0.166   7.685   1.389
13557TIP3   OH240627   0.076   7.630   0.307
13557TIP3    H140628   0.119   7.611   0.390
13557TIP3    H240629  -0.010   7.588   0.315
13558TIP3   OH240630   3.168   0.249   1.469
13558TIP3    H140631   3.099   0.184   1.478
13558TIP3    H240632   3.144   0.300   1.391
13559TIP3   OH240633   3.228   0.082   0.110
13559TIP3    H140634   3.253   0.144   0.041
13559TIP3    H240635   3.155   0.125   0.155
13560TIP3   OH240636   0.244   7.576   0.528
13560TIP3    H140637   0.229   7.501   0.586
13560TIP3    H240638   0.337   7.571   0.506
13561TIP3   OH240639   7.643   7.947   1.612
13561TIP3    H140640   7.624   7.893   1.688
13561TIP3    H240641   7.649   8.036   1.647
13562TIP3   OH240642   7.929   7.596   0.310
13562TIP3    H140643   7.938   7.505   0.282
13562TIP3    H240644   7.910   7.591   0.403
13563TIP3   OH240645   7.873   7.613   0.582
13563TIP3    H140646   7.945   7.584   0.638
13563TIP3    H240647   7.874   7.709   0.590
13564TIP3   OH240648   7.614   7.313   0.797
13564TIP3    H140649   7.545   7.358   0.846
13564TIP3    H240650   7.632   7.370   0.722
13565TIP3   OH240651   0.305   6.924   1.662
13565TIP3    H140652   0.352   7.001   1.694
13565TIP3    H240653   0.265   6.885   1.739
13566TIP3   OH240654   0.163   6.680   0.852
13566TIP3    H140655   0.140   6.697   0.761
13566TIP3    H240656   0.203   6.761   0.883
13567TIP3   OH240657   8.145   7.804   0.530
13567TIP3    H140658   8.060   7.827   0.565
13567TIP3    H240659   8.166   7.874   0.468
13568TIP3   OH240660   8.321   6.877   0.939
13568TIP3    H140661   8.382   6.947   0.917
13568TIP3    H240662   8.337   6.860   1.032
13569TIP3   OH240663   0.133   7.232   1.791
13569TIP3    H140664   0.066   7.299   1.804
13569TIP3    H240665   0.109   7.162   1.851
13570TIP3   OH240666   8.477   6.584   1.028
13570TIP3    H140667   8.455   6.663   1.079
13570TIP3    H240668   8.546   6.613   0.968
13571TIP3   OH240669   7.893   7.886   0.604
13571TIP3    H140670   7.870   7.956   0.543
13571TIP3    H240671   7.883   7.925   0.690
13572TIP3   OH240672   7.988   6.598   0.850
13572TIP3    H140673   7.978   6.689   0.877
13572TIP3    H240674   8.082   6.582   0.851
13573TIP3   OH240675   0.682   7.050   1.719
13573TIP3    H140676   0.590   7.074   1.737
13573TIP3    H240677   0.678   7.001   1.637
13574TIP3   OH240678   0.379   7.279   1.104
13574TIP3    H140679   0.303   7.221   1.112
13574TIP3    H240680   0.447   7.235   1.155
13575TIP3   OH240681   7.624   7.488   0.578
13575TIP3    H140682   7.696   7.551   0.585
13575TIP3    H240683   7.656   7.423   0.515
13576TIP3   OH240684   7.565   6.797   0.665
13576TIP3    H140685   7.589   6.888   0.681
13576TIP3    H240686   7.474   6.790   0.693
13577TIP3   OH240687   3.187   0.220   1.039
13577TIP3    H140688   3.141   0.271   0.972
13577TIP3    H240689   3.280   0.234   1.021
13578TIP3   OH240690   7.463   7.749   0.967
13578TIP3    H140691   7.416   7.784   1.043
13578TIP3    H240692   7.420   7.789   0.892
13579TIP3   OH240693   8.087   7.798   0.207
13579TIP3    H140694   8.038   7.726   0.248
13579TIP3    H240695   8.161   7.755   0.164
13580TIP3   OH240696   3.145   0.102   1.813
13580TIP3    H140697   3.195   0.020   1.821
13580TIP3    H240698   3.207   0.170   1.838
13581TIP3   OH240699   0.025   7.836   0.130
13581TIP3    H140700   0.060   7.770   0.191
13581TIP3    H240701   0.083   7.830   0.053
13582TIP3   OH240702   7.752   7.295   0.435
13582TIP3    H140703   7.804   7.269   0.511
13582TIP3    H240704   7.816   7.305   0.364
13583TIP3   OH240705   8.313   7.516   0.262
13583TIP3    H140706   8.292   7.528   0.354
13583TIP3    H240707   8.299   7.422   0.246
13584TIP3   OH240708   0.357   7.823   1.654
13584TIP3    H140709   0.437   7.835   1.602
13584TIP3    H240710   0.292   7.879   1.613
13585TIP3   OH240711   7.929   7.229   0.647
13585TIP3    H140712   7.905   7.193   0.732
13585TIP3    H240713   7.975   7.158   0.602
13586TIP3   OH240714   8.063   7.041   0.489
13586TIP3    H140715   8.032   7.044   0.399
13586TIP3    H240716   8.158   7.047   0.483
13587TIP3   OH240717   0.368   7.340   0.164
13587TIP3    H140718   0.351   7.297   0.080
13587TIP3    H240719   0.341   7.431   0.150
13588TIP3   OH240720   8.410   7.401   1.712
13588TIP3    H140721   8.466   7.394   1.634
13588TIP3    H240722   8.338   7.457   1.685
13589TIP3   OH240723   0.493   7.604   1.760
13589TIP3    H140724   0.436   7.677   1.735
13589TIP3    H240725   0.581   7.642   1.759
13590TIP3   OH240726   2.215   0.079   0.418
13590TIP3    H140727   2.305   0.060   0.391
13590TIP3    H240728   2.177   0.124   0.343
13591TIP3   OH240729   7.352   7.474   0.601
13591TIP3    H140730   7.447   7.487   0.592
13591TIP3    H240731   7.336   7.388   0.561
13592TIP3   OH240732   1.590   0.056   1.045
13592TIP3    H140733   1.524   0.003   0.999
13592TIP3    H240734   1.636  -0.006   1.101
13593TIP3   OH240735   7.406   7.905   1.206
13593TIP3    H140736   7.392   7.842   1.277
13593TIP3    H240737   7.457   7.975   1.246
13594TIP3   OH240738   3.445   0.294   1.007
13594TIP3    H140739   3.481   0.283   1.095
13594TIP3    H240740   3.471   0.382   0.981
13595TIP3   OH240741   3.512   0.277   1.272
13595TIP3    H140742   3.469   0.193   1.289
13595TIP3    H240743   3.495   0.328   1.351
13596TIP3   OH240744   0.520   7.546   0.493
13596TIP3    H140745   0.581   7.613   0.462
13596TIP3    H240746   0.563   7.507   0.569
13597TIP3   OH240747   0.644   7.408   0.696
13597TIP3    H140748   0.580   7.368   0.755
13597TIP3    H240749   0.708   7.448   0.754
13598TIP3   OH240750   0.689   7.800   1.128
13598TIP3    H140751   0.745   7.733   1.087
13598TIP3    H240752   0.678   7.866   1.059
13599TIP3   OH240753   3.341   0.065   1.317
13599TIP3    H140754   3.275   0.118   1.362
13599TIP3    H240755   3.294   0.024   1.245
13600TIP3   OH240756   0.575   7.320   0.343
13600TIP3    H140757   0.506   7.316   0.277
13600TIP3    H240758   0.554   7.397   0.396
13601TIP3   OH240759   0.436   6.970   0.288
13601TIP3    H140760   0.393   7.012   0.214
13601TIP3    H240761   0.419   6.877   0.276
13602TIP3   OH240762   0.452   7.262   0.837
13602TIP3    H140763   0.458   7.168   0.826
13602TIP3    H240764   0.431   7.274   0.930
13603TIP3   OH240765   7.594   7.404   1.541
13603TIP3    H140766   7.587   7.341   1.469
13603TIP3    H240767   7.682   7.390   1.576
13604TIP3   OH240768   0.741   7.719   1.740
13604TIP3    H140769   0.814   7.657   1.734
13604TIP3    H240770   0.773   7.798   1.696
13605TIP3   OH240771   0.931   7.518   1.717
13605TIP3    H140772   0.862   7.452   1.715
13605TIP3    H240773   0.975   7.503   1.801
13606TIP3   OH240774   0.386   6.702   0.264
13606TIP3    H140775   0.447   6.670   0.331
13606TIP3    H240776   0.303   6.660   0.287
13607TIP3   OH240777   0.453   6.983   0.722
13607TIP3    H140778   0.499   6.900   0.735
13607TIP3    H240779   0.498   7.024   0.648
13608TIP3   OH240780   0.592   7.149   1.227
13608TIP3    H140781   0.675   7.168   1.182
13608TIP3    H240782   0.601   7.192   1.312
13609TIP3   OH240783   0.646   7.300   1.448
13609TIP3    H140784   0.580   7.329   1.510
13609TIP3    H240785   0.681   7.381   1.410
13610TIP3   OH240786   0.568   6.728   0.775
13610TIP3    H140787   0.604   6.717   0.863
13610TIP3    H240788   0.503   6.658   0.766
13611TIP3   OH240789   0.624   6.651   0.417
13611TIP3    H140790   0.662   6.590   0.354
13611TIP3    H240791   0.676   6.731   0.408
13612TIP3   OH240792   7.594   6.609   1.151
13612TIP3    H140793   7.542   6.530   1.167
13612TIP3    H240794   7.578   6.630   1.059
13613TIP3   OH240795   3.027   0.191   0.676
13613TIP3    H140796   3.084   0.180   0.600
13613TIP3    H240797   3.068   0.260   0.728
13614TIP3   OH240798   2.321  -0.011   1.496
13614TIP3    H140799   2.269   0.070   1.503
13614TIP3    H240800   2.412   0.020   1.490
13615TIP3   OH240801   2.794   0.255   1.746
13615TIP3    H140802   2.828   0.269   1.835
13615TIP3    H240803   2.846   0.314   1.691
13616TIP3   OH240804   2.954   0.426   1.604
13616TIP3    H140805   3.016   0.372   1.555
13616TIP3    H240806   2.994   0.513   1.607
13617TIP3   OH240807   1.980   0.253   1.638
13617TIP3    H140808   1.898   0.294   1.609
13617TIP3    H240809   1.997   0.292   1.724
13618TIP3   OH240810   2.222   0.249   1.495
13618TIP3    H140811   2.138   0.255   1.541
13618TIP3    H240812   2.205   0.289   1.410
13619TIP3   OH240813   2.644   0.291   1.288
13619TIP3    H140814   2.580   0.313   1.220
13619TIP3    H240815   2.659   0.374   1.334
13620TIP3   OH240816   2.908   0.222   1.342
13620TIP3    H140817   2.817   0.244   1.321
13620TIP3    H240818   2.959   0.288   1.294
13621TIP3   OH240819   3.110   0.392   1.238
13621TIP3    H140820   3.096   0.475   1.191
13621TIP3    H240821   3.139   0.331   1.171
13622TIP3   OH240822   1.909   0.063   1.362
13622TIP3    H140823   1.920   0.021   1.447
13622TIP3    H240824   1.983   0.033   1.310
13623TIP3   OH240825   7.780   7.966   1.221
13623TIP3    H140826   7.797   7.876   1.251
13623TIP3    H240827   7.867   8.003   1.208
13624TIP3   OH240828   2.384   0.047   1.204
13624TIP3    H140829   2.430  -0.014   1.147
13624TIP3    H240830   2.437   0.049   1.284
13625TIP3   OH240831   0.123   6.705   1.330
13625TIP3    H140832   0.079   6.633   1.375
13625TIP3    H240833   0.187   6.662   1.273
13626TIP3   OH240834   0.610   6.595   1.250
13626TIP3    H140835   0.642   6.645   1.175
13626TIP3    H240836   0.515   6.602   1.244
13627TIP3   OH240837   0.730   6.677   1.015
13627TIP3    H140838   0.797   6.628   0.967
13627TIP3    H240839   0.746   6.768   0.992
13628TIP3   OH240840   7.877   6.448   1.370
13628TIP3    H140841   7.784   6.424   1.375
13628TIP3    H240842   7.917   6.376   1.320
13629TIP3   OH240843   7.636   6.295   0.889
13629TIP3    H140844   7.674   6.326   0.807
13629TIP3    H240845   7.675   6.351   0.957
13630TIP3   OH240846   8.330   6.460   1.224
13630TIP3    H140847   8.373   6.499   1.148
13630TIP3    H240848   8.359   6.513   1.298
13631TIP3   OH240849   0.332   6.585   1.189
13631TIP3    H140850   0.345   6.559   1.098
13631TIP3    H240851   0.306   6.505   1.234
13632TIP3   OH240852   0.379   6.522   0.778
13632TIP3    H140853   0.299   6.570   0.797
13632TIP3    H240854   0.365   6.435   0.816
13633TIP3   OH240855   7.344   7.868   0.753
13633TIP3    H140856   7.260   7.833   0.724
13633TIP3    H240857   7.345   7.958   0.722
13634TIP3   OH240858   7.788   6.448   0.717
13634TIP3    H140859   7.840   6.398   0.653
13634TIP3    H240860   7.854   6.495   0.769
13635TIP3   OH240861   8.262   6.625   0.851
13635TIP3    H140862   8.326   6.576   0.902
13635TIP3    H240863   8.276   6.716   0.875
13636TIP3   OH240864   8.140   8.023   0.351
13636TIP3    H140865   8.223   8.051   0.313
13636TIP3    H240866   8.111   7.952   0.294
13637TIP3   OH240867   3.179   0.149   0.448
13637TIP3    H140868   3.174   0.053   0.439
13637TIP3    H240869   3.136   0.182   0.369
13638TIP3   OH240870   7.444   7.867   0.405
13638TIP3    H140871   7.445   7.874   0.501
13638TIP3    H240872   7.525   7.820   0.384
13639TIP3   OH240873   3.380   0.161   1.632
13639TIP3    H140874   3.294   0.177   1.593
13639TIP3    H240875   3.378   0.207   1.716
13640TIP3   OH240876   1.813   7.671   0.411
13640TIP3    H140877   1.803   7.764   0.388
13640TIP3    H240878   1.751   7.625   0.355
13641TIP3   OH240879   1.832   7.676   0.736
13641TIP3    H140880   1.860   7.594   0.778
13641TIP3    H240881   1.809   7.650   0.647
13642TIP3   OH240882   1.130   7.582   1.115
13642TIP3    H140883   1.168   7.503   1.154
13642TIP3    H240884   1.173   7.655   1.160
13643TIP3   OH240885   2.094   7.983   0.442
13643TIP3    H140886   2.079   7.924   0.516
13643TIP3    H240887   2.118   8.067   0.483
13644TIP3   OH240888   1.117   7.946   0.827
13644TIP3    H140889   1.096   7.853   0.838
13644TIP3    H240890   1.212   7.948   0.815
13645TIP3   OH240891   0.807   7.195   0.621
13645TIP3    H140892   0.764   7.278   0.644
13645TIP3    H240893   0.738   7.142   0.582
13646TIP3   OH240894   0.876   7.494   0.822
13646TIP3    H140895   0.927   7.417   0.849
13646TIP3    H240896   0.942   7.560   0.803
13647TIP3   OH240897   4.591   0.427   0.459
13647TIP3    H140898   4.619   0.349   0.411
13647TIP3    H240899   4.606   0.406   0.551
13648TIP3   OH240900   1.652   7.893   0.797
13648TIP3    H140901   1.700   7.813   0.774
13648TIP3    H240902   1.721   7.956   0.820
13649TIP3   OH240903   1.336   6.975   0.704
13649TIP3    H140904   1.313   7.066   0.683
13649TIP3    H240905   1.264   6.943   0.757
13650TIP3   OH240906   2.010   7.167   0.419
13650TIP3    H140907   2.079   7.109   0.450
13650TIP3    H240908   2.052   7.220   0.351
13651TIP3   OH240909   1.017   7.276   0.915
13651TIP3    H140910   1.106   7.266   0.947
13651TIP3    H240911   1.008   7.212   0.846
13652TIP3   OH240912   1.450   7.437   0.706
13652TIP3    H140913   1.536   7.407   0.732
13652TIP3    H240914   1.402   7.357   0.683
13653TIP3   OH240915   1.347   7.042   1.246
13653TIP3    H140916   1.344   7.121   1.192
13653TIP3    H240917   1.437   7.039   1.279
13654TIP3   OH240918   1.741   7.897   0.250
13654TIP3    H140919   1.698   7.869   0.170
13654TIP3    H240920   1.690   7.972   0.280
13655TIP3   OH240921   1.487   7.812   1.005
13655TIP3    H140922   1.433   7.876   1.051
13655TIP3    H240923   1.530   7.862   0.936
13656TIP3   OH240924   1.263   7.165   0.982
13656TIP3    H140925   1.312   7.242   1.010
13656TIP3    H240926   1.330   7.099   0.966
13657TIP3   OH240927   1.328   7.972   1.149
13657TIP3    H140928   1.269   8.033   1.105
13657TIP3    H240929   1.275   7.932   1.218
13658TIP3   OH240930   0.704   7.724   0.378
13658TIP3    H140931   0.669   7.741   0.290
13658TIP3    H240932   0.726   7.811   0.412
13659TIP3   OH240933   5.001   0.193   0.591
13659TIP3    H140934   4.915   0.181   0.630
13659TIP3    H240935   4.998   0.279   0.550
13660TIP3   OH240936   4.684   0.245   0.266
13660TIP3    H140937   4.736   0.167   0.248
13660TIP3    H240938   4.739   0.318   0.239
13661TIP3   OH240939   1.983   8.027   0.195
13661TIP3    H140940   1.904   7.972   0.206
13661TIP3    H240941   2.035   8.009   0.273
13662TIP3   OH240942   1.657   7.556   0.209
13662TIP3    H140943   1.571   7.598   0.200
13662TIP3    H240944   1.696   7.563   0.122
13663TIP3   OH240945   7.310   3.295   6.876
13663TIP3    H140946   7.373   3.353   6.921
13663TIP3    H240947   7.364   3.240   6.820
13664TIP3   OH240948   2.005   7.612   0.210
13664TIP3    H140949   1.951   7.639   0.284
13664TIP3    H240950   2.090   7.592   0.248
13665TIP3   OH240951   1.247   7.595   0.608
13665TIP3    H140952   1.202   7.539   0.545
13665TIP3    H240953   1.324   7.545   0.634
13666TIP3   OH240954   1.384   7.952   0.730
13666TIP3    H140955   1.370   7.947   0.636
13666TIP3    H240956   1.478   7.934   0.741
13667TIP3   OH240957   1.386   7.568   0.943
13667TIP3    H140958   1.411   7.549   0.853
13667TIP3    H240959   1.418   7.657   0.958
13668TIP3   OH240960   4.751   0.176   0.693
13668TIP3    H140961   4.743   0.267   0.721
13668TIP3    H240962   4.725   0.125   0.769
13669TIP3   OH240963   4.332   0.106   1.315
13669TIP3    H140964   4.279   0.180   1.346
13669TIP3    H240965   4.273   0.057   1.257
13670TIP3   OH240966   1.859   7.478   0.016
13670TIP3    H140967   1.909   7.533   0.076
13670TIP3    H240968   1.882   7.510  -0.072
13671TIP3   OH240969   1.236   7.646   1.375
13671TIP3    H140970   1.254   7.719   1.435
13671TIP3    H240971   1.143   7.627   1.387
13672TIP3   OH240972   4.437   0.121   0.288
13672TIP3    H140973   4.516   0.175   0.291
13672TIP3    H240974   4.375   0.174   0.237
13673TIP3   OH240975   4.156   0.308   1.373
13673TIP3    H140976   4.142   0.327   1.280
13673TIP3    H240977   4.083   0.349   1.418
13674TIP3   OH240978   2.269   6.698   0.006
13674TIP3    H140979   2.219   6.740   0.076
13674TIP3    H240980   2.325   6.767  -0.029
13675TIP3   OH240981   1.114   7.426   0.416
13675TIP3    H140982   1.057   7.492   0.375
13675TIP3    H240983   1.059   7.347   0.420
13676TIP3   OH240984   7.834   4.080   6.574
13676TIP3    H140985   7.837   4.174   6.554
13676TIP3    H240986   7.922   4.049   6.555
13677TIP3   OH240987   0.881   7.825   1.334
13677TIP3    H140988   0.813   7.827   1.266
13677TIP3    H240989   0.901   7.732   1.345
13678TIP3   OH240990   3.551  -0.020   0.929
13678TIP3    H140991   3.643  -0.039   0.909
13678TIP3    H240992   3.554   0.054   0.989
13679TIP3   OH240993   4.582   0.268   1.056
13679TIP3    H140994   4.593   0.342   1.114
13679TIP3    H240995   4.575   0.192   1.114
13680TIP3   OH240996   4.322   0.348   0.102
13680TIP3    H140997   4.274   0.325   0.023
13680TIP3    H240998   4.289   0.434   0.126
13681TIP3   OH240999   3.755   0.210   0.482
13681TIP3    H141000   3.791   0.200   0.570
13681TIP3    H241001   3.704   0.130   0.468
13682TIP3   OH241002   7.362   4.297   6.675
13682TIP3    H141003   7.413   4.224   6.640
13682TIP3    H241004   7.392   4.306   6.766
13683TIP3   OH241005   4.576   0.328   0.005
13683TIP3    H141006   4.488   0.328   0.044
13683TIP3    H241007   4.632   0.294   0.075
13684TIP3   OH241008   1.141   7.913   1.333
13684TIP3    H141009   1.155   7.978   1.401
13684TIP3    H241010   1.047   7.899   1.332
13685TIP3   OH241011   0.499   6.296   1.384
13685TIP3    H141012   0.508   6.203   1.359
13685TIP3    H241013   0.570   6.311   1.446
13686TIP3   OH241014   7.608   3.523   6.688
13686TIP3    H141015   7.528   3.499   6.640
13686TIP3    H241016   7.600   3.618   6.701
13687TIP3   OH241017   1.620   6.890   0.098
13687TIP3    H141018   1.534   6.933   0.102
13687TIP3    H241019   1.601   6.802   0.067
13688TIP3   OH241020   1.435   7.345   1.084
13688TIP3    H141021   1.390   7.360   1.167
13688TIP3    H241022   1.422   7.427   1.035
13689TIP3   OH241023   1.281   7.235   0.614
13689TIP3    H141024   1.193   7.210   0.641
13689TIP3    H241025   1.269   7.275   0.527
13690TIP3   OH241026   1.758   7.328   0.321
13690TIP3    H141027   1.718   7.405   0.279
13690TIP3    H241028   1.821   7.295   0.257
13691TIP3   OH241029   1.871   7.348   0.582
13691TIP3    H141030   1.829   7.400   0.514
13691TIP3    H241031   1.903   7.270   0.536
13692TIP3   OH241032   1.253   7.388   1.284
13692TIP3    H141033   1.249   7.466   1.339
13692TIP3    H241034   1.221   7.317   1.340
13693TIP3   OH241035   1.321   6.896   0.056
13693TIP3    H141036   1.307   6.963   0.123
13693TIP3    H241037   1.241   6.897   0.003
13694TIP3   OH241038   0.803   6.909   0.897
13694TIP3    H141039   0.882   6.948   0.934
13694TIP3    H241040   0.831   6.874   0.812
13695TIP3   OH241041   0.777   6.888   0.420
13695TIP3    H141042   0.816   6.922   0.340
13695TIP3    H241043   0.713   6.955   0.445
13696TIP3   OH241044   1.615   7.063   0.699
13696TIP3    H141045   1.535   7.054   0.752
13696TIP3    H241046   1.670   7.123   0.749
13697TIP3   OH241047   1.051   7.104   0.690
13697TIP3    H141048   0.967   7.139   0.659
13697TIP3    H241049   1.035   7.010   0.699
13698TIP3   OH241050   1.208   7.124   0.160
13698TIP3    H141051   1.136   7.093   0.104
13698TIP3    H241052   1.259   7.181   0.104
13699TIP3   OH241053   1.220   7.797   1.615
13699TIP3    H141054   1.263   7.875   1.578
13699TIP3    H241055   1.147   7.832   1.666
13700TIP3   OH241056   1.692   7.342   0.792
13700TIP3    H141057   1.764   7.346   0.728
13700TIP3    H241058   1.732   7.368   0.875
13701TIP3   OH241059   1.411   7.680   0.175
13701TIP3    H141060   1.340   7.618   0.156
13701TIP3    H241061   1.391   7.713   0.263
13702TIP3   OH241062   1.874   6.981   0.053
13702TIP3    H141063   1.781   6.965   0.066
13702TIP3    H241064   1.885   7.075   0.070
13703TIP3   OH241065   1.860   7.897   1.147
13703TIP3    H141066   1.858   7.839   1.222
13703TIP3    H241067   1.830   7.982   1.180
13704TIP3   OH241068   1.945   7.242   0.126
13704TIP3    H141069   2.041   7.243   0.137
13704TIP3    H241070   1.926   7.322   0.077
13705TIP3   OH241071   1.101   7.666   0.835
13705TIP3    H141072   1.159   7.649   0.761
13705TIP3    H241073   1.148   7.633   0.911
13706TIP3   OH241074   1.584   7.829   0.028
13706TIP3    H141075   1.543   7.915   0.019
13706TIP3    H241076   1.519   7.777   0.075
13707TIP3   OH241077   0.987   7.568   1.453
13707TIP3    H141078   0.972   7.561   1.547
13707TIP3    H241079   0.908   7.533   1.413
13708TIP3   OH241080   4.859   0.304   1.033
13708TIP3    H141081   4.767   0.282   1.024
13708TIP3    H241082   4.866   0.345   1.119
13709TIP3   OH241083   7.780   4.148   6.846
13709TIP3    H141084   7.749   4.082   6.907
13709TIP3    H241085   7.788   4.103   6.763
13710TIP3   OH241086   2.071   7.815   0.663
13710TIP3    H141087   1.988   7.775   0.690
13710TIP3    H241088   2.127   7.741   0.641
13711TIP3   OH241089   4.070   0.003   0.487
13711TIP3    H141090   4.070   0.081   0.431
13711TIP3    H241091   3.980  -0.004   0.517
13712TIP3   OH241092   0.816   7.308   0.207
13712TIP3    H141093   0.856   7.394   0.224
13712TIP3    H241094   0.733   7.310   0.254
13713TIP3   OH241095   1.345   7.774   0.419
13713TIP3    H141096   1.314   7.863   0.434
13713TIP3    H241097   1.310   7.724   0.493
13714TIP3   OH241098   4.350   0.284   0.914
13714TIP3    H141099   4.375   0.354   0.852
13714TIP3    H241100   4.431   0.265   0.961
13715TIP3   OH241101   3.987   0.227   0.333
13715TIP3    H141102   3.901   0.231   0.376
13715TIP3    H241103   4.002   0.317   0.303
13716TIP3   OH241104   1.895   7.996   0.890
13716TIP3    H141105   1.891   7.960   0.978
13716TIP3    H241106   1.981   7.968   0.857
13717TIP3   OH241107   7.538   3.867   6.717
13717TIP3    H141108   7.576   3.838   6.800
13717TIP3    H241109   7.446   3.840   6.722
13718TIP3   OH241110   7.858   4.351   6.537
13718TIP3    H141111   7.892   4.419   6.478
13718TIP3    H241112   7.782   4.391   6.579
13719TIP3   OH241113   7.692   3.742   6.907
13719TIP3    H141114   7.683   3.719   6.999
13719TIP3    H241115   7.785   3.764   6.897
13720TIP3   OH241116   3.700   0.145   1.081
13720TIP3    H141117   3.793   0.124   1.078
13720TIP3    H241118   3.695   0.227   1.130
13721TIP3   OH241119   6.891   3.850   6.732
13721TIP3    H141120   6.891   3.763   6.692
13721TIP3    H241121   6.868   3.834   6.824
13722TIP3   OH241122   1.167   7.864   0.067
13722TIP3    H141123   1.246   7.842   0.116
13722TIP3    H241124   1.165   7.960   0.068
13723TIP3   OH241125   0.912   7.563   0.283
13723TIP3    H141126   0.844   7.608   0.333
13723TIP3    H241127   0.926   7.619   0.207
13724TIP3   OH241128   1.912   6.928   0.323
13724TIP3    H141129   1.893   6.933   0.229
13724TIP3    H241130   1.934   7.017   0.348
13725TIP3   OH241131   7.110   4.052   6.948
13725TIP3    H141132   7.023   4.074   6.983
13725TIP3    H241133   7.125   4.116   6.878
13726TIP3   OH241134   1.631   7.108   0.424
13726TIP3    H141135   1.671   7.186   0.385
13726TIP3    H241136   1.625   7.128   0.517
13727TIP3   OH241137   1.785   6.868   0.562
13727TIP3    H141138   1.741   6.948   0.591
13727TIP3    H241139   1.828   6.894   0.480
13728TIP3   OH241140   4.024   0.123   0.081
13728TIP3    H141141   4.000   0.194   0.021
13728TIP3    H241142   4.008   0.160   0.168
13729TIP3   OH241143   2.247   7.596   0.616
13729TIP3    H141144   2.213   7.507   0.619
13729TIP3    H241145   2.304   7.602   0.693
13730TIP3   OH241146   0.919   7.737   0.065
13730TIP3    H141147   0.988   7.803   0.073
13730TIP3    H241148   0.950   7.679  -0.006
13731TIP3   OH241149   0.833   7.029   0.193
13731TIP3    H141150   0.843   7.124   0.201
13731TIP3    H241151   0.768   7.018   0.123
13732TIP3   OH241152   5.012   0.451   0.501
13732TIP3    H141153   4.970   0.510   0.438
13732TIP3    H241154   5.102   0.483   0.508
13733TIP3   OH241155   1.453   6.717   0.961
13733TIP3    H141156   1.372   6.768   0.958
13733TIP3    H241157   1.451   6.676   1.048
13734TIP3   OH241158   3.585  -0.018   0.459
13734TIP3    H141159   3.540   0.020   0.535
13734TIP3    H241160   3.544   0.025   0.384
13735TIP3   OH241161   3.705   0.473   1.551
13735TIP3    H141162   3.734   0.473   1.642
13735TIP3    H241163   3.651   0.394   1.543
13736TIP3   OH241164   7.051   4.046   6.626
13736TIP3    H141165   6.998   3.975   6.664
13736TIP3    H241166   7.119   4.002   6.576
13737TIP3   OH241167   7.497   4.090   6.558
13737TIP3    H141168   7.531   4.021   6.615
13737TIP3    H241169   7.552   4.086   6.480
13738TIP3   OH241170   6.716   3.552   6.842
13738TIP3    H141171   6.775   3.528   6.914
13738TIP3    H241172   6.775   3.564   6.767
13739TIP3   OH241173   7.284   3.773   6.698
13739TIP3    H141174   7.253   3.786   6.788
13739TIP3    H241175   7.273   3.679   6.682
13740TIP3   OH241176   1.225   7.479   0.127
13740TIP3    H141177   1.195   7.440   0.209
13740TIP3    H241178   1.273   7.409   0.083
13741TIP3   OH241179   1.511   7.609   1.370
13741TIP3    H141180   1.419   7.617   1.345
13741TIP3    H241181   1.559   7.630   1.290
13742TIP3   OH241182   7.029   3.273   6.929
13742TIP3    H141183   6.998   3.279   6.839
13742TIP3    H241184   7.125   3.277   6.922
13743TIP3   OH241185   7.874   3.586   6.559
13743TIP3    H141186   7.876   3.577   6.464
13743TIP3    H241187   7.853   3.678   6.574
13744TIP3   OH241188   1.672   7.682   1.149
13744TIP3    H141189   1.750   7.726   1.115
13744TIP3    H241190   1.599   7.726   1.106
13745TIP3   OH241191   6.847   4.343   6.842
13745TIP3    H141192   6.935   4.323   6.810
13745TIP3    H241193   6.805   4.389   6.769
13746TIP3   OH241194   0.646   7.726   0.092
13746TIP3    H141195   0.740   7.740   0.083
13746TIP3    H241196   0.630   7.640   0.052
13747TIP3   OH241197   3.383   0.308   0.535
13747TIP3    H141198   3.318   0.253   0.492
13747TIP3    H241199   3.429   0.249   0.595
13748TIP3   OH241200   3.523   0.143   0.704
13748TIP3    H141201   3.504   0.077   0.770
13748TIP3    H241202   3.569   0.213   0.751
13749TIP3   OH241203   7.966   3.783   6.909
13749TIP3    H141204   8.024   3.852   6.877
13749TIP3    H241205   8.017   3.740   6.978
13750TIP3   OH241206   2.423   7.672   0.196
13750TIP3    H141207   2.355   7.626   0.245
13750TIP3    H241208   2.444   7.748   0.251
13751TIP3   OH241209   5.267   0.036   0.528
13751TIP3    H141210   5.285  -0.003   0.614
13751TIP3    H241211   5.175   0.064   0.534
13752TIP3   OH241212   5.178   0.346   0.746
13752TIP3    H141213   5.139   0.361   0.832
13752TIP3    H241214   5.117   0.287   0.702
13753TIP3   OH241215   2.237   7.525   0.342
13753TIP3    H141216   2.222   7.430   0.349
13753TIP3    H241217   2.237   7.556   0.432
13754TIP3   OH241218   0.860   7.588   1.077
13754TIP3    H141219   0.847   7.557   0.988
13754TIP3    H241220   0.955   7.595   1.087
13755TIP3   OH241221   7.841   3.020   6.737
13755TIP3    H141222   7.918   2.977   6.774
13755TIP3    H241223   7.773   2.952   6.735
13756TIP3   OH241224   2.217   7.237   0.213
13756TIP3    H141225   2.251   7.148   0.228
13756TIP3    H241226   2.286   7.280   0.163
13757TIP3   OH241227   1.039   6.991   1.000
13757TIP3    H141228   1.097   6.920   1.025
13757TIP3    H241229   1.092   7.071   1.009
13758TIP3   OH241230   0.845   7.229   1.141
13758TIP3    H141231   0.893   7.239   1.059
13758TIP3    H241232   0.871   7.305   1.193
13759TIP3   OH241233   8.090   2.906   6.857
13759TIP3    H141234   8.127   2.842   6.796
13759TIP3    H241235   8.148   2.982   6.851
13760TIP3   OH241236   0.832   6.765   0.656
13760TIP3    H141237   0.745   6.737   0.684
13760TIP3    H241238   0.818   6.811   0.574
13761TIP3   OH241239   4.819   0.451   0.157
13761TIP3    H141240   4.879   0.440   0.084
13761TIP3    H241241   4.864   0.510   0.217
13762TIP3   OH241242   0.888   6.768   1.465
13762TIP3    H141243   0.965   6.808   1.505
13762TIP3    H241244   0.853   6.835   1.406
13763TIP3   OH241245   3.900   0.220   1.620
13763TIP3    H141246   3.805   0.222   1.611
13763TIP3    H241247   3.917   0.263   1.704
13764TIP3   OH241248   4.127   0.357   1.103
13764TIP3    H141249   4.072   0.409   1.044
13764TIP3    H241250   4.210   0.348   1.057
13765TIP3   OH241251   3.765   0.399   1.144
13765TIP3    H141252   3.748   0.480   1.098
13765TIP3    H241253   3.818   0.425   1.220
13766TIP3   OH241254   3.970   0.519   0.953
13766TIP3    H141255   3.896   0.565   0.993
13766TIP3    H241256   3.952   0.522   0.859
13767TIP3   OH241257   4.491   0.547   0.722
13767TIP3    H141258   4.403   0.517   0.700
13767TIP3    H241259   4.481   0.639   0.744
13768TIP3   OH241260   4.746   0.443   0.741
13768TIP3    H141261   4.665   0.492   0.729
13768TIP3    H241262   4.783   0.477   0.822
13769TIP3   OH241263   4.966   0.671   0.678
13769TIP3    H141264   4.975   0.629   0.764
13769TIP3    H241265   4.957   0.599   0.616
13770TIP3   OH241266   3.695   0.320   0.847
13770TIP3    H141267   3.689   0.289   0.937
13770TIP3    H241268   3.769   0.271   0.810
13771TIP3   OH241269   3.885   0.174   0.722
13771TIP3    H141270   3.891   0.088   0.765
13771TIP3    H241271   3.975   0.207   0.722
13772TIP3   OH241272   4.154   0.208   0.743
13772TIP3    H141273   4.166   0.118   0.712
13772TIP3    H241274   4.216   0.217   0.815
13773TIP3   OH241275   1.156   6.727   0.781
13773TIP3    H141276   1.062   6.711   0.787
13773TIP3    H241277   1.196   6.642   0.795
13774TIP3   OH241278   0.963   6.566   0.486
13774TIP3    H141279   0.974   6.608   0.401
13774TIP3    H241280   0.921   6.632   0.541
13775TIP3   OH241281   1.546   6.742   0.699
13775TIP3    H141282   1.641   6.747   0.690
13775TIP3    H241283   1.532   6.731   0.793
13776TIP3   OH241284   2.136   6.790   0.229
13776TIP3    H141285   2.059   6.833   0.267
13776TIP3    H241286   2.149   6.712   0.283
13777TIP3   OH241287   3.471   0.111   0.246
13777TIP3    H141288   3.388   0.077   0.213
13777TIP3    H241289   3.475   0.201   0.213
13778TIP3   OH241290   1.041   6.678   0.234
13778TIP3    H141291   1.087   6.614   0.180
13778TIP3    H241292   1.105   6.749   0.247
13779TIP3   OH241293   1.502   6.869   0.410
13779TIP3    H141294   1.528   6.804   0.345
13779TIP3    H241295   1.550   6.948   0.387
13780TIP3   OH241296   7.102   4.272   6.768
13780TIP3    H141297   7.186   4.300   6.731
13780TIP3    H241298   7.072   4.202   6.710
13781TIP3   OH241299   7.811   4.417   6.873
13781TIP3    H141300   7.807   4.322   6.867
13781TIP3    H241301   7.766   4.447   6.794
13782TIP3   OH241302   6.406   4.115   6.833
13782TIP3    H141303   6.410   4.132   6.927
13782TIP3    H241304   6.489   4.072   6.813
13783TIP3   OH241305   2.585   7.447   0.141
13783TIP3    H141306   2.534   7.527   0.154
13783TIP3    H241307   2.667   7.478   0.103
13784TIP3   OH241308   8.139   3.985   6.811
13784TIP3    H141309   8.102   4.003   6.725
13784TIP3    H241310   8.168   4.070   6.844
13785TIP3   OH241311   8.475   3.623   6.809
13785TIP3    H141312   8.451   3.714   6.796
13785TIP3    H241313   8.562   3.627   6.850
13786TIP3   OH241314   5.360   0.318   0.462
13786TIP3    H141315   5.401   0.232   0.464
13786TIP3    H241316   5.319   0.327   0.548
13787TIP3   OH241317   0.338   4.771   6.582
13787TIP3    H141318   0.355   4.694   6.527
13787TIP3    H241319   0.336   4.737   6.671
13788TIP3   OH241320   5.553   0.468  -0.017
13788TIP3    H141321   5.545   0.457   0.078
13788TIP3    H241322   5.511   0.391  -0.054
13789TIP3   OH241323   0.193   3.118   6.510
13789TIP3    H141324   0.256   3.047   6.499
13789TIP3    H241325   0.179   3.151   6.421
13790TIP3   OH241326   8.250   3.130   6.854
13790TIP3    H141327   8.262   3.170   6.768
13790TIP3    H241328   8.283   3.195   6.916
13791TIP3   OH241329   0.103   3.406   6.612
13791TIP3    H141330   0.096   3.316   6.642
13791TIP3    H241331   0.197   3.422   6.604
13792TIP3   OH241332   0.384   3.833   6.720
13792TIP3    H141333   0.305   3.783   6.695
13792TIP3    H241334   0.355   3.886   6.794
13793TIP3   OH241335   0.527   3.995   6.399
13793TIP3    H141336   0.473   4.055   6.450
13793TIP3    H241337   0.548   3.924   6.459
13794TIP3   OH241338   0.188   4.272   6.842
13794TIP3    H141339   0.169   4.362   6.816
13794TIP3    H241340   0.156   4.266   6.933
13795TIP3   OH241341   8.286   3.554   6.617
13795TIP3    H141342   8.359   3.561   6.679
13795TIP3    H241343   8.239   3.637   6.626
13796TIP3   OH241344   0.255   3.974   6.915
13796TIP3    H141345   0.240   4.057   6.869
13796TIP3    H241346   0.287   4.000   7.001
13797TIP3   OH241347   0.118   4.540   6.791
13797TIP3    H141348   0.031   4.525   6.826
13797TIP3    H241349   0.152   4.615   6.839
13798TIP3   OH241350   0.129   4.081   6.253
13798TIP3    H141351   0.085   3.996   6.254
13798TIP3    H241352   0.130   4.108   6.345
13799TIP3   OH241353   0.061   4.181   6.503
13799TIP3    H141354   0.132   4.150   6.559
13799TIP3    H241355   0.058   4.275   6.517
13800TIP3   OH241356   8.353   3.849   6.703
13800TIP3    H141357   8.284   3.886   6.758
13800TIP3    H241358   8.361   3.911   6.630
13801TIP3   OH241359   0.430   4.250   6.470
13801TIP3    H141360   0.393   4.337   6.485
13801TIP3    H241361   0.494   4.264   6.400
13802TIP3   OH241362   0.063   4.446   6.531
13802TIP3    H141363   0.076   4.507   6.459
13802TIP3    H241364   0.092   4.493   6.609
13803TIP3   OH241365   8.332   4.038   6.482
13803TIP3    H141366   8.401   4.103   6.493
13803TIP3    H241367   8.375   3.964   6.439
13804TIP3   OH241368   8.289   3.275   6.625
13804TIP3    H141369   8.293   3.370   6.627
13804TIP3    H241370   8.287   3.253   6.532
13805TIP3   OH241371   8.214   4.251   6.884
13805TIP3    H141372   8.171   4.290   6.960
13805TIP3    H241373   8.174   4.294   6.808
13806TIP3   OH241374   0.368   4.383   6.196
13806TIP3    H141375   0.297   4.323   6.174
13806TIP3    H241376   0.446   4.328   6.201
13807TIP3   OH241377   8.460   3.818   6.401
13807TIP3    H141378   8.499   3.775   6.477
13807TIP3    H241379   8.508   3.782   6.326
13808TIP3   OH241380   0.499   3.917   6.139
13808TIP3    H141381   0.537   3.953   6.219
13808TIP3    H241382   0.437   3.850   6.169
13809TIP3   OH241383   0.141   3.708   6.586
13809TIP3    H141384   0.093   3.652   6.647
13809TIP3    H241385   0.189   3.646   6.530
13810TIP3   OH241386   0.295   3.546   6.428
13810TIP3    H141387   0.316   3.614   6.364
13810TIP3    H241388   0.339   3.468   6.393
13811TIP3   OH241389   0.122   4.611   6.320
13811TIP3    H141390   0.206   4.654   6.306
13811TIP3    H241391   0.070   4.632   6.242
13812TIP3   OH241392   8.077   3.971   6.526
13812TIP3    H141393   8.167   4.001   6.513
13812TIP3    H241394   8.074   3.886   6.482
13813TIP3   OH241395   5.184   0.566   0.023
13813TIP3    H141396   5.119   0.514  -0.024
13813TIP3    H241397   5.230   0.502   0.077
13814TIP3   OH241398   5.326   0.400   0.192
13814TIP3    H141399   5.313   0.332   0.258
13814TIP3    H241400   5.356   0.476   0.242
13815TIP3   OH241401   8.101   4.377   6.671
13815TIP3    H141402   8.018   4.342   6.639
13815TIP3    H241403   8.103   4.467   6.640
13816TIP3   OH241404  -0.001   2.986   6.654
13816TIP3    H141405   0.077   3.029   6.619
13816TIP3    H241406  -0.003   3.010   6.747
13817TIP3   OH241407   0.381   4.654   6.235
13817TIP3    H141408   0.471   4.653   6.268
13817TIP3    H241409   0.367   4.566   6.201
13818TIP3   OH241410   8.191   4.373   6.329
13818TIP3    H141411   8.198   4.387   6.423
13818TIP3    H241412   8.273   4.331   6.304
13819TIP3   OH241413   7.485   1.075   1.360
13819TIP3    H141414   7.543   1.037   1.293
13819TIP3    H241415   7.518   1.164   1.371
13820TIP3   OH241416   7.209   0.356   1.102
13820TIP3    H141417   7.270   0.408   1.155
13820TIP3    H241418   7.265   0.294   1.055
13821TIP3   OH241419   7.428   0.496   1.193
13821TIP3    H141420   7.440   0.585   1.227
13821TIP3    H241421   7.466   0.499   1.105
13822TIP3   OH241422   7.770   1.113   0.799
13822TIP3    H141423   7.771   1.205   0.775
13822TIP3    H241424   7.858   1.081   0.779
13823TIP3   OH241425   7.043   1.403   1.263
13823TIP3    H141426   7.032   1.408   1.168
13823TIP3    H241427   7.035   1.494   1.293
13824TIP3   OH241428   7.276   1.289   0.902
13824TIP3    H141429   7.329   1.223   0.858
13824TIP3    H241430   7.306   1.288   0.993
13825TIP3   OH241431   7.323   1.337   1.171
13825TIP3    H141432   7.254   1.298   1.224
13825TIP3    H241433   7.398   1.341   1.231
13826TIP3   OH241434   7.524   0.513   0.938
13826TIP3    H141435   7.473   0.514   0.857
13826TIP3    H241436   7.607   0.554   0.915
13827TIP3   OH241437   7.203   0.880   1.122
13827TIP3    H141438   7.154   0.961   1.138
13827TIP3    H241439   7.183   0.825   1.197
13828TIP3   OH241440   7.979   0.408   1.134
13828TIP3    H141441   7.917   0.357   1.082
13828TIP3    H241442   7.984   0.493   1.090
13829TIP3   OH241443   7.680   1.168   1.055
13829TIP3    H141444   7.663   1.083   1.097
13829TIP3    H241445   7.709   1.146   0.967
13830TIP3   OH241446   7.446   0.914   0.975
13830TIP3    H141447   7.505   0.908   1.051
13830TIP3    H241448   7.359   0.899   1.012
13831TIP3   OH241449   7.789   1.385   0.766
13831TIP3    H141450   7.831   1.451   0.711
13831TIP3    H241451   7.718   1.432   0.810
13832TIP3   OH241452   7.632   0.903   1.180
13832TIP3    H141453   7.612   0.842   1.250
13832TIP3    H241454   7.725   0.889   1.162
13833TIP3   OH241455   6.830   0.882   0.971
13833TIP3    H141456   6.837   0.790   0.945
13833TIP3    H241457   6.771   0.881   1.047
13834TIP3   OH241458   7.064   1.104   1.197
13834TIP3    H141459   7.107   1.139   1.275
13834TIP3    H241460   7.045   1.181   1.143
13835TIP3   OH241461   6.683   1.126   1.160
13835TIP3    H141462   6.701   1.198   1.100
13835TIP3    H241463   6.755   1.129   1.223
13836TIP3   OH241464   6.969   1.083   0.859
13836TIP3    H141465   6.923   1.011   0.903
13836TIP3    H241466   7.043   1.041   0.815
13837TIP3   OH241467   7.416   1.101   0.775
13837TIP3    H141468   7.445   1.035   0.838
13837TIP3    H241469   7.477   1.093   0.702
13838TIP3   OH241470   6.578   0.633   1.030
13838TIP3    H141471   6.597   0.639   1.124
13838TIP3    H241472   6.663   0.623   0.989
13839TIP3   OH241473   7.136   0.794   0.868
13839TIP3    H141474   7.146   0.819   0.960
13839TIP3    H241475   7.144   0.699   0.868
13840TIP3   OH241476   6.921   0.352   1.144
13840TIP3    H141477   6.892   0.355   1.053
13840TIP3    H241478   7.017   0.357   1.139
13841TIP3   OH241479   7.743   0.634   0.821
13841TIP3    H141480   7.728   0.590   0.737
13841TIP3    H241481   7.713   0.724   0.806
13842TIP3   OH241482   6.758   1.346   1.019
13842TIP3    H141483   6.854   1.346   1.021
13842TIP3    H241484   6.736   1.365   0.927
13843TIP3   OH241485   7.898   0.856   1.154
13843TIP3    H141486   7.965   0.919   1.124
13843TIP3    H241487   7.941   0.806   1.223
13844TIP3   OH241488   7.971   0.647   1.325
13844TIP3    H141489   7.962   0.641   1.420
13844TIP3    H241490   7.937   0.565   1.292
13845TIP3   OH241491   7.953   0.638   0.993
13845TIP3    H141492   7.881   0.625   0.931
13845TIP3    H241493   7.929   0.717   1.042
13846TIP3   OH241494   7.814   0.312   0.935
13846TIP3    H141495   7.764   0.333   0.857
13846TIP3    H241496   7.774   0.232   0.969
13847TIP3   OH241497   7.726   0.081   1.048
13847TIP3    H141498   7.811   0.062   1.087
13847TIP3    H241499   7.667   0.015   1.084
13848TIP3   OH241500   5.137   7.984   1.124
13848TIP3    H141501   5.110   7.901   1.085
13848TIP3    H241502   5.201   8.020   1.062
13849TIP3   OH241503   7.766   1.420   1.375
13849TIP3    H141504   7.759   1.439   1.282
13849TIP3    H241505   7.746   1.503   1.418
13850TIP3   OH241506   7.024   1.308   0.995
13850TIP3    H141507   7.111   1.327   0.961
13850TIP3    H241508   6.995   1.231   0.946
13851TIP3   OH241509   7.741   1.434   1.097
13851TIP3    H141510   7.721   1.341   1.089
13851TIP3    H241511   7.690   1.475   1.027
13852TIP3   OH241512   0.719   0.977   1.041
13852TIP3    H141513   0.690   1.066   1.019
13852TIP3    H241514   0.645   0.921   1.020
13853TIP3   OH241515   0.711   0.983   1.429
13853TIP3    H141516   0.758   0.964   1.511
13853TIP3    H241517   0.667   0.901   1.408
13854TIP3   OH241518   0.980   1.274   1.130
13854TIP3    H141519   0.970   1.208   1.199
13854TIP3    H241520   1.006   1.353   1.177
13855TIP3   OH241521   0.013   1.281   1.499
13855TIP3    H141522  -0.003   1.186   1.503
13855TIP3    H241523   0.108   1.289   1.502
13856TIP3   OH241524   8.221   0.535   1.275
13856TIP3    H141525   8.148   0.597   1.287
13856TIP3    H241526   8.179   0.456   1.241
13857TIP3   OH241527   8.376   0.751   1.475
13857TIP3    H141528   8.419   0.692   1.537
13857TIP3    H241529   8.349   0.695   1.403
13858TIP3   OH241530   0.630   1.714   1.146
13858TIP3    H141531   0.664   1.648   1.086
13858TIP3    H241532   0.621   1.670   1.230
13859TIP3   OH241533   0.526   1.199   1.465
13859TIP3    H141534   0.566   1.118   1.433
13859TIP3    H241535   0.597   1.244   1.513
13860TIP3   OH241536   1.557   0.522   1.454
13860TIP3    H141537   1.555   0.607   1.497
13860TIP3    H241538   1.580   0.541   1.363
13861TIP3   OH241539   0.905   0.664   1.523
13861TIP3    H141540   0.965   0.593   1.547
13861TIP3    H241541   0.885   0.648   1.431
13862TIP3   OH241542   0.333   0.396   1.459
13862TIP3    H141543   0.291   0.471   1.416
13862TIP3    H241544   0.333   0.327   1.393
13863TIP3   OH241545   0.986   0.450   1.096
13863TIP3    H141546   1.050   0.439   1.166
13863TIP3    H241547   1.037   0.484   1.022
13864TIP3   OH241548   0.345   0.766   1.380
13864TIP3    H141549   0.439   0.748   1.387
13864TIP3    H241550   0.308   0.687   1.342
13865TIP3   OH241551   1.587   0.721   1.658
13865TIP3    H141552   1.512   0.776   1.635
13865TIP3    H241553   1.561   0.679   1.740
13866TIP3   OH241554   0.617   1.196   0.901
13866TIP3    H141555   0.576   1.167   0.819
13866TIP3    H241556   0.562   1.269   0.930
13867TIP3   OH241557   1.153   0.462   1.309
13867TIP3    H141558   1.128   0.426   1.394
13867TIP3    H241559   1.206   0.539   1.331
13868TIP3   OH241560   8.085   1.023   1.036
13868TIP3    H141561   8.054   1.044   0.948
13868TIP3    H241562   8.111   1.107   1.073
13869TIP3   OH241563   1.024   1.517   1.271
13869TIP3    H141564   0.935   1.508   1.307
13869TIP3    H241565   1.023   1.602   1.226
13870TIP3   OH241566   1.338   0.471   1.636
13870TIP3    H141567   1.248   0.468   1.602
13870TIP3    H241568   1.393   0.475   1.558
13871TIP3   OH241569   0.728   1.554   0.941
13871TIP3    H141570   0.780   1.474   0.929
13871TIP3    H241571   0.785   1.624   0.908
13872TIP3   OH241572   0.866   1.323   0.884
13872TIP3    H141573   0.790   1.265   0.886
13872TIP3    H241574   0.915   1.300   0.962
13873TIP3   OH241575   1.245   1.417   1.624
13873TIP3    H141576   1.235   1.340   1.568
13873TIP3    H241577   1.227   1.492   1.567
13874TIP3   OH241578   0.542   0.819   0.891
13874TIP3    H141579   0.460   0.864   0.872
13874TIP3    H241580   0.590   0.819   0.807
13875TIP3   OH241581   0.511   0.619   0.592
13875TIP3    H141582   0.576   0.667   0.642
13875TIP3    H241583   0.561   0.551   0.546
13876TIP3   OH241584   1.444   1.070   1.478
13876TIP3    H141585   1.361   1.116   1.486
13876TIP3    H241586   1.477   1.094   1.392
13877TIP3   OH241587   0.903   0.905   0.853
13877TIP3    H141588   0.848   0.935   0.926
13877TIP3    H241589   0.986   0.880   0.895
13878TIP3   OH241590   1.131   0.983   1.714
13878TIP3    H141591   1.141   1.072   1.750
13878TIP3    H241592   1.042   0.981   1.680
13879TIP3   OH241593   0.137   0.898   1.254
13879TIP3    H141594   0.101   0.829   1.197
13879TIP3    H241595   0.210   0.855   1.299
13880TIP3   OH241596   0.280   1.318   1.401
13880TIP3    H141597   0.260   1.281   1.315
13880TIP3    H241598   0.362   1.276   1.427
13881TIP3   OH241599   0.306   0.833   1.647
13881TIP3    H141600   0.311   0.810   1.554
13881TIP3    H241601   0.295   0.928   1.648
13882TIP3   OH241602   0.783   1.505   1.396
13882TIP3    H141603   0.768   1.586   1.444
13882TIP3    H241604   0.773   1.435   1.461
13883TIP3   OH241605   0.732   0.767   0.688
13883TIP3    H141606   0.792   0.824   0.738
13883TIP3    H241607   0.761   0.777   0.598
13884TIP3   OH241608   0.480   1.434   0.944
13884TIP3    H141609   0.561   1.484   0.953
13884TIP3    H241610   0.419   1.495   0.903
13885TIP3   OH241611   1.250  -0.003   0.734
13885TIP3    H141612   1.171   0.019   0.784
13885TIP3    H241613   1.265   0.073   0.678
13886TIP3   OH241614   8.504   0.725   1.057
13886TIP3    H141615   8.428   0.775   1.026
13886TIP3    H241616   8.466   0.646   1.096
13887TIP3   OH241617   1.066   1.373   0.286
13887TIP3    H141618   1.062   1.468   0.275
13887TIP3    H241619   1.157   1.351   0.264
13888TIP3   OH241620   1.485   1.778   1.687
13888TIP3    H141621   1.488   1.683   1.695
13888TIP3    H241622   1.400   1.803   1.723
13889TIP3   OH241623   0.368   1.665   0.771
13889TIP3    H141624   0.320   1.647   0.690
13889TIP3    H241625   0.335   1.749   0.801
13890TIP3   OH241626   8.303   1.518   1.139
13890TIP3    H141627   8.350   1.513   1.223
13890TIP3    H241628   8.257   1.435   1.133
13891TIP3   OH241629   0.569   1.587   0.398
13891TIP3    H141630   0.622   1.515   0.363
13891TIP3    H241631   0.602   1.600   0.487
13892TIP3   OH241632   0.621   1.630   0.668
13892TIP3    H141633   0.536   1.635   0.711
13892TIP3    H241634   0.681   1.600   0.736
13893TIP3   OH241635   0.818   0.769   0.431
13893TIP3    H141636   0.773   0.759   0.347
13893TIP3    H241637   0.899   0.816   0.409
13894TIP3   OH241638   0.528   0.185   0.716
13894TIP3    H141639   0.507   0.175   0.808
13894TIP3    H241640   0.491   0.107   0.674
13895TIP3   OH241641   0.206   0.558   1.273
13895TIP3    H141642   0.120   0.529   1.304
13895TIP3    H241643   0.216   0.516   1.188
13896TIP3   OH241644   0.686   0.627   1.023
13896TIP3    H141645   0.635   0.696   0.982
13896TIP3    H241646   0.741   0.592   0.953
13897TIP3   OH241647   0.841   0.631   1.253
13897TIP3    H141648   0.780   0.655   1.183
13897TIP3    H241649   0.888   0.555   1.218
13898TIP3   OH241650   0.176   0.148   0.665
13898TIP3    H141651   0.181   0.158   0.760
13898TIP3    H241652   0.099   0.199   0.639
13899TIP3   OH241653   8.210   0.268   1.104
13899TIP3    H141654   8.233   0.287   1.013
13899TIP3    H241655   8.122   0.304   1.114
13900TIP3   OH241656   0.864   0.905   1.645
13900TIP3    H141657   0.887   0.821   1.606
13900TIP3    H241658   0.846   0.885   1.737
13901TIP3   OH241659   0.597   0.388   1.343
13901TIP3    H141660   0.522   0.391   1.403
13901TIP3    H241661   0.673   0.376   1.399
13902TIP3   OH241662   8.469   0.452   1.341
13902TIP3    H141663   8.380   0.476   1.314
13902TIP3    H241664   8.456   0.390   1.412
13903TIP3   OH241665   0.224   0.407   1.040
13903TIP3    H141666   0.313   0.439   1.027
13903TIP3    H241667   0.176   0.439   0.963
13904TIP3   OH241668   1.050   0.429   1.578
13904TIP3    H141669   1.060   0.398   1.668
13904TIP3    H241670   0.972   0.384   1.546
13905TIP3   OH241671   0.081   0.439   0.809
13905TIP3    H141672   0.016   0.396   0.754
13905TIP3    H241673   0.137   0.487   0.748
13906TIP3   OH241674   1.214   2.124   1.769
13906TIP3    H141675   1.188   2.140   1.678
13906TIP3    H241676   1.305   2.154   1.774
13907TIP3   OH241677   0.616   0.709   1.419
13907TIP3    H141678   0.676   0.667   1.358
13907TIP3    H241679   0.641   0.676   1.505
13908TIP3   OH241680   0.105   0.147   1.391
13908TIP3    H141681   0.133   0.055   1.392
13908TIP3    H241682   0.075   0.162   1.301
13909TIP3   OH241683   0.308   0.955   0.831
13909TIP3    H141684   0.232   0.899   0.812
13909TIP3    H241685   0.286   0.997   0.914
13910TIP3   OH241686   1.205   1.209   1.445
13910TIP3    H141687   1.239   1.260   1.371
13910TIP3    H241688   1.123   1.172   1.414
13911TIP3   OH241689   0.780   0.282   0.719
13911TIP3    H141690   0.687   0.261   0.718
13911TIP3    H241691   0.783   0.376   0.738
13912TIP3   OH241692   0.841   0.538   0.806
13912TIP3    H141693   0.936   0.543   0.819
13912TIP3    H241694   0.819   0.616   0.757
13913TIP3   OH241695   0.001   1.006   1.473
13913TIP3    H141696   0.051   0.981   1.396
13913TIP3    H241697  -0.053   0.930   1.493
13914TIP3   OH241698   0.462   1.118   0.676
13914TIP3    H141699   0.414   1.201   0.676
13914TIP3    H241700   0.407   1.059   0.728
13915TIP3   OH241701   0.892   1.535   1.763
13915TIP3    H141702   0.800   1.561   1.772
13915TIP3    H241703   0.939   1.590   1.824
13916TIP3   OH241704   1.260   0.624   0.632
13916TIP3    H141705   1.204   0.576   0.571
13916TIP3    H241706   1.262   0.713   0.599
13917TIP3   OH241707   1.487   1.504   1.712
13917TIP3    H141708   1.395   1.480   1.700
13917TIP3    H241709   1.532   1.465   1.638
13918TIP3   OH241710   0.986   1.437   0.567
13918TIP3    H141711   0.956   1.377   0.636
13918TIP3    H241712   0.994   1.382   0.489
13919TIP3   OH241713   0.966   1.079   1.337
13919TIP3    H141714   0.875   1.054   1.353
13919TIP3    H241715   1.008   0.998   1.308
13920TIP3   OH241716   0.116   1.309   1.142
13920TIP3    H141717   0.108   1.387   1.088
13920TIP3    H241718   0.033   1.303   1.189
13921TIP3   OH241719   8.188   0.600   0.859
13921TIP3    H141720   8.236   0.680   0.880
13921TIP3    H241721   8.105   0.608   0.905
13922TIP3   OH241722   0.222   1.071   1.057
13922TIP3    H141723   0.197   1.159   1.084
13922TIP3    H241724   0.197   1.016   1.131
13923TIP3   OH241725   0.386   1.640   1.600
13923TIP3    H141726   0.426   1.716   1.558
13923TIP3    H241727   0.460   1.583   1.622
13924TIP3   OH241728   0.036   1.539   0.994
13924TIP3    H141729  -0.051   1.543   1.035
13924TIP3    H241730   0.070   1.628   1.001
13925TIP3   OH241731   0.782   1.281   1.566
13925TIP3    H141732   0.839   1.282   1.644
13925TIP3    H241733   0.823   1.218   1.507
13926TIP3   OH241734   0.756   1.163   0.437
13926TIP3    H141735   0.807   1.138   0.514
13926TIP3    H241736   0.668   1.129   0.454
13927TIP3   OH241737   0.991   1.808   1.622
13927TIP3    H141738   0.913   1.756   1.605
13927TIP3    H241739   0.996   1.869   1.548
13928TIP3   OH241740   1.081   1.653   0.254
13928TIP3    H141741   1.132   1.731   0.232
13928TIP3    H241742   1.000   1.687   0.291
13929TIP3   OH241743   0.927   1.081   0.636
13929TIP3    H141744   0.908   1.033   0.716
13929TIP3    H241745   1.022   1.092   0.636
13930TIP3   OH241746   0.102   1.140   0.463
13930TIP3    H141747   0.113   1.049   0.438
13930TIP3    H241748   0.086   1.137   0.557
13931TIP3   OH241749   0.045   1.156   0.735
13931TIP3    H141750   0.110   1.129   0.800
13931TIP3    H241751   0.045   1.252   0.741
13932TIP3   OH241752   8.282   0.849   0.943
13932TIP3    H141753   8.218   0.897   0.996
13932TIP3    H241754   8.302   0.908   0.871
13933TIP3   OH241755   0.837   0.246   0.990
13933TIP3    H141756   0.822   0.263   0.897
13933TIP3    H241757   0.884   0.323   1.021
13934TIP3   OH241758   0.315   1.345   0.673
13934TIP3    H141759   0.230   1.368   0.711
13934TIP3    H241760   0.339   1.422   0.621
13935TIP3   OH241761   0.495   0.439   1.077
13935TIP3    H141762   0.560   0.506   1.057
13935TIP3    H241763   0.512   0.416   1.168
13936TIP3   OH241764   0.664   0.171   1.184
13936TIP3    H141765   0.644   0.241   1.246
13936TIP3    H241766   0.725   0.211   1.122
13937TIP3   OH241767   0.062   1.429   0.746
13937TIP3    H141768   0.041   1.499   0.685
13937TIP3    H241769   0.052   1.468   0.833
13938TIP3   OH241770   0.187   0.159   0.931
13938TIP3    H141771   0.199   0.249   0.961
13938TIP3    H241772   0.269   0.116   0.953
13939TIP3   OH241773   1.061   0.819   1.260
13939TIP3    H141774   0.984   0.762   1.271
13939TIP3    H241775   1.129   0.778   1.313
13940TIP3   OH241776   8.296   1.030   0.729
13940TIP3    H141777   8.367   1.094   0.740
13940TIP3    H241778   8.331   0.967   0.666
13941TIP3   OH241779   8.214   0.324   0.841
13941TIP3    H141780   8.222   0.419   0.847
13941TIP3    H241781   8.157   0.309   0.766
13942TIP3   OH241782   1.040   1.782   1.187
13942TIP3    H141783   0.997   1.832   1.118
13942TIP3    H241784   1.133   1.799   1.176
13943TIP3   OH241785   8.135   1.286   1.125
13943TIP3    H141786   8.098   1.328   1.203
13943TIP3    H241787   8.094   1.332   1.051
13944TIP3   OH241788   0.262   1.339   0.355
13944TIP3    H141789   0.213   1.270   0.400
13944TIP3    H241790   0.337   1.294   0.316
13945TIP3   OH241791   0.704   1.381   0.275
13945TIP3    H141792   0.738   1.314   0.334
13945TIP3    H241793   0.760   1.377   0.199
13946TIP3   OH241794   8.425   0.838   0.584
13946TIP3    H141795   8.476   0.814   0.661
13946TIP3    H241796   8.490   0.851   0.515
13947TIP3   OH241797   0.483   1.061   0.409
13947TIP3    H141798   0.465   1.076   0.502
13947TIP3    H241799   0.468   0.968   0.396
13948TIP3   OH241800   1.014   1.288   1.736
13948TIP3    H141801   1.108   1.307   1.724
13948TIP3    H241802   0.975   1.373   1.753
13949TIP3   OH241803   0.098   0.776   0.794
13949TIP3    H141804   0.078   0.747   0.882
13949TIP3    H241805   0.146   0.703   0.755
13950TIP3   OH241806   0.237   0.587   0.641
13950TIP3    H141807   0.208   0.590   0.550
13950TIP3    H241808   0.332   0.594   0.635
13951TIP3   OH241809   1.035   0.886   0.299
13951TIP3    H141810   1.032   0.851   0.210
13951TIP3    H241811   1.008   0.978   0.288
13952TIP3   OH241812   0.054   1.636   0.561
13952TIP3    H141813   0.144   1.617   0.538
13952TIP3    H241814   0.018   1.684   0.486
13953TIP3   OH241815   8.024   1.016   0.747
13953TIP3    H141816   8.118   1.030   0.742
13953TIP3    H241817   8.011   0.928   0.709
13954TIP3   OH241818   7.948   1.602   1.163
13954TIP3    H141819   7.884   1.542   1.125
13954TIP3    H241820   7.995   1.550   1.228
13955TIP3   OH241821   8.069   1.448   1.352
13955TIP3    H141822   7.998   1.419   1.409
13955TIP3    H241823   8.125   1.502   1.409
13956TIP3   OH241824   1.304   1.848   1.174
13956TIP3    H141825   1.325   1.873   1.264
13956TIP3    H241826   1.366   1.898   1.120
13957TIP3   OH241827   1.321   1.872   1.451
13957TIP3    H141828   1.278   1.787   1.455
13957TIP3    H241829   1.397   1.862   1.509
13958TIP3   OH241830   1.207   1.085   0.643
13958TIP3    H141831   1.266   1.157   0.621
13958TIP3    H241832   1.246   1.046   0.721
13959TIP3   OH241833   1.328   0.944   0.849
13959TIP3    H141834   1.262   0.908   0.908
13959TIP3    H241835   1.393   0.982   0.907
13960TIP3   OH241836   1.376   1.348   1.277
13960TIP3    H141837   1.431   1.281   1.237
13960TIP3    H241838   1.380   1.422   1.215
13961TIP3   OH241839   1.178   1.636   1.470
13961TIP3    H141840   1.105   1.672   1.521
13961TIP3    H241841   1.136   1.591   1.397
13962TIP3   OH241842   1.238   0.861   0.489
13962TIP3    H141843   1.164   0.862   0.428
13962TIP3    H241844   1.223   0.937   0.545
13963TIP3   OH241845   1.107   0.517   0.432
13963TIP3    H141846   1.059   0.552   0.358
13963TIP3    H241847   1.095   0.422   0.426
13964TIP3   OH241848   1.127   0.808   0.990
13964TIP3    H141849   1.134   0.713   0.978
13964TIP3    H241850   1.108   0.820   1.083
13965TIP3   OH241851   1.371   1.217   1.826
13965TIP3    H141852   1.445   1.157   1.822
13965TIP3    H241853   1.409   1.303   1.812
13966TIP3   OH241854   1.581   1.034   1.839
13966TIP3    H141855   1.544   0.974   1.903
13966TIP3    H241856   1.674   1.037   1.859
13967TIP3   OH241857   1.058   0.248   0.406
13967TIP3    H141858   1.125   0.219   0.469
13967TIP3    H241859   0.978   0.204   0.433
13968TIP3   OH241860   1.128   0.533   0.868
13968TIP3    H141861   1.172   0.449   0.882
13968TIP3    H241862   1.173   0.572   0.793
13969TIP3   OH241863   1.276   0.696   1.393
13969TIP3    H141864   1.358   0.716   1.348
13969TIP3    H241865   1.286   0.735   1.480
13970TIP3   OH241866   1.350   0.852   1.613
13970TIP3    H141867   1.273   0.884   1.661
13970TIP3    H241868   1.386   0.930   1.571
13971TIP3   OH241869   1.244   0.285   0.917
13971TIP3    H141870   1.285   0.268   1.002
13971TIP3    H241871   1.179   0.216   0.907
13972TIP3   OH241872   1.293   0.200   0.555
13972TIP3    H141873   1.338   0.138   0.498
13972TIP3    H241874   1.352   0.275   0.559
13973TIP3   OH241875   8.213   0.166   1.354
13973TIP3    H141876   8.122   0.146   1.377
13973TIP3    H241877   8.210   0.196   1.263
13974TIP3   OH241878   0.868   1.748   0.819
13974TIP3    H141879   0.929   1.741   0.746
13974TIP3    H241880   0.906   1.815   0.876
13975TIP3   OH241881   0.149   1.596   1.744
13975TIP3    H141882   0.117   1.682   1.717
13975TIP3    H241883   0.238   1.592   1.708
13976TIP3   OH241884   0.776   1.979   1.745
13976TIP3    H141885   0.852   1.936   1.706
13976TIP3    H241886   0.800   1.991   1.837
13977TIP3   OH241887   0.067   1.838   1.640
13977TIP3    H141888  -0.019   1.860   1.676
13977TIP3    H241889   0.060   1.856   1.547
13978TIP3   OH241890   0.491   1.840   1.436
13978TIP3    H141891   0.421   1.852   1.372
13978TIP3    H241892   0.502   1.926   1.476
13979TIP3   OH241893   0.751   1.764   1.487
13979TIP3    H141894   0.660   1.787   1.471
13979TIP3    H241895   0.802   1.831   1.442
13980TIP3   OH241896   0.951   1.945   1.390
13980TIP3    H141897   0.949   2.032   1.351
13980TIP3    H241898   0.982   1.888   1.319
13981TIP3   OH241899   8.248   1.617   1.500
13981TIP3    H141900   8.266   1.598   1.592
13981TIP3    H241901   8.324   1.582   1.454
13982TIP3   OH241902   8.457   1.507   1.365
13982TIP3    H141903   8.468   1.426   1.415
13982TIP3    H241904   8.544   1.547   1.365
13983TIP3   OH241905   0.222   1.590   1.384
13983TIP3    H141906   0.244   1.497   1.372
13983TIP3    H241907   0.262   1.614   1.467
13984TIP3   OH241908   0.835   0.298   1.466
13984TIP3    H141909   0.776   0.227   1.492
13984TIP3    H241910   0.898   0.257   1.407
13985TIP3   OH241911   1.299   0.146   1.380
13985TIP3    H141912   1.334   0.197   1.307
13985TIP3    H241913   1.205   0.166   1.380
13986TIP3   OH241914   1.399   0.231   1.140
13986TIP3    H141915   1.468   0.173   1.109
13986TIP3    H241916   1.434   0.319   1.128
13987TIP3   OH241917   5.507   7.870   1.048
13987TIP3    H141918   5.573   7.919   0.999
13987TIP3    H241919   5.520   7.898   1.139
13988TIP3   OH241920   0.473  -0.001   1.295
13988TIP3    H141921   0.534   0.071   1.284
13988TIP3    H241922   0.441   0.007   1.385
13989TIP3   OH241923   1.022   0.151   1.328
13989TIP3    H141924   1.040   0.111   1.243
13989TIP3    H241925   0.999   0.077   1.385
13990TIP3   OH241926   1.055   0.082   0.908
13990TIP3    H141927   0.970   0.119   0.933
13990TIP3    H241928   1.053  -0.007   0.942
13991TIP3   OH241929   8.026   1.410   0.907
13991TIP3    H141930   7.943   1.375   0.875
13991TIP3    H241931   8.028   1.500   0.875
13992TIP3   OH241932   5.644   8.008   0.859
13992TIP3    H141933   5.677   7.940   0.800
13992TIP3    H241934   5.720   8.062   0.880
13993TIP3   OH241935   0.472   0.179   0.983
13993TIP3    H141936   0.529   0.146   1.053
13993TIP3    H241937   0.468   0.273   0.998
13994TIP3   OH241938   0.312   1.567   0.498
13994TIP3    H141939   0.397   1.594   0.462
13994TIP3    H241940   0.285   1.494   0.443
13995TIP3   OH241941   1.026   1.706   0.592
13995TIP3    H141942   1.016   1.611   0.587
13995TIP3    H241943   0.979   1.739   0.515
13996TIP3   OH241944   8.117   1.409   0.559
13996TIP3    H141945   8.123   1.422   0.654
13996TIP3    H241946   8.198   1.364   0.536
13997TIP3   OH241947   1.231   1.848   1.765
13997TIP3    H141948   1.150   1.820   1.722
13997TIP3    H241949   1.219   1.941   1.780
13998TIP3   OH241950   2.510   1.232   0.535
13998TIP3    H141951   2.481   1.320   0.509
13998TIP3    H241952   2.440   1.174   0.506
13999TIP3   OH241953   2.486   1.219   0.935
13999TIP3    H141954   2.525   1.206   1.021
13999TIP3    H241955   2.445   1.135   0.914
14000TIP3   OH241956   1.806   1.094   1.295
14000TIP3    H141957   1.834   1.032   1.362
14000TIP3    H241958   1.877   1.158   1.290
14001TIP3   OH241959   2.783   1.463   0.593
14001TIP3    H141960   2.743   1.410   0.662
14001TIP3    H241961   2.784   1.552   0.628
14002TIP3   OH241962   1.793   1.512   0.990
14002TIP3    H141963   1.778   1.418   1.000
14002TIP3    H241964   1.888   1.520   0.982
14003TIP3   OH241965   1.488   0.722   0.774
14003TIP3    H141966   1.449   0.805   0.801
14003TIP3    H241967   1.416   0.672   0.736
14004TIP3   OH241968   1.562   1.028   0.980
14004TIP3    H141969   1.610   0.951   1.011
14004TIP3    H241970   1.630   1.092   0.960
14005TIP3   OH241971   2.472   1.990   0.641
14005TIP3    H141972   2.486   1.903   0.606
14005TIP3    H241973   2.412   1.977   0.715
14006TIP3   OH241974   2.306   1.446   0.956
14006TIP3    H141975   2.345   1.364   0.925
14006TIP3    H241976   2.380   1.499   0.984
14007TIP3   OH241977   3.308   0.738   0.915
14007TIP3    H141978   3.307   0.821   0.962
14007TIP3    H241979   3.349   0.758   0.831
14008TIP3   OH241980   2.720   0.932   0.999
14008TIP3    H141981   2.761   0.848   1.021
14008TIP3    H241982   2.689   0.921   0.909
14009TIP3   OH241983   2.083   0.595   0.951
14009TIP3    H141984   2.062   0.670   0.895
14009TIP3    H241985   2.027   0.524   0.919
14010TIP3   OH241986   2.767   0.697   0.583
14010TIP3    H141987   2.831   0.669   0.649
14010TIP3    H241988   2.820   0.728   0.510
14011TIP3   OH241989   1.698   0.810   1.083
14011TIP3    H141990   1.782   0.797   1.127
14011TIP3    H241991   1.704   0.757   1.003
14012TIP3   OH241992   2.135   1.007   0.878
14012TIP3    H141993   2.227   0.986   0.891
14012TIP3    H241994   2.095   0.926   0.848
14013TIP3   OH241995   3.290   0.952   1.083
14013TIP3    H141996   3.203   0.991   1.073
14013TIP3    H241997   3.306   0.952   1.177
14014TIP3   OH241998   2.057   0.606   1.405
14014TIP3    H141999   2.013   0.639   1.326
14014TIP3    H242000   1.996   0.625   1.476
14015TIP3   OH242001   2.407   1.449   0.391
14015TIP3    H142002   2.368   1.422   0.308
14015TIP3    H242003   2.354   1.523   0.419
14016TIP3   OH242004   2.157   1.371   1.178
14016TIP3    H142005   2.093   1.436   1.209
14016TIP3    H242006   2.201   1.415   1.105
14017TIP3   OH242007   2.935   0.656   0.795
14017TIP3    H142008   2.890   0.660   0.879
14017TIP3    H242009   2.988   0.736   0.792
14018TIP3   OH242010   1.947   0.703   1.169
14018TIP3    H142011   1.998   0.781   1.192
14018TIP3    H242012   1.995   0.663   1.097
14019TIP3   OH242013   1.970   1.550   1.269
14019TIP3    H142014   1.946   1.633   1.226
14019TIP3    H242015   1.898   1.532   1.329
14020TIP3   OH242016   1.383   1.279   0.535
14020TIP3    H142017   1.338   1.316   0.459
14020TIP3    H242018   1.414   1.355   0.584
14021TIP3   OH242019   2.769   1.712   0.695
14021TIP3    H142020   2.689   1.713   0.749
14021TIP3    H242021   2.756   1.784   0.633
14022TIP3   OH242022   3.115   0.634   1.095
14022TIP3    H142023   3.027   0.647   1.060
14022TIP3    H242024   3.173   0.656   1.023
14023TIP3   OH242025   2.404   0.316   1.120
14023TIP3    H142026   2.395   0.223   1.139
14023TIP3    H242027   2.330   0.357   1.166
14024TIP3   OH242028   2.525   1.780   0.464
14024TIP3    H142029   2.571   1.697   0.447
14024TIP3    H242030   2.566   1.842   0.404
14025TIP3   OH242031   2.667   1.565   0.365
14025TIP3    H142032   2.591   1.506   0.355
14025TIP3    H242033   2.720   1.523   0.433
14026TIP3   OH242034   2.947   1.648   1.061
14026TIP3    H142035   2.946   1.609   0.973
14026TIP3    H242036   3.001   1.727   1.051
14027TIP3   OH242037   2.339   1.073   0.380
14027TIP3    H142038   2.258   1.119   0.360
14027TIP3    H242039   2.387   1.072   0.297
14028TIP3   OH242040   2.307   0.873   0.078
14028TIP3    H142041   2.372   0.923   0.126
14028TIP3    H242042   2.357   0.807   0.030
14029TIP3   OH242043   3.135   1.277   0.911
14029TIP3    H142044   3.060   1.334   0.896
14029TIP3    H242045   3.197   1.299   0.841
14030TIP3   OH242046   2.692   1.161   0.343
14030TIP3    H142047   2.639   1.191   0.417
14030TIP3    H242048   2.774   1.132   0.382
14031TIP3   OH242049   2.876   1.165   1.224
14031TIP3    H142050   2.905   1.256   1.217
14031TIP3    H242051   2.782   1.168   1.208
14032TIP3   OH242052   1.926   1.144   0.753
14032TIP3    H142053   1.889   1.084   0.687
14032TIP3    H242054   2.001   1.097   0.788
14033TIP3   OH242055   2.055   1.557   0.889
14033TIP3    H142056   2.037   1.539   0.796
14033TIP3    H242057   2.143   1.524   0.903
14034TIP3   OH242058   2.041   1.135   1.107
14034TIP3    H142059   2.080   1.104   1.026
14034TIP3    H242060   2.086   1.216   1.127
14035TIP3   OH242061   2.562   1.723   0.869
14035TIP3    H142062   2.571   1.808   0.910
14035TIP3    H242063   2.552   1.661   0.942
14036TIP3   OH242064   2.157   1.703   1.407
14036TIP3    H142065   2.102   1.764   1.456
14036TIP3    H242066   2.094   1.644   1.364
14037TIP3   OH242067   2.527   1.021   0.174
14037TIP3    H142068   2.586   1.079   0.222
14037TIP3    H242069   2.554   1.030   0.082
14038TIP3   OH242070   1.953   1.229   1.522
14038TIP3    H142071   1.956   1.316   1.562
14038TIP3    H242072   1.863   1.200   1.534
14039TIP3   OH242073   2.268   1.688   0.434
14039TIP3    H142074   2.351   1.730   0.454
14039TIP3    H242075   2.218   1.755   0.388
14040TIP3   OH242076   1.943   1.850   1.500
14040TIP3    H142077   1.894   1.819   1.424
14040TIP3    H242078   1.889   1.825   1.575
14041TIP3   OH242079   3.042   0.249   0.229
14041TIP3    H142080   2.963   0.269   0.280
14041TIP3    H242081   3.054   0.326   0.173
14042TIP3   OH242082   1.798   0.987   0.548
14042TIP3    H142083   1.721   1.032   0.514
14042TIP3    H242084   1.767   0.901   0.573
14043TIP3   OH242085   5.690   5.626   6.717
14043TIP3    H142086   5.688   5.720   6.698
14043TIP3    H242087   5.781   5.600   6.698
14044TIP3   OH242088   1.572   1.382   1.481
14044TIP3    H142089   1.501   1.362   1.420
14044TIP3    H242090   1.608   1.296   1.504
14045TIP3   OH242091   1.432   1.576   1.117
14045TIP3    H142092   1.527   1.585   1.119
14045TIP3    H242093   1.400   1.655   1.160
14046TIP3   OH242094   2.361   1.801   1.255
14046TIP3    H142095   2.357   1.895   1.270
14046TIP3    H242096   2.287   1.765   1.305
14047TIP3   OH242097   2.166   1.914   0.268
14047TIP3    H142098   2.123   1.900   0.184
14047TIP3    H242099   2.133   1.998   0.298
14048TIP3   OH242100   1.596   1.773   0.636
14048TIP3    H142101   1.641   1.769   0.720
14048TIP3    H242102   1.550   1.689   0.629
14049TIP3   OH242103   5.194   5.849   6.815
14049TIP3    H142104   5.247   5.776   6.782
14049TIP3    H242105   5.224   5.861   6.905
14050TIP3   OH242106   2.408   1.890   0.137
14050TIP3    H142107   2.334   1.887   0.198
14050TIP3    H242108   2.485   1.883   0.193
14051TIP3   OH242109   3.215   1.161   1.540
14051TIP3    H142110   3.136   1.190   1.585
14051TIP3    H242111   3.192   1.164   1.447
14052TIP3   OH242112   1.763   1.574   1.447
14052TIP3    H142113   1.812   1.562   1.529
14052TIP3    H242114   1.691   1.512   1.453
14053TIP3   OH242115   2.170   0.390   1.263
14053TIP3    H142116   2.087   0.358   1.227
14053TIP3    H242117   2.146   0.471   1.308
14054TIP3   OH242118   2.708   0.500   1.457
14054TIP3    H142119   2.774   0.498   1.525
14054TIP3    H242120   2.625   0.486   1.503
14055TIP3   OH242121   2.914   0.926   1.350
14055TIP3    H142122   2.873   0.944   1.434
14055TIP3    H242123   2.902   1.006   1.299
14056TIP3   OH242124   5.440   5.026   6.853
14056TIP3    H142125   5.398   5.022   6.767
14056TIP3    H242126   5.522   5.072   6.838
14057TIP3   OH242127   2.315   0.425   0.224
14057TIP3    H142128   2.280   0.431   0.313
14057TIP3    H242129   2.279   0.344   0.190
14058TIP3   OH242130   2.096   0.912   1.257
14058TIP3    H142131   2.057   0.925   1.343
14058TIP3    H242132   2.075   0.991   1.209
14059TIP3   OH242133   1.987   0.791   0.786
14059TIP3    H142134   1.898   0.769   0.813
14059TIP3    H242135   1.996   0.756   0.697
14060TIP3   OH242136   2.467   0.870   0.514
14060TIP3    H142137   2.420   0.942   0.473
14060TIP3    H242138   2.526   0.838   0.446
14061TIP3   OH242139   2.563   1.193   1.617
14061TIP3    H142140   2.571   1.109   1.663
14061TIP3    H242141   2.647   1.236   1.634
14062TIP3   OH242142   2.633   0.885   0.741
14062TIP3    H142143   2.563   0.911   0.680
14062TIP3    H242144   2.676   0.811   0.698
14063TIP3   OH242145   1.925   0.919   1.483
14063TIP3    H142146   1.956   0.972   1.556
14063TIP3    H242147   1.899   0.836   1.523
14064TIP3   OH242148   1.978   0.407   0.198
14064TIP3    H142149   1.969   0.409   0.294
14064TIP3    H242150   1.901   0.454   0.166
14065TIP3   OH242151   1.526   0.454   1.060
14065TIP3    H142152   1.600   0.488   1.111
14065TIP3    H242153   1.564   0.429   0.976
14066TIP3   OH242154   1.453   0.429   0.573
14066TIP3    H142155   1.498   0.465   0.497
14066TIP3    H242156   1.391   0.497   0.598
14067TIP3   OH242157   2.615   1.126   1.159
14067TIP3    H142158   2.650   1.057   1.103
14067TIP3    H242159   2.579   1.080   1.235
14068TIP3   OH242160   2.346   0.586   0.838
14068TIP3    H142161   2.268   0.588   0.893
14068TIP3    H242162   2.419   0.583   0.900
14069TIP3   OH242163   1.748   0.670   0.851
14069TIP3    H142164   1.660   0.674   0.815
14069TIP3    H242165   1.777   0.580   0.833
14070TIP3   OH242166   2.001   0.667   0.542
14070TIP3    H142167   2.095   0.680   0.529
14070TIP3    H242168   1.963   0.687   0.456
14071TIP3   OH242169   2.806   0.668   1.043
14071TIP3    H142170   2.785   0.686   1.135
14071TIP3    H242171   2.734   0.611   1.013
14072TIP3   OH242172   1.878   0.695   0.298
14072TIP3    H142173   1.813   0.647   0.246
14072TIP3    H242174   1.933   0.739   0.233
14073TIP3   OH242175   1.923   1.471   1.660
14073TIP3    H142176   2.015   1.497   1.659
14073TIP3    H242177   1.894   1.489   1.750
14074TIP3   OH242178   2.398   0.942   0.943
14074TIP3    H142179   2.470   0.896   0.899
14074TIP3    H242180   2.395   0.904   1.031
14075TIP3   OH242181   1.896   0.423   0.830
14075TIP3    H142182   1.865   0.348   0.880
14075TIP3    H242183   1.922   0.386   0.745
14076TIP3   OH242184   2.363   0.848   1.214
14076TIP3    H142185   2.275   0.881   1.230
14076TIP3    H242186   2.419   0.903   1.269
14077TIP3   OH242187   2.103   1.213   0.322
14077TIP3    H142188   2.028   1.157   0.301
14077TIP3    H242189   2.080   1.252   0.407
14078TIP3   OH242190   2.956   1.470   0.857
14078TIP3    H142191   2.992   1.511   0.778
14078TIP3    H242192   2.873   1.431   0.829
14079TIP3   OH242193   2.569   0.527   0.222
14079TIP3    H142194   2.475   0.507   0.219
14079TIP3    H242195   2.573   0.622   0.235
14080TIP3   OH242196   2.503   1.437   1.321
14080TIP3    H142197   2.583   1.422   1.371
14080TIP3    H242198   2.457   1.505   1.369
14081TIP3   OH242199   2.631   0.790   0.297
14081TIP3    H142200   2.726   0.794   0.306
14081TIP3    H242201   2.609   0.867   0.245
14082TIP3   OH242202   1.792   1.218   0.985
14082TIP3    H142203   1.835   1.204   0.900
14082TIP3    H242204   1.855   1.185   1.049
14083TIP3   OH242205   2.257   1.372   0.163
14083TIP3    H142206   2.210   1.456   0.161
14083TIP3    H242207   2.203   1.315   0.216
14084TIP3   OH242208   1.697   1.158   1.600
14084TIP3    H142209   1.728   1.149   1.690
14084TIP3    H242210   1.617   1.105   1.596
14085TIP3   OH242211   2.307   1.261   1.638
14085TIP3    H142212   2.250   1.198   1.595
14085TIP3    H242213   2.396   1.233   1.616
14086TIP3   OH242214   2.628   1.811   1.212
14086TIP3    H142215   2.534   1.798   1.220
14086TIP3    H242216   2.661   1.809   1.302
14087TIP3   OH242217   3.052   0.879   0.122
14087TIP3    H142218   2.996   0.833   0.059
14087TIP3    H242219   3.056   0.969   0.090
14088TIP3   OH242220   3.407   1.808   1.213
14088TIP3    H142221   3.328   1.768   1.176
14088TIP3    H242222   3.450   1.849   1.138
14089TIP3   OH242223   2.783   1.679   0.046
14089TIP3    H142224   2.755   1.613   0.109
14089TIP3    H242225   2.799   1.630  -0.035
14090TIP3   OH242226   2.729   1.315   0.824
14090TIP3    H142227   2.640   1.290   0.848
14090TIP3    H242228   2.770   1.233   0.795
14091TIP3   OH242229   1.917   1.564   0.638
14091TIP3    H142230   1.914   1.640   0.579
14091TIP3    H242231   1.829   1.560   0.677
14092TIP3   OH242232   1.465   0.857   0.335
14092TIP3    H142233   1.515   0.934   0.363
14092TIP3    H242234   1.389   0.855   0.393
14093TIP3   OH242235   2.013   1.319   0.554
14093TIP3    H142236   1.991   1.409   0.579
14093TIP3    H242237   1.986   1.267   0.629
14094TIP3   OH242238   2.151   1.847   1.082
14094TIP3    H142239   2.184   1.936   1.074
14094TIP3    H242240   2.226   1.795   1.111
14095TIP3   OH242241   1.826   1.787   0.486
14095TIP3    H142242   1.741   1.792   0.529
14095TIP3    H242243   1.857   1.877   0.483
14096TIP3   OH242244   2.552   1.519   1.057
14096TIP3    H142245   2.536   1.486   1.146
14096TIP3    H242246   2.628   1.470   1.027
14097TIP3   OH242247   5.374   5.437   6.881
14097TIP3    H142248   5.428   5.410   6.955
14097TIP3    H242249   5.287   5.402   6.901
14098TIP3   OH242250   2.843   1.989   1.131
14098TIP3    H142251   2.761   1.941   1.119
14098TIP3    H242252   2.862   1.982   1.225
14099TIP3   OH242253   5.696   5.902   6.682
14099TIP3    H142254   5.733   5.970   6.626
14099TIP3    H242255   5.615   5.941   6.716
14100TIP3   OH242256   1.848   0.662   1.584
14100TIP3    H142257   1.764   0.703   1.606
14100TIP3    H242258   1.835   0.569   1.604
14101TIP3   OH242259   2.710   1.344   0.134
14101TIP3    H142260   2.699   1.289   0.212
14101TIP3    H242261   2.805   1.353   0.125
14102TIP3   OH242262   1.609   1.785   1.260
14102TIP3    H142263   1.666   1.727   1.310
14102TIP3    H242264   1.630   1.873   1.293
14103TIP3   OH242265   4.730   5.404   6.888
14103TIP3    H142266   4.741   5.312   6.863
14103TIP3    H242267   4.715   5.402   6.982
14104TIP3   OH242268   1.845   1.411   0.222
14104TIP3    H142269   1.917   1.384   0.279
14104TIP3    H242270   1.844   1.507   0.228
14105TIP3   OH242271   1.571   1.101   0.427
14105TIP3    H142272   1.511   1.151   0.483
14105TIP3    H242273   1.597   1.164   0.360
14106TIP3   OH242274   2.732   0.726   1.302
14106TIP3    H142275   2.807   0.776   1.333
14106TIP3    H242276   2.727   0.650   1.360
14107TIP3   OH242277   2.624   0.477   0.490
14107TIP3    H142278   2.604   0.494   0.398
14107TIP3    H242279   2.664   0.558   0.521
14108TIP3   OH242280   2.109   1.599   0.160
14108TIP3    H142281   2.025   1.624   0.199
14108TIP3    H242282   2.136   1.675   0.109
14109TIP3   OH242283   2.282   0.677   0.583
14109TIP3    H142284   2.344   0.745   0.557
14109TIP3    H242285   2.303   0.658   0.674
14110TIP3   OH242286   2.572   0.951   1.368
14110TIP3    H142287   2.620   0.988   1.441
14110TIP3    H242288   2.619   0.871   1.345
14111TIP3   OH242289   2.441   0.376   0.673
14111TIP3    H142290   2.419   0.453   0.725
14111TIP3    H242291   2.510   0.406   0.613
14112TIP3   OH242292   1.856   1.683   0.234
14112TIP3    H142293   1.836   1.754   0.173
14112TIP3    H242294   1.845   1.722   0.321
14113TIP3   OH242295   1.956   0.396   0.478
14113TIP3    H142296   1.946   0.486   0.508
14113TIP3    H242297   2.050   0.379   0.483
14114TIP3   OH242298   3.147   0.793   1.322
14114TIP3    H142299   3.064   0.841   1.319
14114TIP3    H242300   3.158   0.759   1.234
14115TIP3   OH242301   2.843   1.072   0.739
14115TIP3    H142302   2.765   1.017   0.743
14115TIP3    H242303   2.913   1.016   0.771
14116TIP3   OH242304   1.596   1.291   0.220
14116TIP3    H142305   1.668   1.352   0.231
14116TIP3    H242306   1.627   1.228   0.156
14117TIP3   OH242307   1.504   0.579   0.348
14117TIP3    H142308   1.510   0.674   0.349
14117TIP3    H242309   1.429   0.559   0.293
14118TIP3   OH242310   2.786   1.947   0.559
14118TIP3    H142311   2.718   2.007   0.531
14118TIP3    H242312   2.854   2.003   0.597
14119TIP3   OH242313   1.911   0.301   1.213
14119TIP3    H142314   1.880   0.271   1.127
14119TIP3    H242315   1.900   0.225   1.270
14120TIP3   OH242316   1.431   1.541   0.625
14120TIP3    H142317   1.392   1.582   0.702
14120TIP3    H242318   1.389   1.585   0.550
14121TIP3   OH242319   1.605   2.029   1.642
14121TIP3    H142320   1.684   2.029   1.696
14121TIP3    H242321   1.569   1.941   1.652
14122TIP3   OH242322   4.889   5.606   6.783
14122TIP3    H142323   4.842   5.534   6.826
14122TIP3    H242324   4.964   5.564   6.742
14123TIP3   OH242325   2.703   2.043   1.471
14123TIP3    H142326   2.649   1.966   1.491
14123TIP3    H242327   2.698   2.096   1.551
14124TIP3   OH242328   5.331   5.642   6.703
14124TIP3    H142329   5.364   5.577   6.766
14124TIP3    H242330   5.392   5.636   6.629
14125TIP3   OH242331   1.715   1.094   0.074
14125TIP3    H142332   1.769   1.071   0.149
14125TIP3    H242333   1.778   1.106   0.002
14126TIP3   OH242334   2.193   1.505   1.652
14126TIP3    H142335   2.248   1.552   1.589
14126TIP3    H242336   2.229   1.416   1.654
14127TIP3   OH242337   5.096   5.323   6.833
14127TIP3    H142338   5.084   5.335   6.928
14127TIP3    H242339   5.089   5.229   6.820
14128TIP3   OH242340   2.771   1.565   1.245
14128TIP3    H142341   2.838   1.594   1.183
14128TIP3    H242342   2.695   1.620   1.227
14129TIP3   OH242343   1.854   1.117   1.844
14129TIP3    H142344   1.937   1.080   1.815
14129TIP3    H242345   1.878   1.177   1.914
14130TIP3   OH242346   1.895   1.032   0.280
14130TIP3    H142347   1.877   1.001   0.369
14130TIP3    H242348   1.942   0.960   0.239
14131TIP3   OH242349   2.180   1.075   1.488
14131TIP3    H142350   2.100   1.127   1.491
14131TIP3    H242351   2.230   1.111   1.415
14132TIP3   OH242352   2.032   0.843   0.126
14132TIP3    H142353   2.004   0.846   0.034
14132TIP3    H242354   2.127   0.849   0.121
14133TIP3   OH242355   5.665   5.146   6.743
14133TIP3    H142356   5.651   5.104   6.658
14133TIP3    H242357   5.638   5.237   6.730
14134TIP3   OH242358   2.326   0.891   1.636
14134TIP3    H142359   2.331   0.810   1.584
14134TIP3    H242360   2.279   0.952   1.579
14135TIP3   OH242361   2.322   0.675   1.445
14135TIP3    H142362   2.349   0.716   1.363
14135TIP3    H242363   2.229   0.656   1.433
14136TIP3   OH242364   2.332   1.203   1.302
14136TIP3    H142365   2.413   1.254   1.306
14136TIP3    H242366   2.269   1.261   1.259
14137TIP3   OH242367   2.892   1.398   1.422
14137TIP3    H142368   2.844   1.451   1.359
14137TIP3    H242369   2.984   1.411   1.399
14138TIP3   OH242370   2.095   0.995   1.789
14138TIP3    H142371   2.080   0.917   1.842
14138TIP3    H242372   2.182   0.982   1.750
14139TIP3   OH242373   2.445   0.439   1.535
14139TIP3    H142374   2.403   0.521   1.507
14139TIP3    H242375   2.377   0.372   1.523
14140TIP3   OH242376   2.575   0.949   1.753
14140TIP3    H142377   2.562   0.961   1.847
14140TIP3    H242378   2.489   0.922   1.721
14141TIP3   OH242379   2.809   0.724   1.659
14141TIP3    H142380   2.721   0.763   1.655
14141TIP3    H242381   2.864   0.794   1.695
14142TIP3   OH242382   2.074   0.754   1.918
14142TIP3    H142383   2.126   0.684   1.879
14142TIP3    H242384   2.064   0.729   2.010
14143TIP3   OH242385   2.545   0.382   1.788
14143TIP3    H142386   2.628   0.339   1.765
14143TIP3    H242387   2.508   0.408   1.703
14144TIP3   OH242388   1.846   1.884   0.045
14144TIP3    H142389   1.938   1.870   0.026
14144TIP3    H242390   1.813   1.935  -0.029
14145TIP3   OH242391   1.323   1.279   0.227
14145TIP3    H142392   1.416   1.302   0.228
14145TIP3    H242393   1.321   1.186   0.248
14146TIP3   OH242394   1.229   1.860   0.692
14146TIP3    H142395   1.163   1.807   0.647
14146TIP3    H242396   1.271   1.800   0.753
14147TIP3   OH242397   1.370   1.693   0.861
14147TIP3    H142398   1.359   1.628   0.930
14147TIP3    H242399   1.421   1.762   0.902
14148TIP3   OH242400   3.031   2.114   0.592
14148TIP3    H142401   3.031   2.112   0.688
14148TIP3    H242402   2.967   2.183   0.570
14149TIP3   OH242403   2.984   1.350   0.122
14149TIP3    H142404   3.050   1.414   0.094
14149TIP3    H242405   3.023   1.307   0.198
14150TIP3   OH242406   3.089   1.190   0.315
14150TIP3    H142407   3.022   1.148   0.369
14150TIP3    H242408   3.156   1.218   0.377
14151TIP3   OH242409   3.133   1.593   0.691
14151TIP3    H142410   3.193   1.536   0.642
14151TIP3    H242411   3.129   1.674   0.640
14152TIP3   OH242412   3.082   1.895   1.037
14152TIP3    H142413   3.010   1.932   1.087
14152TIP3    H242414   3.048   1.890   0.947
14153TIP3   OH242415   5.872   5.124   6.922
14153TIP3    H142416   5.801   5.122   6.857
14153TIP3    H242417   5.855   5.203   6.974
14154TIP3   OH242418   5.733   4.779   6.862
14154TIP3    H142419   5.688   4.818   6.787
14154TIP3    H242420   5.720   4.685   6.852
14155TIP3   OH242421   2.912   1.054   0.472
14155TIP3    H142422   2.922   0.959   0.465
14155TIP3    H242423   2.894   1.069   0.565
14156TIP3   OH242424   1.544   1.135   1.232
14156TIP3    H142425   1.536   1.101   1.143
14156TIP3    H242426   1.638   1.130   1.251
14157TIP3   OH242427   3.167   1.408   1.379
14157TIP3    H142428   3.260   1.405   1.401
14157TIP3    H242429   3.159   1.480   1.317
14158TIP3   OH242430   3.414   1.276   1.377
14158TIP3    H142431   3.374   1.248   1.459
14158TIP3    H242432   3.504   1.244   1.382
14159TIP3   OH242433   5.687   4.510   6.839
14159TIP3    H142434   5.753   4.480   6.901
14159TIP3    H242435   5.607   4.466   6.866
14160TIP3   OH242436   2.921   0.782   0.360
14160TIP3    H142437   2.967   0.698   0.373
14160TIP3    H242438   2.965   0.822   0.286
14161TIP3   OH242439   3.050   0.900   0.809
14161TIP3    H142440   3.134   0.926   0.773
14161TIP3    H242441   3.048   0.940   0.896
14162TIP3   OH242442   3.037   1.051   1.030
14162TIP3    H142443   2.957   1.075   1.077
14162TIP3    H242444   3.066   1.133   0.989
14163TIP3   OH242445   3.032   0.530   0.409
14163TIP3    H142446   3.076   0.515   0.492
14163TIP3    H242447   2.969   0.458   0.401
14164TIP3   OH242448   1.741   0.521   1.223
14164TIP3    H142449   1.797   0.444   1.229
14164TIP3    H242450   1.801   0.594   1.209
14165TIP3   OH242451   1.524   0.787   1.306
14165TIP3    H142452   1.575   0.787   1.225
14165TIP3    H242453   1.534   0.875   1.341
14166TIP3   OH242454   3.417   0.768   1.470
14166TIP3    H142455   3.387   0.845   1.422
14166TIP3    H242456   3.399   0.695   1.411
14167TIP3   OH242457   3.088   0.452   0.048
14167TIP3    H142458   3.132   0.390  -0.010
14167TIP3    H242459   3.145   0.529   0.047
14168TIP3   OH242460   1.513   0.294   0.803
14168TIP3    H142461   1.425   0.284   0.841
14168TIP3    H242462   1.499   0.348   0.725
14169TIP3   OH242463   2.636   1.937   0.272
14169TIP3    H142464   2.706   1.937   0.208
14169TIP3    H242465   2.654   2.013   0.328
14170TIP3   OH242466   1.735   0.387   1.612
14170TIP3    H142467   1.673   0.379   1.684
14170TIP3    H242468   1.683   0.423   1.540
14171TIP3   OH242469   1.768   1.771   1.701
14171TIP3    H142470   1.673   1.763   1.693
14171TIP3    H242471   1.783   1.774   1.796
14172TIP3   OH242472   1.918   1.811   1.217
14172TIP3    H142473   1.865   1.881   1.179
14172TIP3    H242474   2.005   1.823   1.179
14173TIP3   OH242475   2.381   2.058   1.354
14173TIP3    H142476   2.419   2.124   1.411
14173TIP3    H242477   2.412   2.081   1.266
14174TIP3   OH242478   2.586   2.184   1.209
14174TIP3    H142479   2.639   2.166   1.286
14174TIP3    H242480   2.547   2.270   1.226
14175TIP3   OH242481   3.368   0.578   1.271
14175TIP3    H142482   3.278   0.559   1.242
14175TIP3    H242483   3.386   0.510   1.336
14176TIP3   OH242484   1.625   2.080   1.290
14176TIP3    H142485   1.538   2.109   1.265
14176TIP3    H242486   1.650   2.137   1.363
14177TIP3   OH242487   1.801   2.017   1.088
14177TIP3    H142488   1.741   2.054   1.153
14177TIP3    H242489   1.796   2.077   1.014
14178TIP3   OH242490   2.263   2.099   0.824
14178TIP3    H142491   2.170   2.090   0.803
14178TIP3    H242492   2.273   2.189   0.854
14179TIP3   OH242493   2.604   1.969   0.972
14179TIP3    H142494   2.565   1.962   1.059
14179TIP3    H242495   2.570   2.052   0.937
14180TIP3   OH242496   2.795   2.166   0.748
14180TIP3    H142497   2.778   2.229   0.818
14180TIP3    H242498   2.720   2.106   0.752
14181TIP3   OH242499   1.537   1.872   1.005
14181TIP3    H142500   1.560   1.852   1.096
14181TIP3    H242501   1.613   1.843   0.954
14182TIP3   OH242502   1.737   1.750   0.867
14182TIP3    H142503   1.750   1.669   0.916
14182TIP3    H242504   1.823   1.793   0.869
14183TIP3   OH242505   1.999   1.837   0.856
14183TIP3    H142506   2.024   1.746   0.840
14183TIP3    H242507   2.039   1.858   0.941
14184TIP3   OH242508   2.579   0.504   0.976
14184TIP3    H142509   2.531   0.436   1.023
14184TIP3    H242510   2.643   0.456   0.923
14185TIP3   OH242511   3.074   0.398   0.865
14185TIP3    H142512   3.119   0.443   0.794
14185TIP3    H242513   2.985   0.434   0.864
14186TIP3   OH242514   3.191   0.479   0.633
14186TIP3    H142515   3.262   0.423   0.602
14186TIP3    H242516   3.219   0.568   0.612
14187TIP3   OH242517   1.817   0.200   0.973
14187TIP3    H142518   1.727   0.169   0.980
14187TIP3    H242519   1.869   0.120   0.963
14188TIP3   OH242520   1.630   0.097   0.631
14188TIP3    H142521   1.657   0.147   0.554
14188TIP3    H242522   1.596   0.162   0.692
14189TIP3   OH242523   2.287   0.237   0.866
14189TIP3    H142524   2.333   0.279   0.794
14189TIP3    H242525   2.322   0.278   0.945
14190TIP3   OH242526   2.781   0.371   0.848
14190TIP3    H142527   2.808   0.340   0.762
14190TIP3    H242528   2.789   0.295   0.905
14191TIP3   OH242529   2.845   0.323   0.411
14191TIP3    H142530   2.765   0.370   0.434
14191TIP3    H242531   2.835   0.237   0.450
14192TIP3   OH242532   1.320   1.661   0.405
14192TIP3    H142533   1.235   1.629   0.374
14192TIP3    H242534   1.323   1.752   0.375
14193TIP3   OH242535   1.742   0.231   0.394
14193TIP3    H142536   1.787   0.168   0.337
14193TIP3    H242537   1.812   0.286   0.429
14194TIP3   OH242538   2.231   0.425   0.488
14194TIP3    H142539   2.292   0.373   0.542
14194TIP3    H242540   2.247   0.515   0.515
14195TIP3   OH242541   4.942   5.831   6.930
14195TIP3    H142542   5.025   5.860   6.891
14195TIP3    H242543   4.914   5.758   6.874
14196TIP3   OH242544   2.805   1.947   0.056
14196TIP3    H142545   2.802   1.852   0.050
14196TIP3    H242546   2.757   1.978  -0.020
14197TIP3   OH242547   1.404   1.644   0.058
14197TIP3    H142548   1.417   1.673   0.148
14197TIP3    H242549   1.490   1.612   0.030
14198TIP3   OH242550   4.314   1.362   0.050
14198TIP3    H142551   4.284   1.434   0.105
14198TIP3    H242552   4.247   1.355  -0.018
14199TIP3   OH242553   4.280   1.458   0.426
14199TIP3    H142554   4.363   1.460   0.474
14199TIP3    H242555   4.264   1.365   0.411
14200TIP3   OH242556   3.560   1.397   0.762
14200TIP3    H142557   3.583   1.347   0.841
14200TIP3    H242558   3.623   1.469   0.760
14201TIP3   OH242559   3.590   1.868   0.542
14201TIP3    H142560   3.617   1.776   0.536
14201TIP3    H242561   3.670   1.915   0.565
14202TIP3   OH242562   3.282   0.975   0.262
14202TIP3    H142563   3.243   1.060   0.282
14202TIP3    H242564   3.211   0.925   0.222
14203TIP3   OH242565   3.303   1.225   0.471
14203TIP3    H142566   3.354   1.148   0.496
14203TIP3    H242567   3.366   1.282   0.426
14204TIP3   OH242568   4.158   1.684   0.375
14204TIP3    H142569   4.185   1.593   0.377
14204TIP3    H242570   4.240   1.733   0.374
14205TIP3   OH242571   4.579   1.131   0.487
14205TIP3    H142572   4.550   1.054   0.536
14205TIP3    H242573   4.515   1.139   0.416
14206TIP3   OH242574   3.869   0.847   0.386
14206TIP3    H142575   3.841   0.924   0.336
14206TIP3    H242576   3.818   0.775   0.351
14207TIP3   OH242577   4.687   0.927   0.112
14207TIP3    H142578   4.678   0.835   0.087
14207TIP3    H242579   4.718   0.970   0.032
14208TIP3   OH242580   3.477   1.039   0.561
14208TIP3    H142581   3.554   1.073   0.606
14208TIP3    H242582   3.512   0.993   0.485
14209TIP3   OH242583   3.995   1.185   0.209
14209TIP3    H142584   3.999   1.241   0.287
14209TIP3    H242585   3.915   1.134   0.222
14210TIP3   OH242586   3.634   0.882   0.904
14210TIP3    H142587   3.602   0.817   0.842
14210TIP3    H242588   3.634   0.838   0.988
14211TIP3   OH242589   7.052   5.769   6.695
14211TIP3    H142590   6.999   5.714   6.637
14211TIP3    H242591   6.990   5.831   6.733
14212TIP3   OH242592   3.952   1.651   0.574
14212TIP3    H142593   3.871   1.690   0.607
14212TIP3    H242594   4.020   1.714   0.596
14213TIP3   OH242595   3.733   0.870   0.626
14213TIP3    H142596   3.733   0.964   0.646
14213TIP3    H242597   3.772   0.864   0.539
14214TIP3   OH242598   6.005   5.524   6.952
14214TIP3    H142599   5.972   5.544   6.864
14214TIP3    H242600   6.032   5.609   6.987
14215TIP3   OH242601   4.129   0.549   0.485
14215TIP3    H142602   4.196   0.508   0.539
14215TIP3    H242603   4.058   0.569   0.547
14216TIP3   OH242604   7.314   5.848   6.672
14216TIP3    H142605   7.227   5.810   6.680
14216TIP3    H242606   7.334   5.881   6.760
14217TIP3   OH242607   6.975   5.334   6.784
14217TIP3    H142608   6.894   5.380   6.764
14217TIP3    H242609   7.024   5.334   6.701
14218TIP3   OH242610   6.926   5.127   6.499
14218TIP3    H142611   6.963   5.123   6.587
14218TIP3    H242612   6.985   5.074   6.446
14219TIP3   OH242613   7.322   5.421   6.785
14219TIP3    H142614   7.281   5.392   6.866
14219TIP3    H242615   7.416   5.407   6.799
14220TIP3   OH242616   3.722   1.387   0.210
14220TIP3    H142617   3.674   1.338   0.144
14220TIP3    H242618   3.809   1.347   0.213
14221TIP3   OH242619   3.913   1.822   0.345
14221TIP3    H142620   3.827   1.783   0.327
14221TIP3    H242621   3.960   1.755   0.395
14222TIP3   OH242622   3.785   1.374   0.517
14222TIP3    H142623   3.748   1.293   0.481
14222TIP3    H242624   3.864   1.388   0.466
14223TIP3   OH242625   7.180   5.267   6.603
14223TIP3    H142626   7.236   5.334   6.643
14223TIP3    H242627   7.194   5.278   6.508
14224TIP3   OH242628   3.733   1.584   0.876
14224TIP3    H142629   3.668   1.654   0.884
14224TIP3    H242630   3.725   1.534   0.957
14225TIP3   OH242631   6.902   5.965   6.801
14225TIP3    H142632   6.980   6.005   6.839
14225TIP3    H242633   6.857   6.038   6.758
14226TIP3   OH242634   7.666   4.510   6.656
14226TIP3    H142635   7.585   4.526   6.704
14226TIP3    H242636   7.678   4.588   6.602
14227TIP3   OH242637   3.589   1.240   0.021
14227TIP3    H142638   3.516   1.293  -0.011
14227TIP3    H242639   3.547   1.159   0.051
14228TIP3   OH242640   7.485   5.889   6.203
14228TIP3    H142641   7.484   5.985   6.199
14228TIP3    H242642   7.571   5.865   6.168
14229TIP3   OH242643   3.502   1.695   0.972
14229TIP3    H142644   3.416   1.654   0.963
14229TIP3    H242645   3.543   1.649   1.045
14230TIP3   OH242646   3.169   1.848   0.579
14230TIP3    H142647   3.244   1.842   0.638
14230TIP3    H242648   3.124   1.928   0.605
14231TIP3   OH242649   6.799   6.184   6.667
14231TIP3    H142650   6.748   6.165   6.588
14231TIP3    H242651   6.769   6.271   6.694
14232TIP3   OH242652   3.307   2.039   0.117
14232TIP3    H142653   3.316   2.027   0.211
14232TIP3    H242654   3.264   1.959   0.086
14233TIP3   OH242655   6.992   6.098   6.298
14233TIP3    H142656   7.045   6.027   6.262
14233TIP3    H242657   7.027   6.111   6.387
14234TIP3   OH242658   7.047   6.126   6.568
14234TIP3    H142659   6.965   6.142   6.613
14234TIP3    H242660   7.090   6.057   6.618
14235TIP3   OH242661   3.953   0.588   0.690
14235TIP3    H142662   3.860   0.571   0.675
14235TIP3    H242663   3.956   0.678   0.724
14236TIP3   OH242664   4.431   0.769   0.867
14236TIP3    H142665   4.482   0.844   0.899
14236TIP3    H242666   4.368   0.751   0.937
14237TIP3   OH242667   7.240   5.274   6.336
14237TIP3    H142668   7.196   5.274   6.250
14237TIP3    H242669   7.318   5.328   6.322
14238TIP3   OH242670   6.947   4.684   6.647
14238TIP3    H142671   6.908   4.692   6.733
14238TIP3    H242672   6.910   4.603   6.610
14239TIP3   OH242673   3.968   1.070   0.781
14239TIP3    H142674   3.912   1.068   0.859
14239TIP3    H242675   3.943   1.151   0.737
14240TIP3   OH242676   3.753   1.055   0.250
14240TIP3    H142677   3.668   1.027   0.285
14240TIP3    H242678   3.757   1.014   0.163
14241TIP3   OH242679   7.006   5.061   6.776
14241TIP3    H142680   6.987   5.152   6.797
14241TIP3    H242681   7.101   5.056   6.773
14242TIP3   OH242682   4.484   1.031   0.247
14242TIP3    H142683   4.392   1.053   0.231
14242TIP3    H242684   4.516   1.001   0.162
14243TIP3   OH242685   3.699   1.280   0.966
14243TIP3    H142686   3.778   1.328   0.941
14243TIP3    H242687   3.731   1.207   1.019
14244TIP3   OH242688   6.611   4.675   6.628
14244TIP3    H142689   6.599   4.673   6.723
14244TIP3    H242690   6.533   4.720   6.595
14245TIP3   OH242691   3.284   0.709   0.527
14245TIP3    H142692   3.362   0.735   0.576
14245TIP3    H242693   3.319   0.675   0.444
14246TIP3   OH242694   3.245   0.684   0.060
14246TIP3    H142695   3.290   0.719  -0.016
14246TIP3    H242696   3.182   0.753   0.084
14247TIP3   OH242697   4.143   0.925   0.322
14247TIP3    H142698   4.063   0.882   0.352
14247TIP3    H242699   4.212   0.860   0.337
14248TIP3   OH242700   3.540   0.904   0.334
14248TIP3    H142701   3.451   0.915   0.302
14248TIP3    H242702   3.565   0.815   0.307
14249TIP3   OH242703   6.617   4.918   6.965
14249TIP3    H142704   6.712   4.923   6.953
14249TIP3    H242705   6.581   4.940   6.879
14250TIP3   OH242706   6.502   4.957   6.722
14250TIP3    H142707   6.437   4.908   6.671
14250TIP3    H242708   6.558   4.999   6.657
14251TIP3   OH242709   4.267   1.193   0.378
14251TIP3    H142710   4.225   1.145   0.306
14251TIP3    H242711   4.261   1.134   0.453
14252TIP3   OH242712   3.689   0.658   0.295
14252TIP3    H142713   3.659   0.588   0.352
14252TIP3    H242714   3.715   0.615   0.214
14253TIP3   OH242715   4.240   1.055   0.601
14253TIP3    H142716   4.192   1.075   0.682
14253TIP3    H242717   4.240   0.960   0.597
14254TIP3   OH242718   6.734   5.459   6.731
14254TIP3    H142719   6.659   5.403   6.711
14254TIP3    H242720   6.714   5.498   6.816
14255TIP3   OH242721   7.196   4.786   6.630
14255TIP3    H142722   7.103   4.766   6.632
14255TIP3    H242723   7.201   4.881   6.645
14256TIP3   OH242724   7.278   5.040   6.728
14256TIP3    H142725   7.373   5.037   6.735
14256TIP3    H242726   7.260   5.119   6.678
14257TIP3   OH242727   3.513   1.365   0.390
14257TIP3    H142728   3.586   1.387   0.332
14257TIP3    H242729   3.516   1.431   0.459
14258TIP3   OH242730   6.862   5.626   6.560
14258TIP3    H142731   6.809   5.706   6.565
14258TIP3    H242732   6.817   5.564   6.618
14259TIP3   OH242733   3.359   1.371   1.129
14259TIP3    H142734   3.372   1.330   1.215
14259TIP3    H242735   3.371   1.299   1.067
14260TIP3   OH242736   7.685   5.129   6.540
14260TIP3    H142737   7.631   5.084   6.475
14260TIP3    H242738   7.684   5.221   6.513
14261TIP3   OH242739   7.344   5.972   6.435
14261TIP3    H142740   7.335   5.919   6.514
14261TIP3    H242741   7.385   5.914   6.371
14262TIP3   OH242742   3.792   1.848   0.029
14262TIP3    H142743   3.723   1.890  -0.022
14262TIP3    H242744   3.749   1.822   0.111
14263TIP3   OH242745   6.107   5.114   6.777
14263TIP3    H142746   6.149   5.198   6.794
14263TIP3    H242747   6.027   5.116   6.830
14264TIP3   OH242748   3.842   1.570   0.026
14264TIP3    H142749   3.823   1.664   0.023
14264TIP3    H242750   3.769   1.532   0.075
14265TIP3   OH242751   6.474   6.125   6.844
14265TIP3    H142752   6.418   6.183   6.895
14265TIP3    H242753   6.562   6.140   6.878
14266TIP3   OH242754   7.167   5.683   6.360
14266TIP3    H142755   7.214   5.645   6.435
14266TIP3    H242756   7.081   5.641   6.362
14267TIP3   OH242757   7.479   6.168   6.186
14267TIP3    H142758   7.515   6.219   6.114
14267TIP3    H242759   7.395   6.209   6.205
14268TIP3   OH242760   3.675   0.852   1.205
14268TIP3    H142761   3.623   0.932   1.196
14268TIP3    H242762   3.720   0.861   1.289
14269TIP3   OH242763   7.324   5.557   6.547
14269TIP3    H142764   7.315   5.522   6.636
14269TIP3    H242765   7.415   5.584   6.540
14270TIP3   OH242766   3.562   2.022   0.810
14270TIP3    H142767   3.548   1.983   0.723
14270TIP3    H242768   3.482   2.071   0.827
14271TIP3   OH242769   6.531   5.659   6.373
14271TIP3    H142770   6.540   5.567   6.346
14271TIP3    H242771   6.511   5.655   6.466
14272TIP3   OH242772   6.470   5.675   6.642
14272TIP3    H142773   6.533   5.650   6.709
14272TIP3    H242774   6.464   5.770   6.648
14273TIP3   OH242775   6.202   5.363   6.848
14273TIP3    H142776   6.141   5.408   6.906
14273TIP3    H242777   6.227   5.429   6.783
14274TIP3   OH242778   7.254   4.760   6.896
14274TIP3    H142779   7.237   4.750   6.803
14274TIP3    H242780   7.241   4.853   6.913
14275TIP3   OH242781   6.725   5.857   6.571
14275TIP3    H142782   6.639   5.883   6.606
14275TIP3    H242783   6.753   5.932   6.519
14276TIP3   OH242784   4.060   0.908   0.048
14276TIP3    H142785   4.106   0.962  -0.017
14276TIP3    H242786   4.101   0.932   0.132
14277TIP3   OH242787   4.249   0.617   0.134
14277TIP3    H142788   4.272   0.655   0.218
14277TIP3    H242789   4.306   0.661   0.071
14278TIP3   OH242790   6.474   5.949   6.640
14278TIP3    H142791   6.450   6.002   6.563
14278TIP3    H242792   6.473   6.011   6.713
14279TIP3   OH242793   6.577   4.649   6.907
14279TIP3    H142794   6.569   4.739   6.937
14279TIP3    H242795   6.671   4.630   6.910
14280TIP3   OH242796   4.711   1.307   0.141
14280TIP3    H142797   4.632   1.304   0.195
14280TIP3    H242798   4.727   1.400   0.127
14281TIP3   OH242799   6.219   5.552   6.639
14281TIP3    H142800   6.292   5.613   6.651
14281TIP3    H242801   6.252   5.487   6.577
14282TIP3   OH242802   6.139   4.838   6.778
14282TIP3    H142803   6.149   4.933   6.785
14282TIP3    H242804   6.073   4.826   6.710
14283TIP3   OH242805   3.681   0.544   0.698
14283TIP3    H142806   3.657   0.509   0.612
14283TIP3    H242807   3.677   0.469   0.757
14284TIP3   OH242808   3.205   1.782   0.082
14284TIP3    H142809   3.143   1.803   0.153
14284TIP3    H242810   3.165   1.821   0.004
14285TIP3   OH242811   6.687   5.859   6.264
14285TIP3    H142812   6.640   5.789   6.309
14285TIP3    H242813   6.762   5.815   6.224
14286TIP3   OH242814   7.132   5.894   6.186
14286TIP3    H142815   7.160   5.834   6.256
14286TIP3    H242816   7.201   5.886   6.119
14287TIP3   OH242817   6.350   5.360   6.494
14287TIP3    H142818   6.399   5.334   6.572
14287TIP3    H242819   6.416   5.372   6.427
14288TIP3   OH242820   6.905   5.573   6.300
14288TIP3    H142821   6.878   5.588   6.391
14288TIP3    H242822   6.893   5.478   6.287
14289TIP3   OH242823   6.522   5.288   6.701
14289TIP3    H142824   6.495   5.260   6.789
14289TIP3    H242825   6.564   5.211   6.663
14290TIP3   OH242826   3.938   1.399   1.055
14290TIP3    H142827   3.930   1.490   1.083
14290TIP3    H242828   4.006   1.402   0.987
14291TIP3   OH242829   6.655   5.099   6.547
14291TIP3    H142830   6.624   5.107   6.456
14291TIP3    H242831   6.750   5.104   6.540
14292TIP3   OH242832   7.461   5.406   6.226
14292TIP3    H142833   7.445   5.363   6.142
14292TIP3    H242834   7.434   5.497   6.212
14293TIP3   OH242835   4.090   1.148   1.090
14293TIP3    H142836   4.099   1.092   1.013
14293TIP3    H242837   4.002   1.185   1.082
14294TIP3   OH242838   4.164   0.909   0.900
14294TIP3    H142839   4.187   0.995   0.865
14294TIP3    H242840   4.073   0.895   0.874
14295TIP3   OH242841   4.202   0.652   0.975
14295TIP3    H142842   4.176   0.741   0.950
14295TIP3    H242843   4.119   0.604   0.978
14296TIP3   OH242844   3.883   1.020   1.382
14296TIP3    H142845   3.963   0.967   1.375
14296TIP3    H242846   3.911   1.100   1.427
14297TIP3   OH242847   4.406   0.673   1.350
14297TIP3    H142848   4.467   0.622   1.296
14297TIP3    H242849   4.319   0.652   1.315
14298TIP3   OH242850   6.471   6.144   6.447
14298TIP3    H142851   6.566   6.136   6.434
14298TIP3    H242852   6.441   6.197   6.372
14299TIP3   OH242853   5.948   5.535   6.666
14299TIP3    H142854   6.042   5.550   6.660
14299TIP3    H242855   5.935   5.448   6.627
14300TIP3   OH242856   3.014   2.099   0.126
14300TIP3    H142857   2.946   2.050   0.079
14300TIP3    H242858   3.056   2.034   0.182
14301TIP3   OH242859   3.081   1.898   0.301
14301TIP3    H142860   3.022   1.853   0.361
14301TIP3    H242861   3.136   1.952   0.358
14302TIP3   OH242862   7.598   5.591   6.560
14302TIP3    H142863   7.646   5.662   6.517
14302TIP3    H242864   7.650   5.573   6.639
14303TIP3   OH242865   7.765   5.482   6.759
14303TIP3    H142866   7.695   5.421   6.781
14303TIP3    H242867   7.777   5.534   6.838
14304TIP3   OH242868   7.656   5.369   6.413
14304TIP3    H142869   7.588   5.372   6.347
14304TIP3    H242870   7.637   5.443   6.471
14305TIP3   OH242871   7.529   5.030   6.341
14305TIP3    H142872   7.477   5.069   6.270
14305TIP3    H242873   7.517   4.936   6.331
14306TIP3   OH242874   7.575   5.291   6.815
14306TIP3    H142875   7.572   5.196   6.800
14306TIP3    H242876   7.569   5.300   6.911
14307TIP3   OH242877   3.295   1.352   0.708
14307TIP3    H142878   3.291   1.322   0.617
14307TIP3    H242879   3.386   1.380   0.720
14308TIP3   OH242880   7.486   4.761   6.320
14308TIP3    H142881   7.549   4.733   6.386
14308TIP3    H242882   7.404   4.718   6.345
14309TIP3   OH242883   7.561   5.019   6.763
14309TIP3    H142884   7.599   4.932   6.777
14309TIP3    H242885   7.606   5.052   6.686
14310TIP3   OH242886   3.620   1.094   1.403
14310TIP3    H142887   3.712   1.069   1.395
14310TIP3    H242888   3.593   1.060   1.488
14311TIP3   OH242889   7.666   4.777   6.838
14311TIP3    H142890   7.720   4.763   6.916
14311TIP3    H242891   7.607   4.702   6.835
14312TIP3   OH242892   3.498   0.746   0.698
14312TIP3    H142893   3.548   0.665   0.704
14312TIP3    H242894   3.559   0.808   0.656
14313TIP3   OH242895   3.276   1.033   0.741
14313TIP3    H142896   3.348   1.009   0.682
14313TIP3    H242897   3.246   1.118   0.708
14314TIP3   OH242898   7.715   4.716   6.479
14314TIP3    H142899   7.757   4.652   6.421
14314TIP3    H242900   7.775   4.791   6.479
14315TIP3   OH242901   3.302   0.550   0.289
14315TIP3    H142902   3.214   0.531   0.320
14315TIP3    H242903   3.290   0.602   0.210
14316TIP3   OH242904   3.490   0.571   1.026
14316TIP3    H142905   3.461   0.570   1.117
14316TIP3    H242906   3.422   0.620   0.980
14317TIP3   OH242907   3.438   2.140   0.581
14317TIP3    H142908   3.381   2.182   0.646
14317TIP3    H242909   3.378   2.094   0.522
14318TIP3   OH242910   3.461   1.916   0.312
14318TIP3    H142911   3.484   1.893   0.402
14318TIP3    H242912   3.492   2.006   0.302
14319TIP3   OH242913   3.812   2.067   0.293
14319TIP3    H142914   3.856   1.987   0.320
14319TIP3    H242915   3.866   2.138   0.330
14320TIP3   OH242916   4.343   0.739   0.362
14320TIP3    H142917   4.323   0.720   0.454
14320TIP3    H242918   4.435   0.716   0.353
14321TIP3   OH242919   4.897   0.641   0.343
14321TIP3    H142920   4.935   0.696   0.274
14321TIP3    H242921   4.819   0.688   0.370
14322TIP3   OH242922   5.000   0.749   0.116
14322TIP3    H142923   5.067   0.686   0.088
14322TIP3    H242924   5.039   0.834   0.100
14323TIP3   OH242925   3.611   0.444   0.454
14323TIP3    H142926   3.521   0.413   0.462
14323TIP3    H242927   3.664   0.365   0.448
14324TIP3   OH242928   3.430   0.353   0.119
14324TIP3    H142929   3.455   0.401   0.040
14324TIP3    H242930   3.395   0.419   0.177
14325TIP3   OH242931   4.028   0.486   0.249
14325TIP3    H142932   4.092   0.529   0.192
14325TIP3    H242933   4.055   0.509   0.337
14326TIP3   OH242934   4.600   0.646   0.301
14326TIP3    H142935   4.632   0.600   0.224
14326TIP3    H242936   4.594   0.579   0.369
14327TIP3   OH242937   7.472   4.584   6.846
14327TIP3    H142938   7.390   4.631   6.862
14327TIP3    H242939   7.458   4.497   6.883
14328TIP3   OH242940   5.940   5.928   6.812
14328TIP3    H142941   5.856   5.893   6.783
14328TIP3    H242942   5.942   6.017   6.777
14329TIP3   OH242943   6.366   4.489   6.821
14329TIP3    H142944   6.410   4.428   6.762
14329TIP3    H242945   6.436   4.544   6.855
14330TIP3   OH242946   6.850   4.664   6.904
14330TIP3    H142947   6.913   4.608   6.950
14330TIP3    H242948   6.865   4.752   6.940
14331TIP3   OH242949   6.738   6.087   6.405
14331TIP3    H142950   6.822   6.113   6.368
14331TIP3    H242951   6.708   6.015   6.349
14332TIP3   OH242952   7.464   6.215   6.482
14332TIP3    H142953   7.410   6.136   6.491
14332TIP3    H242954   7.498   6.211   6.392
14333TIP3   OH242955   4.128   0.889   1.380
14333TIP3    H142956   4.152   0.798   1.364
14333TIP3    H242957   4.150   0.905   1.471
14334TIP3   OH242958   6.043   5.930   6.465
14334TIP3    H142959   6.041   5.945   6.560
14334TIP3    H242960   6.125   5.884   6.450
14335TIP3   OH242961   7.914   5.246   6.684
14335TIP3    H142962   7.880   5.333   6.705
14335TIP3    H242963   7.839   5.199   6.647
14336TIP3   OH242964   7.746   5.774   6.408
14336TIP3    H142965   7.725   5.780   6.314
14336TIP3    H242966   7.720   5.859   6.443
14337TIP3   OH242967   0.208   4.939   6.131
14337TIP3    H142968   0.203   4.949   6.226
14337TIP3    H242969   0.167   4.854   6.114
14338TIP3   OH242970   8.379   4.926   6.099
14338TIP3    H142971   8.377   4.921   6.194
14338TIP3    H242972   8.304   4.982   6.077
14339TIP3   OH242973   7.965   4.965   6.951
14339TIP3    H142974   8.024   5.039   6.937
14339TIP3    H242975   7.972   4.913   6.871
14340TIP3   OH242976   7.881   4.940   6.487
14340TIP3    H142977   7.934   4.973   6.414
14340TIP3    H242978   7.823   5.013   6.509
14341TIP3   OH242979   8.133   5.147   6.833
14341TIP3    H142980   8.072   5.181   6.768
14341TIP3    H242981   8.193   5.092   6.783
14342TIP3   OH242982   8.483   5.152   6.425
14342TIP3    H142983   8.496   5.232   6.476
14342TIP3    H242984   8.421   5.177   6.357
14343TIP3   OH242985   8.299   5.211   6.228
14343TIP3    H142986   8.219   5.171   6.193
14343TIP3    H242987   8.346   5.243   6.151
14344TIP3   OH242988   8.296   4.949   6.718
14344TIP3    H142989   8.274   4.876   6.776
14344TIP3    H242990   8.348   4.910   6.648
14345TIP3   OH242991   7.879   5.349   6.253
14345TIP3    H142992   7.920   5.434   6.268
14345TIP3    H242993   7.803   5.349   6.312
14346TIP3   OH242994   8.395   5.880   5.747
14346TIP3    H142995   8.361   5.791   5.754
14346TIP3    H242996   8.422   5.902   5.836
14347TIP3   OH242997   7.956   5.606   6.314
14347TIP3    H142998   7.887   5.657   6.356
14347TIP3    H242999   8.021   5.670   6.288
14348TIP3   OH243000   8.379   4.894   6.376
14348TIP3    H143001   8.385   4.984   6.405
14348TIP3    H243002   8.469   4.860   6.384
14349TIP3   OH243003   7.995   5.845   6.107
14349TIP3    H143004   8.058   5.913   6.132
14349TIP3    H243005   8.046   5.782   6.057
14350TIP3   OH243006   7.948   5.081   6.259
14350TIP3    H143007   7.942   5.176   6.266
14350TIP3    H243008   7.875   5.057   6.201
14351TIP3   OH243009   8.145   5.654   5.983
14351TIP3    H143010   8.188   5.608   6.055
14351TIP3    H243011   8.206   5.646   5.909
14352TIP3   OH243012   8.294   5.516   6.167
14352TIP3    H143013   8.272   5.466   6.245
14352TIP3    H243014   8.357   5.461   6.121
14353TIP3   OH243015   8.445   5.330   6.026
14353TIP3    H143016   8.411   5.339   5.937
14353TIP3    H243017   8.534   5.296   6.014
14354TIP3   OH243018   7.731   5.788   6.125
14354TIP3    H143019   7.824   5.810   6.123
14354TIP3    H243020   7.726   5.700   6.089
14355TIP3   OH243021   7.927   4.807   6.720
14355TIP3    H143022   7.836   4.790   6.744
14355TIP3    H243023   7.921   4.862   6.643
14356TIP3   OH243024   8.244   4.717   6.860
14356TIP3    H143025   8.155   4.692   6.885
14356TIP3    H243026   8.296   4.638   6.876
14357TIP3   OH243027   8.046   4.614   6.542
14357TIP3    H143028   8.075   4.665   6.466
14357TIP3    H243029   8.020   4.680   6.606
14358TIP3   OH243030   8.154   4.745   6.306
14358TIP3    H143031   8.197   4.681   6.249
14358TIP3    H243032   8.225   4.799   6.340
14359TIP3   OH243033   0.157   4.909   6.418
14359TIP3    H143034   0.219   4.868   6.478
14359TIP3    H243035   0.133   4.991   6.460
14360TIP3   OH243036   7.786   6.160   5.965
14360TIP3    H143037   7.812   6.182   6.055
14360TIP3    H243038   7.869   6.136   5.922
14361TIP3   OH243039   7.868   2.104   1.574
14361TIP3    H143040   7.856   2.199   1.563
14361TIP3    H243041   7.941   2.083   1.515
14362TIP3   OH243042   7.352   1.923   1.191
14362TIP3    H143043   7.336   1.994   1.253
14362TIP3    H243044   7.392   1.966   1.115
14363TIP3   OH243045   7.646   1.982   1.453
14363TIP3    H143046   7.702   1.957   1.527
14363TIP3    H243047   7.699   2.044   1.403
14364TIP3   OH243048   6.867   2.281   0.895
14364TIP3    H143049   6.808   2.318   0.961
14364TIP3    H243050   6.930   2.351   0.878
14365TIP3   OH243051   6.792   2.144   0.671
14365TIP3    H143052   6.812   2.196   0.749
14365TIP3    H243053   6.867   2.085   0.661
14366TIP3   OH243054   7.353   2.318   1.090
14366TIP3    H143055   7.260   2.338   1.091
14366TIP3    H243056   7.388   2.370   1.018
14367TIP3   OH243057   7.143   2.360   0.824
14367TIP3    H143058   7.218   2.400   0.868
14367TIP3    H243059   7.161   2.372   0.731
14368TIP3   OH243060   7.615   1.563   0.884
14368TIP3    H143061   7.522   1.555   0.907
14368TIP3    H243062   7.616   1.631   0.816
14369TIP3   OH243063   7.460   2.886   0.301
14369TIP3    H143064   7.465   2.982   0.304
14369TIP3    H243065   7.538   2.856   0.347
14370TIP3   OH243066   7.171   2.250   0.538
14370TIP3    H143067   7.134   2.253   0.450
14370TIP3    H243068   7.261   2.281   0.528
14371TIP3   OH243069   6.896   1.640   0.828
14371TIP3    H143070   6.833   1.666   0.896
14371TIP3    H243071   6.859   1.560   0.791
14372TIP3   OH243072   7.084   2.224   1.182
14372TIP3    H143073   6.991   2.245   1.189
14372TIP3    H243074   7.094   2.186   1.095
14373TIP3   OH243075   7.158   1.801   0.868
14373TIP3    H143076   7.069   1.827   0.847
14373TIP3    H243077   7.213   1.867   0.826
14374TIP3   OH243078   7.202   2.095   0.969
14374TIP3    H143079   7.294   2.068   0.963
14374TIP3    H243080   7.192   2.162   0.901
14375TIP3   OH243081   7.650   2.103   0.767
14375TIP3    H143082   7.610   2.074   0.685
14375TIP3    H243083   7.658   2.198   0.758
14376TIP3   OH243084   7.113   2.763   0.605
14376TIP3    H143085   7.078   2.780   0.693
14376TIP3    H243086   7.083   2.675   0.584
14377TIP3   OH243087   7.454   3.336   0.408
14377TIP3    H143088   7.443   3.391   0.331
14377TIP3    H243089   7.418   3.387   0.480
14378TIP3   OH243090   7.168   2.653   0.862
14378TIP3    H143091   7.206   2.606   0.787
14378TIP3    H243092   7.226   2.728   0.875
14379TIP3   OH243093   7.202   1.717   1.118
14379TIP3    H143094   7.196   1.748   1.027
14379TIP3    H243095   7.263   1.777   1.160
14380TIP3   OH243096   6.778   2.004   1.277
14380TIP3    H143097   6.805   2.095   1.286
14380TIP3    H243098   6.691   2.001   1.318
14381TIP3   OH243099   7.024   1.664   1.378
14381TIP3    H143100   7.007   1.727   1.449
14381TIP3    H243101   7.120   1.660   1.373
14382TIP3   OH243102   6.999   2.964   0.468
14382TIP3    H143103   7.034   2.927   0.548
14382TIP3    H243104   7.070   2.956   0.404
14383TIP3   OH243105   6.804   2.712   0.575
14383TIP3    H143106   6.767   2.683   0.659
14383TIP3    H243107   6.810   2.631   0.523
14384TIP3   OH243108   6.580   2.189   0.861
14384TIP3    H143109   6.566   2.165   0.769
14384TIP3    H243110   6.672   2.167   0.877
14385TIP3   OH243111   7.407   2.341   0.431
14385TIP3    H143112   7.391   2.351   0.337
14385TIP3    H243113   7.432   2.428   0.461
14386TIP3   OH243114   7.560   2.672   0.806
14386TIP3    H143115   7.626   2.729   0.766
14386TIP3    H243116   7.605   2.632   0.880
14387TIP3   OH243117   7.679   2.483   0.976
14387TIP3    H143118   7.642   2.409   1.025
14387TIP3    H243119   7.736   2.527   1.039
14388TIP3   OH243120   7.628   2.367   0.721
14388TIP3    H143121   7.607   2.430   0.652
14388TIP3    H243122   7.644   2.420   0.799
14389TIP3   OH243123   7.522   2.066   0.529
14389TIP3    H143124   7.477   2.127   0.471
14389TIP3    H243125   7.480   1.981   0.512
14390TIP3   OH243126   7.623   2.318   1.326
14390TIP3    H143127   7.622   2.291   1.235
14390TIP3    H243128   7.546   2.374   1.336
14391TIP3   OH243129   7.419   1.789   0.533
14391TIP3    H143130   7.482   1.779   0.605
14391TIP3    H243131   7.343   1.739   0.563
14392TIP3   OH243132   7.467   2.009   0.958
14392TIP3    H143133   7.519   1.930   0.974
14392TIP3    H243134   7.505   2.047   0.879
14393TIP3   OH243135   7.626   1.800   1.030
14393TIP3    H143136   7.668   1.792   1.115
14393TIP3    H243137   7.631   1.713   0.992
14394TIP3   OH243138   7.650   1.760   0.696
14394TIP3    H143139   7.683   1.691   0.638
14394TIP3    H243140   7.719   1.826   0.698
14395TIP3   OH243141   7.682   1.655   1.482
14395TIP3    H143142   7.697   1.714   1.408
14395TIP3    H243143   7.590   1.669   1.505
14396TIP3   OH243144   7.771   1.787   1.255
14396TIP3    H143145   7.844   1.731   1.229
14396TIP3    H243146   7.806   1.876   1.250
14397TIP3   OH243147   7.405   1.546   1.603
14397TIP3    H143148   7.361   1.577   1.524
14397TIP3    H243149   7.336   1.504   1.654
14398TIP3   OH243150   7.369   1.550   0.985
14398TIP3    H143151   7.313   1.610   1.034
14398TIP3    H243152   7.360   1.466   1.030
14399TIP3   OH243153   6.769   1.731   1.315
14399TIP3    H143154   6.861   1.702   1.312
14399TIP3    H243155   6.774   1.826   1.305
14400TIP3   OH243156   0.350   2.794   0.685
14400TIP3    H143157   0.320   2.881   0.659
14400TIP3    H243158   0.276   2.736   0.664
14401TIP3   OH243159   0.359   2.752   1.071
14401TIP3    H143160   0.390   2.741   1.160
14401TIP3    H243161   0.312   2.670   1.051
14402TIP3   OH243162   0.615   3.068   0.755
14402TIP3    H143163   0.596   3.011   0.830
14402TIP3    H243164   0.643   3.151   0.794
14403TIP3   OH243165   7.869   2.277   0.919
14403TIP3    H143166   7.855   2.365   0.954
14403TIP3    H243167   7.783   2.235   0.926
14404TIP3   OH243168   7.913   2.548   1.102
14404TIP3    H143169   7.955   2.486   1.161
14404TIP3    H243170   7.964   2.629   1.110
14405TIP3   OH243171   0.283   3.514   0.776
14405TIP3    H143172   0.314   3.455   0.708
14405TIP3    H243173   0.292   3.464   0.858
14406TIP3   OH243174   0.192   2.974   1.114
14406TIP3    H143175   0.228   2.893   1.076
14406TIP3    H243176   0.269   3.024   1.141
14407TIP3   OH243177   1.179   2.316   1.116
14407TIP3    H143178   1.196   2.394   1.169
14407TIP3    H243179   1.229   2.332   1.035
14408TIP3   OH243180   0.562   2.501   1.150
14408TIP3    H143181   0.602   2.418   1.174
14408TIP3    H243182   0.528   2.487   1.062
14409TIP3   OH243183   8.422   2.157   1.111
14409TIP3    H143184   8.404   2.229   1.052
14409TIP3    H243185   8.371   2.084   1.077
14410TIP3   OH243186   0.612   2.250   0.741
14410TIP3    H143187   0.676   2.241   0.811
14410TIP3    H243188   0.662   2.285   0.667
14411TIP3   OH243189   8.055   2.360   1.241
14411TIP3    H143190   8.139   2.352   1.286
14411TIP3    H243191   8.068   2.311   1.159
14412TIP3   OH243192  -0.017   2.557   1.027
14412TIP3    H143193   0.076   2.536   1.038
14412TIP3    H243194  -0.057   2.477   0.995
14413TIP3   OH243195   1.204   2.515   1.307
14413TIP3    H143196   1.126   2.569   1.293
14413TIP3    H243197   1.277   2.570   1.280
14414TIP3   OH243198   8.413   2.135   1.555
14414TIP3    H143199   8.360   2.178   1.488
14414TIP3    H243200   8.367   2.153   1.637
14415TIP3   OH243201   0.250   3.010   0.537
14415TIP3    H143202   0.209   2.983   0.455
14415TIP3    H243203   0.198   3.085   0.566
14416TIP3   OH243204   0.783   2.267   0.952
14416TIP3    H143205   0.741   2.249   1.037
14416TIP3    H243206   0.841   2.340   0.970
14417TIP3   OH243207   8.296   2.258   1.339
14417TIP3    H143208   8.348   2.334   1.365
14417TIP3    H243209   8.342   2.222   1.264
14418TIP3   OH243210   7.706   2.875   0.653
14418TIP3    H143211   7.687   2.849   0.563
14418TIP3    H243212   7.795   2.911   0.648
14419TIP3   OH243213   0.667   3.310   0.884
14419TIP3    H143214   0.588   3.301   0.937
14419TIP3    H243215   0.663   3.399   0.849
14420TIP3   OH243216   0.982   2.190   1.271
14420TIP3    H143217   0.904   2.246   1.263
14420TIP3    H243218   1.045   2.228   1.209
14421TIP3   OH243219   0.252   1.847   1.269
14421TIP3    H143220   0.246   1.755   1.294
14421TIP3    H243221   0.175   1.888   1.309
14422TIP3   OH243222   0.374   3.363   0.558
14422TIP3    H143223   0.425   3.283   0.546
14422TIP3    H243224   0.435   3.433   0.537
14423TIP3   OH243225   0.504   3.123   0.507
14423TIP3    H143226   0.423   3.073   0.515
14423TIP3    H243227   0.554   3.101   0.585
14424TIP3   OH243228   0.776   3.259   1.202
14424TIP3    H143229   0.816   3.178   1.169
14424TIP3    H243230   0.817   3.329   1.151
14425TIP3   OH243231   0.185   2.624   0.528
14425TIP3    H143232   0.102   2.667   0.509
14425TIP3    H243233   0.235   2.631   0.447
14426TIP3   OH243234   0.155   2.431   0.224
14426TIP3    H143235   0.218   2.478   0.279
14426TIP3    H243236   0.206   2.365   0.178
14427TIP3   OH243237   1.020   2.809   1.041
14427TIP3    H143238   0.951   2.875   1.049
14427TIP3    H243239   1.072   2.838   0.966
14428TIP3   OH243240   0.537   2.713   0.505
14428TIP3    H143241   0.483   2.747   0.577
14428TIP3    H243242   0.620   2.689   0.547
14429TIP3   OH243243   0.734   2.719   1.374
14429TIP3    H143244   0.737   2.781   1.447
14429TIP3    H243245   0.646   2.729   1.338
14430TIP3   OH243246   8.280   2.696   0.899
14430TIP3    H143247   8.242   2.636   0.835
14430TIP3    H243248   8.352   2.647   0.938
14431TIP3   OH243249   8.437   3.073   1.059
14431TIP3    H143250   8.392   2.989   1.066
14431TIP3    H243251   8.529   3.054   1.078
14432TIP3   OH243252   8.415   2.682   1.265
14432TIP3    H143253   8.437   2.646   1.179
14432TIP3    H243254   8.497   2.720   1.297
14433TIP3   OH243255   0.437   3.301   1.033
14433TIP3    H143256   0.432   3.364   1.105
14433TIP3    H243257   0.427   3.216   1.075
14434TIP3   OH243258   0.378   2.594   0.320
14434TIP3    H143259   0.434   2.635   0.386
14434TIP3    H243260   0.390   2.648   0.242
14435TIP3   OH243261   0.119   3.254   0.576
14435TIP3    H143262   0.204   3.298   0.583
14435TIP3    H243263   0.061   3.318   0.535
14436TIP3   OH243264   0.881   1.804   0.376
14436TIP3    H143265   0.804   1.822   0.430
14436TIP3    H243266   0.893   1.884   0.325
14437TIP3   OH243267   8.154   2.535   0.701
14437TIP3    H143268   8.079   2.582   0.664
14437TIP3    H243269   8.118   2.453   0.734
14438TIP3   OH243270   3.533   7.183   6.862
14438TIP3    H143271   3.531   7.278   6.851
14438TIP3    H243272   3.625   7.160   6.850
14439TIP3   OH243273   8.500   3.475   0.412
14439TIP3    H143274   8.475   3.439   0.327
14439TIP3    H243275   8.447   3.554   0.421
14440TIP3   OH243276   0.206   3.419   0.017
14440TIP3    H143277   0.261   3.348  -0.015
14440TIP3    H243278   0.231   3.429   0.109
14441TIP3   OH243279   0.256   3.445   0.303
14441TIP3    H143280   0.169   3.453   0.342
14441TIP3    H243281   0.310   3.408   0.373
14442TIP3   OH243282   0.913   2.663   1.637
14442TIP3    H143283   0.921   2.745   1.589
14442TIP3    H243284   1.003   2.635   1.653
14443TIP3   OH243285   8.513   1.935   1.387
14443TIP3    H143286   8.428   1.904   1.356
14443TIP3    H243287   8.493   2.015   1.436
14444TIP3   OH243288   0.560   2.060   1.592
14444TIP3    H143289   0.631   2.032   1.649
14444TIP3    H243290   0.480   2.037   1.639
14445TIP3   OH243291   0.771   2.465   1.489
14445TIP3    H143292   0.767   2.499   1.578
14445TIP3    H243293   0.771   2.544   1.434
14446TIP3   OH243294   0.158   1.984   0.376
14446TIP3    H143295   0.124   1.989   0.466
14446TIP3    H243296   0.121   1.903   0.342
14447TIP3   OH243297   8.450   2.463   1.433
14447TIP3    H143298   8.474   2.485   1.523
14447TIP3    H243299   8.428   2.546   1.392
14448TIP3   OH243300   8.338   2.346   0.933
14448TIP3    H143301   8.250   2.322   0.963
14448TIP3    H243302   8.343   2.310   0.844
14449TIP3   OH243303   0.312   2.425   0.667
14449TIP3    H143304   0.264   2.498   0.627
14449TIP3    H243305   0.370   2.394   0.597
14450TIP3   OH243306   0.476   2.443   0.896
14450TIP3    H143307   0.409   2.466   0.831
14450TIP3    H243308   0.521   2.367   0.857
14451TIP3   OH243309   8.320   1.964   0.349
14451TIP3    H143310   8.312   1.966   0.444
14451TIP3    H243311   8.243   2.011   0.317
14452TIP3   OH243312   7.868   2.036   1.193
14452TIP3    H143313   7.933   2.067   1.256
14452TIP3    H243314   7.919   2.006   1.118
14453TIP3   OH243315   7.860   1.950   0.701
14453TIP3    H143316   7.896   1.990   0.622
14453TIP3    H243317   7.796   2.015   0.733
14454TIP3   OH243318   0.451   2.679   1.322
14454TIP3    H143319   0.493   2.616   1.263
14454TIP3    H243320   0.440   2.632   1.404
14455TIP3   OH243321   0.184   2.146   0.990
14455TIP3    H143322   0.108   2.147   1.047
14455TIP3    H243323   0.259   2.134   1.049
14456TIP3   OH243324   8.112   2.216   1.013
14456TIP3    H143325   8.028   2.224   0.967
14456TIP3    H243326   8.144   2.129   0.989
14457TIP3   OH243327   8.343   2.220   0.690
14457TIP3    H143328   8.437   2.236   0.678
14457TIP3    H243329   8.304   2.242   0.605
14458TIP3   OH243330   0.633   2.235   1.187
14458TIP3    H143331   0.612   2.249   1.279
14458TIP3    H243332   0.568   2.171   1.157
14459TIP3   OH243333   8.221   2.250   0.447
14459TIP3    H143334   8.154   2.205   0.395
14459TIP3    H243335   8.275   2.295   0.382
14460TIP3   OH243336   0.245   2.488   1.087
14460TIP3    H143337   0.314   2.438   1.044
14460TIP3    H243338   0.242   2.451   1.176
14461TIP3   OH243339   8.250   1.978   0.975
14461TIP3    H143340   8.219   1.903   1.025
14461TIP3    H243341   8.281   1.941   0.893
14462TIP3   OH243342   0.213   2.403   1.357
14462TIP3    H143343   0.123   2.429   1.378
14462TIP3    H243344   0.267   2.454   1.418
14463TIP3   OH243345   8.454   2.760   0.459
14463TIP3    H143346   8.376   2.709   0.440
14463TIP3    H243347   8.438   2.797   0.546
14464TIP3   OH243348   0.835   3.011   1.075
14464TIP3    H143349   0.869   3.065   1.004
14464TIP3    H243350   0.750   2.982   1.045
14465TIP3   OH243351   0.409   2.090   0.367
14465TIP3    H143352   0.316   2.068   0.370
14465TIP3    H243353   0.412   2.184   0.384
14466TIP3   OH243354   0.470   2.352   0.445
14466TIP3    H143355   0.565   2.350   0.461
14466TIP3    H243356   0.456   2.430   0.391
14467TIP3   OH243357   8.133   2.719   1.136
14467TIP3    H143358   8.177   2.725   1.051
14467TIP3    H243359   8.205   2.720   1.199
14468TIP3   OH243360   0.104   2.930   0.306
14468TIP3    H143361   0.052   3.011   0.306
14468TIP3    H243362   0.051   2.869   0.356
14469TIP3   OH243363   0.885   2.423   0.288
14469TIP3    H143364   0.834   2.401   0.210
14469TIP3    H243365   0.908   2.515   0.277
14470TIP3   OH243366   1.182   3.300   1.309
14470TIP3    H143367   1.152   3.388   1.286
14470TIP3    H243368   1.192   3.254   1.226
14471TIP3   OH243369   0.605   3.252   0.199
14471TIP3    H143370   0.587   3.200   0.277
14471TIP3    H243371   0.643   3.190   0.137
14472TIP3   OH243372   0.594   2.885   0.988
14472TIP3    H143373   0.506   2.849   0.999
14472TIP3    H243374   0.645   2.812   0.952
14473TIP3   OH243375   8.241   3.082   0.737
14473TIP3    H143376   8.301   3.145   0.778
14473TIP3    H243377   8.167   3.077   0.797
14474TIP3   OH243378   7.822   2.418   0.476
14474TIP3    H143379   7.883   2.487   0.505
14474TIP3    H243380   7.736   2.448   0.506
14475TIP3   OH243381   8.390   2.854   0.702
14475TIP3    H143382   8.348   2.939   0.712
14475TIP3    H243383   8.362   2.804   0.778
14476TIP3   OH243384   0.450   3.063   1.179
14476TIP3    H143385   0.499   3.079   1.259
14476TIP3    H243386   0.506   3.005   1.127
14477TIP3   OH243387   0.382   2.981   0.094
14477TIP3    H143388   0.433   2.947   0.168
14477TIP3    H243389   0.292   2.955   0.113
14478TIP3   OH243390   3.534   7.455   6.827
14478TIP3    H143391   3.572   7.518   6.766
14478TIP3    H243392   3.464   7.504   6.872
14479TIP3   OH243393   0.555   2.857   0.267
14479TIP3    H143394   0.548   2.828   0.358
14479TIP3    H243395   0.649   2.870   0.253
14480TIP3   OH243396   8.231   2.945   0.111
14480TIP3    H143397   8.245   2.853   0.090
14480TIP3    H243398   8.223   2.947   0.206
14481TIP3   OH243399   8.183   3.000   0.383
14481TIP3    H143400   8.244   2.989   0.455
14481TIP3    H243401   8.178   3.095   0.371
14482TIP3   OH243402   7.934   2.648   0.582
14482TIP3    H143403   7.895   2.679   0.664
14482TIP3    H243404   7.942   2.728   0.528
14483TIP3   OH243405   0.562   2.291   1.443
14483TIP3    H143406   0.639   2.340   1.471
14483TIP3    H243407   0.561   2.214   1.500
14484TIP3   OH243408   0.468   2.035   0.639
14484TIP3    H143409   0.450   2.057   0.547
14484TIP3    H243410   0.510   2.113   0.674
14485TIP3   OH243411   8.447   3.150   0.294
14485TIP3    H143412   8.363   3.177   0.331
14485TIP3    H243413   8.474   3.225   0.241
14486TIP3   OH243414   0.123   2.235   0.734
14486TIP3    H143415   0.187   2.303   0.710
14486TIP3    H243416   0.141   2.216   0.826
14487TIP3   OH243417   0.417   2.506   1.534
14487TIP3    H143418   0.464   2.520   1.616
14487TIP3    H243419   0.455   2.426   1.498
14488TIP3   OH243420   0.285   1.936   0.824
14488TIP3    H143421   0.264   2.013   0.877
14488TIP3    H243422   0.354   1.966   0.764
14489TIP3   OH243423   8.201   3.275   0.353
14489TIP3    H143424   8.193   3.333   0.277
14489TIP3    H243425   8.197   3.334   0.428
14490TIP3   OH243426   8.300   1.949   0.628
14490TIP3    H143427   8.288   2.040   0.658
14490TIP3    H243428   8.394   1.934   0.633
14491TIP3   OH243429   1.047   2.394   1.518
14491TIP3    H143430   0.954   2.418   1.509
14491TIP3    H243431   1.089   2.432   1.440
14492TIP3   OH243432   0.703   2.636   0.896
14492TIP3    H143433   0.625   2.582   0.911
14492TIP3    H243434   0.772   2.594   0.946
14493TIP3   OH243435   7.954   2.850   0.385
14493TIP3    H143436   8.022   2.918   0.388
14493TIP3    H243437   7.986   2.788   0.320
14494TIP3   OH243438   7.850   2.137   0.494
14494TIP3    H143439   7.859   2.232   0.502
14494TIP3    H243440   7.762   2.125   0.458
14495TIP3   OH243441   0.665   3.578   0.830
14495TIP3    H143442   0.604   3.640   0.789
14495TIP3    H243443   0.748   3.594   0.786
14496TIP3   OH243444   8.243   1.861   1.362
14496TIP3    H143445   8.218   1.831   1.275
14496TIP3    H243446   8.234   1.783   1.417
14497TIP3   OH243447   2.721   7.123   6.905
14497TIP3    H143448   2.661   7.070   6.959
14497TIP3    H243449   2.805   7.116   6.950
14498TIP3   OH243450   3.200   7.207   6.870
14498TIP3    H143451   3.203   7.140   6.939
14498TIP3    H243452   3.292   7.231   6.856
14499TIP3   OH243453   8.062   2.656   0.226
14499TIP3    H143454   8.113   2.627   0.302
14499TIP3    H243455   8.127   2.664   0.156
14500TIP3   OH243456   0.107   2.887   0.033
14500TIP3    H143457   0.089   2.897   0.126
14500TIP3    H243458   0.104   2.793   0.017
14501TIP3   OH243459   0.625   3.126   1.385
14501TIP3    H143460   0.681   3.171   1.321
14501TIP3    H243461   0.601   3.194   1.448
14502TIP3   OH243462   8.239   2.585   0.430
14502TIP3    H143463   8.222   2.557   0.520
14502TIP3    H243464   8.286   2.512   0.390
14503TIP3   OH243465   8.377   2.398   0.275
14503TIP3    H143466   8.347   2.403   0.184
14503TIP3    H243467   8.472   2.405   0.269
14504TIP3   OH243468   0.091   2.447   1.681
14504TIP3    H143469   0.126   2.359   1.669
14504TIP3    H243470   0.164   2.498   1.716
14505TIP3   OH243471   0.179   2.206   1.570
14505TIP3    H143472   0.204   2.248   1.487
14505TIP3    H243473   0.087   2.182   1.558
14506TIP3   OH243474   0.163   2.758   1.375
14506TIP3    H143475   0.255   2.739   1.360
14506TIP3    H243476   0.159   2.853   1.386
14507TIP3   OH243477   0.727   2.935   1.561
14507TIP3    H143478   0.693   2.999   1.498
14507TIP3    H243479   0.821   2.931   1.543
14508TIP3   OH243480   0.310   1.984   1.671
14508TIP3    H143481   0.266   2.064   1.645
14508TIP3    H243482   0.240   1.919   1.678
14509TIP3   OH243483   0.622   2.407   1.740
14509TIP3    H143484   0.611   2.423   1.833
14509TIP3    H243485   0.704   2.357   1.733
14510TIP3   OH243486   7.695   2.781   0.388
14510TIP3    H143487   7.784   2.814   0.382
14510TIP3    H243488   7.691   2.711   0.323
14511TIP3   OH243489   0.903   3.654   0.733
14511TIP3    H143490   0.901   3.724   0.798
14511TIP3    H243491   0.988   3.663   0.691
14512TIP3   OH243492   0.832   2.876   0.242
14512TIP3    H143493   0.892   2.947   0.222
14512TIP3    H243494   0.869   2.832   0.318
14513TIP3   OH243495   0.943   2.740   0.456
14513TIP3    H143496   0.880   2.708   0.520
14513TIP3    H243497   1.011   2.784   0.508
14514TIP3   OH243498   0.989   3.154   0.900
14514TIP3    H143499   1.042   3.084   0.861
14514TIP3    H243500   0.985   3.222   0.833
14515TIP3   OH243501   0.885   3.442   1.014
14515TIP3    H143502   0.828   3.518   1.008
14515TIP3    H243503   0.846   3.377   0.956
14516TIP3   OH243504   0.740   2.352   0.065
14516TIP3    H143505   0.712   2.374  -0.024
14516TIP3    H243506   0.724   2.258   0.073
14517TIP3   OH243507   0.765   2.614   0.627
14517TIP3    H143508   0.770   2.519   0.621
14517TIP3    H243509   0.751   2.632   0.720
14518TIP3   OH243510   0.988   2.882   1.484
14518TIP3    H143511   1.067   2.842   1.450
14518TIP3    H243512   0.993   2.973   1.456
14519TIP3   OH243513   1.263   2.810   1.428
14519TIP3    H143514   1.275   2.846   1.516
14519TIP3    H243515   1.333   2.746   1.418
14520TIP3   OH243516   0.690   2.083   0.063
14520TIP3    H143517   0.759   2.049   0.121
14520TIP3    H243518   0.613   2.030   0.085
14521TIP3   OH243519   0.754   2.332   0.515
14521TIP3    H143520   0.798   2.248   0.529
14521TIP3    H243521   0.798   2.369   0.438
14522TIP3   OH243522   0.919   2.501   1.015
14522TIP3    H143523   1.001   2.520   0.969
14522TIP3    H243524   0.931   2.535   1.103
14523TIP3   OH243525   0.970   2.642   1.250
14523TIP3    H143526   0.894   2.676   1.297
14523TIP3    H243527   0.987   2.708   1.182
14524TIP3   OH243528   0.873   2.086   0.562
14524TIP3    H143529   0.920   2.073   0.644
14524TIP3    H243530   0.812   2.013   0.557
14525TIP3   OH243531   8.072   2.078   1.382
14525TIP3    H143532   8.131   2.002   1.385
14525TIP3    H243533   8.130   2.153   1.372
14526TIP3   OH243534   7.868   2.354   1.455
14526TIP3    H143535   7.783   2.352   1.411
14526TIP3    H243536   7.931   2.368   1.385
14527TIP3   OH243537   1.309   2.363   1.601
14527TIP3    H143538   1.218   2.394   1.595
14527TIP3    H243539   1.309   2.281   1.551
14528TIP3   OH243540   0.921   2.016   0.205
14528TIP3    H143541   0.961   1.955   0.142
14528TIP3    H243542   0.982   2.090   0.209
14529TIP3   OH243543   7.897   1.861   0.953
14529TIP3    H143544   7.804   1.851   0.974
14529TIP3    H243545   7.898   1.901   0.866
14530TIP3   OH243546   0.538   3.557   0.473
14530TIP3    H143547   0.584   3.553   0.390
14530TIP3    H243548   0.578   3.631   0.519
14531TIP3   OH243549   1.215   2.127   1.480
14531TIP3    H143550   1.129   2.137   1.438
14531TIP3    H243551   1.237   2.035   1.467
14532TIP3   OH243552   0.410   2.051   1.122
14532TIP3    H143553   0.372   1.979   1.173
14532TIP3    H243554   0.481   2.010   1.072
14533TIP3   OH243555   0.922   1.948   1.003
14533TIP3    H143556   0.965   2.003   0.937
14533TIP3    H243557   0.838   1.990   1.019
14534TIP3   OH243558   1.040   2.045   0.776
14534TIP3    H143559   1.110   1.985   0.751
14534TIP3    H243560   1.077   2.132   0.760
14535TIP3   OH243561   8.171   1.758   1.117
14535TIP3    H143562   8.080   1.726   1.114
14535TIP3    H243563   8.224   1.678   1.115
14536TIP3   OH243564   7.968   1.645   0.769
14536TIP3    H143565   7.997   1.695   0.692
14536TIP3    H243566   7.952   1.712   0.836
14537TIP3   OH243567   0.128   1.796   1.016
14537TIP3    H143568   0.178   1.843   0.948
14537TIP3    H243569   0.171   1.820   1.098
14538TIP3   OH243570   0.628   1.941   0.995
14538TIP3    H143571   0.652   1.907   0.909
14538TIP3    H243572   0.633   1.865   1.053
14539TIP3   OH243573   0.687   1.877   0.562
14539TIP3    H143574   0.608   1.925   0.585
14539TIP3    H243575   0.676   1.791   0.603
14540TIP3   OH243576   8.088   1.784   0.540
14540TIP3    H143577   8.134   1.724   0.481
14540TIP3    H243578   8.156   1.840   0.577
14541TIP3   OH243579   0.075   1.982   0.640
14541TIP3    H143580   0.135   1.932   0.696
14541TIP3    H243581   0.088   2.073   0.667
14542TIP3   OH243582   8.468   3.381   0.156
14542TIP3    H143583   8.526   3.407   0.085
14542TIP3    H243584   8.386   3.427   0.139
14543TIP3   OH243585   0.657   3.521   0.224
14543TIP3    H143586   0.642   3.427   0.217
14543TIP3    H243587   0.617   3.558   0.146
14544TIP3   OH243588   7.768   3.227   0.175
14544TIP3    H143589   7.795   3.310   0.215
14544TIP3    H243590   7.850   3.182   0.156
14545TIP3   OH243591   2.047   3.009   0.148
14545TIP3    H143592   2.023   3.093   0.109
14545TIP3    H243593   1.983   2.947   0.113
14546TIP3   OH243594   2.141   3.082   0.552
14546TIP3    H143595   2.211   3.048   0.607
14546TIP3    H243596   2.105   3.006   0.507
14547TIP3   OH243597   1.417   2.926   0.908
14547TIP3    H143598   1.430   2.841   0.950
14547TIP3    H243599   1.496   2.976   0.930
14548TIP3   OH243600   2.334   3.308   0.247
14548TIP3    H143601   2.385   3.271   0.320
14548TIP3    H243602   2.346   3.402   0.255
14549TIP3   OH243603   1.408   3.260   0.627
14549TIP3    H143604   1.384   3.169   0.607
14549TIP3    H243605   1.359   3.280   0.707
14550TIP3   OH243606   1.137   2.531   0.416
14550TIP3    H143607   1.097   2.616   0.433
14550TIP3    H243608   1.070   2.468   0.444
14551TIP3   OH243609   1.161   2.818   0.597
14551TIP3    H143610   1.211   2.748   0.639
14551TIP3    H243611   1.226   2.885   0.576
14552TIP3   OH243612   1.919   3.839   0.290
14552TIP3    H143613   1.861   3.793   0.230
14552TIP3    H243614   1.947   3.773   0.353
14553TIP3   OH243615   1.973   3.271   0.655
14553TIP3    H143616   2.035   3.215   0.609
14553TIP3    H243617   2.028   3.327   0.711
14554TIP3   OH243618   2.909   2.627   0.528
14554TIP3    H143619   2.865   2.543   0.538
14554TIP3    H243620   2.990   2.607   0.481
14555TIP3   OH243621   2.416   2.703   0.654
14555TIP3    H143622   2.351   2.654   0.705
14555TIP3    H243623   2.364   2.760   0.598
14556TIP3   OH243624   1.717   2.402   0.581
14556TIP3    H143625   1.696   2.481   0.532
14556TIP3    H243626   1.657   2.335   0.548
14557TIP3   OH243627   2.382   2.472   0.184
14557TIP3    H143628   2.442   2.444   0.253
14557TIP3    H243629   2.429   2.540   0.136
14558TIP3   OH243630   1.317   2.637   0.723
14558TIP3    H143631   1.362   2.626   0.807
14558TIP3    H243632   1.362   2.578   0.664
14559TIP3   OH243633   1.758   2.833   0.471
14559TIP3    H143634   1.852   2.817   0.481
14559TIP3    H243635   1.720   2.746   0.455
14560TIP3   OH243636   1.646   2.356   1.039
14560TIP3    H143637   1.589   2.399   0.975
14560TIP3    H243638   1.610   2.382   1.124
14561TIP3   OH243639   4.879   7.234   6.924
14561TIP3    H143640   4.835   7.210   6.843
14561TIP3    H243641   4.844   7.321   6.945
14562TIP3   OH243642   1.724   3.190   0.724
14562TIP3    H143643   1.683   3.226   0.803
14562TIP3    H243644   1.805   3.240   0.713
14563TIP3   OH243645   2.552   2.394   0.380
14563TIP3    H143646   2.535   2.437   0.465
14563TIP3    H243647   2.620   2.449   0.339
14564TIP3   OH243648   1.559   2.477   0.797
14564TIP3    H143649   1.609   2.547   0.839
14564TIP3    H243650   1.616   2.447   0.726
14565TIP3   OH243651   1.551   3.383   0.900
14565TIP3    H143652   1.570   3.471   0.932
14565TIP3    H243653   1.502   3.341   0.971
14566TIP3   OH243654   1.014   3.071   0.162
14566TIP3    H143655   0.985   3.098   0.075
14566TIP3    H243656   1.031   3.153   0.208
14567TIP3   OH243657   2.686   2.429   0.814
14567TIP3    H143658   2.595   2.434   0.842
14567TIP3    H243659   2.688   2.474   0.729
14568TIP3   OH243660   2.001   2.092   0.742
14568TIP3    H143661   1.997   2.000   0.771
14568TIP3    H243662   1.925   2.133   0.784
14569TIP3   OH243663   2.352   3.648   0.097
14569TIP3    H143664   2.322   3.563   0.063
14569TIP3    H243665   2.325   3.711   0.030
14570TIP3   OH243666   2.275   3.403  -0.004
14570TIP3    H143667   2.232   3.350  -0.072
14570TIP3    H243668   2.266   3.351   0.076
14571TIP3   OH243669   4.770   6.837   6.908
14571TIP3    H143670   4.696   6.895   6.891
14571TIP3    H243671   4.832   6.857   6.838
14572TIP3   OH243672   4.771   6.681   6.634
14572TIP3    H143673   4.830   6.725   6.696
14572TIP3    H243674   4.829   6.622   6.585
14573TIP3   OH243675   5.097   7.029   6.887
14573TIP3    H143676   5.034   7.050   6.956
14573TIP3    H243677   5.159   6.969   6.927
14574TIP3   OH243678   1.544   2.965   0.367
14574TIP3    H143679   1.510   2.905   0.300
14574TIP3    H243680   1.619   2.920   0.404
14575TIP3   OH243681   1.710   3.331   0.481
14575TIP3    H143682   1.632   3.342   0.427
14575TIP3    H243683   1.695   3.251   0.530
14576TIP3   OH243684   1.615   2.948   0.674
14576TIP3    H143685   1.671   2.907   0.607
14576TIP3    H243686   1.649   3.037   0.682
14577TIP3   OH243687   4.986   6.837   6.731
14577TIP3    H143688   5.030   6.909   6.776
14577TIP3    H243689   5.015   6.844   6.640
14578TIP3   OH243690   1.555   3.127   1.079
14578TIP3    H143691   1.560   3.184   1.156
14578TIP3    H243692   1.492   3.060   1.105
14579TIP3   OH243693   4.736   7.466   6.917
14579TIP3    H143694   4.696   7.459   7.004
14579TIP3    H243695   4.662   7.456   6.857
14580TIP3   OH243696   5.498   6.066   6.790
14580TIP3    H143697   5.423   6.092   6.844
14580TIP3    H243698   5.517   6.144   6.738
14581TIP3   OH243699   1.433   2.798   0.177
14581TIP3    H143700   1.361   2.847   0.139
14581TIP3    H243701   1.393   2.717   0.209
14582TIP3   OH243702   5.328   7.451   6.351
14582TIP3    H143703   5.321   7.542   6.323
14582TIP3    H243704   5.420   7.428   6.333
14583TIP3   OH243705   1.209   3.177   1.070
14583TIP3    H143706   1.128   3.170   1.021
14583TIP3    H243707   1.220   3.091   1.110
14584TIP3   OH243708   1.026   3.372   0.732
14584TIP3    H143709   1.118   3.365   0.757
14584TIP3    H243710   1.001   3.462   0.756
14585TIP3   OH243711   4.632   7.751   6.788
14585TIP3    H143712   4.585   7.719   6.710
14585TIP3    H243713   4.598   7.840   6.801
14586TIP3   OH243714   1.182   3.573   0.171
14586TIP3    H143715   1.206   3.576   0.264
14586TIP3    H243716   1.139   3.488   0.159
14587TIP3   OH243717   4.806   7.654   6.454
14587TIP3    H143718   4.862   7.585   6.419
14587TIP3    H243719   4.837   7.668   6.543
14588TIP3   OH243720   4.889   7.693   6.707
14588TIP3    H143721   4.809   7.691   6.759
14588TIP3    H243722   4.959   7.707   6.771
14589TIP3   OH243723   1.404   3.373   1.130
14589TIP3    H143724   1.443   3.345   1.213
14589TIP3    H243725   1.334   3.310   1.114
14590TIP3   OH243726   1.775   2.182   0.865
14590TIP3    H143727   1.685   2.158   0.844
14590TIP3    H243728   1.767   2.258   0.922
14591TIP3   OH243729   2.290   2.329   0.991
14591TIP3    H143730   2.375   2.290   1.014
14591TIP3    H243731   2.228   2.291   1.053
14592TIP3   OH243732   5.077   6.859   6.477
14592TIP3    H143733   5.046   6.834   6.389
14592TIP3    H243734   5.163   6.897   6.462
14593TIP3   OH243735   4.779   6.250   6.800
14593TIP3    H143736   4.748   6.253   6.891
14593TIP3    H243737   4.746   6.167   6.766
14594TIP3   OH243738   1.717   2.634   0.960
14594TIP3    H143739   1.636   2.632   1.009
14594TIP3    H243740   1.735   2.727   0.945
14595TIP3   OH243741   1.625   2.601   0.417
14595TIP3    H143742   1.539   2.579   0.451
14595TIP3    H243743   1.627   2.562   0.329
14596TIP3   OH243744   2.092   2.663   0.116
14596TIP3    H143745   2.035   2.725   0.071
14596TIP3    H243746   2.158   2.639   0.051
14597TIP3   OH243747   2.200   2.608   0.357
14597TIP3    H143748   2.156   2.634   0.276
14597TIP3    H243749   2.272   2.552   0.328
14598TIP3   OH243750   4.446   6.223   6.774
14598TIP3    H143751   4.439   6.227   6.870
14598TIP3    H243752   4.370   6.273   6.743
14599TIP3   OH243753   1.168   2.269   0.691
14599TIP3    H143754   1.223   2.303   0.761
14599TIP3    H243755   1.229   2.245   0.621
14600TIP3   OH243756   1.087   2.241   0.219
14600TIP3    H143757   1.127   2.282   0.142
14600TIP3    H243758   1.024   2.306   0.250
14601TIP3   OH243759   2.451   2.915   0.829
14601TIP3    H143760   2.433   2.836   0.778
14601TIP3    H243761   2.391   2.910   0.904
14602TIP3   OH243762   1.968   2.409   0.463
14602TIP3    H143763   1.888   2.406   0.515
14602TIP3    H243764   2.038   2.392   0.526
14603TIP3   OH243765   1.396   2.481   0.498
14603TIP3    H143766   1.307   2.489   0.463
14603TIP3    H243767   1.421   2.391   0.477
14604TIP3   OH243768   1.630   2.474   0.174
14604TIP3    H143769   1.724   2.488   0.164
14604TIP3    H243770   1.593   2.496   0.089
14605TIP3   OH243771   2.420   2.389   0.707
14605TIP3    H143772   2.381   2.449   0.770
14605TIP3    H243773   2.346   2.355   0.657
14606TIP3   OH243774   4.347   6.514   6.869
14606TIP3    H143775   4.284   6.466   6.814
14606TIP3    H243776   4.401   6.562   6.807
14607TIP3   OH243777   1.553   3.251   1.324
14607TIP3    H143778   1.646   3.273   1.323
14607TIP3    H243779   1.545   3.185   1.393
14608TIP3   OH243780   2.013   2.739   0.517
14608TIP3    H143781   2.061   2.669   0.474
14608TIP3    H243782   1.964   2.696   0.587
14609TIP3   OH243783   1.529   2.231   0.466
14609TIP3    H143784   1.500   2.155   0.518
14609TIP3    H243785   1.567   2.193   0.387
14610TIP3   OH243786   1.894   2.630   0.737
14610TIP3    H143787   1.841   2.622   0.816
14610TIP3    H243788   1.978   2.590   0.761
14611TIP3   OH243789   4.578   7.030   6.893
14611TIP3    H143790   4.496   6.985   6.873
14611TIP3    H243791   4.562   7.072   6.977
14612TIP3   OH243792   5.033   6.347   6.785
14612TIP3    H143793   4.938   6.334   6.785
14612TIP3    H243794   5.045   6.441   6.801
14613TIP3   OH243795   5.100   6.608   6.849
14613TIP3    H143796   5.195   6.615   6.863
14613TIP3    H243797   5.077   6.688   6.801
14614TIP3   OH243798   1.367   2.993   0.577
14614TIP3    H143799   1.417   2.992   0.496
14614TIP3    H243800   1.429   2.966   0.644
14615TIP3   OH243801   4.696   7.203   6.722
14615TIP3    H143802   4.641   7.281   6.729
14615TIP3    H243803   4.652   7.138   6.777
14616TIP3   OH243804   1.144   2.961   1.229
14616TIP3    H143805   1.211   2.916   1.281
14616TIP3    H243806   1.113   2.895   1.167
14617TIP3   OH243807   5.511   6.695   6.680
14617TIP3    H143808   5.454   6.643   6.622
14617TIP3    H243809   5.510   6.783   6.642
14618TIP3   OH243810   5.271   7.497   6.622
14618TIP3    H143811   5.233   7.419   6.662
14618TIP3    H243812   5.286   7.472   6.531
14619TIP3   OH243813   2.463   3.217   0.462
14619TIP3    H143814   2.443   3.203   0.554
14619TIP3    H243815   2.500   3.134   0.432
14620TIP3   OH243816   1.532   3.343   0.262
14620TIP3    H143817   1.511   3.405   0.193
14620TIP3    H243818   1.448   3.323   0.303
14621TIP3   OH243819   1.125   2.683  -0.015
14621TIP3    H143820   1.180   2.761  -0.011
14621TIP3    H243821   1.059   2.696   0.053
14622TIP3   OH243822   1.686   3.127   0.195
14622TIP3    H143823   1.638   3.209   0.204
14622TIP3    H243824   1.647   3.069   0.261
14623TIP3   OH243825   1.446   3.534   0.092
14623TIP3    H143826   1.352   3.551   0.082
14623TIP3    H243827   1.478   3.608   0.145
14624TIP3   OH243828   2.186   3.375   0.792
14624TIP3    H143829   2.216   3.285   0.809
14624TIP3    H243830   2.223   3.397   0.706
14625TIP3   OH243831   5.004   7.256   6.501
14625TIP3    H143832   5.059   7.243   6.578
14625TIP3    H243833   4.918   7.221   6.527
14626TIP3   OH243834   5.294   7.726   6.299
14626TIP3    H143835   5.371   7.779   6.278
14626TIP3    H243836   5.227   7.789   6.325
14627TIP3   OH243837   1.574   2.462   1.279
14627TIP3    H143838   1.527   2.533   1.234
14627TIP3    H243839   1.507   2.419   1.332
14628TIP3   OH243840   5.179   7.220   6.708
14628TIP3    H143841   5.148   7.157   6.772
14628TIP3    H243842   5.271   7.199   6.696
14629TIP3   OH243843   1.375   3.625   0.898
14629TIP3    H143844   1.310   3.602   0.832
14629TIP3    H243845   1.327   3.624   0.981
14630TIP3   OH243846   1.226   2.933   0.050
14630TIP3    H143847   1.161   2.977   0.105
14630TIP3    H243848   1.251   2.999  -0.015
14631TIP3   OH243849   2.371   2.582   0.904
14631TIP3    H143850   2.449   2.634   0.920
14631TIP3    H243851   2.368   2.519   0.976
14632TIP3   OH243852   2.237   2.261   0.106
14632TIP3    H143853   2.216   2.276   0.013
14632TIP3    H243854   2.281   2.341   0.134
14633TIP3   OH243855   4.520   7.415   6.747
14633TIP3    H143856   4.427   7.393   6.744
14633TIP3    H243857   4.529   7.491   6.690
14634TIP3   OH243858   1.906   2.486   0.207
14634TIP3    H143859   1.969   2.550   0.175
14634TIP3    H243860   1.929   2.474   0.300
14635TIP3   OH243861   2.247   2.849   0.998
14635TIP3    H143862   2.152   2.848   1.013
14635TIP3    H243863   2.281   2.786   1.062
14636TIP3   OH243864   2.069   2.188   0.311
14636TIP3    H143865   2.051   2.270   0.356
14636TIP3    H243866   2.136   2.211   0.246
14637TIP3   OH243867   1.590   2.204   0.112
14637TIP3    H143868   1.579   2.294   0.143
14637TIP3    H243869   1.684   2.187   0.118
14638TIP3   OH243870   2.545   2.979   0.363
14638TIP3    H143871   2.454   2.955   0.350
14638TIP3    H243872   2.569   2.939   0.447
14639TIP3   OH243873   4.058   7.139   6.772
14639TIP3    H143874   4.103   7.221   6.750
14639TIP3    H243875   4.105   7.072   6.723
14640TIP3   OH243876   3.970   6.406   6.937
14640TIP3    H143877   3.990   6.499   6.941
14640TIP3    H243878   3.929   6.393   6.851
14641TIP3   OH243879   1.511   2.107   0.855
14641TIP3    H143880   1.489   2.071   0.769
14641TIP3    H243881   1.513   2.031   0.913
14642TIP3   OH243882   1.041   3.328   0.249
14642TIP3    H143883   1.022   3.376   0.329
14642TIP3    H243884   0.991   3.374   0.181
14643TIP3   OH243885   4.471   7.379   6.438
14643TIP3    H143886   4.392   7.368   6.491
14643TIP3    H243887   4.521   7.300   6.453
14644TIP3   OH243888   4.965   7.473   6.335
14644TIP3    H143889   5.000   7.403   6.391
14644TIP3    H243890   5.022   7.472   6.258
14645TIP3   OH243891   4.184   6.920   6.662
14645TIP3    H143892   4.240   6.899   6.737
14645TIP3    H243893   4.243   6.929   6.588
14646TIP3   OH243894   4.688   7.157   6.456
14646TIP3    H143895   4.689   7.169   6.551
14646TIP3    H243896   4.692   7.062   6.444
14647TIP3   OH243897   1.585   3.053   1.507
14647TIP3    H143898   1.606   2.972   1.461
14647TIP3    H243899   1.518   3.028   1.570
14648TIP3   OH243900   4.369   6.853   6.858
14648TIP3    H143901   4.352   6.819   6.946
14648TIP3    H243902   4.415   6.781   6.814
14649TIP3   OH243903   1.769   2.982   1.174
14649TIP3    H143904   1.692   3.013   1.127
14649TIP3    H243905   1.842   3.001   1.116
14650TIP3   OH243906   4.498   6.662   6.696
14650TIP3    H143907   4.468   6.665   6.605
14650TIP3    H243908   4.594   6.665   6.689
14651TIP3   OH243909   5.309   6.964   6.356
14651TIP3    H143910   5.296   6.919   6.273
14651TIP3    H243911   5.275   7.052   6.341
14652TIP3   OH243912   1.855   2.675   1.233
14652TIP3    H143913   1.868   2.586   1.264
14652TIP3    H243914   1.760   2.684   1.225
14653TIP3   OH243915   1.916   2.371   1.043
14653TIP3    H143916   1.963   2.446   1.008
14653TIP3    H243917   1.824   2.395   1.035
14654TIP3   OH243918   1.955   3.088   1.008
14654TIP3    H143919   1.995   3.080   0.922
14654TIP3    H243920   1.903   3.169   1.003
14655TIP3   OH243921   1.861   2.806   1.482
14655TIP3    H143922   1.855   2.758   1.564
14655TIP3    H243923   1.902   2.745   1.421
14656TIP3   OH243924   2.088   2.156   1.096
14656TIP3    H143925   2.021   2.216   1.063
14656TIP3    H243926   2.050   2.120   1.176
14657TIP3   OH243927   2.175   2.815   1.422
14657TIP3    H143928   2.263   2.796   1.452
14657TIP3    H243929   2.125   2.736   1.440
14658TIP3   OH243930   1.706   2.528   1.560
14658TIP3    H143931   1.687   2.438   1.535
14658TIP3    H243932   1.748   2.521   1.646
14659TIP3   OH243933   2.183   2.263   1.469
14659TIP3    H143934   2.220   2.175   1.463
14659TIP3    H243935   2.200   2.302   1.383
14660TIP3   OH243936   4.330   7.786   6.635
14660TIP3    H143937   4.352   7.693   6.636
14660TIP3    H243938   4.313   7.806   6.543
14661TIP3   OH243939   3.793   7.089   6.825
14661TIP3    H143940   3.882   7.121   6.809
14661TIP3    H243941   3.794   6.999   6.794
14662TIP3   OH243942   0.855   3.674   0.331
14662TIP3    H143943   0.794   3.619   0.283
14662TIP3    H243944   0.904   3.613   0.387
14663TIP3   OH243945   1.006   3.487   0.472
14663TIP3    H143946   0.994   3.438   0.553
14663TIP3    H243947   1.090   3.531   0.483
14664TIP3   OH243948   5.445   7.158   6.690
14664TIP3    H143949   5.504   7.227   6.658
14664TIP3    H243950   5.484   7.131   6.773
14665TIP3   OH243951   5.587   7.057   6.908
14665TIP3    H143952   5.509   7.062   6.963
14665TIP3    H243953   5.630   7.142   6.919
14666TIP3   OH243954   5.500   6.933   6.546
14666TIP3    H143955   5.431   6.933   6.479
14666TIP3    H243956   5.481   7.010   6.600
14667TIP3   OH243957   5.351   6.584   6.491
14667TIP3    H143958   5.301   6.610   6.414
14667TIP3    H243959   5.351   6.489   6.489
14668TIP3   OH243960   2.440   2.840   0.039
14668TIP3    H143961   2.489   2.759   0.026
14668TIP3    H243962   2.505   2.902   0.072
14669TIP3   OH243963   1.155   2.946   0.843
14669TIP3    H143964   1.150   2.905   0.756
14669TIP3    H243965   1.249   2.945   0.864
14670TIP3   OH243966   5.327   6.313   6.472
14670TIP3    H143967   5.393   6.286   6.537
14670TIP3    H243968   5.247   6.271   6.502
14671TIP3   OH243969   5.394   6.600   6.921
14671TIP3    H143970   5.435   6.515   6.941
14671TIP3    H243971   5.442   6.632   6.845
14672TIP3   OH243972   2.707   2.789   0.479
14672TIP3    H143973   2.757   2.856   0.433
14672TIP3    H243974   2.773   2.728   0.512
14673TIP3   OH243975   1.429   2.602   1.512
14673TIP3    H143976   1.524   2.610   1.521
14673TIP3    H243977   1.410   2.512   1.540
14674TIP3   OH243978   2.679   2.339   0.054
14674TIP3    H143979   2.724   2.303   0.130
14674TIP3    H243980   2.607   2.279   0.038
14675TIP3   OH243981   1.348   2.327   0.892
14675TIP3    H143982   1.404   2.249   0.892
14675TIP3    H243983   1.405   2.399   0.866
14676TIP3   OH243984   5.561   6.276   6.624
14676TIP3    H143985   5.603   6.213   6.565
14676TIP3    H243986   5.617   6.354   6.621
14677TIP3   OH243987   1.143   2.077   0.430
14677TIP3    H143988   1.060   2.079   0.477
14677TIP3    H243989   1.134   2.144   0.362
14678TIP3   OH243990   5.109   7.808   6.823
14678TIP3    H143991   5.166   7.785   6.749
14678TIP3    H243992   5.139   7.895   6.850
14679TIP3   OH243993   1.373   2.174   1.254
14679TIP3    H143994   1.324   2.164   1.336
14679TIP3    H243995   1.310   2.214   1.194
14680TIP3   OH243996   1.654   3.609   1.007
14680TIP3    H143997   1.589   3.679   1.002
14680TIP3    H243998   1.735   3.648   0.975
14681TIP3   OH243999   3.144   2.438   0.984
14681TIP3    H144000   3.089   2.417   0.909
14681TIP3    H244001   3.174   2.352   1.016
14682TIP3   OH244002   1.479   3.981   0.777
14682TIP3    H144003   1.511   3.966   0.866
14682TIP3    H244004   1.553   3.958   0.721
14683TIP3   OH244005   1.176   3.634   0.708
14683TIP3    H144006   1.162   3.701   0.775
14683TIP3    H244007   1.219   3.679   0.636
14684TIP3   OH244008   1.474   3.502   0.532
14684TIP3    H144009   1.456   3.418   0.573
14684TIP3    H244010   1.505   3.558   0.604
14685TIP3   OH244011   1.743   3.637   0.475
14685TIP3    H144012   1.781   3.559   0.435
14685TIP3    H244013   1.718   3.609   0.563
14686TIP3   OH244014   2.163   2.291   0.618
14686TIP3    H144015   2.113   2.220   0.659
14686TIP3    H244016   2.224   2.246   0.559
14687TIP3   OH244017   2.656   2.154   0.434
14687TIP3    H144018   2.727   2.185   0.377
14687TIP3    H244019   2.595   2.226   0.438
14688TIP3   OH244020   2.846   2.250   0.272
14688TIP3    H144021   2.893   2.179   0.229
14688TIP3    H244022   2.893   2.329   0.247
14689TIP3   OH244023   1.450   2.005   0.606
14689TIP3    H144024   1.361   1.970   0.617
14689TIP3    H244025   1.506   1.928   0.603
14690TIP3   OH244026   1.246   1.889   0.251
14690TIP3    H144027   1.283   1.943   0.181
14690TIP3    H244028   1.216   1.951   0.317
14691TIP3   OH244029   1.903   2.047   0.484
14691TIP3    H144030   1.959   2.096   0.424
14691TIP3    H244031   1.935   2.072   0.571
14692TIP3   OH244032   2.356   2.171   0.473
14692TIP3    H144033   2.406   2.167   0.392
14692TIP3    H244034   2.400   2.109   0.531
14693TIP3   OH244035   2.480   2.141   0.042
14693TIP3    H144036   2.397   2.184   0.058
14693TIP3    H244037   2.468   2.051   0.074
14694TIP3   OH244038   0.935   3.461   0.038
14694TIP3    H144039   0.848   3.442   0.003
14694TIP3    H244040   0.959   3.545  -0.001
14695TIP3   OH244041   1.378   2.035   0.026
14695TIP3    H144042   1.427   1.978  -0.032
14695TIP3    H244043   1.444   2.094   0.063
14696TIP3   OH244044   1.864   2.230   0.124
14696TIP3    H144045   1.924   2.182   0.181
14696TIP3    H244046   1.875   2.322   0.149
14697TIP3   OH244047   4.553   7.614   6.556
14697TIP3    H144048   4.636   7.637   6.513
14697TIP3    H244049   4.518   7.543   6.502
14698TIP3   OH244050   5.299   7.770   6.631
14698TIP3    H144051   5.298   7.675   6.640
14698TIP3    H244052   5.326   7.786   6.541
14699TIP3   OH244053   1.666   2.259   1.511
14699TIP3    H144054   1.627   2.187   1.560
14699TIP3    H244055   1.760   2.252   1.526
14700TIP3   OH244056   1.932   2.235   1.568
14700TIP3    H144057   2.017   2.265   1.536
14700TIP3    H244058   1.953   2.186   1.648
14701TIP3   OH244059   3.918   7.462   6.613
14701TIP3    H144060   3.909   7.504   6.698
14701TIP3    H244061   4.009   7.430   6.612
14702TIP3   OH244062   5.721   6.872   6.747
14702TIP3    H144063   5.677   6.935   6.804
14702TIP3    H244064   5.660   6.799   6.739
14703TIP3   OH244065   3.023   3.116   0.146
14703TIP3    H144066   3.104   3.080   0.182
14703TIP3    H244067   3.038   3.120   0.051
14704TIP3   OH244068   3.547   2.698   0.099
14704TIP3    H144069   3.496   2.754   0.040
14704TIP3    H244070   3.496   2.617   0.106
14705TIP3   OH244071   3.203   2.893   0.134
14705TIP3    H144072   3.259   2.819   0.110
14705TIP3    H244073   3.116   2.866   0.107
14706TIP3   OH244074   5.634   7.328   6.577
14706TIP3    H144075   5.608   7.324   6.485
14706TIP3    H244076   5.637   7.422   6.596
14707TIP3   OH244077   6.588   6.984   6.233
14707TIP3    H144078   6.648   7.055   6.207
14707TIP3    H244079   6.620   6.907   6.185
14708TIP3   OH244080   7.260   6.332   6.222
14708TIP3    H144081   7.195   6.302   6.286
14708TIP3    H244082   7.279   6.422   6.248
14709TIP3   OH244083   6.065   7.052   6.579
14709TIP3    H144084   5.983   7.100   6.562
14709TIP3    H244085   6.039   6.980   6.636
14710TIP3   OH244086   6.883   7.024   5.943
14710TIP3    H144087   6.839   7.034   5.858
14710TIP3    H244088   6.930   7.106   5.957
14711TIP3   OH244089   6.592   6.495   6.294
14711TIP3    H144090   6.559   6.495   6.383
14711TIP3    H244091   6.552   6.419   6.253
14712TIP3   OH244092   6.248   6.848   6.842
14712TIP3    H144093   6.152   6.855   6.843
14712TIP3    H244094   6.268   6.809   6.757
14713TIP3   OH244095   6.260   6.489   6.259
14713TIP3    H144096   6.244   6.481   6.353
14713TIP3    H244097   6.179   6.524   6.223
14714TIP3   OH244098   3.001   2.437   0.168
14714TIP3    H144099   3.018   2.524   0.203
14714TIP3    H244100   2.992   2.450   0.074
14715TIP3   OH244101   5.717   6.510   6.621
14715TIP3    H144102   5.774   6.553   6.556
14715TIP3    H244103   5.657   6.578   6.650
14716TIP3   OH244104   5.984   6.832   6.763
14716TIP3    H144105   5.890   6.834   6.749
14716TIP3    H244106   6.004   6.741   6.784
14717TIP3   OH244107   6.256   6.746   6.588
14717TIP3    H144108   6.348   6.754   6.560
14717TIP3    H244109   6.206   6.758   6.507
14718TIP3   OH244110   6.093   6.776   6.357
14718TIP3    H144111   6.012   6.758   6.405
14718TIP3    H244112   6.084   6.728   6.275
14719TIP3   OH244113   6.221   6.474   6.832
14719TIP3    H144114   6.175   6.392   6.847
14719TIP3    H244115   6.314   6.450   6.832
14720TIP3   OH244116   6.432   7.213   6.346
14720TIP3    H144117   6.348   7.244   6.380
14720TIP3    H244118   6.489   7.289   6.351
14721TIP3   OH244119   6.817   6.641   6.274
14721TIP3    H144120   6.737   6.590   6.282
14721TIP3    H244121   6.795   6.713   6.214
14722TIP3   OH244122   5.736   6.939   6.400
14722TIP3    H144123   5.781   7.019   6.427
14722TIP3    H244124   5.662   6.932   6.460
14723TIP3   OH244125   6.234   7.430   6.021
14723TIP3    H144126   6.191   7.352   5.985
14723TIP3    H244127   6.192   7.442   6.107
14724TIP3   OH244128   6.108   7.457   6.272
14724TIP3    H144129   6.119   7.465   6.367
14724TIP3    H244130   6.037   7.518   6.251
14725TIP3   OH244131   5.844   7.189   6.465
14725TIP3    H144132   5.784   7.224   6.531
14725TIP3    H244133   5.845   7.255   6.395
14726TIP3   OH244134   6.905   6.557   6.526
14726TIP3    H144135   6.877   6.582   6.439
14726TIP3    H244136   6.932   6.640   6.567
14727TIP3   OH244137   6.532   6.768   6.606
14727TIP3    H144138   6.628   6.766   6.600
14727TIP3    H244139   6.514   6.791   6.697
14728TIP3   OH244140   6.765   6.449   6.742
14728TIP3    H144141   6.825   6.464   6.815
14728TIP3    H244142   6.808   6.488   6.666
14729TIP3   OH244143   6.220   6.458   6.528
14729TIP3    H144144   6.198   6.521   6.596
14729TIP3    H244145   6.315   6.444   6.537
14730TIP3   OH244146   5.830   6.678   6.416
14730TIP3    H144147   5.792   6.765   6.406
14730TIP3    H244148   5.801   6.630   6.339
14731TIP3   OH244149   3.391   2.391   0.432
14731TIP3    H144150   3.349   2.362   0.351
14731TIP3    H244151   3.406   2.311   0.481
14732TIP3   OH244152   5.642   7.592   6.630
14732TIP3    H144153   5.581   7.622   6.698
14732TIP3    H244154   5.621   7.646   6.553
14733TIP3   OH244155   6.330   7.664   5.896
14733TIP3    H144156   6.297   7.592   5.949
14733TIP3    H244157   6.410   7.629   5.856
14734TIP3   OH244158   5.906   7.116   6.100
14734TIP3    H144159   5.950   7.128   6.184
14734TIP3    H244160   5.970   7.148   6.035
14735TIP3   OH244161   6.501   7.377   5.965
14735TIP3    H144162   6.412   7.396   5.994
14735TIP3    H244163   6.506   7.281   5.966
14736TIP3   OH244164   6.229   7.018   6.375
14736TIP3    H144165   6.182   7.047   6.453
14736TIP3    H244166   6.183   6.939   6.347
14737TIP3   OH244167   6.328   6.897   6.148
14737TIP3    H144168   6.276   6.919   6.070
14737TIP3    H244169   6.340   6.802   6.142
14738TIP3   OH244170   5.588   7.335   6.308
14738TIP3    H144171   5.619   7.406   6.253
14738TIP3    H244172   5.583   7.259   6.249
14739TIP3   OH244173   3.158   2.515   0.520
14739TIP3    H144174   3.221   2.464   0.467
14739TIP3    H244175   3.207   2.537   0.599
14740TIP3   OH244176   2.901   2.948   0.392
14740TIP3    H144177   2.996   2.947   0.385
14740TIP3    H244178   2.878   3.041   0.396
14741TIP3   OH244179   7.354   6.609   6.015
14741TIP3    H144180   7.376   6.516   6.003
14741TIP3    H244181   7.412   6.639   6.084
14742TIP3   OH244182   5.770   6.341   6.842
14742TIP3    H144183   5.680   6.334   6.875
14742TIP3    H244184   5.769   6.419   6.787
14743TIP3   OH244185   6.054   6.261   6.902
14743TIP3    H144186   5.959   6.257   6.904
14743TIP3    H244187   6.083   6.179   6.941
14744TIP3   OH244188   5.876   6.154   6.664
14744TIP3    H144189   5.916   6.205   6.594
14744TIP3    H244190   5.840   6.219   6.724
14745TIP3   OH244191   6.508   6.448   6.832
14745TIP3    H144192   6.598   6.453   6.802
14745TIP3    H244193   6.514   6.416   6.922
14746TIP3   OH244194   7.090   6.366   6.438
14746TIP3    H144195   7.026   6.426   6.476
14746TIP3    H244196   7.086   6.288   6.493
14747TIP3   OH244197   5.588   7.728   6.398
14747TIP3    H144198   5.618   7.680   6.321
14747TIP3    H244199   5.565   7.815   6.365
14748TIP3   OH244200   6.004   6.298   6.457
14748TIP3    H144201   6.048   6.239   6.395
14748TIP3    H244202   6.075   6.352   6.492
14749TIP3   OH244203   6.496   6.497   6.554
14749TIP3    H144204   6.501   6.455   6.640
14749TIP3    H244205   6.505   6.590   6.572
14750TIP3   OH244206   5.465   0.251   6.782
14750TIP3    H144207   5.506   0.273   6.866
14750TIP3    H244208   5.521   0.182   6.745
14751TIP3   OH244209   0.525   3.623   0.001
14751TIP3    H144210   0.452   3.640   0.060
14751TIP3    H244211   0.541   3.706  -0.044
14752TIP3   OH244212   5.770   0.337   6.661
14752TIP3    H144213   5.735   0.336   6.572
14752TIP3    H244214   5.785   0.430   6.679
14753TIP3   OH244215   8.271   3.802   0.019
14753TIP3    H144216   8.237   3.846   0.097
14753TIP3    H244217   8.262   3.708   0.038
14754TIP3   OH244218   2.861   7.903   6.882
14754TIP3    H144219   2.770   7.892   6.908
14754TIP3    H244220   2.878   7.996   6.896
14755TIP3   OH244221   5.795   0.145   6.891
14755TIP3    H144222   5.878   0.134   6.938
14755TIP3    H244223   5.810   0.221   6.834
14756TIP3   OH244224   6.209   0.245   6.825
14756TIP3    H144225   6.155   0.201   6.759
14756TIP3    H244226   6.211   0.337   6.797
14757TIP3   OH244227   0.133   3.853   0.205
14757TIP3    H144228   0.101   3.859   0.115
14757TIP3    H244229   0.143   3.944   0.233
14758TIP3   OH244230   6.039   0.520   6.514
14758TIP3    H144231   5.994   0.454   6.462
14758TIP3    H244232   6.104   0.558   6.455
14759TIP3   OH244233   6.204   0.509   6.732
14759TIP3    H144234   6.136   0.510   6.665
14759TIP3    H244235   6.207   0.598   6.765
14760TIP3   OH244236   6.055   0.132   6.628
14760TIP3    H144237   5.993   0.160   6.562
14760TIP3    H244238   6.043   0.037   6.634
14761TIP3   OH244239   3.164   7.866   6.626
14761TIP3    H144240   3.240   7.857   6.684
14761TIP3    H244241   3.095   7.815   6.669
14762TIP3   OH244242   0.375   4.113   0.071
14762TIP3    H144243   0.420   4.044   0.119
14762TIP3    H244244   0.445   4.160   0.025
14763TIP3   OH244245   0.506   3.902   0.198
14763TIP3    H144246   0.557   3.896   0.278
14763TIP3    H244247   0.454   3.822   0.196
14764TIP3   OH244248   3.403   7.840   6.756
14764TIP3    H144249   3.455   7.773   6.712
14764TIP3    H244250   3.465   7.908   6.778
14765TIP3   OH244251   0.568   3.787   0.668
14765TIP3    H144252   0.604   3.829   0.590
14765TIP3    H244253   0.474   3.787   0.655
14766TIP3   OH244254   0.677   3.864   0.421
14766TIP3    H144255   0.743   3.796   0.402
14766TIP3    H244256   0.714   3.944   0.384
14767TIP3   OH244257   0.299   3.751   0.635
14767TIP3    H144258   0.250   3.727   0.557
14767TIP3    H244259   0.287   3.677   0.695
14768TIP3   OH244260   0.342   3.680   0.193
14768TIP3    H144261   0.264   3.734   0.203
14768TIP3    H244262   0.321   3.598   0.238
14769TIP3   OH244263   7.752   3.594   0.127
14769TIP3    H144264   7.790   3.536   0.060
14769TIP3    H244265   7.827   3.622   0.180
14770TIP3   OH244266   0.730   4.361   0.060
14770TIP3    H144267   0.681   4.433   0.098
14770TIP3    H244268   0.664   4.306   0.018
14771TIP3   OH244269   1.375   4.191   0.212
14771TIP3    H144270   1.327   4.269   0.185
14771TIP3    H244271   1.328   4.119   0.171
14772TIP3   OH244272   7.679   0.326   6.742
14772TIP3    H144273   7.752   0.364   6.791
14772TIP3    H244274   7.601   0.349   6.792
14773TIP3   OH244275   1.316   4.671   0.143
14773TIP3    H144276   1.403   4.702   0.121
14773TIP3    H244277   1.322   4.576   0.139
14774TIP3   OH244278   1.320   4.449   0.346
14774TIP3    H144279   1.328   4.511   0.418
14774TIP3    H244280   1.285   4.369   0.386
14775TIP3   OH244281   1.625   3.974   0.319
14775TIP3    H144282   1.663   3.906   0.375
14775TIP3    H244283   1.560   4.018   0.374
14776TIP3   OH244284   7.322   0.712   6.630
14776TIP3    H144285   7.233   0.745   6.623
14776TIP3    H244286   7.361   0.730   6.544
14777TIP3   OH244287   7.239   0.482   6.300
14777TIP3    H144288   7.281   0.506   6.383
14777TIP3    H244289   7.298   0.418   6.261
14778TIP3   OH244290   6.898   0.810   6.869
14778TIP3    H144291   6.833   0.754   6.826
14778TIP3    H244292   6.924   0.761   6.947
14779TIP3   OH244293   7.487   0.673   6.389
14779TIP3    H144294   7.501   0.767   6.379
14779TIP3    H244295   7.497   0.637   6.301
14780TIP3   OH244296   5.104   7.946   6.356
14780TIP3    H144297   5.041   7.930   6.426
14780TIP3    H244298   5.174   7.995   6.398
14781TIP3   OH244299   6.740   0.574   6.782
14781TIP3    H144300   6.656   0.611   6.753
14781TIP3    H244301   6.716   0.491   6.823
14782TIP3   OH244302   1.452   4.094   0.489
14782TIP3    H144303   1.366   4.086   0.449
14782TIP3    H244304   1.434   4.126   0.578
14783TIP3   OH244305   7.549   0.598   6.129
14783TIP3    H144306   7.511   0.565   6.048
14783TIP3    H244307   7.563   0.691   6.113
14784TIP3   OH244308   7.259   0.058   6.418
14784TIP3    H144309   7.220   0.069   6.505
14784TIP3    H244310   7.225  -0.027   6.388
14785TIP3   OH244311   1.259   4.393   0.054
14785TIP3    H144312   1.166   4.395   0.075
14785TIP3    H244313   1.263   4.357  -0.035
14786TIP3   OH244314   7.372   0.444   6.626
14786TIP3    H144315   7.363   0.539   6.629
14786TIP3    H244316   7.454   0.429   6.579
14787TIP3   OH244317   6.917   0.025   6.408
14787TIP3    H144318   6.910   0.021   6.503
14787TIP3    H244319   6.840   0.074   6.380
14788TIP3   OH244320   0.790   4.065   0.269
14788TIP3    H144321   0.771   4.140   0.327
14788TIP3    H244322   0.877   4.084   0.234
14789TIP3   OH244323   6.408   0.048   6.791
14789TIP3    H144324   6.453   0.080   6.713
14789TIP3    H244325   6.348   0.118   6.815
14790TIP3   OH244326   1.605   4.197   0.060
14790TIP3    H144327   1.521   4.186   0.106
14790TIP3    H244328   1.671   4.177   0.127
14791TIP3   OH244329   0.992   4.348  -0.003
14791TIP3    H144330   0.899   4.353   0.019
14791TIP3    H244331   1.019   4.261   0.028
14792TIP3   OH244332   6.916   0.269   6.748
14792TIP3    H144333   7.009   0.287   6.731
14792TIP3    H244334   6.872   0.294   6.667
14793TIP3   OH244335   6.792   0.313   6.509
14793TIP3    H144336   6.734   0.261   6.454
14793TIP3    H244337   6.856   0.349   6.448
14794TIP3   OH244338   1.208   4.011   0.092
14794TIP3    H144339   1.144   3.943   0.114
14794TIP3    H244340   1.260   3.974   0.021
14795TIP3   OH244341   7.056   0.793   6.613
14795TIP3    H144342   7.000   0.732   6.565
14795TIP3    H244343   7.010   0.809   6.695
14796TIP3   OH244344   7.511   0.154   6.386
14796TIP3    H144345   7.418   0.134   6.398
14796TIP3    H244346   7.518   0.247   6.408
14797TIP3   OH244347   7.582   0.418   6.448
14797TIP3    H144348   7.673   0.416   6.479
14797TIP3    H244349   7.565   0.511   6.433
14798TIP3   OH244350   7.084   0.979   6.410
14798TIP3    H144351   7.145   1.046   6.440
14798TIP3    H244352   7.080   0.916   6.482
14799TIP3   OH244353   8.038   0.440   6.266
14799TIP3    H144354   7.953   0.410   6.233
14799TIP3    H244355   8.036   0.535   6.255
14800TIP3   OH244356   6.425   0.469   6.564
14800TIP3    H144357   6.480   0.543   6.590
14800TIP3    H244358   6.351   0.472   6.624
14801TIP3   OH244359   7.483   0.926   6.272
14801TIP3    H144360   7.528   0.916   6.188
14801TIP3    H244361   7.391   0.909   6.252
14802TIP3   OH244362   6.798   0.971   6.362
14802TIP3    H144363   6.751   0.959   6.280
14802TIP3    H244364   6.886   0.998   6.336
14803TIP3   OH244365   6.519   0.709   6.673
14803TIP3    H144366   6.500   0.773   6.742
14803TIP3    H244367   6.508   0.758   6.592
14804TIP3   OH244368   7.563   0.089   6.654
14804TIP3    H144369   7.545   0.109   6.562
14804TIP3    H244370   7.612   0.166   6.685
14805TIP3   OH244371   7.184   0.312   6.766
14805TIP3    H144372   7.252   0.360   6.719
14805TIP3    H244373   7.215   0.309   6.857
14806TIP3   OH244374   7.391  -0.006   6.847
14806TIP3    H144375   7.351   0.069   6.892
14806TIP3    H244376   7.450   0.033   6.783
14807TIP3   OH244377   6.887   0.002   6.685
14807TIP3    H144378   6.876   0.090   6.721
14807TIP3    H244379   6.982  -0.013   6.685
14808TIP3   OH244380   6.482   0.853   6.438
14808TIP3    H144381   6.518   0.941   6.440
14808TIP3    H244382   6.549   0.801   6.393
14809TIP3   OH244383   6.457   0.189   6.560
14809TIP3    H144384   6.482   0.280   6.574
14809TIP3    H244385   6.377   0.193   6.507
14810TIP3   OH244386   1.062   3.904   0.481
14810TIP3    H144387   1.070   3.872   0.391
14810TIP3    H244388   1.146   3.880   0.522
14811TIP3   OH244389   6.666   0.680   6.339
14811TIP3    H144390   6.718   0.665   6.418
14811TIP3    H244391   6.727   0.665   6.267
14812TIP3   OH244392   7.231   0.891   6.186
14812TIP3    H144393   7.171   0.938   6.244
14812TIP3    H244394   7.194   0.803   6.180
14813TIP3   OH244395   6.852   0.623   6.531
14813TIP3    H144396   6.821   0.589   6.615
14813TIP3    H244397   6.888   0.547   6.486
14814TIP3   OH244398   6.966   0.436   6.343
14814TIP3    H144399   6.943   0.419   6.252
14814TIP3    H244400   7.057   0.463   6.341
14815TIP3   OH244401   7.823   0.760   6.012
14815TIP3    H144402   7.786   0.700   5.947
14815TIP3    H244403   7.894   0.805   5.965
14816TIP3   OH244404   6.208   0.814   6.456
14816TIP3    H144405   6.293   0.855   6.472
14816TIP3    H244406   6.230   0.728   6.420
14817TIP3   OH244407   8.038   0.695   6.173
14817TIP3    H144408   7.954   0.712   6.129
14817TIP3    H244409   8.090   0.773   6.156
14818TIP3   OH244410   7.803   0.393   6.126
14818TIP3    H144411   7.753   0.474   6.136
14818TIP3    H244412   7.762   0.349   6.052
14819TIP3   OH244413   7.854   0.429   6.534
14819TIP3    H144414   7.845   0.345   6.579
14819TIP3    H244415   7.944   0.430   6.502
14820TIP3   OH244416   7.939   0.152   6.638
14820TIP3    H144417   7.956   0.172   6.730
14820TIP3    H244418   7.881   0.076   6.640
14821TIP3   OH244419   0.977   4.118   0.620
14821TIP3    H144420   0.988   4.030   0.585
14821TIP3    H244421   1.055   4.166   0.590
14822TIP3   OH244422   8.089   0.067   6.147
14822TIP3    H144423   8.166   0.010   6.152
14822TIP3    H244424   8.119   0.151   6.182
14823TIP3   OH244425   0.783   3.863   0.040
14823TIP3    H144426   0.737   3.891   0.119
14823TIP3    H244427   0.781   3.939  -0.018
14824TIP3   OH244428   1.819   4.095   0.184
14824TIP3    H144429   1.759   4.049   0.244
14824TIP3    H244430   1.842   4.029   0.118
14825TIP3   OH244431   1.061   3.816   0.208
14825TIP3    H144432   0.972   3.791   0.232
14825TIP3    H244433   1.103   3.733   0.182
14826TIP3   OH244434   3.751   7.694   6.816
14826TIP3    H144435   3.777   7.752   6.744
14826TIP3    H244436   3.707   7.751   6.879
14827TIP3   OH244437   1.491   3.917   0.075
14827TIP3    H144438   1.560   3.896   0.012
14827TIP3    H244439   1.537   3.933   0.157
14828TIP3   OH244440   7.772   0.045   6.880
14828TIP3    H144441   7.842   0.042   6.945
14828TIP3    H244442   7.737  -0.044   6.879
14829TIP3   OH244443   4.942   7.937   6.581
14829TIP3    H144444   4.864   7.983   6.610
14829TIP3    H244445   4.935   7.851   6.622
14830TIP3   OH244446   3.848   7.854   6.599
14830TIP3    H144447   3.898   7.795   6.543
14830TIP3    H244448   3.914   7.911   6.639
14831TIP3   OH244449   7.156   0.056   6.671
14831TIP3    H144450   7.202  -0.014   6.716
14831TIP3    H244451   7.177   0.135   6.722
14832TIP3   OH244452   0.221   0.321   5.873
14832TIP3    H144453   0.222   0.333   5.968
14832TIP3    H244454   0.134   0.352   5.845
14833TIP3   OH244455   8.245   0.262   6.267
14833TIP3    H144456   8.308   0.297   6.204
14833TIP3    H244457   8.185   0.335   6.284
14834TIP3   OH244458   8.201   0.456   6.028
14834TIP3    H144459   8.266   0.518   6.060
14834TIP3    H244460   8.132   0.457   6.095
14835TIP3   OH244461   8.142   0.087   6.463
14835TIP3    H144462   8.087   0.114   6.536
14835TIP3    H244463   8.189   0.166   6.436
14836TIP3   OH244464   5.472   7.956   6.280
14836TIP3    H144465   5.533   8.010   6.230
14836TIP3    H244466   5.438   8.015   6.348
14837TIP3   OH244467  -0.031   0.086   6.098
14837TIP3    H144468  -0.000   0.014   6.043
14837TIP3    H244469   0.049   0.123   6.136
   8.50000   8.01388   6.94022   0.00000   0.00000  -2.83333   0.00000  -2.83333  -4.00694
