Title
44434
    1GLY      N    1   5.035   0.026   2.859 -0.0017  0.3101  0.3827
    1GLY    HT1    2   5.096   0.056   2.938 -0.7228  0.1595  1.0126
    1GLY    HT2    3   5.095  -0.014   2.785  0.9258 -0.5636  1.5708
    1GLY    HT3    4   4.976  -0.053   2.893  1.3745 -0.9367 -0.0443
    1GLY     CA    5   4.947   0.131   2.805 -0.1896 -0.0357 -0.0777
    1GLY    HA1    6   5.012   0.203   2.757 -0.8842 -1.3171 -3.1985
    1GLY    HA2    7   4.891   0.169   2.890  0.1703 -2.5451  1.3693
    1GLY      C    8   4.849   0.082   2.698  0.2394 -0.7182 -0.0383
    1GLY      O    9   4.840  -0.039   2.666 -0.3731 -0.3404  0.3464
    2PRO      N   10   4.756   0.162   2.657 -0.5605  1.0917  0.3244
    2PRO     CD   11   4.727   0.289   2.716 -0.4891 -0.5646  0.3858
    2PRO    HD1   12   4.818   0.351   2.730 -1.2697  0.4931  0.9268
    2PRO    HD2   13   4.664   0.276   2.807 -0.8073 -1.0470  0.1013
    2PRO     CA   14   4.657   0.118   2.551 -0.5790  0.2228 -0.1683
    2PRO     HA   15   4.618   0.024   2.587  3.2886 -1.9156 -0.9679
    2PRO     CB   16   4.563   0.238   2.535 -0.2233  0.3734 -0.7285
    2PRO    HB1   17   4.477   0.227   2.605  0.6560  1.2474  0.5358
    2PRO    HB2   18   4.529   0.246   2.429  0.6473 -0.1638 -1.0541
    2PRO     CG   19   4.649   0.356   2.602  1.0649 -0.5381  0.3173
    2PRO    HG1   20   4.720   0.392   2.524  1.2373  1.5684  1.3682
    2PRO    HG2   21   4.588   0.443   2.635  0.1003 -1.8192  2.0746
    2PRO      C   22   4.729   0.078   2.419  0.0955  0.6209  0.2940
    2PRO      O   23   4.797   0.147   2.349 -0.0434 -0.4186  0.5855
    3GLY      N   24   4.704  -0.049   2.388  0.2361 -0.2778  0.2116
    3GLY     HN   25   4.643  -0.098   2.448  0.4818  0.0777  0.7564
    3GLY     CA   26   4.744  -0.111   2.261 -0.0498  0.1901 -0.3262
    3GLY    HA1   27   4.766  -0.033   2.190 -1.2064 -1.1067 -2.1805
    3GLY    HA2   28   4.655  -0.164   2.229  0.9710 -1.5394 -0.4270
    3GLY      C   29   4.872  -0.196   2.272 -0.1819  0.1857  1.0422
    3GLY      O   30   4.920  -0.258   2.177  1.1434  0.4154  0.1288
    4ASP      N   31   4.936  -0.192   2.386 -0.1843  0.4570 -0.2166
    4ASP     HN   32   4.886  -0.148   2.461  0.9624  4.4143 -1.4860
    4ASP     CA   33   5.044  -0.268   2.422 -0.3450 -0.3184  0.1026
    4ASP     HA   34   5.110  -0.271   2.336 -0.5748  0.0597 -0.0933
    4ASP     CB   35   5.104  -0.207   2.558  0.1089 -0.1255  0.6259
    4ASP    HB1   36   5.192  -0.269   2.584  0.6200 -1.3141 -3.3721
    4ASP    HB2   37   5.028  -0.196   2.639 -1.3723  1.5014 -0.8950
    4ASP     CG   38   5.170  -0.076   2.531  0.6109 -0.6077 -0.3700
    4ASP    OD1   39   5.165   0.020   2.613 -0.0233 -0.0892 -0.4608
    4ASP    OD2   40   5.215  -0.047   2.416 -0.3910  0.0110 -0.7941
    4ASP      C   41   5.015  -0.419   2.442  0.4827  0.1102  0.0828
    4ASP      O   42   4.904  -0.450   2.495 -0.5651  0.1850 -0.2847
    5PRO      N   43   5.100  -0.507   2.410  0.2346  0.2808 -0.3603
    5PRO     CD   44   5.233  -0.482   2.349  0.2075 -0.5568 -0.1614
    5PRO    HD1   45   5.292  -0.426   2.425  1.7876 -2.5755  0.1929
    5PRO    HD2   46   5.235  -0.418   2.258  1.0400 -0.8556 -0.3687
    5PRO     CA   47   5.095  -0.649   2.452  0.2542  0.4179 -0.1697
    5PRO     HA   48   5.025  -0.686   2.379 -0.0450 -0.0358  0.3437
    5PRO     CB   49   5.239  -0.708   2.432  1.0803  0.3701  0.2322
    5PRO    HB1   50   5.243  -0.818   2.418 -1.2532 -0.1481  2.8193
    5PRO    HB2   51   5.297  -0.673   2.520 -0.8344  2.0091  0.9168
    5PRO     CG   52   5.298  -0.617   2.321 -0.1937  0.0190  0.0860
    5PRO    HG1   53   5.409  -0.626   2.328 -0.3352 -1.3214  0.8808
    5PRO    HG2   54   5.268  -0.655   2.222  1.0085 -1.8795  0.3971
    5PRO      C   55   5.036  -0.689   2.580  0.7236  0.4964  0.7335
    5PRO      O   56   5.064  -0.612   2.670  0.0213 -0.2671  0.2472
    6GLY      N   57   4.961  -0.802   2.599 -0.3138 -0.4133  0.5616
    6GLY     HN   58   4.945  -0.870   2.528 -0.4757 -0.3272  0.5149
    6GLY     CA   59   4.914  -0.831   2.737 -0.1887  0.4742  0.7088
    6GLY    HA1   60   4.845  -0.913   2.723  1.3409 -0.9755  1.3835
    6GLY    HA2   61   4.865  -0.740   2.770 -0.3039  1.7099 -2.4751
    6GLY      C   62   5.012  -0.865   2.838 -0.6443 -0.3096  0.0785
    6GLY      O   63   5.133  -0.855   2.818  0.2569  0.6117 -0.3028
    7SER      N   64   4.969  -0.903   2.960  0.6570 -0.4805  0.2332
    7SER     HN   65   4.870  -0.901   2.973  0.5297  0.2940 -0.7472
    7SER     CA   66   5.047  -0.955   3.068 -0.8871 -0.1039  0.0464
    7SER     HA   67   5.121  -0.882   3.096 -0.7103 -1.3578  3.4518
    7SER     CB   68   4.959  -0.962   3.196  0.7081 -0.4591 -0.4095
    7SER    HB1   69   4.871  -1.027   3.180 -0.0626  0.2478  0.8244
    7SER    HB2   70   4.914  -0.862   3.216 -0.4277 -0.7127 -1.6044
    7SER     OG   71   5.037  -0.997   3.313 -0.0495  0.7151 -0.4426
    7SER    HG1   72   5.037  -0.915   3.362 -0.1307  1.0955 -1.0732
    7SER      C   73   5.117  -1.092   3.035  0.6315  0.4217 -0.0205
    7SER      O   74   5.068  -1.171   2.955  0.4188  0.1600 -0.0407
    8GLY      N   75   5.237  -1.112   3.083 -0.1471 -0.2047 -0.9368
    8GLY     HN   76   5.273  -1.044   3.147  0.8645 -1.8423  0.3213
    8GLY     CA   77   5.347  -1.201   3.033  0.5759  0.1320  0.2245
    8GLY    HA1   78   5.318  -1.304   3.050  0.2323  0.0279 -0.8597
    8GLY    HA2   79   5.440  -1.172   3.079 -0.0675  0.5052  1.3163
    8GLY      C   80   5.372  -1.205   2.888 -0.0687  0.2571 -0.6657
    8GLY      O   81   5.323  -1.120   2.813  0.2817 -0.2079  0.2624
    9ASN      N   82   5.444  -1.309   2.846 -0.0864  0.4250  0.1389
    9ASN     HN   83   5.461  -1.373   2.920 -1.3769  1.9509  1.8559
    9ASN     CA   84   5.475  -1.341   2.710  0.2008  0.1352  0.0218
    9ASN     HA   85   5.540  -1.427   2.722 -0.0589  0.1700  1.9366
    9ASN     CB   86   5.350  -1.402   2.637  0.0416  0.3748  0.1151
    9ASN    HB1   87   5.264  -1.334   2.655 -0.1931  0.1880 -0.2834
    9ASN    HB2   88   5.327  -1.499   2.687  1.1169  1.2900  2.5364
    9ASN     CG   89   5.346  -1.422   2.488 -0.4310 -0.8868  0.0073
    9ASN    OD1   90   5.242  -1.394   2.435  0.0893  0.1044 -0.3547
    9ASN    ND2   91   5.451  -1.493   2.433  0.5467 -0.0413  0.3113
    9ASN   HD21   92   5.463  -1.518   2.337  1.0388 -1.7008  0.7610
    9ASN   HD22   93   5.538  -1.495   2.483  1.0697  0.1445 -0.5726
    9ASN      C   94   5.560  -1.242   2.630  0.3574  0.5205  0.0528
    9ASN      O   95   5.501  -1.179   2.542  0.0457 -0.0036  0.6482
   10PRO      N   96   5.687  -1.229   2.642 -0.0515 -0.0737 -0.1317
   10PRO     CD   97   5.753  -1.277   2.763  0.2342 -0.1826 -0.2967
   10PRO    HD1   98   5.764  -1.386   2.747 -0.9847 -0.1436 -1.6428
   10PRO    HD2   99   5.703  -1.256   2.860 -0.7515 -2.6142 -0.2244
   10PRO     CA  100   5.770  -1.155   2.553 -0.3298  0.7007  0.1832
   10PRO     HA  101   5.742  -1.052   2.565 -1.7491  0.2206  1.3948
   10PRO     CB  102   5.906  -1.178   2.617 -0.2460 -0.0985  0.1511
   10PRO    HB1  103   5.985  -1.100   2.606 -1.8442  1.6404  0.5230
   10PRO    HB2  104   5.957  -1.269   2.579  2.1804  1.1737  0.1587
   10PRO     CG  105   5.882  -1.199   2.765  0.4245  0.3473  0.6212
   10PRO    HG1  106   5.961  -1.257   2.819 -0.7589  0.1431  2.1936
   10PRO    HG2  107   5.868  -1.098   2.808  0.0449  0.8752 -0.6905
   10PRO      C  108   5.762  -1.195   2.402 -0.8689 -0.1219 -1.1160
   10PRO      O  109   5.715  -1.304   2.363 -0.1306 -0.2999 -0.2844
   11GLY      N  110   5.822  -1.111   2.312  0.2034 -0.0119 -0.8068
   11GLY     HN  111   5.867  -1.026   2.338  2.3191 -0.5038 -2.5191
   11GLY     CA  112   5.799  -1.125   2.174 -0.2798 -0.2547  0.3622
   11GLY    HA1  113   5.832  -1.032   2.129 -1.0913  0.3072  0.8923
   11GLY    HA2  114   5.694  -1.143   2.153 -0.0361 -2.0254  0.5294
   11GLY      C  115   5.884  -1.222   2.100 -0.1513  0.0377  0.9018
   11GLY      O  116   5.926  -1.324   2.147  0.1018 -0.6506  0.1368
   12SER      N  117   5.912  -1.185   1.972  0.0774  0.3023  0.0260
   12SER     HN  118   5.887  -1.093   1.942 -1.3342 -0.1272 -0.1963
   12SER     CA  119   5.963  -1.270   1.866 -0.5436 -0.1890  0.2505
   12SER     HA  120   6.028  -1.342   1.916  0.2869  0.2180 -0.2126
   12SER     CB  121   5.851  -1.355   1.811  0.5644  0.7689  0.5921
   12SER    HB1  122   5.811  -1.400   1.905  0.9235  0.3889  0.5631
   12SER    HB2  123   5.879  -1.438   1.742  0.4364  0.2871  1.1139
   12SER     OG  124   5.755  -1.272   1.749  0.6258  0.1796  0.0258
   12SER    HG1  125   5.720  -1.214   1.817 -0.1880 -0.3938  0.1115
   12SER      C  126   6.044  -1.194   1.759  0.4203 -0.9428  0.4763
   12SER      O  127   6.026  -1.074   1.745  0.2379 -0.1570 -0.2796
   13GLY      N  128   6.119  -1.260   1.673 -1.0904  0.1426  0.1051
   13GLY     HN  129   6.127  -1.360   1.676  0.2447  0.2657  2.3418
   13GLY     CA  130   6.221  -1.195   1.585  0.5986 -0.5399  0.6093
   13GLY    HA1  131   6.221  -1.090   1.609  1.4826 -0.8741  2.2046
   13GLY    HA2  132   6.195  -1.218   1.483 -0.6074  0.4854  0.6574
   13GLY      C  133   6.355  -1.242   1.628 -0.0705  0.3161 -0.8310
   13GLY      O  134   6.372  -1.338   1.703  0.1752 -0.0899 -0.3200
   14ASP      N  135   6.453  -1.163   1.583 -0.3699  0.0058 -0.5509
   14ASP     HN  136   6.432  -1.081   1.530  0.8594  0.5211 -0.2817
   14ASP     CA  137   6.593  -1.170   1.624 -0.5353 -0.7039 -0.3652
   14ASP     HA  138   6.612  -1.274   1.602 -2.3715 -0.8552 -1.4106
   14ASP     CB  139   6.694  -1.090   1.530  0.7104  0.3505  0.2931
   14ASP    HB1  140   6.781  -1.064   1.594 -0.3484  1.5838  1.2904
   14ASP    HB2  141   6.654  -0.988   1.512  1.0102  1.0078  2.9484
   14ASP     CG  142   6.730  -1.153   1.401  0.1386 -0.1559 -0.2542
   14ASP    OD1  143   6.714  -1.278   1.385  0.1767 -0.0169  0.0332
   14ASP    OD2  144   6.781  -1.080   1.311 -0.2921  0.3855  0.1633
   14ASP      C  145   6.615  -1.149   1.777 -0.3246  0.0618  0.1163
   14ASP      O  146   6.544  -1.070   1.838  0.0161 -0.4613  0.3712
   15PRO      N  147   6.700  -1.225   1.843 -0.1605  0.7400  0.1017
   15PRO     CD  148   6.761  -1.346   1.783  0.2383 -0.2499  0.0936
   15PRO    HD1  149   6.799  -1.333   1.679  0.4058 -2.3634 -0.1420
   15PRO    HD2  150   6.676  -1.417   1.772  0.3194 -0.2268 -0.7089
   15PRO     CA  151   6.717  -1.220   1.995  0.6599  0.1672  0.1655
   15PRO     HA  152   6.614  -1.215   2.024  0.3659 -0.9140 -0.6311
   15PRO     CB  153   6.792  -1.361   2.021  0.4694 -0.0701  0.5266
   15PRO    HB1  154   6.714  -1.435   2.049  0.1358  0.2680  0.4903
   15PRO    HB2  155   6.864  -1.340   2.103  1.6420  0.1786 -0.5357
   15PRO     CG  156   6.860  -1.407   1.887  0.6611 -0.0145  0.1677
   15PRO    HG1  157   6.964  -1.369   1.881  2.0298 -3.4636 -0.1979
   15PRO    HG2  158   6.857  -1.518   1.876 -0.1321 -0.2709  2.3107
   15PRO      C  159   6.779  -1.093   2.041  0.2929 -0.1247 -0.0097
   15PRO    OT1  160   6.750  -1.038   2.149 -0.0910  0.6186 -1.2720
   15PRO    OT2  161   6.861  -1.034   1.966 -0.5916 -0.4626  0.7716
   16LIT    LIT  162   5.227   0.155   2.486  0.1529  0.8512 -1.0320
   17LIT    LIT  163   3.220   5.630   2.969  0.8241  0.8357  0.2244
   18LIT    LIT  164   5.034   6.390   5.623 -0.4100  0.3630 -0.7611
   19LIT    LIT  165   2.971   3.201   6.672 -0.7187 -0.8222 -0.3678
   20LIT    LIT  166   1.345   3.760   1.669 -1.1559 -0.0822 -0.0227
   21LIT    LIT  167   5.921   5.281   1.306 -0.8831  0.9351 -0.3079
   22LIT    LIT  168   7.724   1.813   4.470  0.8227 -0.8079  0.9407
   23LIT    LIT  169   6.212   1.094   0.802 -0.1364  0.2997 -0.4926
   24LIT    LIT  170   7.725   7.548   5.698 -0.4062  0.1474 -0.5586
   25LIT    LIT  171   1.626   0.010   5.665 -0.6280  0.3117  0.6938
   26LIT    LIT  172   2.255   5.247   5.869  1.2012  0.0814 -0.9614
   27LIT    LIT  173   2.868   1.128   2.145  0.6473  0.8711 -0.0686
   28LIT    LIT  174   5.553   6.789   5.080 -1.1496  0.7627 -0.0784
   29LIT    LIT  175   4.026   2.544   5.731 -0.2281 -0.2752 -0.0616
   30LIT    LIT  176   6.703   3.154   6.474  0.0834 -0.3855 -0.3127
   31LIT    LIT  177   2.319   1.681   2.106  0.8900 -0.5028 -0.0637
   32LIT    LIT  178   1.782   7.346   4.357 -0.4749  0.0078 -0.0569
   33LIT    LIT  179   1.273   1.636   6.443  0.7516 -0.6576 -1.0910
   34LIT    LIT  180   4.002   3.387   2.306  0.7173 -0.0447 -1.3650
   35LIT    LIT  181   6.846   4.634   3.638 -0.5204 -0.9212  0.3051
   36LIT    LIT  182   8.020   5.473   6.704 -0.4719 -0.7199  0.2200
   37LIT    LIT  183   8.088   5.985   5.353 -0.3363  0.0432  0.3669
   38LIT    LIT  184   0.880   7.531   0.887  0.4441 -0.2334 -0.5445
   39LIT    LIT  185   7.063   1.104   1.505 -0.3067  0.0535 -0.9807
   40LIT    LIT  186   6.868   0.547   4.288  1.5002  0.1833  0.3165
   41LIT    LIT  187   4.095   6.925   2.089 -0.8151 -0.1590  0.7371
   42LIT    LIT  188   4.473   3.173   3.836  1.1870 -0.8333 -0.6696
   43LIT    LIT  189   4.113   6.146   5.449 -0.1394  0.2065  1.1877
   44LIT    LIT  190   5.972   3.054   0.334 -1.2905  0.7107 -0.2414
   45LIT    LIT  191   5.632   7.598   5.383 -0.1874 -0.1427  0.1643
   46LIT    LIT  192   5.044   1.390   5.511  0.1384  0.7218  0.0959
   47LIT    LIT  193   1.057   5.480   4.393 -0.4306  0.4101  0.5375
   48LIT    LIT  194   6.048   3.110   4.230  0.7313 -0.7912  0.1834
   49LIT    LIT  195   4.002   6.574   1.187 -0.2018 -0.1773  0.3651
   50LIT    LIT  196   3.785   7.296   5.027  0.6805  0.4550 -0.5557
   51LIT    LIT  197   3.488   5.998   1.391  0.1023 -0.3698 -0.7724
   52LIT    LIT  198   0.264   2.453   4.131 -1.1638 -0.2061  0.2655
   53LIT    LIT  199   7.429   1.170   6.392 -0.2240 -0.2609 -0.1879
   54LIT    LIT  200   0.220   4.477   5.172 -0.7942  0.3579  0.6477
   55LIT    LIT  201   0.818   0.469   1.549 -0.3564  0.7251 -0.5785
   56LIT    LIT  202   7.795   7.422   2.436  0.1380  0.0795 -1.6719
   57LIT    LIT  203   3.801   1.317   4.861  0.9183  0.9078 -0.0518
   58LIT    LIT  204   6.626   1.814   0.107 -0.5852 -0.1816 -0.9494
   59LIT    LIT  205   5.857   5.211   3.404  0.1477 -0.1773 -0.6979
   60CLA    CLA  206   4.479   5.147   5.244  0.4652  0.2338 -0.1848
   61CLA    CLA  207   6.982   7.622   5.257 -0.2509  0.0037 -0.3247
   62CLA    CLA  208   0.542   0.239   4.064  0.3191 -0.1890  0.1978
   63CLA    CLA  209   7.337   3.697   5.440  0.1617  0.2377  0.2471
   64CLA    CLA  210   7.723   6.200   6.553  0.3465 -0.1544  0.3113
   65CLA    CLA  211   6.589   3.092   1.230 -0.1854 -0.0482 -0.0890
   66CLA    CLA  212   1.802   1.309   2.039 -0.0738 -0.1095 -0.3162
   67CLA    CLA  213   3.450   6.439   3.040  0.3527  0.4403  0.4172
   68CLA    CLA  214   2.532   6.368   5.197  0.1940 -0.0249 -0.0439
   69CLA    CLA  215   0.540   7.684   3.208 -0.1172 -0.0862 -0.3935
   70CLA    CLA  216   7.932   1.313   4.951  0.5336 -0.2120 -0.3825
   71CLA    CLA  217   4.347   1.408   5.444 -0.1049  0.2332  0.3080
   72CLA    CLA  218   8.072   1.621   2.836  0.0076  0.1285  0.0566
   73CLA    CLA  219   6.673   0.704   3.875  0.0612 -0.4713  0.0323
   74CLA    CLA  220   5.252   6.478   4.825 -0.2461 -0.1735 -0.6044
   75CLA    CLA  221   1.758   6.234   0.325  0.1671 -0.0849 -0.0354
   76CLA    CLA  222   3.788   3.516   6.144 -0.0234 -0.0245  0.2529
   77CLA    CLA  223   5.953   2.247   3.436 -0.0530 -0.3213  0.0704
   78CLA    CLA  224   7.573   5.741   4.296 -0.0764 -0.1440  0.0486
   79CLA    CLA  225   1.913   4.733   0.321 -0.3167  0.0194  0.5253
   80CLA    CLA  226   2.293   1.862   6.678  0.1816  0.3432  0.1897
   81CLA    CLA  227   3.053   5.105   2.220  0.1592  0.0750 -0.1186
   82CLA    CLA  228   6.373   7.654   5.558  0.2614  0.3614 -0.2470
   83CLA    CLA  229   7.989   5.741   0.114  0.0643  0.0526  0.0118
   84CLA    CLA  230   6.403   1.491   0.876  0.2241 -0.1819 -0.1100
   85CLA    CLA  231   2.901   4.873   0.555  0.2846 -0.2291 -0.6584
   86CLA    CLA  232   6.081   4.723   1.035  0.4643 -0.0701 -0.0228
   87CLA    CLA  233   6.630   6.913   0.581  0.1626 -0.2696  0.1297
   88CLA    CLA  234   4.693   6.890   0.569 -0.1082 -0.3376  0.3738
   89CLA    CLA  235   0.950   0.411   4.208  0.3304  0.0326 -0.0948
   90CLA    CLA  236   7.470   1.960   4.723  0.2992 -0.0054 -0.6194
   91CLA    CLA  237   5.643   6.595   5.141 -0.3582  0.4523 -0.1659
   92CLA    CLA  238   0.924   7.339   5.993 -0.1549  0.4045  0.0706
   93CLA    CLA  239   0.863   4.630   1.120 -0.0841 -0.1343 -0.3637
   94CLA    CLA  240   2.232   5.832   2.885 -0.1906 -0.2325  0.5676
   95CLA    CLA  241   0.200   1.958   6.063  0.1442 -0.3632 -0.3494
   96CLA    CLA  242   2.511   2.846   3.759 -0.1289  0.2001 -0.2250
   97CLA    CLA  243   3.609   5.799   1.438 -0.2011 -0.1669  0.0597
   98CLA    CLA  244   5.617   4.385   4.243 -0.1822 -0.3517  0.4334
   99CLA    CLA  245   3.255   5.408   5.880  0.2101 -0.1247  0.1760
  100CLA    CLA  246   6.698   1.519   2.299  0.1520 -0.0709 -0.3802
  101CLA    CLA  247   4.845   6.897   4.202  0.0656  0.7255  0.0630
  102TIP3   OH2  248   2.672   1.876   3.519  0.4741  0.4746 -0.0697
  102TIP3    H1  249   2.730   1.871   3.443 -0.2696  1.2405 -0.7094
  102TIP3    H2  250   2.712   1.817   3.583  1.6607  0.5698 -0.6794
  103TIP3   OH2  251   0.946   5.901   5.962 -0.1196 -0.0128  0.0897
  103TIP3    H1  252   1.019   5.957   5.939  0.4381 -1.2218 -1.2381
  103TIP3    H2  253   0.869   5.958   5.954  0.2759  0.3112 -2.5583
  104TIP3   OH2  254   2.638   7.760   4.240 -0.4217  0.1158 -0.3021
  104TIP3    H1  255   2.721   7.771   4.194 -1.4941  0.5511 -2.2425
  104TIP3    H2  256   2.639   7.669   4.269  1.5623  0.6389  1.5339
  105TIP3   OH2  257   1.249   7.253   1.019 -0.2588  0.6161  0.2417
  105TIP3    H1  258   1.315   7.197   0.978 -0.9718 -0.3813  0.4322
  105TIP3    H2  259   1.300   7.311   1.077  0.4606 -0.0793  0.3289
  106TIP3   OH2  260   7.626   2.269   5.705 -0.0743 -0.6901  0.3960
  106TIP3    H1  261   7.577   2.291   5.626 -0.3158  1.4382  1.0884
  106TIP3    H2  262   7.632   2.173   5.704 -4.1883 -1.1187  0.2510
  107TIP3   OH2  263   2.437   5.535   0.801 -0.5295 -0.4422  0.2343
  107TIP3    H1  264   2.431   5.603   0.868 -2.1908 -0.8733  0.5797
  107TIP3    H2  265   2.362   5.551   0.744 -0.6411 -1.6666  0.0150
  108TIP3   OH2  266   3.100   1.009   6.573 -0.1911  0.4759 -0.3736
  108TIP3    H1  267   3.155   1.078   6.609  1.4618  0.0651 -1.9718
  108TIP3    H2  268   3.010   1.043   6.583  0.3123  1.3547  1.8739
  109TIP3   OH2  269   7.843   5.339   4.496 -0.1529  0.0853 -0.0062
  109TIP3    H1  270   7.845   5.405   4.565 -1.2202 -0.0918  0.2234
  109TIP3    H2  271   7.797   5.382   4.424 -0.4118 -0.2327 -0.0349
  110TIP3   OH2  272   7.343   0.346   6.070  0.0672  0.2006  0.7261
  110TIP3    H1  273   7.252   0.317   6.080 -0.1111  0.6273  0.4204
  110TIP3    H2  274   7.387   0.317   6.150 -0.2535 -0.3171  0.7216
  111TIP3   OH2  275   0.536   4.300   3.206  0.0861 -0.5395 -0.2496
  111TIP3    H1  276   0.583   4.232   3.254  0.8606 -0.0664 -0.3055
  111TIP3    H2  277   0.551   4.279   3.113  0.2995 -0.3176 -0.2672
  112TIP3   OH2  278   2.445   6.993   1.097 -0.6427 -0.2952 -0.0720
  112TIP3    H1  279   2.436   6.898   1.092 -1.9062 -0.1588 -0.7309
  112TIP3    H2  280   2.400   7.017   1.178  1.0940 -0.3730  0.9921
  113TIP3   OH2  281   0.674   4.475   1.882  0.7776 -0.0993  0.5965
  113TIP3    H1  282   0.595   4.520   1.913  0.3669 -0.0959 -0.4118
  113TIP3    H2  283   0.657   4.459   1.789  2.2472  0.5252  0.1937
  114TIP3   OH2  284   2.075   3.112   5.395 -0.1036  0.2390  0.6204
  114TIP3    H1  285   2.078   3.198   5.437 -1.7044  0.4669  0.3188
  114TIP3    H2  286   2.095   3.050   5.466  1.5422  0.8615  0.7304
  115TIP3   OH2  287   0.722   6.678   0.011 -0.2064 -0.3549 -0.1351
  115TIP3    H1  288   0.628   6.675   0.030 -0.2183 -2.2247 -0.2957
  115TIP3    H2  289   0.760   6.618   0.075  0.7213 -0.6011 -0.9062
  116TIP3   OH2  290   0.349   6.926   4.240  0.2117 -0.1697 -0.3236
  116TIP3    H1  291   0.281   6.990   4.261  1.8798  1.3149  0.9180
  116TIP3    H2  292   0.331   6.852   4.298  0.6574  0.9831  1.3600
  117TIP3   OH2  293   1.442   5.191   5.932  0.0637 -0.3710  0.5294
  117TIP3    H1  294   1.527   5.179   5.890  0.0853 -0.1984  0.5257
  117TIP3    H2  295   1.461   5.243   6.010  0.0231 -0.6772  0.7457
  118TIP3   OH2  296   4.969   4.090   3.985 -0.3040 -0.5723  0.2186
  118TIP3    H1  297   5.016   4.168   3.954 -1.5227  0.5742  1.1477
  118TIP3    H2  298   5.037   4.023   3.995  0.7714  0.3705 -0.5797
  119TIP3   OH2  299   7.852   3.267   6.444 -0.0897 -0.0222  0.6537
  119TIP3    H1  300   7.896   3.193   6.401  0.0880  0.1619  0.5152
  119TIP3    H2  301   7.843   3.333   6.375  0.0029  0.1919  0.8440
  120TIP3   OH2  302   6.042   2.804   0.853  0.4631 -0.6296 -0.3998
  120TIP3    H1  303   6.086   2.751   0.918 -0.7943  1.5281  2.4157
  120TIP3    H2  304   5.953   2.815   0.886 -0.3869  0.2628 -2.7135
  121TIP3   OH2  305   1.721   2.552   2.261 -0.6215  0.3640 -0.5822
  121TIP3    H1  306   1.676   2.631   2.292 -0.7577 -0.2823  0.9661
  121TIP3    H2  307   1.664   2.480   2.287  0.1905 -0.3335 -0.6856
  122TIP3   OH2  308   4.069   3.228   1.353 -0.2202  0.0939 -0.3853
  122TIP3    H1  309   4.017   3.300   1.391 -0.6229 -0.8782  0.9864
  122TIP3    H2  310   4.007   3.157   1.342  0.4315 -0.4638 -0.5188
  123TIP3   OH2  311   3.704   1.143   4.241  0.1646 -0.1054 -0.0315
  123TIP3    H1  312   3.778   1.191   4.280  1.3737 -0.7036 -1.4690
  123TIP3    H2  313   3.694   1.182   4.154  0.4663 -1.6932 -0.8077
  124TIP3   OH2  314   7.825   2.432   4.986 -0.2582  0.0190  0.3788
  124TIP3    H1  315   7.880   2.508   4.969 -0.9297  0.3737 -0.2789
  124TIP3    H2  316   7.877   2.377   5.046  0.5312  0.6389  0.2766
  125TIP3   OH2  317   4.382   5.846   0.765  0.0343 -0.0317 -0.3809
  125TIP3    H1  318   4.358   5.841   0.858 -1.2190 -1.1890 -0.7371
  125TIP3    H2  319   4.455   5.908   0.763 -0.1725  0.3314  1.3213
  126TIP3   OH2  320   7.239   2.205   5.746  0.0468 -0.2057 -0.0162
  126TIP3    H1  321   7.300   2.132   5.734  1.3149  0.7307  0.6152
  126TIP3    H2  322   7.281   2.279   5.702  0.4018  0.9825  2.2029
  127TIP3   OH2  323   0.688   0.565   3.687  0.7173 -0.1001 -0.1757
  127TIP3    H1  324   0.678   0.648   3.641 -1.7600 -0.6037 -0.6933
  127TIP3    H2  325   0.687   0.589   3.780 -0.9226  0.4166 -0.2957
  128TIP3   OH2  326   0.625   4.801   3.279 -0.7375  0.2999  0.6574
  128TIP3    H1  327   0.689   4.796   3.209 -0.3003 -0.4700  1.1046
  128TIP3    H2  328   0.587   4.714   3.284 -0.7332  0.3270  1.4035
  129TIP3   OH2  329   1.886   4.228   2.499 -0.3768 -0.2806  0.5938
  129TIP3    H1  330   1.847   4.251   2.415  0.2854 -2.2746 -0.3006
  129TIP3    H2  331   1.946   4.300   2.518  0.3195 -0.3507 -1.2052
  130TIP3   OH2  332   3.518   2.814   5.293 -0.4334 -0.2906  0.4810
  130TIP3    H1  333   3.433   2.853   5.271 -1.6246 -2.6833  0.5030
  130TIP3    H2  334   3.579   2.888   5.293 -1.8665  1.1027 -2.7344
  131TIP3   OH2  335   4.429   6.172   3.843  0.2762 -0.2937 -0.0604
  131TIP3    H1  336   4.449   6.265   3.851  0.7178 -0.3871 -0.0759
  131TIP3    H2  337   4.493   6.128   3.899 -0.2217 -0.5605  0.3097
  132TIP3   OH2  338   6.683   2.461   6.183  0.3149  0.3493  0.5752
  132TIP3    H1  339   6.682   2.544   6.230  1.9697 -0.1539  1.5935
  132TIP3    H2  340   6.675   2.395   6.252 -0.5545 -0.3627 -0.1773
  133TIP3   OH2  341   8.296   6.118   5.918  0.0467  0.2473  0.1331
  133TIP3    H1  342   8.306   6.097   6.011  1.2136 -1.3687 -0.3236
  133TIP3    H2  343   8.203   6.139   5.908 -0.6959 -2.1919  1.1818
  134TIP3   OH2  344   2.536   5.993   6.645  0.0042 -0.0683 -0.1099
  134TIP3    H1  345   2.599   5.937   6.599  1.6196  1.5139  0.0637
  134TIP3    H2  346   2.450   5.956   6.622  0.9361 -1.7769 -1.0646
  135TIP3   OH2  347   4.658   2.052   0.461  0.1092 -1.2001 -0.3655
  135TIP3    H1  348   4.671   2.141   0.492 -0.4534 -1.3465  0.3240
  135TIP3    H2  349   4.713   1.998   0.517 -2.0457 -1.6342  1.4703
  136TIP3   OH2  350   5.379   4.385   3.414 -0.1037 -0.9613 -0.1897
  136TIP3    H1  351   5.369   4.462   3.358  1.4701 -1.3274 -1.0276
  136TIP3    H2  352   5.308   4.392   3.478 -1.6106 -0.2108 -1.8547
  137TIP3   OH2  353   7.358   4.012   1.525  0.2991  0.1410 -0.5198
  137TIP3    H1  354   7.329   4.035   1.437 -2.0483  0.6892  0.3285
  137TIP3    H2  355   7.308   3.933   1.547  0.2551  0.4606  0.6024
  138TIP3   OH2  356   7.994   2.318   0.349 -0.4690 -0.1780 -0.2849
  138TIP3    H1  357   7.968   2.226   0.345 -0.3870 -0.1494 -2.3236
  138TIP3    H2  358   7.959   2.349   0.433 -1.2465 -1.8279  0.0389
  139TIP3   OH2  359   2.771   7.716   1.735 -0.3911  0.1001  0.4278
  139TIP3    H1  360   2.774   7.620   1.726 -1.3216 -0.2160  2.6960
  139TIP3    H2  361   2.829   7.734   1.809 -1.1016  1.1706  0.7368
  140TIP3   OH2  362   4.550   4.796   2.371 -0.5139  0.0735  0.0966
  140TIP3    H1  363   4.548   4.754   2.457  2.2404  2.3786  1.4640
  140TIP3    H2  364   4.541   4.889   2.389  1.8803  0.7944 -1.8070
  141TIP3   OH2  365   1.775   6.485   2.689 -0.2495  0.2247  0.1662
  141TIP3    H1  366   1.719   6.410   2.710 -1.6543  0.9134 -0.9746
  141TIP3    H2  367   1.849   6.477   2.750  0.3300 -2.7904 -0.7530
  142TIP3   OH2  368   2.220   6.200   5.865 -0.1611 -0.5411  0.5228
  142TIP3    H1  369   2.256   6.235   5.946  0.2564 -1.1726  0.6164
  142TIP3    H2  370   2.137   6.161   5.890 -2.4265  3.3166 -0.1234
  143TIP3   OH2  371   5.857   7.225   5.830  0.8786  0.9393 -0.3199
  143TIP3    H1  372   5.930   7.264   5.879  0.2063  0.7321  0.8958
  143TIP3    H2  373   5.780   7.270   5.864  0.3806  0.7265 -1.1584
  144TIP3   OH2  374   5.898   0.755   0.466  0.3348 -0.1223 -0.3505
  144TIP3    H1  375   5.979   0.805   0.479  0.3892  0.4143 -2.3254
  144TIP3    H2  376   5.893   0.744   0.371 -1.7868 -0.3661 -0.2485
  145TIP3   OH2  377   1.712   5.842   2.334  0.5751  0.1849 -0.1735
  145TIP3    H1  378   1.797   5.878   2.310  1.7193 -1.1930  1.5185
  145TIP3    H2  379   1.701   5.865   2.426  0.6971 -2.4014  0.5696
  146TIP3   OH2  380   1.503   5.975   3.935 -0.5573  0.2592 -0.3212
  146TIP3    H1  381   1.577   5.916   3.947 -1.2019 -0.7483 -1.1061
  146TIP3    H2  382   1.500   5.991   3.841 -0.2472  1.7783 -0.1064
  147TIP3   OH2  383   1.217   6.721   3.883  0.5493 -0.1388  0.6553
  147TIP3    H1  384   1.124   6.730   3.904 -0.3960 -0.2078 -2.8541
  147TIP3    H2  385   1.249   6.811   3.877  0.5463 -0.0992  1.2279
  148TIP3   OH2  386   2.059   3.090   2.190  0.2240 -0.2134 -0.0843
  148TIP3    H1  387   2.091   3.170   2.147 -1.1811  0.6562  0.4195
  148TIP3    H2  388   1.978   3.069   2.144  0.0047 -0.7082  0.5171
  149TIP3   OH2  389   7.887   1.025   3.997 -0.0990  0.7817  0.2364
  149TIP3    H1  390   7.961   0.967   4.016  0.8341  1.9539  0.3752
  149TIP3    H2  391   7.832   0.976   3.936  0.8965 -0.0610 -0.0179
  150TIP3   OH2  392   0.127   6.525   5.670  0.1609  0.0939 -0.7131
  150TIP3    H1  393   0.131   6.607   5.720  0.3733 -0.2901 -0.0895
  150TIP3    H2  394   0.177   6.543   5.591  1.1105  0.2458 -0.1023
  151TIP3   OH2  395   7.107   3.331   4.347  0.5024 -0.0909  0.4323
  151TIP3    H1  396   7.012   3.323   4.339  0.7833 -3.2217 -0.8389
  151TIP3    H2  397   7.137   3.244   4.373  3.0552  0.8084  0.8104
  152TIP3   OH2  398   7.465   6.269   1.739 -0.5863 -0.1592  0.1189
  152TIP3    H1  399   7.546   6.219   1.735 -0.9042 -0.6741  0.0898
  152TIP3    H2  400   7.419   6.236   1.816  0.1496  1.5592  1.3685
  153TIP3   OH2  401   1.349   7.570   2.983 -0.1453  0.3618  0.5748
  153TIP3    H1  402   1.428   7.580   2.930 -0.0336 -1.5740  0.2982
  153TIP3    H2  403   1.277   7.588   2.923  0.0372  0.4269  0.3746
  154TIP3   OH2  404   0.093   1.120   1.559 -0.1277 -0.1734 -0.0049
  154TIP3    H1  405   0.069   1.166   1.479 -0.5544  0.2059  0.3383
  154TIP3    H2  406   0.031   1.048   1.565  0.6639 -0.9347 -0.6470
  155TIP3   OH2  407   8.020   4.238   2.197  0.3399 -0.1444  0.1870
  155TIP3    H1  408   8.063   4.286   2.125  1.2261 -2.2508 -0.7908
  155TIP3    H2  409   7.929   4.228   2.169  0.7881 -1.3783 -0.9557
  156TIP3   OH2  410   2.864   0.095   2.069  0.2209 -0.3946  0.0930
  156TIP3    H1  411   2.855   0.111   1.975  1.4587 -0.2363 -0.0197
  156TIP3    H2  412   2.917   0.015   2.074  0.8065  0.0138  0.6424
  157TIP3   OH2  413   7.382   5.475   3.884  0.2917  0.2075 -0.6872
  157TIP3    H1  414   7.467   5.430   3.891  0.1475  0.2019  1.6944
  157TIP3    H2  415   7.392   5.553   3.938 -1.0960  0.4466 -0.7529
  158TIP3   OH2  416   7.708   4.956   3.487 -0.5500 -0.5613 -0.3883
  158TIP3    H1  417   7.753   5.030   3.446 -3.0335  0.1175 -2.0660
  158TIP3    H2  418   7.775   4.888   3.493  1.3698  1.2159 -0.3365
  159TIP3   OH2  419   1.948   7.057   4.469  0.1078 -0.6556 -0.1790
  159TIP3    H1  420   1.873   7.061   4.529 -0.0373 -1.0011 -0.3331
  159TIP3    H2  421   2.024   7.047   4.526 -0.1709 -2.6919 -0.0852
  160TIP3   OH2  422   3.543   3.739   1.188 -0.0099 -0.6706 -0.4821
  160TIP3    H1  423   3.463   3.692   1.166 -0.5445  0.2603 -0.5570
  160TIP3    H2  424   3.550   3.808   1.122  0.8245 -0.7058 -0.4397
  161TIP3   OH2  425   0.226   5.679   5.590  0.1965 -0.6985  0.2607
  161TIP3    H1  426   0.182   5.685   5.505  0.5130 -1.1795  0.0557
  161TIP3    H2  427   0.188   5.749   5.642  1.7494  1.2614 -1.0695
  162TIP3   OH2  428   7.502   1.308   0.421 -0.6335  0.2328 -0.0424
  162TIP3    H1  429   7.570   1.263   0.471  0.3217 -0.2983 -1.7637
  162TIP3    H2  430   7.499   1.396   0.459  0.0601 -0.1357  0.9171
  163TIP3   OH2  431   2.809   6.592   5.109 -0.0206 -0.3681 -0.1778
  163TIP3    H1  432   2.896   6.602   5.149  0.2715  3.3573 -1.4207
  163TIP3    H2  433   2.748   6.597   5.182  0.7096 -0.8712  0.4904
  164TIP3   OH2  434   2.230   5.456   1.951  0.6242  0.0055  0.1092
  164TIP3    H1  435   2.298   5.397   1.917  0.3391  0.5962 -1.6094
  164TIP3    H2  436   2.196   5.500   1.873 -0.7733  0.7499  1.0968
  165TIP3   OH2  437   4.423   3.341   0.424  0.4269  0.1379  0.2429
  165TIP3    H1  438   4.334   3.364   0.396  0.6104  0.8806  0.2646
  165TIP3    H2  439   4.416   3.328   0.518  0.2950 -0.0521  0.2085
  166TIP3   OH2  440   0.605   0.813   1.004  0.6004  0.3816  0.3425
  166TIP3    H1  441   0.532   0.835   0.946 -0.6137 -0.4096  1.5068
  166TIP3    H2  442   0.588   0.862   1.084  1.2189  0.0130  0.7055
  167TIP3   OH2  443   6.382   1.411   1.823 -0.3642  0.7483 -0.1984
  167TIP3    H1  444   6.449   1.405   1.754 -0.6126 -0.2431 -0.3646
  167TIP3    H2  445   6.426   1.378   1.902 -0.1295  1.7363  0.1037
  168TIP3   OH2  446   0.378   2.995   1.443  0.2707 -0.2339  0.4959
  168TIP3    H1  447   0.435   3.000   1.520  1.2912  1.0268 -0.2794
  168TIP3    H2  448   0.418   2.928   1.388  1.9572  1.5867 -0.6775
  169TIP3   OH2  449   1.614   1.333   2.937 -0.4298 -0.3467  0.1258
  169TIP3    H1  450   1.612   1.269   3.008  1.0956  0.6927  1.1562
  169TIP3    H2  451   1.696   1.314   2.890  0.1776  0.9903  0.6067
  170TIP3   OH2  452   5.367   5.339   0.361 -0.1957 -0.3120  0.5232
  170TIP3    H1  453   5.429   5.406   0.390 -0.8460 -0.7403  3.1946
  170TIP3    H2  454   5.281   5.376   0.380 -0.5964 -1.4124  0.9332
  171TIP3   OH2  455   7.298   6.485   6.213 -0.3332  0.3790 -0.6684
  171TIP3    H1  456   7.366   6.436   6.168  0.1641  0.1338  0.3361
  171TIP3    H2  457   7.345   6.542   6.273 -0.9926 -2.1384  2.4998
  172TIP3   OH2  458   7.816   6.611   1.685  0.3383  0.2275 -0.0932
  172TIP3    H1  459   7.884   6.566   1.635  0.2376  0.6233 -0.5943
  172TIP3    H2  460   7.845   6.702   1.689  0.0189  0.3272  0.0080
  173TIP3   OH2  461   2.050   2.831   6.377  0.3135 -0.3023 -0.0064
  173TIP3    H1  462   2.013   2.880   6.304 -1.1598 -0.1891  0.7884
  173TIP3    H2  463   2.127   2.787   6.340 -0.5232 -0.4204 -1.6779
  174TIP3   OH2  464   3.057   0.396   5.978  0.5176  0.1765  0.1142
  174TIP3    H1  465   2.991   0.373   5.912 -0.3600  1.5549  0.4759
  174TIP3    H2  466   3.140   0.399   5.929  0.1487 -0.4854 -0.5683
  175TIP3   OH2  467   4.190   3.078   5.072 -0.3704 -0.1910  0.2146
  175TIP3    H1  468   4.097   3.097   5.064 -0.6859 -1.9274 -0.7552
  175TIP3    H2  469   4.233   3.143   5.016 -1.0302  0.3471  0.3234
  176TIP3   OH2  470   0.119   2.241   1.195 -0.0067 -0.3245 -0.6202
  176TIP3    H1  471   0.105   2.207   1.107  1.6210 -1.1810 -0.5971
  176TIP3    H2  472   0.204   2.285   1.190 -0.6739  1.1054  0.1268
  177TIP3   OH2  473   6.763   5.064   6.009  0.2620  0.0281  0.7152
  177TIP3    H1  474   6.766   4.973   5.980 -1.1891  0.6968 -1.7892
  177TIP3    H2  475   6.745   5.058   6.103 -0.2112 -2.2454  0.5386
  178TIP3   OH2  476   6.054   4.792   4.903  0.0326 -0.2333  0.6690
  178TIP3    H1  477   6.120   4.829   4.844  0.2333  0.2497  1.1931
  178TIP3    H2  478   5.988   4.860   4.911 -1.3346 -1.2736 -1.0652
  179TIP3   OH2  479   2.726   2.630   6.035 -0.1905 -0.4016  0.1815
  179TIP3    H1  480   2.676   2.708   6.010 -1.0841 -0.8964  0.3909
  179TIP3    H2  481   2.813   2.664   6.057  0.9666  0.0091 -4.2292
  180TIP3   OH2  482   6.439   1.417   6.397 -0.5982 -0.0658  0.4495
  180TIP3    H1  483   6.494   1.360   6.450 -0.8540 -0.5582  0.1858
  180TIP3    H2  484   6.457   1.505   6.431  0.6865 -0.1669  0.0730
  181TIP3   OH2  485   1.620   5.478   1.272 -0.3440  0.6799  0.1460
  181TIP3    H1  486   1.549   5.483   1.337 -1.7508  1.1022 -1.3674
  181TIP3    H2  487   1.649   5.387   1.274 -1.2752  0.3809  0.4382
  182TIP3   OH2  488   6.211   6.674   5.399 -0.6185  0.4831  0.3404
  182TIP3    H1  489   6.198   6.590   5.442 -0.4956 -0.4158 -1.2912
  182TIP3    H2  490   6.124   6.698   5.366 -0.8444  1.4808  1.5649
  183TIP3   OH2  491   2.298   0.560   3.346  0.4028 -0.3110 -0.1230
  183TIP3    H1  492   2.287   0.563   3.251  2.5678 -0.9883 -0.4537
  183TIP3    H2  493   2.347   0.640   3.366 -1.4118  0.6556  0.6975
  184TIP3   OH2  494   4.745   6.828   5.608  0.0226  0.5394 -0.8027
  184TIP3    H1  495   4.799   6.780   5.670 -0.2279  0.4400 -0.6562
  184TIP3    H2  496   4.711   6.762   5.548  0.2603  0.6351 -1.0434
  185TIP3   OH2  497   3.884   2.274   3.365 -0.1003  0.4828 -0.2119
  185TIP3    H1  498   3.846   2.265   3.278 -1.5152 -2.2561  0.5654
  185TIP3    H2  499   3.809   2.268   3.424  1.1042 -0.5688  1.2724
  186TIP3   OH2  500   4.855   1.151   6.409 -0.4047  0.0785 -0.5031
  186TIP3    H1  501   4.786   1.086   6.421 -0.4199  0.4924  2.6357
  186TIP3    H2  502   4.935   1.105   6.432 -0.1701  0.6250 -0.2073
  187TIP3   OH2  503   1.412   2.124   3.274  0.0903  0.1602  0.6121
  187TIP3    H1  504   1.357   2.052   3.244 -1.0138  1.1451  0.2099
  187TIP3    H2  505   1.382   2.200   3.224  1.2167  0.9088  1.0371
  188TIP3   OH2  506   6.926   3.230   3.105 -0.2060  0.1166 -0.1319
  188TIP3    H1  507   6.879   3.156   3.067  1.4019  0.3308 -2.7913
  188TIP3    H2  508   6.985   3.191   3.168  0.9811 -1.0276 -1.8500
  189TIP3   OH2  509   4.570   6.733   2.312 -0.1485  0.2237 -0.0788
  189TIP3    H1  510   4.514   6.769   2.381  0.9178  1.6387  0.0875
  189TIP3    H2  511   4.640   6.797   2.302  0.2184 -0.3992 -1.8556
  190TIP3   OH2  512   2.429   2.395  -0.029  0.0624 -0.4363 -0.9547
  190TIP3    H1  513   2.367   2.344   0.023  0.2207  0.1918 -0.1351
  190TIP3    H2  514   2.514   2.383   0.014  0.2796 -0.2682 -1.3228
  191TIP3   OH2  515   6.015   6.141   1.800 -0.4294  0.5275  0.5747
  191TIP3    H1  516   6.105   6.167   1.781 -0.4282  1.2518  1.4923
  191TIP3    H2  517   5.973   6.221   1.832 -1.3837  0.1824  0.2408
  192TIP3   OH2  518   0.777   5.437   3.390  0.1097  0.1063 -0.0463
  192TIP3    H1  519   0.717   5.444   3.464  1.8289 -0.7805  1.5400
  192TIP3    H2  520   0.835   5.513   3.399 -1.7425  1.9635 -2.6040
  193TIP3   OH2  521   0.423   6.755   5.734  0.7086 -0.3621  0.3256
  193TIP3    H1  522   0.427   6.844   5.698  0.0264  0.5237  2.3098
  193TIP3    H2  523   0.474   6.702   5.672 -0.5351  0.9972 -1.9751
  194TIP3   OH2  524   0.761   0.911   0.626  0.2928  0.1213  0.4058
  194TIP3    H1  525   0.851   0.881   0.638  0.7958  1.4427  0.0935
  194TIP3    H2  526   0.738   0.952   0.710  0.1142  0.1195  0.3579
  195TIP3   OH2  527   1.496   3.172   3.305  0.7732 -0.0748 -0.0478
  195TIP3    H1  528   1.440   3.221   3.364 -0.7936 -0.7675 -0.8718
  195TIP3    H2  529   1.569   3.231   3.285 -0.7982  1.7680 -0.6630
  196TIP3   OH2  530   7.693   3.934   5.017  0.0526  0.0332 -0.2396
  196TIP3    H1  531   7.731   4.004   5.070 -0.9119  0.1674  0.3021
  196TIP3    H2  532   7.606   3.967   4.993 -0.6346 -1.1802  0.4746
  197TIP3   OH2  533   1.011   3.279   5.538 -0.3667 -0.7300  0.3334
  197TIP3    H1  534   1.101   3.275   5.507 -0.1904 -1.0269  0.8811
  197TIP3    H2  535   0.987   3.188   5.556 -1.0474 -0.7434 -0.5750
  198TIP3   OH2  536   5.267   2.127   1.785  0.2726  0.6541  0.1502
  198TIP3    H1  537   5.331   2.080   1.839  1.0233  1.5153  0.0329
  198TIP3    H2  538   5.182   2.108   1.826  0.6557 -0.1082  0.5987
  199TIP3   OH2  539   1.474   4.804   3.238 -0.2540  0.2701  0.4295
  199TIP3    H1  540   1.565   4.834   3.237  0.0394 -0.5796 -0.8339
  199TIP3    H2  541   1.428   4.865   3.180  0.1240 -0.9627 -1.2543
  200TIP3   OH2  542   0.924   4.471   3.489 -0.3611  0.2370  0.6391
  200TIP3    H1  543   0.994   4.451   3.552 -0.7914 -0.6385  0.8578
  200TIP3    H2  544   0.907   4.388   3.445  0.2566  0.9284 -1.0058
  201TIP3   OH2  545   6.424   0.105   5.148  0.2216  0.5555  0.1952
  201TIP3    H1  546   6.397   0.193   5.121 -2.2379 -0.3789 -0.6384
  201TIP3    H2  547   6.359   0.079   5.214  0.3006 -0.9881 -0.2948
  202TIP3   OH2  548   5.058   5.839   4.584  0.2593  0.2742 -0.2195
  202TIP3    H1  549   5.081   5.770   4.522 -0.3290  1.6888 -2.0653
  202TIP3    H2  550   5.105   5.916   4.554  0.5855  0.8315  1.5774
  203TIP3   OH2  551   3.210   2.001   0.624 -0.0666 -0.0154 -0.0040
  203TIP3    H1  552   3.238   1.989   0.534 -1.9950 -1.2873 -0.4705
  203TIP3    H2  553   3.132   2.056   0.618  0.8783  1.5341  1.0826
  204TIP3   OH2  554   5.617   3.398   1.216 -0.4379 -0.0041 -0.2775
  204TIP3    H1  555   5.592   3.448   1.138  1.3084  3.7132  1.3314
  204TIP3    H2  556   5.552   3.422   1.282 -0.5315 -1.2461  0.1106
  205TIP3   OH2  557   3.111   0.691   4.633 -0.6087  0.3954  0.3713
  205TIP3    H1  558   3.085   0.619   4.690  0.9567 -0.3618  0.1796
  205TIP3    H2  559   3.113   0.653   4.545 -1.9190  1.2639 -0.0534
  206TIP3   OH2  560   2.540   2.772   0.469 -0.1980  0.7819  0.5025
  206TIP3    H1  561   2.620   2.822   0.484 -0.3430  0.9275  0.8180
  206TIP3    H2  562   2.523   2.780   0.376  1.3631 -1.0918 -0.0052
  207TIP3   OH2  563   0.628   5.597   4.064  0.1081 -0.2689 -0.4042
  207TIP3    H1  564   0.706   5.652   4.064 -0.1295  0.1639  1.7820
  207TIP3    H2  565   0.565   5.646   4.011  0.2832  1.0420  0.5271
  208TIP3   OH2  566   5.884   7.691   1.117  0.4063  0.1545 -0.7157
  208TIP3    H1  567   5.951   7.671   1.183  1.9441  1.4334 -1.8198
  208TIP3    H2  568   5.886   7.787   1.110 -1.6756  0.2444 -0.6894
  209TIP3   OH2  569   6.334   3.360   1.826  0.1382 -0.1024  0.5035
  209TIP3    H1  570   6.400   3.400   1.768 -1.7032  1.6826 -0.4831
  209TIP3    H2  571   6.296   3.289   1.775  0.6834 -0.5756  0.7472
  210TIP3   OH2  572   6.315   2.191   1.119  0.5329 -0.3299 -0.0335
  210TIP3    H1  573   6.272   2.110   1.145  0.1207 -0.5124 -1.1835
  210TIP3    H2  574   6.351   2.227   1.200  0.0797 -1.2790  0.6099
  211TIP3   OH2  575   1.290   3.092   6.486 -0.2552  0.1219 -0.1209
  211TIP3    H1  576   1.313   3.098   6.393 -0.8210 -0.2814 -0.2877
  211TIP3    H2  577   1.196   3.078   6.487 -0.3167  0.5254  0.5317
  212TIP3   OH2  578   4.734   0.767   1.920 -0.2243  0.0334  0.6319
  212TIP3    H1  579   4.767   0.764   2.010  1.5035 -0.0709  0.0266
  212TIP3    H2  580   4.731   0.860   1.899  0.8950  0.0068  0.2886
  213TIP3   OH2  581   2.214   4.385   2.842 -0.1496 -0.1649  0.0260
  213TIP3    H1  582   2.264   4.409   2.920  0.3443  0.1268 -0.3734
  213TIP3    H2  583   2.260   4.427   2.770 -1.1702  0.4007 -0.3169
  214TIP3   OH2  584   2.638   5.294   5.696  0.2959 -0.1487 -0.2954
  214TIP3    H1  585   2.720   5.332   5.662  1.1954 -0.5472  1.3498
  214TIP3    H2  586   2.636   5.319   5.788 -1.4926 -0.0960 -0.3134
  215TIP3   OH2  587   2.828   0.135   1.722  0.1038 -0.9096  0.4252
  215TIP3    H1  588   2.873   0.145   1.638  2.3518 -0.9553  1.5464
  215TIP3    H2  589   2.818   0.040   1.733  2.4846 -1.0996  1.4651
  216TIP3   OH2  590   6.679   1.894   2.890  0.3178  0.0192 -0.1973
  216TIP3    H1  591   6.731   1.932   2.960  3.2552 -2.0257 -1.0503
  216TIP3    H2  592   6.629   1.823   2.932 -1.6269  1.7282  0.5478
  217TIP3   OH2  593   0.031   5.121   3.873  0.0721 -0.1336 -0.1644
  217TIP3    H1  594   0.035   5.207   3.914 -0.6121 -0.0371 -0.2760
  217TIP3    H2  595   0.107   5.118   3.815  0.6249  0.0258  0.5330
  218TIP3   OH2  596   5.904   2.607   4.904 -0.0202  0.2571  0.1812
  218TIP3    H1  597   5.815   2.594   4.934  0.1851  1.7756  1.6160
  218TIP3    H2  598   5.958   2.551   4.960  0.0043  0.0087 -0.0898
  219TIP3   OH2  599   7.408   6.990   1.716 -0.0117 -0.2887  0.1146
  219TIP3    H1  600   7.436   7.060   1.657 -2.8275  0.8393 -0.0569
  219TIP3    H2  601   7.450   6.911   1.682  1.3513  0.9254 -1.1562
  220TIP3   OH2  602   1.236   2.523   1.095  0.3366 -0.9555  0.1106
  220TIP3    H1  603   1.318   2.512   1.144  1.0985  2.5430 -0.1704
  220TIP3    H2  604   1.168   2.519   1.162  1.0326 -0.3380  0.8728
  221TIP3   OH2  605   5.348   6.839   0.458 -0.0667  0.0357 -0.2270
  221TIP3    H1  606   5.343   6.755   0.504 -1.5831  0.3444  0.2246
  221TIP3    H2  607   5.301   6.900   0.514 -0.1667  0.8885 -1.2101
  222TIP3   OH2  608   0.655   4.929   3.728 -0.5857  0.2913 -0.4326
  222TIP3    H1  609   0.641   4.929   3.634 -2.5011 -2.3658 -0.2582
  222TIP3    H2  610   0.721   4.860   3.742  0.5368  1.4446  0.1134
  223TIP3   OH2  611   5.200   4.453   4.636  0.0622  0.8184 -0.3482
  223TIP3    H1  612   5.174   4.407   4.557 -1.3154 -1.1405  1.1414
  223TIP3    H2  613   5.277   4.404   4.667 -1.4118 -0.6035  1.2478
  224TIP3   OH2  614   0.794   1.258   0.460  0.6511 -0.1041 -0.0994
  224TIP3    H1  615   0.756   1.334   0.416 -0.8460 -0.2776  0.8218
  224TIP3    H2  616   0.833   1.294   0.539 -0.6724 -0.3262  0.6972
  225TIP3   OH2  617   0.028   3.271   1.941  0.6727 -0.1617 -0.0551
  225TIP3    H1  618   0.119   3.299   1.929  0.4369 -0.4208 -3.0550
  225TIP3    H2  619  -0.004   3.326   2.013  2.3145  2.1372 -0.9541
  226TIP3   OH2  620   2.736   5.490   5.199 -0.6097  0.5946  0.4409
  226TIP3    H1  621   2.800   5.535   5.254 -0.7316 -1.1265  2.0695
  226TIP3    H2  622   2.787   5.456   5.125 -0.2186  1.8070  0.1260
  227TIP3   OH2  623   3.685   0.363   2.838  0.0079  0.1179  0.0283
  227TIP3    H1  624   3.704   0.437   2.779 -0.3329 -0.2185 -0.5039
  227TIP3    H2  625   3.771   0.340   2.874  0.0383  1.1943  0.7154
  228TIP3   OH2  626   0.272   4.423   5.445 -0.3582  1.3986  0.2698
  228TIP3    H1  627   0.281   4.446   5.538 -0.9852 -1.0517  1.0216
  228TIP3    H2  628   0.227   4.339   5.446 -0.1844  1.2057 -2.2774
  229TIP3   OH2  629   0.580   3.379   3.905  0.2328 -0.5639 -0.1688
  229TIP3    H1  630   0.596   3.291   3.871 -0.5704 -0.4014 -1.0145
  229TIP3    H2  631   0.651   3.432   3.869  0.6014 -0.8199  0.1731
  230TIP3   OH2  632   6.038   0.841   5.336  0.2077 -0.2721  0.1859
  230TIP3    H1  633   6.029   0.931   5.368 -1.9306 -0.9567  1.7370
  230TIP3    H2  634   6.121   0.811   5.372  1.0384  1.0970 -0.5008
  231TIP3   OH2  635   3.251   6.531   5.666  0.8434 -0.1672 -0.2322
  231TIP3    H1  636   3.202   6.450   5.674  2.3157 -1.0481  0.2386
  231TIP3    H2  637   3.319   6.525   5.733  1.7598  0.8921 -1.0235
  232TIP3   OH2  638   7.252   7.469   2.192  0.2243  0.1189  0.1529
  232TIP3    H1  639   7.282   7.552   2.156  0.1651 -0.0805 -0.3565
  232TIP3    H2  640   7.296   7.463   2.277 -0.4531  1.0909  0.5937
  233TIP3   OH2  641   0.085   1.502   5.504  0.1712  0.6756  0.5930
  233TIP3    H1  642   0.110   1.592   5.484  0.8642  0.5692  0.9582
  233TIP3    H2  643   0.037   1.473   5.427 -0.4314  1.4939  0.6405
  234TIP3   OH2  644   2.340   3.185   1.616 -0.1005  0.6333  0.6221
  234TIP3    H1  645   2.325   3.220   1.704 -1.7556  0.1806  0.5438
  234TIP3    H2  646   2.375   3.097   1.631 -0.7478  0.4101  0.8260
  235TIP3   OH2  647   1.948   2.508   2.431 -0.5828 -0.2561 -0.0260
  235TIP3    H1  648   1.877   2.519   2.368 -0.6944  2.8381  0.4809
  235TIP3    H2  649   2.027   2.532   2.383 -0.5226  0.9743  0.6578
  236TIP3   OH2  650   3.893   3.181   0.445  0.2711 -0.3670  1.1904
  236TIP3    H1  651   3.880   3.264   0.400 -1.3336 -0.9756  0.4624
  236TIP3    H2  652   3.964   3.138   0.397  1.0714  0.5200  1.5369
  237TIP3   OH2  653   2.523   6.440   0.944  0.0520 -0.1712 -1.0425
  237TIP3    H1  654   2.557   6.431   1.033  2.1324  0.4591 -1.7253
  237TIP3    H2  655   2.453   6.375   0.939 -1.3866  0.9644  1.5876
  238TIP3   OH2  656   4.305   2.274   5.937 -0.2068  0.1795  0.1104
  238TIP3    H1  657   4.396   2.290   5.913 -0.0878 -0.2013  0.2981
  238TIP3    H2  658   4.293   2.180   5.924 -1.1961  0.5460 -1.9922
  239TIP3   OH2  659   5.515   7.545   6.133 -0.3779  0.3382  0.0520
  239TIP3    H1  660   5.442   7.601   6.106 -0.7093 -0.0397  0.1619
  239TIP3    H2  661   5.577   7.605   6.174 -0.4427  0.7229 -0.4031
  240TIP3   OH2  662   7.830   6.092   4.415 -0.3137  0.5769  0.2655
  240TIP3    H1  663   7.822   6.128   4.503 -1.3539  0.1798  0.3514
  240TIP3    H2  664   7.897   6.145   4.373 -0.6728  1.5607  0.9072
  241TIP3   OH2  665   4.857   6.858   0.254  0.1474  0.1269 -0.3443
  241TIP3    H1  666   4.842   6.876   0.347  0.8496 -0.1047 -0.1768
  241TIP3    H2  667   4.834   6.765   0.244  0.0358  0.1616 -0.4116
  242TIP3   OH2  668   1.815   1.611   2.895 -0.2790 -0.2229  0.0068
  242TIP3    H1  669   1.732   1.627   2.849  0.3345 -0.0166 -1.0609
  242TIP3    H2  670   1.847   1.528   2.857  0.3604  0.0834 -0.1350
  243TIP3   OH2  671   1.971   1.118   0.184  0.1604  0.2748  0.4745
  243TIP3    H1  672   2.014   1.059   0.121 -0.8122 -1.6926  1.5681
  243TIP3    H2  673   2.032   1.191   0.194  0.9036  0.0533 -1.7952
  244TIP3   OH2  674   1.601   7.302   0.377 -0.0559 -0.7938  0.0553
  244TIP3    H1  675   1.588   7.251   0.457 -0.9771 -2.1691 -0.9154
  244TIP3    H2  676   1.696   7.303   0.366  0.0046 -2.2018  0.2030
  245TIP3   OH2  677   2.442   5.950   1.166  0.0421 -0.1319  0.1928
  245TIP3    H1  678   2.530   5.973   1.136 -0.6870 -0.1715 -2.1149
  245TIP3    H2  679   2.429   5.860   1.136 -1.0119  0.0934 -0.0717
  246TIP3   OH2  680   2.772   5.363   1.661 -0.7067 -0.4650 -0.3183
  246TIP3    H1  681   2.798   5.304   1.590 -0.5123  0.6002 -1.1634
  246TIP3    H2  682   2.731   5.437   1.617 -1.8311 -0.4033  0.7878
  247TIP3   OH2  683   6.621   6.629  -0.007  0.0997  0.2236 -0.1116
  247TIP3    H1  684   6.610   6.723   0.011  0.1140 -0.2713  3.0450
  247TIP3    H2  685   6.532   6.594  -0.004  0.2003 -0.0375 -0.1806
  248TIP3   OH2  686   1.950   7.330   4.257 -0.1460  0.2066 -0.2481
  248TIP3    H1  687   1.987   7.241   4.259  0.5687  0.5059  0.6404
  248TIP3    H2  688   2.009   7.379   4.200 -0.3656  0.1917 -0.4908
  249TIP3   OH2  689   1.259   2.859   0.910 -0.1474 -0.0359 -0.1652
  249TIP3    H1  690   1.227   2.794   0.973  0.3495  0.0829  0.2152
  249TIP3    H2  691   1.180   2.889   0.865 -0.3314 -1.2543 -0.6994
  250TIP3   OH2  692   0.852   1.713   4.874  0.0751 -0.1577  0.3510
  250TIP3    H1  693   0.787   1.771   4.835  0.3756 -0.4163 -0.5559
  250TIP3    H2  694   0.898   1.768   4.937 -0.2492  0.3399  0.1625
  251TIP3   OH2  695   4.159   7.592   4.384  0.4439  0.0519 -0.6381
  251TIP3    H1  696   4.234   7.543   4.418  1.0941  1.4123 -0.0057
  251TIP3    H2  697   4.161   7.674   4.433 -3.2849 -1.0086  1.6695
  252TIP3   OH2  698   6.078   1.325   1.872  0.1880  0.1321  0.1674
  252TIP3    H1  699   6.073   1.420   1.872 -1.0544  0.1595  3.1020
  252TIP3    H2  700   6.046   1.299   1.958  3.0678 -2.8253  0.5303
  253TIP3   OH2  701   4.598   7.677   4.103  0.3337  0.0690  0.2155
  253TIP3    H1  702   4.662   7.733   4.059 -0.2443 -0.9108 -2.0162
  253TIP3    H2  703   4.612   7.590   4.066 -0.5682 -0.7312  1.6281
  254TIP3   OH2  704   6.030   0.781   1.121 -0.0222 -1.1615  0.1808
  254TIP3    H1  705   5.959   0.845   1.122  0.3572 -0.7385  0.5368
  254TIP3    H2  706   6.024   0.741   1.034  1.3581  1.2347 -1.1151
  255TIP3   OH2  707   0.158   5.176   1.502 -0.0607 -0.0777 -0.0564
  255TIP3    H1  708   0.065   5.183   1.525 -0.2577 -0.6987 -0.6397
  255TIP3    H2  709   0.204   5.213   1.577 -0.7482 -0.5466  0.6075
  256TIP3   OH2  710   4.055   4.339   5.255 -0.2615  0.3265 -0.0545
  256TIP3    H1  711   4.051   4.265   5.315 -1.4874 -0.4411 -1.0339
  256TIP3    H2  712   4.003   4.407   5.299  0.6051  0.5203  0.7013
  257TIP3   OH2  713   4.927   6.712   5.771  0.2880 -0.2744  0.2486
  257TIP3    H1  714   5.009   6.761   5.782  0.5042 -0.2252 -1.4160
  257TIP3    H2  715   4.908   6.678   5.859  1.1662  1.1429  1.0376
  258TIP3   OH2  716   6.798   3.655   3.279 -0.7814  0.0161 -0.1892
  258TIP3    H1  717   6.842   3.676   3.362  1.0942  0.3570 -1.2065
  258TIP3    H2  718   6.862   3.678   3.212 -2.3107 -0.1146 -1.7593
  259TIP3   OH2  719   8.014   6.495   0.314  0.0384 -0.2947  0.1900
  259TIP3    H1  720   8.006   6.400   0.306  0.4995 -0.3613  0.5110
  259TIP3    H2  721   8.001   6.528   0.225  1.3535 -0.7636 -0.1969
  260TIP3   OH2  722   5.759   7.247   1.308  0.1816  0.6474  0.1433
  260TIP3    H1  723   5.831   7.261   1.369 -0.2083  0.4023  0.6639
  260TIP3    H2  724   5.763   7.322   1.248  0.9650  0.5515  0.0703
  261TIP3   OH2  725   4.867   3.330   0.297  0.0077  0.3414 -0.2577
  261TIP3    H1  726   4.778   3.338   0.263 -1.0810  0.1836  2.2722
  261TIP3    H2  727   4.877   3.404   0.357  0.6913 -0.8428  1.1818
  262TIP3   OH2  728   3.084   2.638   5.292 -0.3250  0.6203 -0.4568
  262TIP3    H1  729   3.026   2.598   5.357  0.1712 -0.5885 -0.7229
  262TIP3    H2  730   3.154   2.574   5.279 -1.0345  0.2358 -3.0550
  263TIP3   OH2  731   5.938   6.605   6.138  0.1964  0.5995 -0.6249
  263TIP3    H1  732   5.868   6.664   6.167 -0.9310  0.3250 -2.5872
  263TIP3    H2  733   6.015   6.662   6.131  0.6081  0.6800  2.7009
  264TIP3   OH2  734   1.386   2.528   3.447 -0.8967  0.1588 -0.3258
  264TIP3    H1  735   1.369   2.557   3.537 -1.3692 -0.3633 -0.2458
  264TIP3    H2  736   1.433   2.445   3.457 -1.1812 -0.0312 -0.5618
  265TIP3   OH2  737   4.156   0.004   2.331 -0.0023 -0.5944 -0.1656
  265TIP3    H1  738   4.239  -0.038   2.306 -0.1046 -1.5859  1.0934
  265TIP3    H2  739   4.166   0.095   2.302  1.5670 -0.6683  0.0640
  266TIP3   OH2  740   8.165   0.976   3.072  0.0138 -0.1454  0.3410
  266TIP3    H1  741   8.216   1.057   3.067 -1.3790  0.7375 -0.1724
  266TIP3    H2  742   8.162   0.944   2.982 -1.1481  0.3635  0.1775
  267TIP3   OH2  743   3.222   2.873   1.161 -0.2234  0.2037  0.0681
  267TIP3    H1  744   3.247   2.933   1.232 -1.3716  0.7067  0.0632
  267TIP3    H2  745   3.138   2.836   1.189  0.1770 -0.9718 -0.2090
  268TIP3   OH2  746   6.079   2.640   1.881 -0.3237 -0.1650 -0.0135
  268TIP3    H1  747   6.135   2.598   1.946  1.1564  1.0716 -0.4270
  268TIP3    H2  748   6.128   2.635   1.799 -0.6833  1.1536 -0.3416
  269TIP3   OH2  749   5.417   0.600   5.890  0.3851  0.3175  0.3954
  269TIP3    H1  750   5.381   0.688   5.899  0.0527 -0.0126  2.8860
  269TIP3    H2  751   5.505   0.606   5.927  0.5977 -0.2668  0.0009
  270TIP3   OH2  752   0.196   3.646   0.853  0.4144  0.5513 -0.0863
  270TIP3    H1  753   0.122   3.678   0.904 -0.3337  0.4345 -1.0640
  270TIP3    H2  754   0.273   3.686   0.894  0.0409 -0.8271  2.1663
  271TIP3   OH2  755   0.938   3.976   6.047 -0.7765 -0.5943 -0.2564
  271TIP3    H1  756   0.964   3.931   6.128  1.9750 -0.1830 -0.8328
  271TIP3    H2  757   1.013   3.966   5.989 -0.2137  4.1106 -0.6930
  272TIP3   OH2  758   5.341   7.362   5.541 -0.1025 -0.0343  0.5862
  272TIP3    H1  759   5.275   7.383   5.475  1.0735  0.5727 -0.4452
  272TIP3    H2  760   5.291   7.342   5.620 -1.4865  1.8575  0.2681
  273TIP3   OH2  761   5.039   0.597   0.459 -0.3270 -0.4097 -0.3316
  273TIP3    H1  762   5.009   0.684   0.433  0.6576  0.2248  0.5831
  273TIP3    H2  763   4.970   0.564   0.517  0.2142  0.6302  0.9621
  274TIP3   OH2  764   1.672   3.028   2.496  0.0109  0.1900 -0.6103
  274TIP3    H1  765   1.696   3.108   2.450 -1.3953  1.3918  0.6420
  274TIP3    H2  766   1.661   3.055   2.587 -3.2018 -0.7774 -0.5938
  275TIP3   OH2  767   3.871   5.855   0.465  0.2836  0.5191  0.8745
  275TIP3    H1  768   3.812   5.883   0.395  1.4121 -1.0000 -0.7501
  275TIP3    H2  769   3.813   5.816   0.531 -0.5404 -2.0084 -1.1902
  276TIP3   OH2  770   5.126   1.049   1.460 -0.2228  0.4927 -0.7875
  276TIP3    H1  771   5.153   0.958   1.456 -0.5235  0.2474  1.5223
  276TIP3    H2  772   5.032   1.047   1.440 -0.6075  0.0276  0.9070
  277TIP3   OH2  773   2.175   5.160   3.141 -0.0665  0.1748 -0.2173
  277TIP3    H1  774   2.233   5.156   3.065 -0.0296 -0.5067 -0.1603
  277TIP3    H2  775   2.225   5.206   3.208  0.4226 -0.4305 -0.1628
  278TIP3   OH2  776   0.596   1.756   5.082 -0.2634 -0.2512  0.1823
  278TIP3    H1  777   0.507   1.767   5.113 -0.2570  1.2900 -0.2501
  278TIP3    H2  778   0.602   1.813   5.005  1.2132  0.0235  0.4637
  279TIP3   OH2  779   3.516   0.137   2.535 -0.0244  0.4701 -0.1971
  279TIP3    H1  780   3.568   0.058   2.525  1.1486  1.1427  0.3288
  279TIP3    H2  781   3.463   0.121   2.613  0.5728  0.3780  0.2017
  280TIP3   OH2  782   8.263   2.341   5.228 -0.1601 -0.2100  0.5629
  280TIP3    H1  783   8.274   2.273   5.295 -0.2961 -0.8196 -0.0277
  280TIP3    H2  784   8.327   2.318   5.160 -1.7415 -1.0722 -0.6991
  281TIP3   OH2  785   4.606   0.090   1.924  0.0929 -0.3849  0.3036
  281TIP3    H1  786   4.701   0.105   1.931  0.0242 -0.1562  0.7871
  281TIP3    H2  787   4.567   0.156   1.982 -0.2800 -1.5080  1.3824
  282TIP3   OH2  788   7.484   6.864   0.031 -0.1001 -0.6896 -0.3136
  282TIP3    H1  789   7.438   6.943   0.058 -0.5197 -1.1302  0.2979
  282TIP3    H2  790   7.543   6.844   0.104 -0.2116 -1.1012 -0.3321
  283TIP3   OH2  791   6.762   2.185   6.212  0.7010  0.4257  0.1221
  283TIP3    H1  792   6.718   2.133   6.144  0.8597  1.6827 -0.9836
  283TIP3    H2  793   6.780   2.269   6.170 -0.3930  1.7500  2.1443
  284TIP3   OH2  794   0.242   4.230   3.285  0.0864 -0.1948 -0.1241
  284TIP3    H1  795   0.319   4.286   3.275 -0.3519  0.7542  1.4672
  284TIP3    H2  796   0.175   4.288   3.321 -1.1687 -1.1789 -0.7925
  285TIP3   OH2  797   5.549   1.215   6.206  0.4667 -0.0636  0.4025
  285TIP3    H1  798   5.475   1.207   6.267  0.9678 -0.4456  0.9761
  285TIP3    H2  799   5.562   1.310   6.196 -0.2672  0.0045  0.0882
  286TIP3   OH2  800   6.823   2.749   4.114 -0.8616  0.2336 -0.2836
  286TIP3    H1  801   6.815   2.655   4.098 -1.7176  0.3505 -0.5763
  286TIP3    H2  802   6.734   2.782   4.109 -0.6834  0.9216  0.7466
  287TIP3   OH2  803   1.716   3.000   0.372 -0.0781 -0.0648 -0.1395
  287TIP3    H1  804   1.646   3.051   0.413  0.9471  0.8840  0.4448
  287TIP3    H2  805   1.783   3.064   0.349  1.4267 -1.1669  0.9894
  288TIP3   OH2  806   5.019   3.579   1.763 -0.3268 -0.0464 -0.0912
  288TIP3    H1  807   5.065   3.662   1.777  0.2885 -0.6122  1.5476
  288TIP3    H2  808   4.986   3.555   1.850 -0.6585 -1.4188 -0.5640
  289TIP3   OH2  809   2.198   3.403   4.415  0.3511  0.2675  0.0081
  289TIP3    H1  810   2.164   3.335   4.356  0.4318  0.6947 -0.5358
  289TIP3    H2  811   2.260   3.356   4.472  2.1544  0.2786 -1.8534
  290TIP3   OH2  812   3.866   1.801   2.434 -0.3541  0.3921  0.0237
  290TIP3    H1  813   3.797   1.859   2.404  0.2515  1.1842  0.1188
  290TIP3    H2  814   3.929   1.800   2.362 -0.1385  0.2363  0.2133
  291TIP3   OH2  815   6.088   6.905   3.753  0.1997 -0.2378 -0.3857
  291TIP3    H1  816   6.026   6.833   3.756  0.2469 -0.3265 -1.3166
  291TIP3    H2  817   6.159   6.877   3.811 -0.2495 -0.4825  0.0566
  292TIP3   OH2  818   1.063   3.472   1.813  0.5781 -0.2620 -0.2551
  292TIP3    H1  819   1.139   3.422   1.782  0.3906 -1.0257  0.4600
  292TIP3    H2  820   1.019   3.412   1.873 -0.9864 -0.0983 -1.1904
  293TIP3   OH2  821   8.006   5.341   0.377 -0.1709 -0.3324 -0.1694
  293TIP3    H1  822   8.026   5.255   0.414  2.7786  0.1206 -0.4320
  293TIP3    H2  823   7.966   5.322   0.292  0.5870 -1.4741 -0.2923
  294TIP3   OH2  824   1.299   6.447   4.892 -0.0152 -0.1893 -0.1518
  294TIP3    H1  825   1.336   6.365   4.861  0.0741  0.1783 -1.0399
  294TIP3    H2  826   1.270   6.493   4.813  3.5441  2.4273 -0.1956
  295TIP3   OH2  827   2.635   0.737   2.655  0.6366  0.0852 -0.8890
  295TIP3    H1  828   2.645   0.764   2.746 -0.6021  0.7748 -0.9304
  295TIP3    H2  829   2.676   0.651   2.650  1.9109  0.6240 -0.0055
  296TIP3   OH2  830   4.162   2.744   3.306  0.4006 -0.4404 -0.4845
  296TIP3    H1  831   4.202   2.725   3.222  0.5479 -0.0600 -0.4981
  296TIP3    H2  832   4.224   2.800   3.351 -0.1873  0.2980 -0.5778
  297TIP3   OH2  833   7.481   5.423   6.566  0.4879  0.4175 -0.5302
  297TIP3    H1  834   7.535   5.501   6.561  2.4385 -0.9344 -3.4748
  297TIP3    H2  835   7.537   5.356   6.605 -0.0961 -0.2598 -0.8082
  298TIP3   OH2  836   6.950   3.538   1.902 -0.2785 -0.1793  0.0931
  298TIP3    H1  837   6.868   3.516   1.859 -0.2611 -0.0669  0.0031
  298TIP3    H2  838   6.926   3.600   1.971 -0.1657  0.4957 -0.4583
  299TIP3   OH2  839   3.256   4.322   6.153  0.1807 -0.2438  0.5488
  299TIP3    H1  840   3.219   4.295   6.237  0.2899 -1.4093  0.2408
  299TIP3    H2  841   3.329   4.261   6.139 -0.1789 -0.4167 -0.6462
  300TIP3   OH2  842   2.049   1.139   3.429 -0.1302  0.2172 -0.5903
  300TIP3    H1  843   2.126   1.121   3.482  0.0344  1.0135 -0.5385
  300TIP3    H2  844   2.051   1.234   3.416 -0.6565  0.1462 -1.2683
  301TIP3   OH2  845   6.144   7.333   2.474  0.3910 -0.2396  0.1238
  301TIP3    H1  846   6.048   7.336   2.475  0.3221 -1.8185  0.9665
  301TIP3    H2  847   6.171   7.420   2.501 -0.8338 -0.2219  1.3889
  302TIP3   OH2  848   4.034   5.325   0.052  0.3742  0.1502  0.4633
  302TIP3    H1  849   4.052   5.239   0.090  1.7041  0.6641  1.0681
  302TIP3    H2  850   4.059   5.387   0.121  0.1654  1.0407 -0.2370
  303TIP3   OH2  851   6.564   5.664   1.415 -0.3389 -0.8899 -0.0231
  303TIP3    H1  852   6.519   5.722   1.475  0.2161 -0.2877 -0.1855
  303TIP3    H2  853   6.496   5.635   1.353 -0.3669  0.5933 -0.7158
  304TIP3   OH2  854   4.980   5.332   3.662  0.3557 -0.0294 -0.1017
  304TIP3    H1  855   5.073   5.312   3.650  0.3543  0.1869 -0.4673
  304TIP3    H2  856   4.959   5.293   3.747  0.7195 -0.2913 -0.1266
  305TIP3   OH2  857   6.034   1.042   0.727 -0.3896 -0.0180  0.0455
  305TIP3    H1  858   6.018   0.960   0.679 -1.2198  0.4498 -0.5203
  305TIP3    H2  859   5.961   1.098   0.701  0.2721  0.9677  0.2828
  306TIP3   OH2  860   1.020   3.728   4.267  0.1123 -0.0910 -0.3501
  306TIP3    H1  861   1.004   3.823   4.271  0.4273 -0.0773  1.0918
  306TIP3    H2  862   1.103   3.719   4.222  0.6388  0.4005  0.5018
  307TIP3   OH2  863   7.968   5.990   0.819 -0.2001 -0.3445  0.2960
  307TIP3    H1  864   7.944   5.911   0.868 -0.3828 -1.3419 -1.3345
  307TIP3    H2  865   8.054   6.014   0.852  0.3076 -1.8379  0.1093
  308TIP3   OH2  866   5.149   0.249   4.749  0.4498  0.2341 -0.4189
  308TIP3    H1  867   5.055   0.237   4.762  0.6809 -2.6743 -0.8160
  308TIP3    H2  868   5.156   0.336   4.710 -2.0364  0.6706 -0.1037
  309TIP3   OH2  869   0.558   4.047   2.168  0.8223 -0.1192 -0.6412
  309TIP3    H1  870   0.569   4.092   2.252 -0.0303  0.2973 -0.7390
  309TIP3    H2  871   0.615   3.970   2.174 -1.1453 -1.5757  1.3992
  310TIP3   OH2  872   5.066   1.453   1.175  0.6655  0.1815 -0.7696
  310TIP3    H1  873   5.053   1.497   1.091  0.2124  0.6112 -0.4761
  310TIP3    H2  874   5.069   1.360   1.152 -0.9929  0.1752 -1.0980
  311TIP3   OH2  875   3.084   1.447   3.298 -0.2508 -0.0265 -0.2873
  311TIP3    H1  876   3.177   1.433   3.279 -0.6617 -0.2057 -2.3645
  311TIP3    H2  877   3.046   1.360   3.299 -0.5524  0.1042 -0.3126
  312TIP3   OH2  878   6.070   2.969   2.268 -0.7645 -0.3742  0.1427
  312TIP3    H1  879   6.006   2.996   2.333 -0.2240 -1.0655  0.9817
  312TIP3    H2  880   6.077   2.874   2.279  1.0072 -0.2186  0.6572
  313TIP3   OH2  881   5.771   1.609   0.292  0.3037 -0.1746 -0.5277
  313TIP3    H1  882   5.789   1.678   0.229  0.7862 -1.4134 -1.8205
  313TIP3    H2  883   5.790   1.647   0.378  0.1037  1.4030 -1.1676
  314TIP3   OH2  884   5.894   5.636   0.985 -0.1250  0.2655  0.3598
  314TIP3    H1  885   5.969   5.617   0.928 -0.2453 -0.4477  0.4189
  314TIP3    H2  886   5.830   5.568   0.962 -0.3917  0.3142  0.9477
  315TIP3   OH2  887   4.254   1.205   3.540  0.2929 -0.5341  0.2107
  315TIP3    H1  888   4.161   1.227   3.536  0.1138 -1.4053 -0.9944
  315TIP3    H2  889   4.272   1.193   3.633 -0.8713 -0.6631  0.4341
  316TIP3   OH2  890   2.091   4.278   5.898 -0.2034 -0.0555 -0.0663
  316TIP3    H1  891   2.030   4.310   5.965  0.2932 -0.8818  0.8120
  316TIP3    H2  892   2.175   4.273   5.943  0.5476  1.0915 -1.2678
  317TIP3   OH2  893   0.330   3.507   4.902 -0.0243  0.0948  0.4754
  317TIP3    H1  894   0.286   3.571   4.957 -2.1766 -0.9072  0.0244
  317TIP3    H2  895   0.383   3.559   4.841 -1.4318  1.4518  0.3491
  318TIP3   OH2  896   6.330   7.555   1.348 -0.4458 -0.3151 -0.4217
  318TIP3    H1  897   6.330   7.627   1.410 -2.1118 -0.5987 -0.0577
  318TIP3    H2  898   6.406   7.571   1.292  1.3476 -0.2538  1.8876
  319TIP3   OH2  899   7.080   6.086   3.499 -0.3846  0.2934  0.2641
  319TIP3    H1  900   7.058   6.005   3.453 -2.8321  1.2013 -0.3003
  319TIP3    H2  901   7.014   6.094   3.568  0.3920  1.3439  0.9288
  320TIP3   OH2  902   6.048   0.418   2.022  0.3792  0.7067  0.1916
  320TIP3    H1  903   6.045   0.482   2.094 -1.5089  0.2645  0.5782
  320TIP3    H2  904   6.038   0.471   1.943 -1.0066  0.9448  0.4993
  321TIP3   OH2  905   5.304   1.586   1.199 -0.2251 -0.2253 -0.3149
  321TIP3    H1  906   5.227   1.529   1.194  0.0446 -0.5837 -0.4637
  321TIP3    H2  907   5.328   1.602   1.108  0.0927 -0.4145 -0.2652
  322TIP3   OH2  908   2.454   6.440   1.740 -0.0598  0.6896 -0.4321
  322TIP3    H1  909   2.384   6.498   1.708 -0.9690 -0.3438 -0.3734
  322TIP3    H2  910   2.530   6.463   1.686 -0.6920  1.1995 -1.1431
  323TIP3   OH2  911   1.021   5.223   1.638  0.8225 -1.1209  0.8992
  323TIP3    H1  912   0.989   5.171   1.712 -1.8414 -0.8818 -0.0032
  323TIP3    H2  913   1.017   5.314   1.669 -0.7683 -0.9787  0.3563
  324TIP3   OH2  914   1.736   3.860   6.493  0.1097  0.4587  0.5051
  324TIP3    H1  915   1.798   3.790   6.508  0.8449  0.5704 -1.6924
  324TIP3    H2  916   1.768   3.932   6.548  0.6104 -0.1885  1.0863
  325TIP3   OH2  917   6.413   6.180   0.048 -0.5324  0.3546  0.8041
  325TIP3    H1  918   6.325   6.217   0.056 -0.3887  1.3675 -1.5061
  325TIP3    H2  919   6.407   6.117  -0.023  1.0187  2.0596 -0.9575
  326TIP3   OH2  920   0.076   6.226   2.782 -0.0251  0.0139  0.6592
  326TIP3    H1  921   0.078   6.134   2.810  0.8821 -0.7400 -1.6660
  326TIP3    H2  922   0.013   6.227   2.710  0.9679  0.9127 -0.2251
  327TIP3   OH2  923   6.867   5.177   4.537 -0.0428 -0.0222 -0.3427
  327TIP3    H1  924   6.907   5.255   4.500  2.5528 -0.5236  1.1758
  327TIP3    H2  925   6.810   5.144   4.467  1.2323  1.4621 -2.1912
  328TIP3   OH2  926   8.280   5.157   1.886  0.4159 -0.0370  0.2996
  328TIP3    H1  927   8.186   5.137   1.878  0.6860 -0.7343 -1.8032
  328TIP3    H2  928   8.288   5.197   1.972 -1.5617 -1.4183  1.2211
  329TIP3   OH2  929   6.493   3.396   6.188 -0.0647 -0.3064 -0.2649
  329TIP3    H1  930   6.539   3.313   6.180 -1.6083 -1.0806 -1.8276
  329TIP3    H2  931   6.551   3.460   6.146  0.0263 -1.0889 -1.3723
  330TIP3   OH2  932   4.380   3.322   3.904 -0.3594  0.0941 -0.0097
  330TIP3    H1  933   4.293   3.310   3.943 -0.2466  0.4310  0.3439
  330TIP3    H2  934   4.419   3.393   3.953  0.6193 -0.8908  0.6938
  331TIP3   OH2  935   1.398   6.086   3.533 -0.1469 -0.0287 -0.4068
  331TIP3    H1  936   1.334   6.048   3.594  1.5973 -0.4740  1.2311
  331TIP3    H2  937   1.479   6.040   3.552  0.8985  1.1900 -1.7619
  332TIP3   OH2  938   4.529   1.444   0.811 -0.2583 -0.2189  0.1469
  332TIP3    H1  939   4.491   1.454   0.724  1.5869  2.7388 -0.4339
  332TIP3    H2  940   4.562   1.355   0.813  0.9676  0.0737 -2.7838
  333TIP3   OH2  941   7.209   5.933   0.075 -0.3943 -0.1703  0.6924
  333TIP3    H1  942   7.293   5.898   0.046 -1.0718 -0.2995 -1.2764
  333TIP3    H2  943   7.223   6.028   0.078 -0.0898 -0.2123  0.6594
  334TIP3   OH2  944   1.593   6.820   4.608  0.0385  0.6019 -0.2947
  334TIP3    H1  945   1.509   6.779   4.627 -0.5625  1.6480 -0.5739
  334TIP3    H2  946   1.614   6.870   4.687  1.0363 -0.6530  0.2542
  335TIP3   OH2  947   3.886   7.564   3.999 -0.8277 -0.3564 -0.0685
  335TIP3    H1  948   3.975   7.539   4.025 -1.1471 -0.5269  0.9324
  335TIP3    H2  949   3.884   7.551   3.904  0.5751  0.7932 -0.2928
  336TIP3   OH2  950   6.815   6.639   2.608  0.0712  0.3601  0.0199
  336TIP3    H1  951   6.790   6.630   2.516  0.8488 -4.0425  0.0301
  336TIP3    H2  952   6.896   6.691   2.606  0.0529  0.3690 -1.7665
  337TIP3   OH2  953   6.383   2.275   1.823 -0.4202  0.1388  0.2040
  337TIP3    H1  954   6.387   2.332   1.900 -0.2807 -0.0064  0.3077
  337TIP3    H2  955   6.379   2.186   1.860  0.2189  0.0364  0.0437
  338TIP3   OH2  956   2.929   2.650   3.930  0.1276  0.0946  0.1413
  338TIP3    H1  957   2.858   2.643   3.866  0.4971  0.2950 -0.2937
  338TIP3    H2  958   2.892   2.615   4.011 -0.3922 -0.0194 -0.1441
  339TIP3   OH2  959   3.870   1.385   6.736 -0.5022  0.1106 -0.1243
  339TIP3    H1  960   3.941   1.420   6.683 -1.3420  1.2175 -0.5546
  339TIP3    H2  961   3.908   1.308   6.779  1.1912  1.1170  0.2869
  340TIP3   OH2  962   1.759   5.386   0.816 -0.0883 -0.5653 -0.5519
  340TIP3    H1  963   1.726   5.370   0.905  1.8673 -2.9645 -0.1421
  340TIP3    H2  964   1.700   5.452   0.780 -2.8804 -1.7997  1.4045
  341TIP3   OH2  965   7.141   7.591   2.728 -0.1459 -0.0950 -0.2684
  341TIP3    H1  966   7.086   7.574   2.805 -0.2543  1.3035  0.0029
  341TIP3    H2  967   7.216   7.533   2.738 -0.8375 -0.9356  0.1532
  342TIP3   OH2  968   3.367   2.997   2.552  0.8474 -0.2077  0.0336
  342TIP3    H1  969   3.293   2.937   2.541 -1.2076  1.9521  0.9933
  342TIP3    H2  970   3.384   3.029   2.463  1.3035 -1.4398 -0.3369
  343TIP3   OH2  971   5.962   5.960   1.118 -0.0407 -0.3996  0.0865
  343TIP3    H1  972   5.980   5.990   1.029  0.6383 -0.1623  0.2982
  343TIP3    H2  973   5.970   5.864   1.113 -0.8221 -0.4564 -0.2789
  344TIP3   OH2  974   7.540   0.263   3.295 -0.0538  0.1226  0.6695
  344TIP3    H1  975   7.582   0.210   3.363  0.5050  1.5668  1.5172
  344TIP3    H2  976   7.611   0.284   3.234 -0.5609 -1.1945 -0.4095
  345TIP3   OH2  977   4.420   3.371   5.716  0.0876 -0.6208  0.1425
  345TIP3    H1  978   4.374   3.344   5.795  0.0853 -0.6819  0.1200
  345TIP3    H2  979   4.495   3.312   5.711  0.7879  0.1792  0.7861
  346TIP3   OH2  980   5.456   5.185   2.427 -0.1984 -0.3201 -0.3953
  346TIP3    H1  981   5.363   5.163   2.422 -0.4225  0.5151  0.0924
  346TIP3    H2  982   5.462   5.276   2.400  0.3362 -0.0227  0.6757
  347TIP3   OH2  983   6.761   7.736   1.801 -0.4215 -0.0789  0.1258
  347TIP3    H1  984   6.848   7.710   1.832  0.3706 -1.3225 -2.8148
  347TIP3    H2  985   6.707   7.740   1.880  1.6289 -2.0123  1.7242
  348TIP3   OH2  986   5.877   4.241   3.617  0.3374 -0.6563 -0.3220
  348TIP3    H1  987   5.895   4.300   3.544  0.6936 -0.3751 -0.0097
  348TIP3    H2  988   5.865   4.155   3.575  1.6460 -0.7203 -0.6320
  349TIP3   OH2  989   8.252   1.899   0.900 -0.0743 -0.6019 -0.3770
  349TIP3    H1  990   8.237   1.976   0.955  0.0910 -1.1984  0.5290
  349TIP3    H2  991   8.262   1.935   0.811  1.3666  0.5801  0.2037
  350TIP3   OH2  992   0.475   0.939   5.777 -0.1193  0.0788 -0.4569
  350TIP3    H1  993   0.491   0.845   5.766  1.3893  0.2026  0.4883
  350TIP3    H2  994   0.515   0.961   5.861 -1.0064  1.4570 -0.3644
  351TIP3   OH2  995   3.127   2.987   4.344 -0.6818  0.0637 -0.2117
  351TIP3    H1  996   3.121   3.079   4.319  2.9052  0.5008  0.0672
  351TIP3    H2  997   3.144   2.941   4.262  1.9528  0.3215  0.1072
  352TIP3   OH2  998   7.261   1.767   5.875 -0.0896 -0.0287 -0.1240
  352TIP3    H1  999   7.299   1.781   5.788  0.9892  0.6048  0.4257
  352TIP3    H2 1000   7.192   1.833   5.881  1.7004  1.9161  0.5350
  353TIP3   OH2 1001   3.159   5.993   1.978 -0.1833 -0.4460  0.2233
  353TIP3    H1 1002   3.220   5.928   2.011  0.8836  0.2005 -0.4383
  353TIP3    H2 1003   3.175   6.071   2.032 -0.1620 -0.1552 -0.2015
  354TIP3   OH2 1004   1.594   1.334   5.003 -0.4459  0.3995  0.0444
  354TIP3    H1 1005   1.635   1.280   4.936 -0.0642  2.0225 -1.0830
  354TIP3    H2 1006   1.666   1.363   5.058 -0.3891  1.2436 -0.4615
  355TIP3   OH2 1007   7.693   6.985   5.605  0.1714  0.0816 -0.5098
  355TIP3    H1 1008   7.762   6.969   5.670 -1.3878  2.2483  1.8514
  355TIP3    H2 1009   7.623   6.925   5.630  0.1905 -0.2950 -1.3223
  356TIP3   OH2 1010   6.908   4.373   6.215 -0.1930  0.8675  0.3062
  356TIP3    H1 1011   6.955   4.301   6.258  0.8238  1.0132 -0.5176
  356TIP3    H2 1012   6.816   4.353   6.228  0.0363 -1.1982 -0.8617
  357TIP3   OH2 1013   3.326   7.698   1.589  0.6828 -0.4393 -0.4703
  357TIP3    H1 1014   3.281   7.779   1.610 -1.2293 -1.4438 -0.4823
  357TIP3    H2 1015   3.359   7.666   1.673  0.2896 -0.3093 -0.2659
  358TIP3   OH2 1016   5.692   5.556   5.323 -0.5755  0.3972  0.1969
  358TIP3    H1 1017   5.774   5.592   5.288 -0.9941  1.5671  0.3557
  358TIP3    H2 1018   5.630   5.563   5.251  0.3539 -4.3399 -1.4086
  359TIP3   OH2 1019   6.417   0.454   5.662 -0.2221 -0.1904  0.7145
  359TIP3    H1 1020   6.331   0.457   5.620 -0.5950  0.9800  1.5138
  359TIP3    H2 1021   6.435   0.361   5.674 -0.5003 -0.5335 -1.1929
  360TIP3   OH2 1022   0.959   4.368   4.240 -0.0940  0.0198 -0.3946
  360TIP3    H1 1023   0.999   4.296   4.191 -2.0040 -0.6047 -1.1090
  360TIP3    H2 1024   0.889   4.400   4.184 -0.9559  0.7204  1.0227
  361TIP3   OH2 1025   3.063   1.070   1.723 -0.5998  0.1639  0.2558
  361TIP3    H1 1026   3.103   1.004   1.780 -1.1423  1.4387  2.2188
  361TIP3    H2 1027   3.134   1.131   1.703 -0.1936 -0.7511 -1.2356
  362TIP3   OH2 1028   4.409   6.408   4.440 -0.4532  0.3835 -0.0139
  362TIP3    H1 1029   4.364   6.391   4.523  1.2224  0.3506  0.9324
  362TIP3    H2 1030   4.391   6.330   4.386 -1.6067  0.4360  0.2793
  363TIP3   OH2 1031   5.844   1.543   5.119 -0.6730  0.0825 -0.0564
  363TIP3    H1 1032   5.780   1.613   5.128  0.3960  1.0291  0.4042
  363TIP3    H2 1033   5.925   1.587   5.094  0.2613 -0.8588  1.1515
  364TIP3   OH2 1034   4.192   7.076   3.679  0.5650  0.6492  0.9029
  364TIP3    H1 1035   4.103   7.105   3.662 -0.0884 -1.1654  1.0310
  364TIP3    H2 1036   4.245   7.120   3.612  0.2170  4.4957  2.8455
  365TIP3   OH2 1037   1.458   3.634   0.048  0.3526 -0.1561 -0.2354
  365TIP3    H1 1038   1.472   3.580   0.125  0.9646  0.4918  0.1166
  365TIP3    H2 1039   1.384   3.691   0.071  0.1620 -0.3534 -0.3489
  366TIP3   OH2 1040   6.877   4.749   5.617 -0.5552  0.4219  0.0418
  366TIP3    H1 1041   6.913   4.684   5.677 -1.2377 -1.1633 -1.1941
  366TIP3    H2 1042   6.877   4.706   5.532 -2.7488  1.3452 -0.5108
  367TIP3   OH2 1043   2.142   7.741   5.379  0.3497  0.1908 -0.2261
  367TIP3    H1 1044   2.162   7.775   5.466 -3.0370 -2.5654  1.9009
  367TIP3    H2 1045   2.198   7.663   5.371 -1.6303 -1.4925  1.1354
  368TIP3   OH2 1046   6.915   5.126   5.757 -0.4144  0.1936 -0.4360
  368TIP3    H1 1047   6.882   5.213   5.734 -0.5089 -0.0054 -1.0637
  368TIP3    H2 1048   6.890   5.115   5.849 -1.4889  0.3285 -0.6966
  369TIP3   OH2 1049   3.938   4.108   2.122  0.1945 -0.0936 -0.0106
  369TIP3    H1 1050   3.978   4.193   2.136  0.2697 -0.2271  0.6354
  369TIP3    H2 1051   3.950   4.062   2.205 -1.7911  0.0771  0.4327
  370TIP3   OH2 1052   6.580   4.088   1.377  0.6667  0.5738 -0.6300
  370TIP3    H1 1053   6.672   4.108   1.360  0.5942  0.3485 -1.2986
  370TIP3    H2 1054   6.553   4.033   1.303  0.1708  0.1084 -0.1095
  371TIP3   OH2 1055   6.164   2.780   4.756  0.1684 -0.1360 -0.0711
  371TIP3    H1 1056   6.142   2.782   4.849 -2.2059  1.2652 -0.5758
  371TIP3    H2 1057   6.172   2.686   4.736 -1.6383 -0.5913  1.0675
  372TIP3   OH2 1058   8.250   6.709   1.178  0.6519 -0.3162  0.1434
  372TIP3    H1 1059   8.185   6.640   1.166 -0.8308  0.6592  1.9562
  372TIP3    H2 1060   8.266   6.743   1.090  0.3500 -1.9863 -0.6044
  373TIP3   OH2 1061   2.284   7.204   0.875 -0.1303 -0.3134  0.0352
  373TIP3    H1 1062   2.227   7.129   0.893 -1.7567  0.7966 -0.3160
  373TIP3    H2 1063   2.260   7.269   0.941 -0.5282  0.8225 -1.1906
  374TIP3   OH2 1064   7.188   1.376   1.127 -0.1905 -0.0817  0.0020
  374TIP3    H1 1065   7.192   1.456   1.179  0.0073 -0.0358 -0.0838
  374TIP3    H2 1066   7.097   1.371   1.098  0.2514  1.2870 -1.8343
  375TIP3   OH2 1067   0.955   2.686   1.283  0.4928  0.4291 -0.5076
  375TIP3    H1 1068   0.918   2.705   1.369 -1.9690  1.0363 -1.5915
  375TIP3    H2 1069   0.913   2.605   1.256  1.7942 -0.1465 -0.8547
  376TIP3   OH2 1070   6.437   5.709   0.132 -0.2649  0.5358  0.1201
  376TIP3    H1 1071   6.480   5.789   0.161 -0.0631  0.5689 -0.2626
  376TIP3    H2 1072   6.502   5.666   0.077 -0.4328  0.1884  0.1917
  377TIP3   OH2 1073   4.694   3.882   4.082  0.2469 -0.3108 -0.5906
  377TIP3    H1 1074   4.776   3.914   4.121  0.1766 -0.6507 -0.1490
  377TIP3    H2 1075   4.665   3.814   4.143  1.2280 -2.3634 -2.2894
  378TIP3   OH2 1076   0.904   2.528   3.834 -0.1924 -0.4861 -0.4387
  378TIP3    H1 1077   0.939   2.500   3.750  1.2845  2.0472 -0.7663
  378TIP3    H2 1078   0.844   2.600   3.813  0.5021  0.4513  0.6631
  379TIP3   OH2 1079   7.705   0.401   0.989 -0.3047 -0.0934  0.2767
  379TIP3    H1 1080   7.789   0.406   1.035 -0.3095 -0.4362  0.3228
  379TIP3    H2 1081   7.675   0.492   0.985  0.5032  0.1520 -0.5591
  380TIP3   OH2 1082   6.368   2.632   0.702  0.0252  0.4638  0.0348
  380TIP3    H1 1083   6.444   2.632   0.760  1.2927 -2.3487 -1.4200
  380TIP3    H2 1084   6.302   2.581   0.749  0.3787 -0.2294 -0.2162
  381TIP3   OH2 1085   5.827   3.473   2.666  0.3668  0.3092 -0.0719
  381TIP3    H1 1086   5.923   3.476   2.658  0.4464  2.9842  0.8762
  381TIP3    H2 1087   5.795   3.506   2.582  0.3193  0.2615 -0.0724
  382TIP3   OH2 1088   1.259   4.597   0.434  0.5351 -0.8322  0.2013
  382TIP3    H1 1089   1.233   4.678   0.391 -1.8336 -0.6132  1.8435
  382TIP3    H2 1090   1.333   4.622   0.490  0.2406  0.0465  0.2132
  383TIP3   OH2 1091   3.437   4.801   4.378 -0.1351  1.0389 -0.0183
  383TIP3    H1 1092   3.389   4.840   4.304 -0.3998  1.1572  0.2138
  383TIP3    H2 1093   3.529   4.820   4.359 -0.1134  0.2306 -0.8094
  384TIP3   OH2 1094   7.442   2.342   3.208  0.0369  0.4644  0.2670
  384TIP3    H1 1095   7.455   2.329   3.302 -0.6557 -1.3562  0.1576
  384TIP3    H2 1096   7.395   2.425   3.201  0.6213  0.9189  1.4692
  385TIP3   OH2 1097   0.080   0.831   3.179  0.1620  0.6260 -0.5289
  385TIP3    H1 1098   0.009   0.877   3.133 -0.2443 -0.1210 -0.6831
  385TIP3    H2 1099   0.137   0.900   3.212 -1.1008  1.2995  0.3503
  386TIP3   OH2 1100   6.827   6.290   2.558 -0.5299 -0.2569  0.0448
  386TIP3    H1 1101   6.884   6.286   2.635 -2.0786  0.0024  1.2767
  386TIP3    H2 1102   6.871   6.350   2.498  0.8899 -0.7411  0.5605
  387TIP3   OH2 1103   4.710   0.448   5.859 -0.0830 -0.1796  0.0990
  387TIP3    H1 1104   4.678   0.358   5.849 -0.2610 -0.1928  0.7649
  387TIP3    H2 1105   4.798   0.438   5.895 -0.0593 -0.0907  0.0650
  388TIP3   OH2 1106   0.885   7.277   3.217  0.2206 -0.1396 -0.3450
  388TIP3    H1 1107   0.833   7.344   3.171 -0.8475 -0.6001  0.1649
  388TIP3    H2 1108   0.944   7.327   3.273 -0.8692  0.3994  0.3633
  389TIP3   OH2 1109   1.549   5.515   4.553 -0.3183 -0.9441  0.2912
  389TIP3    H1 1110   1.629   5.566   4.541  0.3711 -1.9309  0.5649
  389TIP3    H2 1111   1.574   5.426   4.530 -1.9251 -0.9112 -1.7886
  390TIP3   OH2 1112   1.740   6.774   2.648  0.0163  0.2079 -0.3882
  390TIP3    H1 1113   1.735   6.781   2.743 -3.0002 -1.3706 -0.3454
  390TIP3    H2 1114   1.802   6.703   2.632  2.0197  1.7227  0.2513
  391TIP3   OH2 1115   6.365   4.308   5.546  0.1508 -0.5779  0.3670
  391TIP3    H1 1116   6.349   4.364   5.621 -0.0127 -0.8801  0.5575
  391TIP3    H2 1117   6.339   4.360   5.470  0.5409 -0.1859  0.4998
  392TIP3   OH2 1118   7.926   0.791   6.023  0.0089 -0.4332  0.5229
  392TIP3    H1 1119   7.997   0.757   6.077  0.9008  1.1412  0.4115
  392TIP3    H2 1120   7.906   0.877   6.060 -0.5239 -0.0381 -0.6013
  393TIP3   OH2 1121   0.172   0.364   3.275 -0.1527 -0.0802  0.0780
  393TIP3    H1 1122   0.104   0.427   3.299 -1.0456 -0.0046 -2.4117
  393TIP3    H2 1123   0.169   0.298   3.345 -1.6732  0.7416  0.8321
  394TIP3   OH2 1124   3.507   3.434   6.365  0.6865  0.0316 -0.2230
  394TIP3    H1 1125   3.596   3.451   6.395  0.4176  2.8219 -0.7194
  394TIP3    H2 1126   3.460   3.516   6.382 -1.2734 -0.6693 -1.8123
  395TIP3   OH2 1127   5.956   7.460   0.767  0.3200 -0.7070 -0.4112
  395TIP3    H1 1128   5.967   7.415   0.851  1.8875 -2.2657 -1.3802
  395TIP3    H2 1129   5.883   7.415   0.725 -1.5727  1.1617  0.7366
  396TIP3   OH2 1130   5.305   5.957   2.713 -0.5022 -0.2065  0.2077
  396TIP3    H1 1131   5.340   5.969   2.625 -1.0116  0.1373  0.0490
  396TIP3    H2 1132   5.351   6.022   2.766  0.1921 -0.7693  0.3094
  397TIP3   OH2 1133   0.123   0.830   6.689  0.1948  0.1393  0.5957
  397TIP3    H1 1134   0.197   0.870   6.735  1.1108  0.3904 -1.0273
  397TIP3    H2 1135   0.134   0.736   6.705  1.4875  0.0812 -0.4578
  398TIP3   OH2 1136   1.016   2.708   5.598 -0.1036  0.0381 -0.2645
  398TIP3    H1 1137   0.932   2.748   5.577  0.0476  0.2746 -0.4256
  398TIP3    H2 1138   1.008   2.680   5.689  0.8715  3.3068  0.9653
  399TIP3   OH2 1139   3.377   3.294   5.445 -0.2202  0.0829  0.1983
  399TIP3    H1 1140   3.409   3.379   5.415  0.4616 -0.6660 -1.3345
  399TIP3    H2 1141   3.376   3.240   5.366 -1.3799 -1.1209  0.9865
  400TIP3   OH2 1142   8.083   2.862   4.675  0.0508  0.1790 -0.4448
  400TIP3    H1 1143   8.163   2.818   4.646 -0.1390 -1.1878  0.9821
  400TIP3    H2 1144   8.096   2.954   4.651  1.3663 -0.2907 -1.6319
  401TIP3   OH2 1145   0.121   0.371   2.790 -0.3784  0.3142  0.2521
  401TIP3    H1 1146   0.084   0.287   2.763  1.2132 -0.9374  1.7678
  401TIP3    H2 1147   0.197   0.348   2.843 -0.4422  2.7250  1.5040
  402TIP3   OH2 1148   3.814   6.721   6.109 -0.0061 -0.7340 -0.0781
  402TIP3    H1 1149   3.884   6.762   6.058 -0.3715 -1.2579 -1.0165
  402TIP3    H2 1150   3.856   6.698   6.192  0.6143  0.0587 -0.1548
  403TIP3   OH2 1151   7.088   4.939   4.315  0.4938 -0.0095 -0.2345
  403TIP3    H1 1152   7.108   5.021   4.269  0.8969 -1.4749 -2.8691
  403TIP3    H2 1153   7.117   4.870   4.255 -2.3071 -2.1468  0.6610
  404TIP3   OH2 1154   7.905   6.955   1.972  0.0735  0.5570  0.8188
  404TIP3    H1 1155   7.934   7.004   1.896  2.0810  0.9045  1.7539
  404TIP3    H2 1156   7.847   7.016   2.019 -1.5625  0.1728 -0.6109
  405TIP3   OH2 1157   0.133   0.202   5.279  0.6573 -0.2235  0.2048
  405TIP3    H1 1158   0.072   0.222   5.208  0.8470 -1.5795 -0.3595
  405TIP3    H2 1159   0.215   0.242   5.251  0.5629 -0.1850 -0.0263
  406TIP3   OH2 1160   2.442   3.351   1.150 -0.5579 -0.4030 -0.0399
  406TIP3    H1 1161   2.404   3.329   1.235 -0.7296 -0.5290 -0.1478
  406TIP3    H2 1162   2.408   3.438   1.130 -0.3922 -0.3068  0.0911
  407TIP3   OH2 1163   4.537   0.739   0.533 -1.2499  0.6741  0.0151
  407TIP3    H1 1164   4.564   0.718   0.623 -2.2578  1.1159  0.4430
  407TIP3    H2 1165   4.442   0.749   0.539 -1.7234 -1.8642 -1.6059
  408TIP3   OH2 1166   1.358   2.804   6.105  0.3621 -0.8058 -0.2046
  408TIP3    H1 1167   1.320   2.787   6.019 -0.1635 -0.3670 -0.0671
  408TIP3    H2 1168   1.439   2.752   6.107 -0.2412 -1.7935 -0.4968
  409TIP3   OH2 1169   3.719   5.674   5.456 -0.2903  0.3361  0.1897
  409TIP3    H1 1170   3.732   5.710   5.368  0.0893  0.8676  0.4515
  409TIP3    H2 1171   3.633   5.632   5.453 -0.7969  1.3592 -0.1119
  410TIP3   OH2 1172   4.063   6.672   0.535  0.3548  0.0282  0.0078
  410TIP3    H1 1173   4.079   6.690   0.442 -0.0485 -0.8805 -0.2544
  410TIP3    H2 1174   4.140   6.621   0.563  0.0493 -0.4852 -0.0753
  411TIP3   OH2 1175   3.208   2.754   1.634  0.6559  0.5299 -0.4769
  411TIP3    H1 1176   3.198   2.849   1.639 -0.9620  0.5625 -2.6326
  411TIP3    H2 1177   3.129   2.719   1.675  0.5268  0.1856 -1.0019
  412TIP3   OH2 1178   6.171   7.444   0.157  0.1914 -0.8193  0.1146
  412TIP3    H1 1179   6.214   7.413   0.237 -0.3792  0.1483  0.8155
  412TIP3    H2 1180   6.227   7.515   0.126  0.2453 -0.9890 -0.1800
  413TIP3   OH2 1181   6.711   5.431   1.878 -0.2250  0.3363 -0.1598
  413TIP3    H1 1182   6.639   5.486   1.849 -1.7349 -1.7743 -0.6445
  413TIP3    H2 1183   6.677   5.384   1.954  0.7355 -0.4923 -0.2117
  414TIP3   OH2 1184   1.812   7.236   6.351 -0.3283 -0.2709  0.1925
  414TIP3    H1 1185   1.878   7.231   6.420 -0.0671  0.7509  0.0341
  414TIP3    H2 1186   1.842   7.307   6.294 -0.5180 -1.1141 -1.0022
  415TIP3   OH2 1187   5.938   0.480   5.284 -0.8396 -0.2545 -0.6993
  415TIP3    H1 1188   6.004   0.434   5.232 -1.1106  0.1676 -1.4244
  415TIP3    H2 1189   5.864   0.420   5.288 -0.3002 -0.8870  0.4297
  416TIP3   OH2 1190   3.110   5.986   1.694 -0.3483  0.0935 -0.1711
  416TIP3    H1 1191   3.129   5.967   1.786 -0.1536  0.6036 -0.1047
  416TIP3    H2 1192   3.015   5.982   1.688 -0.3307 -0.6690 -0.1107
  417TIP3   OH2 1193   0.216   3.762   0.614 -0.2343  0.1478 -0.0559
  417TIP3    H1 1194   0.141   3.819   0.598 -1.6579 -1.8247 -0.7997
  417TIP3    H2 1195   0.185   3.700   0.681  0.5693 -0.9368 -0.6570
  418TIP3   OH2 1196   0.195   6.311   2.337 -0.4741 -0.1294 -0.5544
  418TIP3    H1 1197   0.277   6.353   2.364 -0.3154 -1.0251  0.4766
  418TIP3    H2 1198   0.150   6.376   2.284 -0.0370  1.1720  0.6043
  419TIP3   OH2 1199   6.041   1.508   3.468  0.0170  0.0776  0.0508
  419TIP3    H1 1200   6.063   1.583   3.412  0.5639  1.6917  2.2848
  419TIP3    H2 1201   5.985   1.545   3.536  0.1011 -1.6041  1.0783
  420TIP3   OH2 1202   7.324   2.217   2.745  0.0548  0.0411 -0.4654
  420TIP3    H1 1203   7.342   2.193   2.836  2.1959 -1.1443 -1.1249
  420TIP3    H2 1204   7.391   2.171   2.695 -2.3381 -1.0113 -2.8788
  421TIP3   OH2 1205   6.208   5.211   5.007 -0.4549  0.4044  0.4677
  421TIP3    H1 1206   6.249   5.139   4.959 -0.1385 -0.6809  2.2959
  421TIP3    H2 1207   6.252   5.289   4.974  0.6160 -0.4134 -0.1096
  422TIP3   OH2 1208   7.951   6.061   4.071 -0.4592 -0.2478  0.3364
  422TIP3    H1 1209   7.883   5.995   4.056 -0.6200 -0.3154  1.3064
  422TIP3    H2 1210   7.911   6.125   4.130 -0.0968  0.3930 -0.1000
  423TIP3   OH2 1211   5.377   1.715   4.964 -0.8265  0.4397  0.3334
  423TIP3    H1 1212   5.413   1.741   4.879 -0.6926  0.5855  0.4343
  423TIP3    H2 1213   5.362   1.621   4.956  1.1418  0.0517  0.8462
  424TIP3   OH2 1214   5.721   4.796   2.052 -0.3781 -0.5309 -0.7224
  424TIP3    H1 1215   5.707   4.854   2.127 -0.4699  0.9122 -1.7993
  424TIP3    H2 1216   5.792   4.738   2.079 -0.0035  0.3516  0.2707
  425TIP3   OH2 1217   8.204   5.006   6.550  0.4923 -0.0377 -0.0228
  425TIP3    H1 1218   8.269   4.949   6.508  1.5139  0.7964  0.3745
  425TIP3    H2 1219   8.202   5.084   6.495  1.9039  1.1000  1.4543
  426TIP3   OH2 1220   4.024   7.089   2.982 -0.5360  0.2263 -0.6649
  426TIP3    H1 1221   3.958   7.020   2.981 -0.5848  0.1847  1.2233
  426TIP3    H2 1222   4.090   7.060   2.919 -0.8040 -1.3044 -0.2966
  427TIP3   OH2 1223   6.162   1.247   1.381  0.3045  0.0721 -0.1480
  427TIP3    H1 1224   6.207   1.322   1.422  0.8816 -0.6941  0.6544
  427TIP3    H2 1225   6.196   1.171   1.428 -1.2621 -0.6002 -0.0587
  428TIP3   OH2 1226   4.214   3.854   0.060 -0.1830 -0.3614  0.2381
  428TIP3    H1 1227   4.253   3.781   0.013 -1.3013 -0.4928 -0.5158
  428TIP3    H2 1228   4.122   3.830   0.071 -0.0917 -0.0676  1.9943
  429TIP3   OH2 1229   2.901   1.621   4.948  0.0851  0.4612 -0.6345
  429TIP3    H1 1230   2.922   1.614   5.041 -0.0402  0.7269 -0.5859
  429TIP3    H2 1231   2.944   1.546   4.908  0.3367  0.4772 -0.3961
  430TIP3   OH2 1232   6.718   3.147   2.780 -0.0408  0.4724  0.2992
  430TIP3    H1 1233   6.788   3.188   2.729  1.2454  1.6882  2.8200
  430TIP3    H2 1234   6.653   3.216   2.792  2.0050  2.0735  4.3239
  431TIP3   OH2 1235   4.420   1.091   5.081 -0.0471  0.4246 -0.9160
  431TIP3    H1 1236   4.505   1.067   5.045  0.2829 -0.2036  0.2490
  431TIP3    H2 1237   4.366   1.013   5.071  0.3922 -0.1586  0.9449
  432TIP3   OH2 1238   7.624   6.278   0.098  0.3430  0.0720  0.3707
  432TIP3    H1 1239   7.566   6.308   0.028 -0.0548 -1.0662  0.1901
  432TIP3    H2 1240   7.712   6.307   0.071  0.2079 -0.4181 -0.6503
  433TIP3   OH2 1241   0.414   6.089   2.927  0.1452  0.6712  0.7500
  433TIP3    H1 1242   0.400   6.017   2.988 -0.8366  1.5614  1.5977
  433TIP3    H2 1243   0.374   6.165   2.969 -0.3799  1.3544 -0.9012
  434TIP3   OH2 1244   3.846   0.936   5.389  0.2438  0.4722  0.1512
  434TIP3    H1 1245   3.821   0.857   5.437 -2.0326  1.1381  0.1881
  434TIP3    H2 1246   3.848   1.004   5.456  2.4758  0.4529  0.1719
  435TIP3   OH2 1247   6.302   7.068   4.343 -0.0652 -0.6390  0.2127
  435TIP3    H1 1248   6.217   7.099   4.312  0.6491  0.0171 -1.1728
  435TIP3    H2 1249   6.364   7.096   4.276  1.2556 -1.1213  1.1833
  436TIP3   OH2 1250   6.286   1.974   6.027  0.1651 -0.2771  0.2308
  436TIP3    H1 1251   6.206   1.921   6.026 -0.4367  0.6006  0.5552
  436TIP3    H2 1252   6.260   2.055   6.071  1.0144  0.3623 -0.4154
  437TIP3   OH2 1253   8.116   6.877   4.627  0.0790 -0.1921 -0.1581
  437TIP3    H1 1254   8.108   6.820   4.703 -0.6840 -0.8995 -0.7441
  437TIP3    H2 1255   8.032   6.923   4.622  0.3219  0.2468 -0.2659
  438TIP3   OH2 1256   5.352   3.573   5.030  0.1579 -0.7386 -0.2653
  438TIP3    H1 1257   5.321   3.604   5.115  0.4775 -1.3423  0.0683
  438TIP3    H2 1258   5.354   3.652   4.976 -2.9963 -0.7777 -0.6306
  439TIP3   OH2 1259   3.779   3.395   6.440  0.0142  0.3366  0.5451
  439TIP3    H1 1260   3.811   3.314   6.479  1.8682  0.7178 -0.0812
  439TIP3    H2 1261   3.829   3.404   6.359 -0.9788  1.5289  0.0361
  440TIP3   OH2 1262   7.738   3.837   3.758  0.1625 -0.4966 -0.0295
  440TIP3    H1 1263   7.643   3.836   3.747  0.3178  0.6577 -1.8682
  440TIP3    H2 1264   7.767   3.754   3.720 -0.0911 -0.8400  0.5108
  441TIP3   OH2 1265   3.319   4.581   6.190  0.3777 -0.2182 -0.0969
  441TIP3    H1 1266   3.325   4.629   6.108  3.8090  0.9765  0.6788
  441TIP3    H2 1267   3.305   4.490   6.164  1.4160  0.1236 -2.0130
  442TIP3   OH2 1268   5.331   5.267   1.134  0.2676  0.2154 -0.1549
  442TIP3    H1 1269   5.299   5.272   1.224  1.2577  0.7070  0.1834
  442TIP3    H2 1270   5.410   5.214   1.140  0.3024  0.1977 -0.7503
  443TIP3   OH2 1271   6.794   7.664   4.581 -0.4132  0.0983  0.1835
  443TIP3    H1 1272   6.735   7.589   4.588 -1.1607  0.6480 -0.2288
  443TIP3    H2 1273   6.863   7.634   4.522  2.1137 -2.0706  3.8056
  444TIP3   OH2 1274   4.958   5.582   6.119 -0.5157  0.1870 -0.8222
  444TIP3    H1 1275   4.973   5.491   6.093  0.3923  0.3556 -0.9223
  444TIP3    H2 1276   4.900   5.617   6.051  0.0917  0.0127 -1.4402
  445TIP3   OH2 1277   7.089   1.534   3.477  0.1747 -0.1051 -0.6262
  445TIP3    H1 1278   7.153   1.592   3.517 -0.7901  0.3810  0.2614
  445TIP3    H2 1279   7.062   1.475   3.548  1.5035 -2.0157 -1.6183
  446TIP3   OH2 1280   6.405   7.188   6.541 -0.0157 -0.0657 -0.3702
  446TIP3    H1 1281   6.409   7.188   6.636 -3.9051 -0.2592 -0.0431
  446TIP3    H2 1282   6.385   7.098   6.517 -0.5802  0.2610 -1.2068
  447TIP3   OH2 1283   0.715   7.377   1.572 -0.5549 -0.6194 -0.0591
  447TIP3    H1 1284   0.753   7.356   1.486 -2.2055  2.4545 -1.7153
  447TIP3    H2 1285   0.622   7.393   1.553 -0.8258  0.7791  2.2074
  448TIP3   OH2 1286   5.869   0.333  -0.016  0.4562  0.1827 -0.5425
  448TIP3    H1 1287   5.785   0.377  -0.028 -0.0239 -0.6248 -0.2962
  448TIP3    H2 1288   5.864   0.296   0.073 -0.2887 -2.6166 -1.6321
  449TIP3   OH2 1289   2.608   2.168   3.621  0.0355 -0.1899 -0.2277
  449TIP3    H1 1290   2.688   2.199   3.578 -0.9597  0.4293 -1.7444
  449TIP3    H2 1291   2.599   2.078   3.591  0.9357 -0.7795  1.1709
  450TIP3   OH2 1292   5.475   7.759   2.698 -0.0319  0.1228 -0.2134
  450TIP3    H1 1293   5.508   7.678   2.736  1.1707  1.1602  1.0244
  450TIP3    H2 1294   5.379   7.750   2.702  0.0480 -1.7790 -1.3582
  451TIP3   OH2 1295   0.288   1.248   6.247  0.6076 -0.1399 -0.0653
  451TIP3    H1 1296   0.207   1.299   6.237  0.6152 -0.1491 -0.1670
  451TIP3    H2 1297   0.267   1.163   6.209  1.2613  0.4415 -1.8081
  452TIP3   OH2 1298   0.307   6.420   3.908 -0.3265 -0.1462 -0.1277
  452TIP3    H1 1299   0.331   6.346   3.965  1.1495  1.0662  0.8800
  452TIP3    H2 1300   0.379   6.482   3.917 -0.4743  0.5145 -2.6556
  453TIP3   OH2 1301   7.936   2.797   4.053  1.1636 -0.7251 -0.4070
  453TIP3    H1 1302   7.999   2.869   4.043 -1.7815  2.0904 -0.2910
  453TIP3    H2 1303   7.927   2.760   3.965  1.6975 -0.0156 -0.7727
  454TIP3   OH2 1304   3.856   1.278   2.936  0.0518  0.0211 -0.1239
  454TIP3    H1 1305   3.864   1.219   2.861 -0.0619  2.1355 -1.9072
  454TIP3    H2 1306   3.767   1.315   2.928 -0.7830 -1.2437  2.3206
  455TIP3   OH2 1307   7.581   4.801   6.093 -0.1673 -0.6033  0.1197
  455TIP3    H1 1308   7.590   4.707   6.080 -1.8204 -0.4112 -4.5107
  455TIP3    H2 1309   7.487   4.814   6.106 -0.0633  0.4236 -0.0701
  456TIP3   OH2 1310   1.528   6.305   3.639 -0.7516 -0.4723  0.2947
  456TIP3    H1 1311   1.473   6.230   3.616 -0.6675 -0.4692  0.0793
  456TIP3    H2 1312   1.489   6.340   3.719 -2.2092  0.6666 -0.8507
  457TIP3   OH2 1313   7.059   3.548   5.157 -0.4407  0.4279  0.3512
  457TIP3    H1 1314   6.994   3.515   5.095  1.2317  2.6853 -2.8696
  457TIP3    H2 1315   7.137   3.496   5.140 -0.0239  0.9264  0.7129
  458TIP3   OH2 1316   0.920   5.911   1.456 -0.4176 -0.2269 -0.2941
  458TIP3    H1 1317   0.983   5.943   1.520 -0.7079  3.3083 -1.5569
  458TIP3    H2 1318   0.972   5.900   1.376 -0.8518 -0.3586 -0.5608
  459TIP3   OH2 1319   1.275   5.630   2.508 -0.2958 -0.5769 -0.0234
  459TIP3    H1 1320   1.234   5.544   2.495 -1.7878 -0.2325  1.9270
  459TIP3    H2 1321   1.223   5.689   2.453  0.3523 -0.7905 -0.8940
  460TIP3   OH2 1322   2.890   3.798   0.138  0.3336  0.1940  0.1958
  460TIP3    H1 1323   2.852   3.858   0.202  1.2318  0.9300  0.0555
  460TIP3    H2 1324   2.902   3.851   0.060  1.3244 -0.1115  0.1318
  461TIP3   OH2 1325   5.504   6.988   4.227  0.5841  0.1917  0.4648
  461TIP3    H1 1326   5.600   6.989   4.224  0.5869 -0.4345 -0.0721
  461TIP3    H2 1327   5.478   6.997   4.135  0.1618 -0.9828  0.4523
  462TIP3   OH2 1328   6.349   3.483   1.339 -0.1665  0.0059 -1.3938
  462TIP3    H1 1329   6.439   3.456   1.324 -0.4334 -0.8862 -1.4988
  462TIP3    H2 1330   6.307   3.405   1.378 -0.0341  1.4674  2.0415
  463TIP3   OH2 1331   6.077   2.492   6.713 -0.2159 -0.2119 -0.5694
  463TIP3    H1 1332   6.115   2.408   6.740 -1.1403 -0.0342  1.5045
  463TIP3    H2 1333   6.079   2.490   6.617  0.9029 -2.0682 -0.5517
  464TIP3   OH2 1334   2.354   4.201   3.809  0.3026  0.5199  0.3720
  464TIP3    H1 1335   2.363   4.181   3.715  0.8146 -0.4760  0.6227
  464TIP3    H2 1336   2.403   4.283   3.820 -1.1346  1.5637 -0.5157
  465TIP3   OH2 1337   4.660   2.795   3.471 -0.4606 -0.1664 -0.2133
  465TIP3    H1 1338   4.656   2.724   3.407  0.1899  0.5366 -1.0705
  465TIP3    H2 1339   4.736   2.846   3.445  0.8830 -0.8098  2.1759
  466TIP3   OH2 1340   3.536   3.281   0.088 -0.0784  0.8613 -0.4126
  466TIP3    H1 1341   3.592   3.359   0.082 -0.2136  0.9511 -0.5249
  466TIP3    H2 1342   3.566   3.235   0.166  1.3869 -0.0536 -1.4756
  467TIP3   OH2 1343   3.553   4.268   3.329  0.3474  0.2907  0.6835
  467TIP3    H1 1344   3.572   4.214   3.252  0.8556  3.0197 -1.2142
  467TIP3    H2 1345   3.472   4.231   3.364  0.6824 -1.7027 -0.4854
  468TIP3   OH2 1346   0.204   6.817   5.516  0.7553  0.0776  0.3071
  468TIP3    H1 1347   0.279   6.876   5.531 -0.3772  2.5500 -2.6935
  468TIP3    H2 1348   0.146   6.866   5.458 -3.2750 -1.7162  2.4037
  469TIP3   OH2 1349   5.747   2.438   0.765  0.1934  0.0505  0.1781
  469TIP3    H1 1350   5.795   2.382   0.825  1.6494  0.6480 -0.3823
  469TIP3    H2 1351   5.811   2.503   0.736 -1.0151  1.0060 -0.4502
  470TIP3   OH2 1352   0.414   4.149   5.609 -0.5180  0.1792  0.6270
  470TIP3    H1 1353   0.375   4.062   5.618  2.1848 -1.2654 -0.5377
  470TIP3    H2 1354   0.508   4.133   5.604  0.0155  3.0735 -0.8751
  471TIP3   OH2 1355   5.798   4.810   3.281 -0.2426 -0.3426  0.5802
  471TIP3    H1 1356   5.726   4.781   3.337  0.1550  1.9756  2.4356
  471TIP3    H2 1357   5.869   4.747   3.299 -0.9554 -1.1465  0.6583
  472TIP3   OH2 1358   5.112   1.019   4.835  0.1401 -0.2935 -0.0273
  472TIP3    H1 1359   5.086   0.982   4.919  0.5690 -1.1253 -0.2504
  472TIP3    H2 1360   5.186   1.077   4.856 -1.0594  1.1391  0.4356
  473TIP3   OH2 1361   6.909   5.072   1.840  0.1184 -0.1005  0.0044
  473TIP3    H1 1362   6.993   5.077   1.885 -0.5166  0.4531  1.1771
  473TIP3    H2 1363   6.930   5.040   1.752  1.5732  0.3060  0.1905
  474TIP3   OH2 1364   2.929   0.648   2.216  0.4918 -0.1524  0.2096
  474TIP3    H1 1365   2.922   0.694   2.300 -0.0122 -1.3484  0.8349
  474TIP3    H2 1366   2.843   0.658   2.175  0.3615 -0.6047  0.3761
  475TIP3   OH2 1367   5.363   2.831   5.282 -0.0132 -0.0726  0.0817
  475TIP3    H1 1368   5.284   2.796   5.323  0.8904  0.0305  1.9965
  475TIP3    H2 1369   5.332   2.907   5.232 -1.1093 -0.0091  0.8296
  476TIP3   OH2 1370   2.695   3.034   5.837 -0.2968 -0.3087  0.2384
  476TIP3    H1 1371   2.682   3.033   5.742  0.3263 -0.0828  0.1437
  476TIP3    H2 1372   2.621   3.085   5.871 -0.4294 -0.2451 -0.1428
  477TIP3   OH2 1373   2.893   7.427   0.699  0.3560 -0.4258 -0.1631
  477TIP3    H1 1374   2.850   7.438   0.615 -0.8087 -0.8913  0.3514
  477TIP3    H2 1375   2.987   7.425   0.678  0.1106 -0.0515 -1.3769
  478TIP3   OH2 1376   5.521   6.058   2.825 -0.1493 -0.5972  0.3826
  478TIP3    H1 1377   5.535   6.147   2.857 -1.5852 -0.2937  0.2343
  478TIP3    H2 1378   5.609   6.026   2.803  0.2519  1.5193 -1.4886
  479TIP3   OH2 1379   0.326   5.795   1.731  0.4367 -0.2188 -0.0712
  479TIP3    H1 1380   0.360   5.728   1.671  1.2858  1.2021 -1.2506
  479TIP3    H2 1381   0.384   5.870   1.718 -0.4432  0.7233  1.2663
  480TIP3   OH2 1382   2.133   1.966   4.029  0.0438  0.6605  0.1893
  480TIP3    H1 1383   2.194   2.024   4.074 -0.9158  0.9405  1.1597
  480TIP3    H2 1384   2.075   1.934   4.097 -0.2547 -0.4319 -0.5515
  481TIP3   OH2 1385   7.327   6.769   6.055 -0.7300 -0.3784  0.4998
  481TIP3    H1 1386   7.356   6.795   6.143  1.0356  0.4948 -0.2873
  481TIP3    H2 1387   7.329   6.673   6.057 -0.3727 -0.3692  1.3050
  482TIP3   OH2 1388   7.829   5.110   3.255 -0.0222 -0.2449 -0.2942
  482TIP3    H1 1389   7.874   5.129   3.173 -0.8425  0.8939 -0.5033
  482TIP3    H2 1390   7.815   5.016   3.253  1.0184 -0.4066 -0.9027
  483TIP3   OH2 1391   7.994   7.144   3.799  0.2558 -0.2442 -0.3550
  483TIP3    H1 1392   8.077   7.095   3.797 -0.7224 -1.9714 -1.5858
  483TIP3    H2 1393   8.021   7.235   3.807  2.2977 -0.7267 -0.9036
  484TIP3   OH2 1394   3.348   1.334   3.135  0.1539 -0.1025 -0.0230
  484TIP3    H1 1395   3.326   1.414   3.088 -3.6362 -0.9302  0.0476
  484TIP3    H2 1396   3.369   1.363   3.224 -0.6759  0.8601 -0.1289
  485TIP3   OH2 1397   7.870   6.557   5.809 -0.0193  0.2209  0.6085
  485TIP3    H1 1398   7.896   6.622   5.743  0.3543  1.2819  1.7719
  485TIP3    H2 1399   7.822   6.607   5.875 -1.8053 -1.0944  0.3756
  486TIP3   OH2 1400   5.744   4.328   1.427 -0.2489  0.0597 -0.4818
  486TIP3    H1 1401   5.756   4.249   1.373 -1.6574 -0.7469  0.3277
  486TIP3    H2 1402   5.680   4.380   1.380 -1.2527 -0.5039  0.2300
  487TIP3   OH2 1403   5.411   6.507   2.964 -0.1552  0.6692 -0.0613
  487TIP3    H1 1404   5.449   6.559   3.034 -1.1286 -1.2548  2.0414
  487TIP3    H2 1405   5.320   6.536   2.958 -1.2038 -1.6659  2.2899
  488TIP3   OH2 1406   3.745   0.219   1.606 -0.1895  0.5940  0.2125
  488TIP3    H1 1407   3.733   0.222   1.701 -0.2707  0.7312  0.1979
  488TIP3    H2 1408   3.729   0.308   1.577 -0.8155  0.4118 -0.0090
  489TIP3   OH2 1409   5.572   0.463   1.411  0.2928 -0.0856  0.1464
  489TIP3    H1 1410   5.661   0.466   1.375  1.4166  1.5840  2.7294
  489TIP3    H2 1411   5.579   0.406   1.488 -0.3594  1.5076  1.4524
  490TIP3   OH2 1412   6.896   3.639   2.758  0.0890 -0.0659  0.1854
  490TIP3    H1 1413   6.869   3.687   2.836 -1.2481  0.3809 -0.5223
  490TIP3    H2 1414   6.956   3.699   2.713  0.7066 -0.2455  0.7560
  491TIP3   OH2 1415   7.572   4.314   3.511 -0.0918  0.3207 -0.3007
  491TIP3    H1 1416   7.627   4.344   3.583  2.2354 -2.0888 -0.9130
  491TIP3    H2 1417   7.609   4.357   3.434  0.0512 -0.2544 -0.5551
  492TIP3   OH2 1418   0.186   6.708   6.136 -0.0133  0.3238 -0.2212
  492TIP3    H1 1419   0.144   6.788   6.167  1.7417  0.7632  1.2249
  492TIP3    H2 1420   0.192   6.653   6.214  1.7199  0.1617 -0.4139
  493TIP3   OH2 1421   5.430   2.117   0.076  0.7208  0.4343  0.2866
  493TIP3    H1 1422   5.422   2.022   0.073 -1.1307  0.5555  0.0370
  493TIP3    H2 1423   5.366   2.148   0.012  0.3739  1.8835  1.2905
  494TIP3   OH2 1424   4.756   3.246   6.482  0.3343  0.1414  0.3952
  494TIP3    H1 1425   4.801   3.278   6.560  1.0983  0.0852 -0.0131
  494TIP3    H2 1426   4.772   3.313   6.415 -0.3058  0.1852  0.2750
  495TIP3   OH2 1427   4.653   6.149   0.037 -0.4498 -0.2875 -0.0532
  495TIP3    H1 1428   4.687   6.237   0.018  0.8064 -0.8481 -0.4656
  495TIP3    H2 1429   4.723   6.090   0.012 -0.1674 -1.3177  2.7882
  496TIP3   OH2 1430   7.812   5.406   3.711 -0.2358  0.2981 -0.7091
  496TIP3    H1 1431   7.794   5.321   3.751 -1.8082  0.3966 -1.1430
  496TIP3    H2 1432   7.850   5.384   3.625  0.4592  0.0553 -0.3430
  497TIP3   OH2 1433   3.112   4.502   4.191  0.1383 -0.1358  0.2866
  497TIP3    H1 1434   3.094   4.595   4.205  0.3525 -0.0054 -0.2774
  497TIP3    H2 1435   3.162   4.475   4.269 -0.5989  0.0224  0.8256
  498TIP3   OH2 1436   0.165   0.112   1.901 -0.3847  0.6515 -0.2868
  498TIP3    H1 1437   0.086   0.164   1.914  0.3126  1.3699  1.3111
  498TIP3    H2 1438   0.154   0.037   1.960  0.9291  1.7493  1.4542
  499TIP3   OH2 1439   6.523   5.704   2.232  0.0841 -0.0930 -0.1029
  499TIP3    H1 1440   6.482   5.777   2.186  1.8227  1.8997  1.3225
  499TIP3    H2 1441   6.519   5.728   2.324 -0.6067 -2.5520  0.5818
  500TIP3   OH2 1442   4.432   6.554   2.613  0.7604  0.2076  0.0840
  500TIP3    H1 1443   4.401   6.543   2.703  0.9576  0.3135  0.1649
  500TIP3    H2 1444   4.352   6.566   2.561  0.4290 -2.4881 -0.1501
  501TIP3   OH2 1445   6.925   6.196   1.544  0.0732  0.3456  0.6241
  501TIP3    H1 1446   6.920   6.264   1.612 -1.4522  0.3567  0.5295
  501TIP3    H2 1447   7.007   6.150   1.563 -0.2387  0.4309  2.3905
  502TIP3   OH2 1448   2.928   2.622   2.442  0.2803  0.5039 -0.2769
  502TIP3    H1 1449   3.003   2.565   2.425  0.9285  1.7786 -2.0673
  502TIP3    H2 1450   2.934   2.642   2.535  1.1271 -0.8208 -0.0228
  503TIP3   OH2 1451   6.070   0.620   6.218 -0.1320 -0.7650 -0.0742
  503TIP3    H1 1452   6.120   0.699   6.200  0.5358 -1.4219 -1.2153
  503TIP3    H2 1453   6.118   0.575   6.287  0.9506 -1.4394 -1.2281
  504TIP3   OH2 1454   0.387   6.339   3.652 -0.1900 -0.4964 -0.3241
  504TIP3    H1 1455   0.328   6.265   3.640 -0.4101 -0.3089 -0.4210
  504TIP3    H2 1456   0.358   6.379   3.734  0.4464 -0.9866  0.1496
  505TIP3   OH2 1457   5.561   4.469   5.627 -0.3225 -0.0685  0.0943
  505TIP3    H1 1458   5.651   4.502   5.630 -0.7453  1.1195  0.0596
  505TIP3    H2 1459   5.520   4.502   5.707 -0.9187 -0.0278 -0.2225
  506TIP3   OH2 1460   5.642   0.340   5.495 -0.0450 -0.4403  0.0314
  506TIP3    H1 1461   5.696   0.300   5.563 -1.1464  0.0785  1.2602
  506TIP3    H2 1462   5.701   0.348   5.419  1.2861 -0.8214  0.9828
  507TIP3   OH2 1463   6.023   3.686   6.557 -0.3710  0.4866  0.0156
  507TIP3    H1 1464   5.975   3.622   6.503 -0.0878 -0.5812  0.9838
  507TIP3    H2 1465   5.975   3.768   6.546 -0.5714  0.2015 -1.5059
  508TIP3   OH2 1466   4.872   1.956   4.402  0.0723 -0.4733  0.6501
  508TIP3    H1 1467   4.804   1.916   4.456 -0.5907 -0.2242  0.0225
  508TIP3    H2 1468   4.871   2.049   4.426  0.6264 -0.5721  1.0820
  509TIP3   OH2 1469   6.213   2.380   1.464 -0.4541 -0.3021  0.0373
  509TIP3    H1 1470   6.264   2.401   1.542  2.1684 -0.2075 -1.5648
  509TIP3    H2 1471   6.244   2.293   1.438 -0.4791  0.1056 -1.4671
  510TIP3   OH2 1472   2.003   4.708   6.008  0.4189  0.1545 -0.7440
  510TIP3    H1 1473   1.973   4.718   6.098  0.8219  0.2425 -0.6167
  510TIP3    H2 1474   2.098   4.713   6.014  0.6243 -2.2736 -0.8509
  511TIP3   OH2 1475   5.160   5.990   1.871  0.3479  0.0219  0.5789
  511TIP3    H1 1476   5.189   6.077   1.900  0.7712 -0.2639  1.0131
  511TIP3    H2 1477   5.075   6.006   1.829 -0.0741  0.4988  1.5903
  512TIP3   OH2 1478   2.588   4.098   2.822 -0.5181 -0.3763  0.1872
  512TIP3    H1 1479   2.613   4.089   2.914  0.8071  1.4921  0.0755
  512TIP3    H2 1480   2.625   4.021   2.779  0.7789 -0.1537  0.8710
  513TIP3   OH2 1481   6.336   2.949   4.901  0.3037  0.0586  0.3779
  513TIP3    H1 1482   6.278   2.922   4.829 -1.9684  0.7254  1.8550
  513TIP3    H2 1483   6.317   3.042   4.913  1.1038  0.0947  1.4327
  514TIP3   OH2 1484   5.217   4.294   5.512 -0.6264 -0.2782  0.1068
  514TIP3    H1 1485   5.237   4.384   5.488 -0.2237 -0.3404  0.1980
  514TIP3    H2 1486   5.219   4.246   5.429  2.9289 -0.9077  0.3653
  515TIP3   OH2 1487   3.864   3.397   0.663  0.1792 -0.6290  0.0182
  515TIP3    H1 1488   3.832   3.433   0.580 -0.2905  0.4534  0.6485
  515TIP3    H2 1489   3.958   3.388   0.651  0.3707  1.1440 -0.0762
  516TIP3   OH2 1490   0.241   5.604   3.933 -0.1554  0.1562  0.5304
  516TIP3    H1 1491   0.279   5.517   3.919  0.0362  0.4690 -1.1389
  516TIP3    H2 1492   0.314   5.664   3.916 -0.6183  0.6838  0.4147
  517TIP3   OH2 1493   1.329   6.338   6.363  0.1567  0.2600  0.0981
  517TIP3    H1 1494   1.372   6.419   6.390  1.3887 -0.7308  1.2890
  517TIP3    H2 1495   1.388   6.301   6.297  0.5167 -0.4840  0.8141
  518TIP3   OH2 1496   7.818   6.787   1.073 -0.0087  0.5297 -0.3106
  518TIP3    H1 1497   7.764   6.716   1.040  0.6909 -0.3260  0.3239
  518TIP3    H2 1498   7.884   6.801   1.006  1.6405 -1.4630  0.7874
  519TIP3   OH2 1499   4.974   2.752   3.556 -0.0395  0.4145 -0.5043
  519TIP3    H1 1500   5.006   2.714   3.475  0.7999 -1.4565  0.6244
  519TIP3    H2 1501   4.880   2.734   3.556  0.4306 -2.6878  0.3738
  520TIP3   OH2 1502   3.398   0.565   3.555 -0.2985 -0.1542 -0.2933
  520TIP3    H1 1503   3.473   0.507   3.565 -1.0675 -1.0119  0.8485
  520TIP3    H2 1504   3.415   0.613   3.474  1.9259  0.3817  0.4202
  521TIP3   OH2 1505   2.719   4.534   6.618  0.0318 -0.2526  0.1500
  521TIP3    H1 1506   2.768   4.559   6.697 -1.2997 -0.9867  1.2593
  521TIP3    H2 1507   2.633   4.506   6.651 -0.6138 -0.4437 -1.5866
  522TIP3   OH2 1508   2.065   2.769   4.360  0.8324 -0.7691 -0.4908
  522TIP3    H1 1509   2.043   2.851   4.316 -2.4759 -0.2471  1.7583
  522TIP3    H2 1510   2.115   2.796   4.437 -1.6110 -0.5017  1.1347
  523TIP3   OH2 1511   6.434   1.061   3.206 -0.5980  0.4240 -0.3244
  523TIP3    H1 1512   6.369   1.116   3.162  1.2254  1.8487 -1.4033
  523TIP3    H2 1513   6.441   1.098   3.294 -0.7776  0.6902 -0.4200
  524TIP3   OH2 1514   0.260   3.470   6.241 -0.2670 -0.1186 -0.1629
  524TIP3    H1 1515   0.174   3.428   6.242 -0.6132  0.5918  0.0931
  524TIP3    H2 1516   0.244   3.559   6.271  0.4188  0.2868 -0.9636
  525TIP3   OH2 1517   8.088   5.194   0.755  0.7078  0.2397 -0.3203
  525TIP3    H1 1518   8.110   5.188   0.662 -0.5613  1.3070 -0.7315
  525TIP3    H2 1519   8.138   5.125   0.797  0.5099 -0.9462 -1.9615
  526TIP3   OH2 1520   3.239   6.086   3.166 -0.1913  0.4150 -0.2184
  526TIP3    H1 1521   3.169   6.021   3.169 -0.1405  0.3839  0.5261
  526TIP3    H2 1522   3.294   6.059   3.092  0.5064 -1.1137  0.8007
  527TIP3   OH2 1523   4.564   5.640   4.934 -0.0872  0.1304 -0.3257
  527TIP3    H1 1524   4.575   5.548   4.954  0.6698  0.5070  1.1212
  527TIP3    H2 1525   4.540   5.680   5.018  0.2095  1.3338 -0.7965
  528TIP3   OH2 1526   4.429   7.125   5.041  0.0543 -0.3931  0.1075
  528TIP3    H1 1527   4.516   7.153   5.012 -0.7070  1.5289 -0.4557
  528TIP3    H2 1528   4.379   7.114   4.961 -0.4886 -0.5995  0.4716
  529TIP3   OH2 1529   1.372   3.253   2.799 -0.8058 -0.0743  0.1458
  529TIP3    H1 1530   1.437   3.222   2.862 -1.9031  0.0137  1.3469
  529TIP3    H2 1531   1.300   3.285   2.852 -1.1614  1.3611 -1.1421
  530TIP3   OH2 1532   0.080   6.578   0.948  0.2742  0.1235  0.1732
  530TIP3    H1 1533   0.014   6.508   0.952  0.3770  0.0865  1.6150
  530TIP3    H2 1534   0.030   6.657   0.930  0.3006 -0.4634 -3.0676
  531TIP3   OH2 1535   4.714   4.229   0.292  0.3573 -0.2322 -0.0891
  531TIP3    H1 1536   4.708   4.323   0.278  1.3723 -0.2928 -1.1064
  531TIP3    H2 1537   4.778   4.219   0.362  1.8391 -0.1996 -1.3773
  532TIP3   OH2 1538   7.660   7.335   3.370  0.5061  0.8885  0.9442
  532TIP3    H1 1539   7.657   7.335   3.275 -1.0312  1.3481  0.9683
  532TIP3    H2 1540   7.674   7.426   3.394  0.6541  0.8089  1.1709
  533TIP3   OH2 1541   6.955   0.688   4.385 -0.4118  0.0716  0.3702
  533TIP3    H1 1542   6.916   0.767   4.424 -0.8470 -0.3792  0.8697
  533TIP3    H2 1543   7.050   0.705   4.387 -0.4544  0.2950  1.1420
  534TIP3   OH2 1544   3.674   5.956   3.335 -0.1600  0.0704  0.2048
  534TIP3    H1 1545   3.765   5.954   3.304  0.0425 -0.8898  0.8181
  534TIP3    H2 1546   3.679   5.998   3.421  0.1378 -2.4286  1.4849
  535TIP3   OH2 1547   0.475   0.410   3.242  0.4973 -0.3249  0.0399
  535TIP3    H1 1548   0.383   0.398   3.267  1.1201 -3.6635  1.2891
  535TIP3    H2 1549   0.523   0.349   3.298  3.6188  1.7782 -0.0773
  536TIP3   OH2 1550   6.729   1.958   5.078 -0.3567  0.4461 -0.0046
  536TIP3    H1 1551   6.642   1.921   5.080 -0.0000 -0.4924 -0.8360
  536TIP3    H2 1552   6.736   1.998   4.990  0.7532 -1.3404 -0.7875
  537TIP3   OH2 1553   0.354   7.497   6.622 -0.3539 -0.1350 -0.0211
  537TIP3    H1 1554   0.336   7.403   6.622 -0.3408 -0.1361  0.2215
  537TIP3    H2 1555   0.275   7.537   6.658  0.2381 -0.1569  1.3359
  538TIP3   OH2 1556   0.234   1.760   1.465 -0.1827  0.0243  0.2707
  538TIP3    H1 1557   0.261   1.750   1.557  3.1877 -0.9209 -0.6743
  538TIP3    H2 1558   0.203   1.673   1.440 -0.0402 -0.0177  0.2367
  539TIP3   OH2 1559   5.840   5.952   2.525 -0.1262  0.5113 -0.0785
  539TIP3    H1 1560   5.904   6.023   2.530  0.1413  0.2698 -0.0432
  539TIP3    H2 1561   5.768   5.988   2.473  0.7840  0.2237 -1.5921
  540TIP3   OH2 1562   3.793   5.032   5.918 -0.5896  0.1585 -0.0232
  540TIP3    H1 1563   3.781   4.978   5.840 -0.0969 -0.7787  0.5310
  540TIP3    H2 1564   3.865   5.091   5.896 -0.0570 -0.5001 -0.0832
  541TIP3   OH2 1565   8.130   0.748   0.486 -0.0827 -0.2966  0.9488
  541TIP3    H1 1566   8.078   0.791   0.554 -0.8704 -0.0690  0.2151
  541TIP3    H2 1567   8.115   0.655   0.500 -0.6548 -0.2330  0.7661
  542TIP3   OH2 1568   0.684   7.422   0.613  0.0546  0.0974 -0.0612
  542TIP3    H1 1569   0.612   7.380   0.566  0.6121 -1.8046  0.6854
  542TIP3    H2 1570   0.760   7.367   0.595  1.2526  1.8114 -0.4667
  543TIP3   OH2 1571   3.757   3.886   0.632  0.7172  0.3064  0.4107
  543TIP3    H1 1572   3.813   3.929   0.697 -0.4810  2.2002  0.2363
  543TIP3    H2 1573   3.690   3.841   0.683 -0.2381  1.8137  0.5265
  544TIP3   OH2 1574   3.315   3.026   1.385  0.4217  0.4932 -0.3399
  544TIP3    H1 1575   3.303   2.995   1.475 -0.8122  0.5079 -0.4845
  544TIP3    H2 1576   3.351   3.114   1.395 -0.1596  0.6854  0.1593
  545TIP3   OH2 1577   0.838   7.695   3.307 -0.2113 -0.1973 -0.1347
  545TIP3    H1 1578   0.826   7.740   3.391 -0.6628  0.6080 -0.6101
  545TIP3    H2 1579   0.750   7.686   3.272  0.0516  0.3964 -0.9758
  546TIP3   OH2 1580   5.844   4.868   2.473  0.2405 -0.6778  0.0675
  546TIP3    H1 1581   5.761   4.898   2.511  0.3830  0.8816 -0.7263
  546TIP3    H2 1582   5.894   4.949   2.458  0.5715 -1.2448 -2.4690
  547TIP3   OH2 1583   1.595   6.530   1.914 -0.2399 -0.8725  0.4679
  547TIP3    H1 1584   1.635   6.546   1.829 -0.8384  2.3793  0.6727
  547TIP3    H2 1585   1.665   6.546   1.978  0.0182 -2.5986  0.6675
  548TIP3   OH2 1586   8.238   4.955   4.555  0.2892 -0.6756  0.1979
  548TIP3    H1 1587   8.176   4.894   4.515  1.2913 -1.1071 -0.7412
  548TIP3    H2 1588   8.263   5.014   4.485  0.0011  0.2977  0.8875
  549TIP3   OH2 1589   5.305   2.467   3.565 -0.2137 -0.5434 -0.3036
  549TIP3    H1 1590   5.341   2.547   3.525  0.2468 -1.3024 -1.4812
  549TIP3    H2 1591   5.273   2.495   3.650  1.2430  0.6116 -0.0925
  550TIP3   OH2 1592   5.485   6.583   5.429 -0.2700 -0.3980 -0.0068
  550TIP3    H1 1593   5.422   6.651   5.407 -0.2809 -0.1378  0.7994
  550TIP3    H2 1594   5.570   6.625   5.421 -0.2244 -0.6022 -0.5890
  551TIP3   OH2 1595   0.036   5.209   1.189 -0.5285  0.6606  0.1460
  551TIP3    H1 1596   0.057   5.251   1.105 -1.6097 -0.4652 -0.7127
  551TIP3    H2 1597   0.097   5.136   1.195  0.1509  1.2543  0.8002
  552TIP3   OH2 1598   0.395   1.895   1.289 -0.5931  0.1095 -0.6848
  552TIP3    H1 1599   0.399   1.985   1.321  0.3804  0.5544 -1.9566
  552TIP3    H2 1600   0.337   1.850   1.350 -0.8307  1.5158  0.1674
  553TIP3   OH2 1601   6.941   3.338   4.850 -0.3639  0.0212 -0.4238
  553TIP3    H1 1602   6.976   3.271   4.910 -1.3381 -0.5459 -0.4522
  553TIP3    H2 1603   6.917   3.289   4.771 -1.2232  0.3584 -0.3901
  554TIP3   OH2 1604   2.873   4.254   4.169 -0.2988  0.4268  0.1041
  554TIP3    H1 1605   2.878   4.261   4.074  1.9474  0.2486  0.1663
  554TIP3    H2 1606   2.958   4.282   4.200 -0.9172  0.2845  2.0764
  555TIP3   OH2 1607   7.968   6.324   5.620 -0.0698  0.0917 -0.2234
  555TIP3    H1 1608   7.986   6.378   5.543 -0.3777  0.2542 -0.1883
  555TIP3    H2 1609   7.922   6.384   5.680  0.6951  0.1362  0.3322
  556TIP3   OH2 1610   0.491   3.994   0.039  0.3197  0.0325 -0.0883
  556TIP3    H1 1611   0.430   3.925   0.064  2.7591 -2.5292 -0.6980
  556TIP3    H2 1612   0.563   3.986   0.101  1.1806  1.3290 -0.8691
  557TIP3   OH2 1613   0.410   6.059   1.250 -1.4080 -0.6405  0.2117
  557TIP3    H1 1614   0.496   6.094   1.276 -0.7905 -0.9161 -1.3548
  557TIP3    H2 1615   0.348   6.103   1.308 -0.3507  0.6832  0.3990
  558TIP3   OH2 1616   5.782   2.544   4.521  0.2456  0.2060  0.8203
  558TIP3    H1 1617   5.712   2.579   4.466  1.3343  2.6999  0.8950
  558TIP3    H2 1618   5.738   2.520   4.603 -0.6174  1.2563  0.6868
  559TIP3   OH2 1619   1.849   2.220   4.673  0.0978  0.6145  0.0933
  559TIP3    H1 1620   1.897   2.154   4.725  2.0407 -1.5352 -3.9268
  559TIP3    H2 1621   1.918   2.268   4.627 -1.4753  2.5236 -0.3605
  560TIP3   OH2 1622   0.867   1.830   1.327 -0.4144  0.2767  0.2296
  560TIP3    H1 1623   0.902   1.745   1.302  0.5631  0.0546  2.1629
  560TIP3    H2 1624   0.935   1.893   1.301  0.4424  0.0795  1.8420
  561TIP3   OH2 1625   3.693   2.960   5.840 -0.2882  0.1220 -0.7985
  561TIP3    H1 1626   3.753   2.975   5.914 -0.6647 -1.8663 -0.0307
  561TIP3    H2 1627   3.694   3.043   5.792  0.6853  1.1817  0.9155
  562TIP3   OH2 1628   0.370   5.051   3.519  0.4194 -0.2348  0.6366
  562TIP3    H1 1629   0.434   4.980   3.511 -0.4033 -0.8504 -1.1469
  562TIP3    H2 1630   0.399   5.117   3.456  0.9744  0.8963  2.0236
  563TIP3   OH2 1631   2.686   1.905   2.134  0.7541 -0.6166 -0.4131
  563TIP3    H1 1632   2.623   1.940   2.197 -0.1395 -0.2008 -1.5118
  563TIP3    H2 1633   2.745   1.852   2.187 -0.1888 -0.5805  0.7249
  564TIP3   OH2 1634   1.479   0.204   3.628 -0.1261  0.2301 -0.3869
  564TIP3    H1 1635   1.427   0.131   3.662  0.2157  1.2833  2.8088
  564TIP3    H2 1636   1.445   0.281   3.674  1.0482  1.7425 -1.8982
  565TIP3   OH2 1637   0.740   1.494   3.846  0.2767  0.0526 -0.3419
  565TIP3    H1 1638   0.795   1.455   3.915  0.4208  0.2527 -0.3451
  565TIP3    H2 1639   0.685   1.558   3.892 -0.6087 -0.7936 -0.1818
  566TIP3   OH2 1640   7.739   5.598   1.690 -0.2118  0.0729 -0.4232
  566TIP3    H1 1641   7.693   5.545   1.755  0.9007 -1.3551 -0.7644
  566TIP3    H2 1642   7.674   5.664   1.663 -1.3354 -0.5511  0.6470
  567TIP3   OH2 1643   2.952   3.090   5.914 -0.5246 -0.0052 -0.3993
  567TIP3    H1 1644   2.944   3.185   5.914 -1.0199 -0.0362 -1.1587
  567TIP3    H2 1645   2.863   3.059   5.895 -0.5744 -0.6461  0.7778
  568TIP3   OH2 1646   3.346   1.853   4.914 -0.1525  0.1226 -0.0379
  568TIP3    H1 1647   3.276   1.810   4.865 -0.8662  0.6143  0.5410
  568TIP3    H2 1648   3.395   1.902   4.848 -0.1549 -0.4723 -0.4919
  569TIP3   OH2 1649   3.276   6.053   4.082 -0.5062  0.4923 -0.0556
  569TIP3    H1 1650   3.370   6.037   4.077 -0.6519 -0.1183 -1.3358
  569TIP3    H2 1651   3.258   6.113   4.009 -1.0007  1.2176  0.6436
  570TIP3   OH2 1652   4.918   6.238   0.497 -0.4973 -0.4612 -0.1743
  570TIP3    H1 1653   4.858   6.183   0.446 -0.8046 -0.4902  0.2207
  570TIP3    H2 1654   4.996   6.244   0.442 -0.6326 -0.9182 -0.4237
  571TIP3   OH2 1655   4.312   0.463   2.439  0.1655  0.3098  0.4378
  571TIP3    H1 1656   4.328   0.547   2.481 -1.5965  1.6634 -1.3860
  571TIP3    H2 1657   4.255   0.416   2.501  1.5308  0.2277  1.6682
  572TIP3   OH2 1658   3.721   6.254   0.687 -0.0924 -0.4794 -0.1677
  572TIP3    H1 1659   3.656   6.295   0.744 -0.4877 -1.5046  0.1402
  572TIP3    H2 1660   3.802   6.303   0.703 -1.3321  2.7725 -2.6763
  573TIP3   OH2 1661   4.708   7.433   6.723  0.2797  0.0159 -0.1641
  573TIP3    H1 1662   4.760   7.504   6.686  0.5206 -0.9505 -1.7530
  573TIP3    H2 1663   4.773   7.366   6.746 -0.0446 -0.1667  0.2268
  574TIP3   OH2 1664   5.604   1.235   2.272  0.5435  0.1738 -0.1205
  574TIP3    H1 1665   5.689   1.247   2.314  0.9576  1.5661 -1.3033
  574TIP3    H2 1666   5.624   1.202   2.185  0.1040  3.3395 -1.5223
  575TIP3   OH2 1667   0.032   0.620   2.893  0.7107  0.3010 -0.0325
  575TIP3    H1 1668   0.058   0.539   2.849  1.7792 -0.2546  1.4938
  575TIP3    H2 1669   0.083   0.620   2.974 -0.6598  1.5854  0.8892
  576TIP3   OH2 1670   3.438   2.671   3.605 -0.1046  0.7673  0.8767
  576TIP3    H1 1671   3.522   2.648   3.565 -0.4329  0.9031  0.0954
  576TIP3    H2 1672   3.452   2.759   3.640 -0.2919  1.3089 -0.3660
  577TIP3   OH2 1673   1.368   0.811   3.677  0.0761  0.3565 -0.3906
  577TIP3    H1 1674   1.435   0.758   3.720 -1.6076 -2.2416 -0.7193
  577TIP3    H2 1675   1.406   0.832   3.592  1.5009  1.2910  0.4439
  578TIP3   OH2 1676   1.859   7.471   0.417 -0.1859  0.1174 -0.2273
  578TIP3    H1 1677   1.875   7.393   0.363 -2.8220 -1.9221  1.6516
  578TIP3    H2 1678   1.819   7.534   0.357 -0.7245 -1.1115 -1.2134
  579TIP3   OH2 1679   1.201   6.776   0.865  0.1004 -0.2071  0.0331
  579TIP3    H1 1680   1.155   6.696   0.890 -0.9418  0.5668  0.6949
  579TIP3    H2 1681   1.226   6.816   0.948  0.9443 -0.0193 -0.2988
  580TIP3   OH2 1682   2.410   7.313   1.970  0.2392 -0.1647  0.2398
  580TIP3    H1 1683   2.427   7.310   1.876  1.2137 -0.7345  0.4271
  580TIP3    H2 1684   2.451   7.394   2.000  2.1715 -1.2056  0.5752
  581TIP3   OH2 1685   5.946   0.829   2.587  0.7852  1.1041 -0.0654
  581TIP3    H1 1686   6.014   0.788   2.640  2.2255  0.8104 -2.0290
  581TIP3    H2 1687   5.882   0.760   2.574 -0.4644  1.6315  2.5443
  582TIP3   OH2 1688   5.542   6.940   1.535 -0.1730 -0.2325 -0.6186
  582TIP3    H1 1689   5.493   6.928   1.616 -1.4534  0.0237 -1.3207
  582TIP3    H2 1690   5.603   6.867   1.532  0.7005  0.3765  1.1218
  583TIP3   OH2 1691   2.363   2.789   2.865  0.5912 -0.2739 -0.3909
  583TIP3    H1 1692   2.334   2.767   2.954  1.6419 -3.5849 -0.7378
  583TIP3    H2 1693   2.291   2.760   2.809 -0.6775  3.0316 -0.7176
  584TIP3   OH2 1694   8.115   6.571   5.409 -0.2575 -0.2110  0.3221
  584TIP3    H1 1695   8.112   6.635   5.480  0.8076 -0.2244  0.3898
  584TIP3    H2 1696   8.105   6.622   5.329 -1.5041 -0.2002  0.4678
  585TIP3   OH2 1697   1.770   1.829   6.197  0.0933  0.1847  0.1816
  585TIP3    H1 1698   1.806   1.769   6.261  1.1986  0.4170 -0.2058
  585TIP3    H2 1699   1.834   1.830   6.126 -2.2571 -2.1255 -2.2382
  586TIP3   OH2 1700   4.330   7.001   2.853  0.5418  0.1888 -0.3890
  586TIP3    H1 1701   4.397   7.069   2.847 -0.0513  0.9803  1.3257
  586TIP3    H2 1702   4.338   6.967   2.942 -0.8653 -0.1902 -0.3778
  587TIP3   OH2 1703   5.832   6.793   3.747  0.2084  0.3211 -0.0734
  587TIP3    H1 1704   5.775   6.781   3.823  0.4890  1.1927  0.2772
  587TIP3    H2 1705   5.817   6.883   3.720 -0.6361 -0.2586 -1.6838
  588TIP3   OH2 1706   2.923   3.003   0.045 -0.0381  0.2287 -0.0746
  588TIP3    H1 1707   3.010   2.998   0.005  0.0410  2.5098 -0.3261
  588TIP3    H2 1708   2.931   3.073   0.110 -1.4765 -0.0664  0.4444
  589TIP3   OH2 1709   2.913   3.723   5.109  0.5113 -0.3393  0.0215
  589TIP3    H1 1710   2.887   3.639   5.147  0.3331  0.4896  1.8457
  589TIP3    H2 1711   2.848   3.786   5.143  1.3136  0.7248 -0.3581
  590TIP3   OH2 1712   7.972   0.786   2.144 -0.7996  0.3213  0.5841
  590TIP3    H1 1713   7.933   0.865   2.181 -0.0071  0.8862  0.2345
  590TIP3    H2 1714   7.970   0.722   2.215 -0.2509  1.0665  1.2819
  591TIP3   OH2 1715   4.488   7.609   1.196  0.9275  0.1598 -0.5291
  591TIP3    H1 1716   4.450   7.670   1.132  2.1741  0.7354 -0.7462
  591TIP3    H2 1717   4.555   7.660   1.241  0.6488 -0.4907  0.6684
  592TIP3   OH2 1718   1.524   4.012   0.612  0.0869 -0.4234 -0.1728
  592TIP3    H1 1719   1.505   4.065   0.689  0.8059 -0.9781  0.4106
  592TIP3    H2 1720   1.450   3.952   0.604  1.0903 -1.9967  1.5623
  593TIP3   OH2 1721   0.802   6.575   0.714  0.8895  0.3421 -0.0604
  593TIP3    H1 1722   0.829   6.483   0.725 -0.7360 -0.0356  1.2241
  593TIP3    H2 1723   0.722   6.570   0.662  0.5070  0.9766  0.4533
  594TIP3   OH2 1724   3.878   2.535   2.119  0.3960  0.4078 -0.0200
  594TIP3    H1 1725   3.829   2.522   2.199  0.7543  1.9196  0.4884
  594TIP3    H2 1726   3.859   2.458   2.065 -0.4933 -0.2301  1.1744
  595TIP3   OH2 1727   6.197   5.001   0.941  0.4071  0.2898 -0.5803
  595TIP3    H1 1728   6.272   5.010   1.000 -1.1741  1.0884  1.4757
  595TIP3    H2 1729   6.150   4.924   0.973 -1.2161  1.5282  0.1767
  596TIP3   OH2 1730   0.401   7.199   3.108  0.8627  0.4709  0.3018
  596TIP3    H1 1731   0.452   7.136   3.160 -0.0759 -0.7154 -0.1737
  596TIP3    H2 1732   0.350   7.145   3.048  0.1845  1.7118 -0.2756
  597TIP3   OH2 1733   7.304   1.308   1.778 -0.0935 -0.5040 -0.1370
  597TIP3    H1 1734   7.352   1.259   1.845 -1.3460 -2.0741 -0.3457
  597TIP3    H2 1735   7.359   1.300   1.699  0.2255 -0.6542  0.0974
  598TIP3   OH2 1736   7.591   7.804   3.235 -0.3355 -0.2505  0.1328
  598TIP3    H1 1737   7.542   7.884   3.217 -0.2808 -0.3298 -0.3898
  598TIP3    H2 1738   7.577   7.749   3.158 -0.1205 -0.6174  0.3523
  599TIP3   OH2 1739   3.498   7.609   3.342 -0.1490  0.4349 -0.5603
  599TIP3    H1 1740   3.559   7.614   3.416  0.3640  0.9006 -1.0111
  599TIP3    H2 1741   3.512   7.521   3.306  0.5610  0.6915 -0.9170
  600TIP3   OH2 1742   2.533   2.938   1.291  0.3149 -0.3514 -0.4077
  600TIP3    H1 1743   2.491   2.977   1.214 -0.9680 -0.9624 -0.0540
  600TIP3    H2 1744   2.625   2.961   1.282 -0.1703  1.6421 -0.8833
  601TIP3   OH2 1745   0.048   7.729   3.390  0.1900 -0.6353  0.1904
  601TIP3    H1 1746   0.071   7.641   3.362  0.1883 -0.2132 -1.2450
  601TIP3    H2 1747  -0.017   7.759   3.326 -1.2313 -0.2501  1.7206
  602TIP3   OH2 1748   4.789   6.976   3.872  0.0535  0.6405 -0.4549
  602TIP3    H1 1749   4.810   6.940   3.958 -3.5250  0.0576  0.3685
  602TIP3    H2 1750   4.762   6.899   3.820 -1.8440  1.3800 -0.6570
  603TIP3   OH2 1751   3.789   5.495   0.676 -0.3496  0.9930  0.4977
  603TIP3    H1 1752   3.740   5.438   0.617  0.0625  0.1632  0.9394
  603TIP3    H2 1753   3.722   5.540   0.726 -0.7037 -0.6181  1.5585
  604TIP3   OH2 1754   7.910   4.454   3.942 -0.4069  0.1081 -0.3273
  604TIP3    H1 1755   7.883   4.546   3.943 -1.5420 -0.2121  1.0708
  604TIP3    H2 1756   7.999   4.456   3.905  1.2480  2.2956  3.2006
  605TIP3   OH2 1757   3.321   4.623   0.900 -0.0373 -0.3206  0.1831
  605TIP3    H1 1758   3.263   4.664   0.965  0.9474  0.3065  0.7028
  605TIP3    H2 1759   3.288   4.654   0.816 -1.1262 -0.8673  0.3857
  606TIP3   OH2 1760   2.401   4.862   0.606 -0.0302 -0.1133 -0.0880
  606TIP3    H1 1761   2.491   4.851   0.639 -0.0055  0.2944 -0.0240
  606TIP3    H2 1762   2.350   4.800   0.657  0.3984 -1.1969 -0.9102
  607TIP3   OH2 1763   6.082   2.369   2.023 -0.2253 -0.0217  0.2256
  607TIP3    H1 1764   6.014   2.375   2.090  0.7820  0.8961  1.2115
  607TIP3    H2 1765   6.164   2.371   2.072  0.5380 -1.2654 -0.9231
  608TIP3   OH2 1766   3.726   4.006   3.560 -0.8140 -0.4470  0.3820
  608TIP3    H1 1767   3.797   3.967   3.610 -0.0803  0.1031 -0.2252
  608TIP3    H2 1768   3.699   3.937   3.500  0.5261 -0.0286 -0.7361
  609TIP3   OH2 1769   5.240   3.257   0.408  0.4675  0.0658 -0.2271
  609TIP3    H1 1770   5.304   3.192   0.438 -0.3994 -0.9791 -0.5831
  609TIP3    H2 1771   5.174   3.206   0.360 -0.4360  1.1638 -0.1950
  610TIP3   OH2 1772   5.394   1.878   0.531  0.0520  0.1638 -0.8201
  610TIP3    H1 1773   5.377   1.922   0.447 -1.0027 -0.6941 -1.0733
  610TIP3    H2 1774   5.309   1.843   0.557  0.8513 -1.7359 -0.6280
  611TIP3   OH2 1775   5.408   7.760   2.205 -0.6796  0.5680 -0.1311
  611TIP3    H1 1776   5.345   7.788   2.271 -1.1690 -1.2566  0.2290
  611TIP3    H2 1777   5.400   7.825   2.135 -2.7224  0.5710  0.0543
  612TIP3   OH2 1778   6.290   4.438   3.911 -0.4550 -0.4075 -1.0859
  612TIP3    H1 1779   6.214   4.437   3.852  0.0556  0.0871 -1.7769
  612TIP3    H2 1780   6.255   4.414   3.996 -1.1925 -1.3147 -1.6201
  613TIP3   OH2 1781   2.466   6.385   3.922  0.2729  0.0378  0.5033
  613TIP3    H1 1782   2.491   6.354   4.009 -1.8966 -0.4358  1.0207
  613TIP3    H2 1783   2.384   6.340   3.903  1.0399 -0.4302 -2.1317
  614TIP3   OH2 1784   4.339   0.428   6.449 -0.0073 -0.7077 -0.2661
  614TIP3    H1 1785   4.288   0.413   6.528  0.1662  0.3645  0.0505
  614TIP3    H2 1786   4.339   0.343   6.405 -1.9097 -0.7852 -0.1860
  615TIP3   OH2 1787   6.728   3.228   1.482 -0.1707  0.1139  0.1797
  615TIP3    H1 1788   6.676   3.198   1.407  0.0450  0.7169 -0.2203
  615TIP3    H2 1789   6.779   3.152   1.508 -0.3646 -0.1451 -0.1833
  616TIP3   OH2 1790   3.260   3.571   2.621  0.1579  0.1148 -0.1455
  616TIP3    H1 1791   3.208   3.622   2.683 -1.3153  1.2178 -2.1823
  616TIP3    H2 1792   3.223   3.483   2.624 -1.1711  0.6307 -0.7877
  617TIP3   OH2 1793   0.997   7.726   5.385 -1.2416  0.0803 -0.4950
  617TIP3    H1 1794   1.085   7.761   5.402 -0.2777 -0.5339 -3.4973
  617TIP3    H2 1795   0.974   7.679   5.464  1.3750 -0.1190  0.2346
  618TIP3   OH2 1796   3.111   0.254   5.130 -0.7239 -0.2284 -0.1193
  618TIP3    H1 1797   3.168   0.330   5.139 -1.0084  0.3034 -2.1984
  618TIP3    H2 1798   3.161   0.181   5.166  0.9249  0.3784 -1.0910
  619TIP3   OH2 1799   7.064   0.908   6.348  0.4532  0.5235  0.3575
  619TIP3    H1 1800   7.116   0.875   6.421 -0.3972  0.0808  0.7802
  619TIP3    H2 1801   7.081   0.846   6.277 -0.7698 -0.5949  1.0067
  620TIP3   OH2 1802   2.642   0.163   4.849 -0.0831  0.4090 -0.1227
  620TIP3    H1 1803   2.575   0.213   4.895 -0.3610  1.3857 -1.5078
  620TIP3    H2 1804   2.628   0.073   4.877  1.7159  1.1972  4.0488
  621TIP3   OH2 1805   5.000   6.303   0.942  0.0971  0.0912  0.6719
  621TIP3    H1 1806   4.927   6.250   0.912 -0.1124  0.8300 -0.1478
  621TIP3    H2 1807   4.963   6.390   0.957  0.4178  0.0092  2.0839
  622TIP3   OH2 1808   2.222   0.824   0.570  0.5487 -0.2518 -0.3548
  622TIP3    H1 1809   2.254   0.857   0.486  0.4588 -0.6602 -0.5542
  622TIP3    H2 1810   2.299   0.824   0.626  0.7788 -0.6748 -0.6587
  623TIP3   OH2 1811   2.820   1.579   4.013  0.4433  0.6648 -0.0484
  623TIP3    H1 1812   2.865   1.497   3.995  1.2263  1.1821 -0.4808
  623TIP3    H2 1813   2.742   1.553   4.063  0.9127 -0.2895  0.2069
  624TIP3   OH2 1814   8.127   5.192   2.812  0.0429  0.0018  0.3079
  624TIP3    H1 1815   8.209   5.185   2.861  1.4507 -0.8096 -1.9950
  624TIP3    H2 1816   8.132   5.277   2.770  0.7477 -0.8537 -1.4538
  625TIP3   OH2 1817   0.539   7.376   1.793 -0.8049  0.1589 -0.6234
  625TIP3    H1 1818   0.496   7.382   1.708  0.5886  0.0413 -1.3608
  625TIP3    H2 1819   0.626   7.339   1.774 -0.5850 -0.1582  0.8857
  626TIP3   OH2 1820   1.137   2.236   2.025  0.2742 -0.6990  0.3281
  626TIP3    H1 1821   1.192   2.256   2.100  2.0068  1.1151 -1.3043
  626TIP3    H2 1822   1.114   2.321   1.988  1.5598 -1.4640 -2.5424
  627TIP3   OH2 1823   7.865   0.547   1.200  0.4090 -0.2747  0.4210
  627TIP3    H1 1824   7.942   0.491   1.187  1.0263  0.9472 -1.6815
  627TIP3    H2 1825   7.901   0.635   1.209 -0.7366  0.2988 -0.4243
  628TIP3   OH2 1826   3.509   5.515   3.227 -0.4052 -0.2064 -0.4148
  628TIP3    H1 1827   3.556   5.562   3.296 -0.5045 -0.3683 -0.2339
  628TIP3    H2 1828   3.575   5.501   3.159 -0.9193  2.1707 -1.4951
  629TIP3   OH2 1829   2.996   1.179   4.291  0.1600 -0.3168 -0.1358
  629TIP3    H1 1830   2.965   1.136   4.211 -1.4499 -1.0866  0.8629
  629TIP3    H2 1831   2.996   1.110   4.357  0.5213  0.5385  0.7819
  630TIP3   OH2 1832   1.564   3.335   5.705 -0.2416 -0.2748  0.0261
  630TIP3    H1 1833   1.586   3.428   5.716  2.3618 -1.0161  2.5849
  630TIP3    H2 1834   1.502   3.317   5.776  0.1277 -0.6784  0.2532
  631TIP3   OH2 1835   1.509   3.457   4.619 -0.4071  0.4974 -0.4003
  631TIP3    H1 1836   1.499   3.526   4.685  0.9225  0.7706 -0.4561
  631TIP3    H2 1837   1.488   3.499   4.536  0.2184  0.7984 -0.4119
  632TIP3   OH2 1838   2.243   4.743   0.052 -0.6416 -0.4403  0.1551
  632TIP3    H1 1839   2.161   4.782   0.023 -0.7384  0.1069  1.1162
  632TIP3    H2 1840   2.243   4.754   0.147  1.3767  1.3376  0.0581
  633TIP3   OH2 1841   6.755   0.697   5.169  0.0664 -0.0611  0.2554
  633TIP3    H1 1842   6.709   0.762   5.222  0.6704  2.2709 -1.9172
  633TIP3    H2 1843   6.847   0.707   5.193  0.2680  0.5673 -0.7528
  634TIP3   OH2 1844   3.147   6.639   5.059 -0.0888  0.4151  0.0252
  634TIP3    H1 1845   3.113   6.723   5.089 -1.8816 -0.1132 -0.4341
  634TIP3    H2 1846   3.238   6.638   5.089  0.2549  2.8814 -0.7579
  635TIP3   OH2 1847   4.046   4.125   3.909 -0.3074 -0.0168  0.7047
  635TIP3    H1 1848   3.980   4.177   3.864  0.8430  1.3835  0.5825
  635TIP3    H2 1849   4.057   4.167   3.994  2.0507  1.2055 -0.1384
  636TIP3   OH2 1850   1.513   3.063   0.574  0.3402  0.1153  0.3893
  636TIP3    H1 1851   1.480   2.975   0.557 -1.0826  0.4822  1.0901
  636TIP3    H2 1852   1.570   3.053   0.650  4.2743 -0.9970 -2.4357
  637TIP3   OH2 1853   0.480   0.465   0.427  0.0546 -0.0551  0.3945
  637TIP3    H1 1854   0.420   0.537   0.407 -0.6316 -0.7309 -0.0394
  637TIP3    H2 1855   0.475   0.455   0.522  0.0152  0.3557  0.4354
  638TIP3   OH2 1856   5.778   1.299   1.103  0.1174 -0.2722 -0.2361
  638TIP3    H1 1857   5.730   1.309   1.186 -1.3764 -0.6940 -1.0206
  638TIP3    H2 1858   5.870   1.295   1.129 -0.3534 -0.9286  1.4500
  639TIP3   OH2 1859   1.471   1.917   6.610 -0.1039 -0.2142  0.1451
  639TIP3    H1 1860   1.476   2.005   6.573  2.4108 -0.2419  0.2000
  639TIP3    H2 1861   1.484   1.929   6.704  0.2769 -0.6157  0.1508
  640TIP3   OH2 1862   2.747   1.248   6.317  0.0958 -0.0979  0.0283
  640TIP3    H1 1863   2.829   1.200   6.328  1.3090  1.9277  0.3244
  640TIP3    H2 1864   2.750   1.315   6.385 -1.1048  0.9765 -0.9439
  641TIP3   OH2 1865   3.060  -0.020   6.017 -0.3426  0.2686  0.2095
  641TIP3    H1 1866   3.072   0.051   6.080  2.0300 -0.3612  0.5615
  641TIP3    H2 1867   3.035   0.024   5.936  0.9943  1.5116  0.4434
  642TIP3   OH2 1868   3.822   1.765   5.733  0.1528 -0.4870 -0.4031
  642TIP3    H1 1869   3.767   1.714   5.792 -0.7040  1.3782  0.5005
  642TIP3    H2 1870   3.777   1.849   5.726  1.7091  0.2964 -1.5054
  643TIP3   OH2 1871   5.929   1.447   6.463  0.2925  0.3035 -0.4095
  643TIP3    H1 1872   5.895   1.384   6.399  1.5214  1.0994 -1.9047
  643TIP3    H2 1873   5.853   1.469   6.518 -0.8710 -0.2066 -1.7580
  644TIP3   OH2 1874   6.604   1.822   6.182 -0.3266 -0.0123  0.2924
  644TIP3    H1 1875   6.636   1.753   6.125 -0.0966  0.1088  0.2757
  644TIP3    H2 1876   6.594   1.898   6.125  0.8948  0.4024  0.6141
  645TIP3   OH2 1877   2.235   5.443   2.280 -0.7206  1.0893 -0.0972
  645TIP3    H1 1878   2.248   5.526   2.234 -0.4188  1.2254  0.2276
  645TIP3    H2 1879   2.261   5.376   2.217  1.6038  1.3425  0.4849
  646TIP3   OH2 1880   5.873   0.150   0.464  0.6633  0.1067 -0.1138
  646TIP3    H1 1881   5.935   0.183   0.529  1.3499 -2.3981  0.6108
  646TIP3    H2 1882   5.875   0.055   0.475 -1.7639 -0.1828 -1.5130
  647TIP3   OH2 1883   5.184   4.018   6.247  0.1533  0.0590 -0.3795
  647TIP3    H1 1884   5.145   4.068   6.176 -0.8654 -1.1106 -0.6889
  647TIP3    H2 1885   5.278   4.035   6.240 -0.0718  1.0806 -1.1086
  648TIP3   OH2 1886   2.365   3.908   2.654  0.7060  0.3516  0.0070
  648TIP3    H1 1887   2.386   3.994   2.618  0.2163  0.4103 -0.1376
  648TIP3    H2 1888   2.350   3.924   2.747  1.3039  0.3080  0.1148
  649TIP3   OH2 1889   1.605   3.962   0.325  0.0233  0.4078  0.3383
  649TIP3    H1 1890   1.567   3.994   0.406  1.7498  0.6058  1.1131
  649TIP3    H2 1891   1.626   4.041   0.275 -1.0994  0.2854 -0.3500
  650TIP3   OH2 1892   7.013   7.421   1.491  0.5189  0.0685  0.2377
  650TIP3    H1 1893   7.061   7.401   1.571  0.2199 -0.2909  0.3292
  650TIP3    H2 1894   7.016   7.517   1.484 -1.6411  0.3594  2.0767
  651TIP3   OH2 1895   7.383   2.043   4.442  0.0856 -0.6875  0.2468
  651TIP3    H1 1896   7.292   2.014   4.454  0.2100 -1.3919 -0.4246
  651TIP3    H2 1897   7.428   2.016   4.522 -0.2723 -0.4374  0.5349
  652TIP3   OH2 1898   3.734   6.045   1.112 -0.3823  0.0528  0.1684
  652TIP3    H1 1899   3.796   6.119   1.109  0.8622 -0.9489  0.2327
  652TIP3    H2 1900   3.691   6.046   1.027 -0.5624  0.9807  0.2518
  653TIP3   OH2 1901   7.184   0.280   1.819 -0.4471 -0.0102  0.3022
  653TIP3    H1 1902   7.221   0.223   1.886  0.7740  0.8315  0.3848
  653TIP3    H2 1903   7.255   0.293   1.756 -1.0950  0.4202 -0.3580
  654TIP3   OH2 1904   2.192   3.685   0.369 -0.1888 -0.3751  0.2464
  654TIP3    H1 1905   2.157   3.652   0.452 -1.8134  0.0307 -0.2333
  654TIP3    H2 1906   2.201   3.607   0.314 -0.4259 -0.4761  0.3494
  655TIP3   OH2 1907   8.201   1.945   5.580  0.3538 -0.2891 -0.1590
  655TIP3    H1 1908   8.204   1.867   5.526  2.5007  0.4157 -1.1799
  655TIP3    H2 1909   8.230   1.916   5.666 -2.2067 -1.2291  0.4872
  656TIP3   OH2 1910   2.753   5.288   4.882  0.2976  0.0348  0.4595
  656TIP3    H1 1911   2.814   5.311   4.812  2.5753  3.0191  3.1299
  656TIP3    H2 1912   2.686   5.357   4.880  0.4558  0.2295  1.2370
  657TIP3   OH2 1913   0.535   3.439   0.905  0.9411  0.3428 -0.2281
  657TIP3    H1 1914   0.488   3.517   0.935  1.7900  0.4580  0.8617
  657TIP3    H2 1915   0.498   3.367   0.955 -1.5883 -0.4582 -2.9618
  658TIP3   OH2 1916   7.853   2.773   3.308 -1.2427 -0.2244  0.6066
  658TIP3    H1 1917   7.765   2.774   3.271 -1.2797 -0.1828  0.6966
  658TIP3    H2 1918   7.907   2.734   3.239 -1.0524  1.1574 -0.0695
  659TIP3   OH2 1919   3.201   7.422   1.072 -0.4438  0.1209 -0.0715
  659TIP3    H1 1920   3.115   7.384   1.053 -0.4140 -0.4750  0.8977
  659TIP3    H2 1921   3.220   7.478   0.997 -1.0995 -0.7540 -0.9131
  660TIP3   OH2 1922   0.108   4.195   0.522 -0.7010 -0.2551  0.6761
  660TIP3    H1 1923   0.055   4.222   0.597 -0.8401  1.2041  0.0970
  660TIP3    H2 1924   0.078   4.253   0.451  0.1089 -0.9401 -0.2403
  661TIP3   OH2 1925   0.776   1.287   2.365 -0.5370 -0.4402 -0.2849
  661TIP3    H1 1926   0.747   1.363   2.415  1.5619  0.2697 -0.0724
  661TIP3    H2 1927   0.856   1.258   2.408 -0.3070 -1.6660 -1.4599
  662TIP3   OH2 1928   7.236   5.923   1.910  0.7129  0.0360 -0.1653
  662TIP3    H1 1929   7.262   5.869   1.836  1.3328  2.2104 -1.6256
  662TIP3    H2 1930   7.209   5.860   1.977  2.6169 -2.1129 -1.2602
  663TIP3   OH2 1931   5.262   7.641   6.088  0.4715 -0.1206  0.0622
  663TIP3    H1 1932   5.176   7.603   6.108 -0.0168 -0.5175 -2.4360
  663TIP3    H2 1933   5.245   7.735   6.082  0.8935  0.1793  2.4676
  664TIP3   OH2 1934   1.157   0.474   1.885  0.8552 -0.1136  0.1432
  664TIP3    H1 1935   1.069   0.450   1.914  1.4995 -1.5375  1.0574
  664TIP3    H2 1936   1.151   0.567   1.864 -0.5671  0.1186  1.3963
  665TIP3   OH2 1937   6.256   5.757   3.122 -0.6839 -0.0780 -0.5473
  665TIP3    H1 1938   6.256   5.709   3.039 -1.9024  0.6610 -1.0091
  665TIP3    H2 1939   6.180   5.815   3.116 -1.0307 -0.2766  1.2472
  666TIP3   OH2 1940   1.095   2.343   4.414 -0.4787 -0.3300 -0.6929
  666TIP3    H1 1941   1.024   2.319   4.355  0.8939 -1.0611 -2.1277
  666TIP3    H2 1942   1.159   2.388   4.358  0.3786 -0.0580  0.4557
  667TIP3   OH2 1943   2.174   4.691   5.575 -0.1245 -0.7834  0.0623
  667TIP3    H1 1944   2.256   4.730   5.545  0.3756 -1.0490  1.0305
  667TIP3    H2 1945   2.196   4.600   5.596 -0.4912 -0.6834  0.9488
  668TIP3   OH2 1946   5.754   4.283   3.857 -0.4777 -0.0799  0.6660
  668TIP3    H1 1947   5.668   4.243   3.844 -0.3524 -0.1298 -0.0902
  668TIP3    H2 1948   5.806   4.253   3.782  0.5460 -0.9611  1.6915
  669TIP3   OH2 1949   7.426   0.606   4.005 -0.9456  0.3354 -0.1740
  669TIP3    H1 1950   7.408   0.697   4.030  1.4549  0.9170 -0.3213
  669TIP3    H2 1951   7.424   0.607   3.910  2.9017  1.2572 -0.3988
  670TIP3   OH2 1952   2.675   1.852   1.102 -0.4581  0.1696  0.2468
  670TIP3    H1 1953   2.642   1.895   1.023 -0.6260  2.8358  1.6372
  670TIP3    H2 1954   2.665   1.759   1.085 -1.8241  0.6920 -2.2827
  671TIP3   OH2 1955   3.300   0.391   3.838  0.3478  0.3626 -0.0232
  671TIP3    H1 1956   3.292   0.345   3.754  2.1906 -0.6336  0.2836
  671TIP3    H2 1957   3.226   0.451   3.840 -1.1074 -1.2987 -1.2775
  672TIP3   OH2 1958   0.669   4.363   2.179  0.5529  0.1106 -0.1797
  672TIP3    H1 1959   0.677   4.306   2.102 -3.2949 -0.3324 -0.4169
  672TIP3    H2 1960   0.662   4.302   2.252 -1.9105  0.2472 -0.2473
  673TIP3   OH2 1961   5.997   4.316   3.046  0.2027  0.3447 -0.2463
  673TIP3    H1 1962   6.037   4.339   3.130 -0.5634  0.6707  0.0468
  673TIP3    H2 1963   6.065   4.333   2.981  0.9096 -0.2135  0.3368
  674TIP3   OH2 1964   5.492   7.462   0.268 -0.5970  0.0165  0.1318
  674TIP3    H1 1965   5.438   7.524   0.317  1.4470  0.6570  1.6945
  674TIP3    H2 1966   5.481   7.379   0.314 -4.1636 -1.2512 -2.5663
  675TIP3   OH2 1967   1.481   3.209   3.640  0.1793  0.3575 -0.1197
  675TIP3    H1 1968   1.422   3.164   3.579 -1.1034  0.9352  0.6490
  675TIP3    H2 1969   1.544   3.253   3.583  2.3275 -3.3185 -0.9314
  676TIP3   OH2 1970   7.654   0.690   4.104 -0.0124  0.1845 -0.7811
  676TIP3    H1 1971   7.566   0.651   4.108  0.7464 -1.5308  0.8865
  676TIP3    H2 1972   7.664   0.715   4.013 -1.0697 -2.5206 -1.7700
  677TIP3   OH2 1973   4.410   0.998   3.443 -0.1810  0.1961 -0.5586
  677TIP3    H1 1974   4.375   1.060   3.507  1.4021  2.3432 -1.6380
  677TIP3    H2 1975   4.379   1.032   3.359 -0.1895 -1.1654 -1.1352
  678TIP3   OH2 1976   4.725   6.633   5.087  0.4944 -0.2869  0.4617
  678TIP3    H1 1977   4.639   6.638   5.129  0.0951 -2.5027  0.0541
  678TIP3    H2 1978   4.708   6.589   5.003  1.9385 -0.2623  0.1322
  679TIP3   OH2 1979   2.807   2.670   2.203 -0.3494 -0.4880  0.4657
  679TIP3    H1 1980   2.865   2.652   2.277  0.3108 -1.8089 -0.3440
  679TIP3    H2 1981   2.720   2.680   2.242 -0.0751 -1.5227  1.3865
  680TIP3   OH2 1982   8.085   6.912   0.275 -0.4456 -0.1975  0.2363
  680TIP3    H1 1983   8.002   6.959   0.263  0.0350  0.8001  0.6609
  680TIP3    H2 1984   8.109   6.930   0.366  1.4055  1.5028 -0.5304
  681TIP3   OH2 1985   6.814   3.788   6.720 -0.1464 -0.2886  0.2740
  681TIP3    H1 1986   6.893   3.809   6.770  0.5795  0.5968 -1.1830
  681TIP3    H2 1987   6.800   3.695   6.736 -0.3082  0.0702  2.5769
  682TIP3   OH2 1988   4.565   3.143   5.655 -0.2851 -0.2696 -0.1851
  682TIP3    H1 1989   4.548   3.143   5.561 -0.6403  0.1885 -0.1250
  682TIP3    H2 1990   4.523   3.063   5.687 -0.8252 -0.0382 -0.3036
  683TIP3   OH2 1991   6.223   0.727   5.985  0.5046 -0.0564  0.8434
  683TIP3    H1 1992   6.265   0.709   5.901 -0.1534 -3.0277  1.0680
  683TIP3    H2 1993   6.176   0.809   5.971 -1.0609 -1.3246 -2.3126
  684TIP3   OH2 1994   8.139   5.507   0.554 -0.9212  0.6925  0.2667
  684TIP3    H1 1995   8.116   5.597   0.531 -1.5060  0.6168  0.5460
  684TIP3    H2 1996   8.094   5.454   0.489  1.3234  0.6681 -1.4075
  685TIP3   OH2 1997   8.027   2.532   3.518  0.5766 -0.3815  0.3899
  685TIP3    H1 1998   7.966   2.458   3.524  1.3502 -0.9432  2.2862
  685TIP3    H2 1999   7.975   2.608   3.541  0.4062 -0.7538  1.2746
  686TIP3   OH2 2000   6.959   4.411   1.421 -0.2575  0.4255 -0.5047
  686TIP3    H1 2001   7.001   4.330   1.391 -0.6663 -0.1245  0.3920
  686TIP3    H2 2002   7.032   4.465   1.453  0.1274  0.8142 -1.9553
  687TIP3   OH2 2003   5.805   7.142   3.227  0.2413 -0.1605 -0.0699
  687TIP3    H1 2004   5.804   7.177   3.138  2.6996 -0.3097 -0.2089
  687TIP3    H2 2005   5.897   7.121   3.244 -0.2446 -0.6175  2.3292
  688TIP3   OH2 2006   0.774   4.211   0.438  0.5982 -0.4337  1.0084
  688TIP3    H1 2007   0.770   4.128   0.485  0.8644 -0.3262  1.2277
  688TIP3    H2 2008   0.724   4.272   0.493 -0.6086 -0.7152  0.2586
  689TIP3   OH2 2009   8.201   4.915   2.619 -0.0859 -0.0451  0.1884
  689TIP3    H1 2010   8.291   4.945   2.621  0.1049 -0.6206  1.2397
  689TIP3    H2 2011   8.194   4.865   2.538  0.0085  1.5130 -0.8145
  690TIP3   OH2 2012   6.081   7.485   1.936 -0.1123 -0.0265 -0.6819
  690TIP3    H1 2013   6.026   7.542   1.882 -0.1466  0.3112 -0.2945
  690TIP3    H2 2014   6.167   7.526   1.936 -0.1325  0.0185 -0.4179
  691TIP3   OH2 2015   2.907   4.947   5.800 -0.1240  0.0162 -0.1837
  691TIP3    H1 2016   2.969   5.013   5.770 -0.8017  0.0470 -1.6399
  691TIP3    H2 2017   2.952   4.902   5.871  0.8233  1.2372  0.0374
  692TIP3   OH2 2018   7.405   4.620   5.184 -0.1332  0.0198 -0.0816
  692TIP3    H1 2019   7.355   4.651   5.109  0.6499  3.0239  0.5079
  692TIP3    H2 2020   7.462   4.693   5.207 -0.0069 -0.9424  3.1578
  693TIP3   OH2 2021   3.731   7.279   3.405 -0.1140 -0.0223  0.2450
  693TIP3    H1 2022   3.807   7.226   3.383 -0.2677 -0.1997  0.1385
  693TIP3    H2 2023   3.704   7.319   3.322 -0.0771  0.1192  0.3005
  694TIP3   OH2 2024   3.922   6.915   0.817 -0.0033  0.0018 -0.5387
  694TIP3    H1 2025   3.840   6.894   0.771  0.0858 -1.5658 -0.0215
  694TIP3    H2 2026   3.896   6.927   0.908  0.3927 -1.0152 -0.2777
  695TIP3   OH2 2027   4.299   4.514   1.351  0.6225 -0.4212 -0.4049
  695TIP3    H1 2028   4.313   4.555   1.266 -1.3955 -0.0038 -0.6011
  695TIP3    H2 2029   4.331   4.425   1.340  2.3073  0.2219 -0.9225
  696TIP3   OH2 2030   0.028   5.515   1.053 -0.0918 -0.0988  0.3577
  696TIP3    H1 2031   0.042   5.511   1.147 -0.2284  0.6816  0.4197
  696TIP3    H2 2032   0.030   5.609   1.032 -1.8066 -0.1302 -0.1428
  697TIP3   OH2 2033   5.837   3.760   1.163  0.2349 -0.2618  0.5237
  697TIP3    H1 2034   5.873   3.799   1.243  0.5561  0.0586  0.2281
  697TIP3    H2 2035   5.908   3.705   1.128 -0.5479 -1.9680  1.4811
  698TIP3   OH2 2036   5.888   1.430   6.036 -0.5512 -0.2025  0.5610
  698TIP3    H1 2037   5.820   1.498   6.042  0.1385  0.8923 -2.3658
  698TIP3    H2 2038   5.970   1.479   6.035  0.0891 -1.2700  0.5996
  699TIP3   OH2 2039   7.148   4.320   5.171  0.4034  0.4019 -0.1150
  699TIP3    H1 2040   7.142   4.375   5.249 -1.2283 -0.0988  0.1564
  699TIP3    H2 2041   7.091   4.363   5.108  1.5461  0.6815 -0.9914
  700TIP3   OH2 2042   2.647   2.725   5.240 -0.4168  0.2867 -0.6051
  700TIP3    H1 2043   2.699   2.732   5.319  0.3508 -0.0310 -1.0718
  700TIP3    H2 2044   2.656   2.634   5.212 -1.6860  0.0739 -0.3935
  701TIP3   OH2 2045   2.280   0.186   0.448 -0.4723 -0.2368  0.1351
  701TIP3    H1 2046   2.295   0.239   0.526  0.5899 -0.4703  0.0963
  701TIP3    H2 2047   2.236   0.245   0.387 -0.1459  0.3231  0.4376
  702TIP3   OH2 2048   4.165   5.047   4.332 -0.4033  0.2243 -0.1533
  702TIP3    H1 2049   4.230   4.982   4.360 -0.1304  0.4668 -0.2162
  702TIP3    H2 2050   4.196   5.074   4.245  0.5505  1.8333  0.6527
  703TIP3   OH2 2051   3.542   3.221   5.081  0.5729 -0.0964 -0.2133
  703TIP3    H1 2052   3.571   3.140   5.124  1.0545 -0.4103 -1.1119
  703TIP3    H2 2053   3.451   3.231   5.110  0.4119 -1.1213 -0.3043
  704TIP3   OH2 2054   6.955   6.383   5.802  0.7639 -0.0241  0.0139
  704TIP3    H1 2055   6.961   6.453   5.737 -1.2007  0.8918  0.7494
  704TIP3    H2 2056   6.956   6.429   5.887 -0.2241 -0.8992  0.5159
  705TIP3   OH2 2057   1.949   6.986   3.042 -0.2607  0.1729 -0.5705
  705TIP3    H1 2058   1.886   7.025   2.981 -0.0000  0.9742 -0.3495
  705TIP3    H2 2059   1.913   7.005   3.129 -1.2418 -1.9965 -0.4482
  706TIP3   OH2 2060   2.748   1.815   0.232  0.0365 -0.1074 -0.2627
  706TIP3    H1 2061   2.761   1.722   0.251 -0.5875 -0.3166 -0.8077
  706TIP3    H2 2062   2.820   1.859   0.276  0.1808 -0.8269  0.2338
  707TIP3   OH2 2063   5.849   4.989   4.913 -0.0351  0.1929  0.0746
  707TIP3    H1 2064   5.768   4.999   4.963  0.0626  0.3260  0.2049
  707TIP3    H2 2065   5.821   4.949   4.831 -0.1963 -0.0307  0.2365
  708TIP3   OH2 2066   3.399   4.022   3.135 -0.1636 -0.1814 -0.3445
  708TIP3    H1 2067   3.441   3.940   3.158  0.7167  0.5761  0.8742
  708TIP3    H2 2068   3.436   4.045   3.049  0.9336 -0.1940  0.1115
  709TIP3   OH2 2069   6.974   6.461   3.344 -0.4294  0.6363 -0.5594
  709TIP3    H1 2070   7.042   6.403   3.311  0.2995  0.5318  1.0227
  709TIP3    H2 2071   7.022   6.541   3.370 -0.8731  0.5225  0.6560
  710TIP3   OH2 2072   3.969   1.366   1.404  0.1161 -0.1069  0.2839
  710TIP3    H1 2073   4.024   1.434   1.366 -0.8383 -0.5268 -2.0391
  710TIP3    H2 2074   4.027   1.317   1.462  1.9894 -0.0232 -1.4374
  711TIP3   OH2 2075   5.841   6.038   1.585  0.2783 -1.0232 -0.6685
  711TIP3    H1 2076   5.867   5.958   1.632  0.5541  0.9856  2.9803
  711TIP3    H2 2077   5.881   6.109   1.636  0.6293  1.4982 -4.1405
  712TIP3   OH2 2078   0.719   6.708   4.805  0.0957  0.2005  0.2982
  712TIP3    H1 2079   0.655   6.719   4.875 -0.6628 -0.7997 -0.2070
  712TIP3    H2 2080   0.803   6.734   4.844 -0.3873  0.1080  1.4283
  713TIP3   OH2 2081   6.356   7.360   5.687  0.2235 -0.0417 -0.0917
  713TIP3    H1 2082   6.424   7.370   5.753  0.7777 -0.4785 -0.5880
  713TIP3    H2 2083   6.323   7.448   5.672 -1.4491 -0.1467  2.3434
  714TIP3   OH2 2084   3.357   4.179   2.236  0.0071 -0.4186  0.0824
  714TIP3    H1 2085   3.290   4.111   2.232 -0.4804  0.1129 -1.6544
  714TIP3    H2 2086   3.312   4.256   2.271  0.4158 -0.7790  1.4844
  715TIP3   OH2 2087   3.546   0.129   5.448  0.6612  0.2471 -0.0321
  715TIP3    H1 2088   3.610   0.132   5.378  2.2059 -0.0992  1.3085
  715TIP3    H2 2089   3.502   0.214   5.444  1.0456  0.4125 -1.1037
  716TIP3   OH2 2090   1.871   2.069   3.505  0.2277  0.5420  0.0887
  716TIP3    H1 2091   1.799   2.063   3.442 -0.6119 -1.5977  1.1658
  716TIP3    H2 2092   1.830   2.093   3.588  1.2432  2.6374  0.0761
  717TIP3   OH2 2093   4.671   5.551   5.975  0.1087 -0.2875  0.2739
  717TIP3    H1 2094   4.669   5.510   5.888 -0.3838  1.6944 -0.6850
  717TIP3    H2 2095   4.645   5.642   5.960 -0.7937 -0.0946  2.6308
  718TIP3   OH2 2096   3.757   2.262   1.996 -0.7019 -0.4640 -0.2176
  718TIP3    H1 2097   3.698   2.267   2.071  1.2549 -0.7599  1.4318
  718TIP3    H2 2098   3.835   2.218   2.029  1.2256  1.5470 -1.7252
  719TIP3   OH2 2099   5.401   2.623   4.314  0.1947  0.3065  0.2903
  719TIP3    H1 2100   5.497   2.629   4.316  0.3133 -1.1997  1.4098
  719TIP3    H2 2101   5.372   2.691   4.375  0.5468  0.8036 -0.0915
  720TIP3   OH2 2102   4.890   5.646   0.835  0.3232 -0.6974  0.2569
  720TIP3    H1 2103   4.815   5.692   0.799  0.9323 -1.2639 -1.9070
  720TIP3    H2 2104   4.966   5.693   0.800  0.9381 -1.9382 -0.1438
  721TIP3   OH2 2105   7.654   3.190   5.496 -0.1402  0.3548 -0.1939
  721TIP3    H1 2106   7.563   3.170   5.517 -0.3344 -0.6542 -1.8533
  721TIP3    H2 2107   7.657   3.190   5.401  0.7541  4.3608 -0.3239
  722TIP3   OH2 2108   1.647   6.077   1.112 -0.2690 -0.7419 -0.3477
  722TIP3    H1 2109   1.624   6.030   1.031 -1.0162  0.5829 -0.9348
  722TIP3    H2 2110   1.563   6.097   1.152 -0.1186  1.8306 -1.1523
  723TIP3   OH2 2111   2.685   3.662   0.601 -0.1216  0.8119 -0.4533
  723TIP3    H1 2112   2.681   3.753   0.570 -1.5088  0.9363  0.0250
  723TIP3    H2 2113   2.733   3.668   0.684 -1.1670  1.2849  0.1320
  724TIP3   OH2 2114   8.006   7.085   3.504 -0.0397  0.1847  0.1736
  724TIP3    H1 2115   8.007   7.106   3.597  1.2629  0.4540  0.1291
  724TIP3    H2 2116   8.001   7.170   3.461 -2.4641 -0.0143 -0.0262
  725TIP3   OH2 2117   7.478   5.571   5.009 -0.3460 -0.3837  0.1849
  725TIP3    H1 2118   7.491   5.535   5.096  2.5200 -0.0730  0.0051
  725TIP3    H2 2119   7.468   5.494   4.953 -0.1864 -0.6721  0.5485
  726TIP3   OH2 2120   3.871   1.838   0.730  0.3766 -0.4990 -1.0342
  726TIP3    H1 2121   3.903   1.830   0.820 -1.0335  0.1310 -0.4225
  726TIP3    H2 2122   3.853   1.748   0.702  0.0712 -0.6557 -0.3662
  727TIP3   OH2 2123   5.873   5.507   2.178  0.0716 -0.0298 -0.0292
  727TIP3    H1 2124   5.928   5.504   2.100  0.6000  0.0737  0.3291
  727TIP3    H2 2125   5.795   5.554   2.150  0.4554  0.4200 -0.3827
  728TIP3   OH2 2126   2.846   1.531   3.034  0.7253  0.2717  0.6595
  728TIP3    H1 2127   2.804   1.545   3.118  0.0151 -0.1026  0.3760
  728TIP3    H2 2128   2.813   1.446   3.005  1.4857  0.0903  0.3156
  729TIP3   OH2 2129   3.993   0.566   4.636 -0.4801  0.1228  0.4442
  729TIP3    H1 2130   4.072   0.530   4.677 -1.2352 -2.4031 -0.1151
  729TIP3    H2 2131   3.934   0.584   4.709  0.6030  2.2083  0.8823
  730TIP3   OH2 2132   3.396   4.653   4.060  0.1692  0.2583 -0.1962
  730TIP3    H1 2133   3.384   4.704   4.140 -3.1641 -0.0025 -0.4090
  730TIP3    H2 2134   3.441   4.573   4.088  0.5884  0.9313  1.0827
  731TIP3   OH2 2135   4.811   7.363   6.227 -0.1867  0.7611 -0.4518
  731TIP3    H1 2136   4.717   7.370   6.211 -0.5677  0.0201  1.2129
  731TIP3    H2 2137   4.834   7.275   6.197 -0.4003  0.3049  0.6573
  732TIP3   OH2 2138   1.334   3.762   3.477 -0.3120  0.4302  0.1343
  732TIP3    H1 2139   1.291   3.715   3.406 -1.8199 -0.5870  1.6513
  732TIP3    H2 2140   1.423   3.727   3.479  0.1479  1.3333 -1.9589
  733TIP3   OH2 2141   2.494   4.607   1.051  0.2254  0.4664 -0.8903
  733TIP3    H1 2142   2.444   4.544   0.999 -0.7736  0.3057  0.2074
  733TIP3    H2 2143   2.428   4.669   1.082  0.7500  0.3833  0.4277
  734TIP3   OH2 2144  -0.009   0.449   2.501 -0.6172  0.1002  0.1299
  734TIP3    H1 2145   0.025   0.483   2.583 -0.3104  1.8096 -0.6596
  734TIP3    H2 2146   0.069   0.422   2.452 -0.6165  1.1620 -0.4685
  735TIP3   OH2 2147   7.043   3.230   4.018 -0.7314 -0.1365 -0.1558
  735TIP3    H1 2148   7.104   3.164   3.986 -0.4809 -0.3371  0.7086
  735TIP3    H2 2149   7.046   3.300   3.953 -0.2283 -0.5273 -0.5536
  736TIP3   OH2 2150   4.077   2.009   0.078 -0.5324  0.0184  0.6856
  736TIP3    H1 2151   4.095   1.958  -0.001 -1.6412  1.5891 -0.6590
  736TIP3    H2 2152   3.986   1.987   0.100 -0.8926  1.0561  0.3122
  737TIP3   OH2 2153   8.200   5.765   3.583  0.3730 -0.1102 -0.4120
  737TIP3    H1 2154   8.143   5.784   3.658 -0.6923 -1.0716 -0.9360
  737TIP3    H2 2155   8.189   5.672   3.568 -0.1316  0.2140 -2.3025
  738TIP3   OH2 2156   4.098   0.825   5.273 -0.0959 -0.2438  0.0138
  738TIP3    H1 2157   4.078   0.748   5.220 -0.1901  0.3007 -0.7504
  738TIP3    H2 2158   4.013   0.867   5.287 -0.3771 -1.3727  2.2088
  739TIP3   OH2 2159   7.146   0.729   0.952 -0.0835  0.4054  0.2909
  739TIP3    H1 2160   7.102   0.814   0.958  0.7554  0.8666  0.1728
  739TIP3    H2 2161   7.131   0.687   1.036  0.2090  1.0372  0.6628
  740TIP3   OH2 2162   3.605   2.303   2.945  0.0567  0.1011  0.6674
  740TIP3    H1 2163   3.631   2.359   3.018  1.7958 -0.6473  0.6778
  740TIP3    H2 2164   3.669   2.322   2.876 -0.1045 -0.9232  0.2131
  741TIP3   OH2 2165   3.493   7.673   3.849 -0.2239 -0.2109 -0.3983
  741TIP3    H1 2166   3.509   7.626   3.931  0.9170 -0.5054 -0.7721
  741TIP3    H2 2167   3.399   7.667   3.836 -0.2974 -0.9888  0.3994
  742TIP3   OH2 2168   3.609   1.392   2.981 -0.2490 -0.2405 -0.4310
  742TIP3    H1 2169   3.557   1.463   3.018 -1.5973 -0.4983 -1.7617
  742TIP3    H2 2170   3.564   1.312   3.007 -0.0371 -0.5106 -0.8782
  743TIP3   OH2 2171   5.968   5.142   1.172  0.0202  0.7184  0.3832
  743TIP3    H1 2172   5.972   5.047   1.182  0.1954  0.7103  0.2400
  743TIP3    H2 2173   5.952   5.156   1.079  3.2513  0.8640 -0.2869
  744TIP3   OH2 2174   4.925   4.336   4.647  0.1611 -0.5052 -0.2979
  744TIP3    H1 2175   4.973   4.316   4.567 -2.0457 -0.7074 -1.6595
  744TIP3    H2 2176   4.896   4.251   4.680 -0.6164 -0.2893 -0.4084
  745TIP3   OH2 2177   4.933   3.393   3.439  0.4787 -0.1620  0.9118
  745TIP3    H1 2178   5.019   3.364   3.407  0.4143 -0.9709  1.4450
  745TIP3    H2 2179   4.953   3.454   3.510  0.6126  0.8338  0.0406
  746TIP3   OH2 2180   0.684   6.624   5.323  0.5283  0.0336 -0.3852
  746TIP3    H1 2181   0.707   6.717   5.326 -0.4052  0.2622 -0.0955
  746TIP3    H2 2182   0.716   6.589   5.407 -0.2504  0.3709  0.0618
  747TIP3   OH2 2183   4.703   0.858   0.180  0.2066 -0.0325 -0.3251
  747TIP3    H1 2184   4.695   0.764   0.193  1.5146 -0.3013 -1.2807
  747TIP3    H2 2185   4.661   0.896   0.257 -1.4152 -1.3538 -0.4987
  748TIP3   OH2 2186   6.746   0.231   0.734  0.1478 -0.4433 -0.4518
  748TIP3    H1 2187   6.754   0.263   0.645 -0.0488 -2.3720 -1.2029
  748TIP3    H2 2188   6.834   0.204   0.758  0.2140  0.1352 -0.0138
  749TIP3   OH2 2189   2.890   6.472   4.698  0.7714 -0.1080  0.2222
  749TIP3    H1 2190   2.893   6.465   4.793  0.2640 -0.9948  0.1810
  749TIP3    H2 2191   2.800   6.500   4.679  1.2718  1.4834  0.0731
  750TIP3   OH2 2192   1.175   5.559   3.027 -0.4251 -0.4514 -0.3570
  750TIP3    H1 2193   1.116   5.633   3.011  0.6524  0.2327 -1.3313
  750TIP3    H2 2194   1.178   5.551   3.122 -2.1791 -0.5960 -0.2793
  751TIP3   OH2 2195   6.123   4.241   0.218  0.3268 -0.8352  0.5086
  751TIP3    H1 2196   6.102   4.328   0.252 -0.2008 -0.6468 -0.2977
  751TIP3    H2 2197   6.051   4.185   0.249 -0.6872 -0.4674 -1.0817
  752TIP3   OH2 2198   7.293   5.711   1.722  0.3231  0.0117  0.2840
  752TIP3    H1 2199   7.226   5.732   1.657 -0.5592  0.3278  1.2693
  752TIP3    H2 2200   7.259   5.634   1.767 -1.7655  2.7382  3.9106
  753TIP3   OH2 2201   1.689   4.537   4.901 -0.3682 -0.0914 -0.3220
  753TIP3    H1 2202   1.776   4.575   4.891 -0.7587  0.4042 -2.1977
  753TIP3    H2 2203   1.629   4.608   4.878 -1.3552 -0.0437  2.1450
  754TIP3   OH2 2204   4.959   6.497   4.484 -0.5251  0.1663 -0.4389
  754TIP3    H1 2205   4.991   6.583   4.458  4.0765 -1.0476  0.3021
  754TIP3    H2 2206   4.933   6.507   4.575 -0.2579  0.7930 -0.4309
  755TIP3   OH2 2207   6.454   6.065   6.528  0.2672  0.2799  0.3278
  755TIP3    H1 2208   6.425   6.098   6.444  0.0657 -0.5549  0.0619
  755TIP3    H2 2209   6.527   6.006   6.507 -0.5107 -0.8163  0.6178
  756TIP3   OH2 2210   0.046   5.276   5.081  0.0119  0.2435 -0.8989
  756TIP3    H1 2211   0.063   5.362   5.044 -0.4880  0.7995  0.1414
  756TIP3    H2 2212   0.024   5.221   5.005 -1.7464  1.5291 -1.3793
  757TIP3   OH2 2213   6.150   7.190   5.405 -0.0507  0.1197  0.4839
  757TIP3    H1 2214   6.205   7.117   5.431  0.3242  1.1910  3.1184
  757TIP3    H2 2215   6.065   7.172   5.446  0.4006  1.6320  2.2830
  758TIP3   OH2 2216   0.729   2.060   0.847  0.3823 -0.0469  0.4317
  758TIP3    H1 2217   0.784   1.991   0.810  1.5308  1.4817 -0.9120
  758TIP3    H2 2218   0.675   2.089   0.773  1.3412  1.7875  0.3871
  759TIP3   OH2 2219   5.681   1.220   5.150 -0.1597 -0.2115  0.4749
  759TIP3    H1 2220   5.741   1.256   5.085 -0.6628 -0.1102  0.0556
  759TIP3    H2 2221   5.686   1.281   5.224 -0.6068  0.4502 -0.0199
  760TIP3   OH2 2222   5.124   2.539   4.355 -0.0081  0.5098  0.1608
  760TIP3    H1 2223   5.141   2.464   4.412  0.0575  0.0276 -0.4877
  760TIP3    H2 2224   5.206   2.587   4.352 -0.5339  1.6260  2.0243
  761TIP3   OH2 2225   6.828   7.414   6.756  0.1287 -0.1236  0.3808
  761TIP3    H1 2226   6.895   7.347   6.772 -0.2711 -0.7328 -0.4073
  761TIP3    H2 2227   6.794   7.392   6.670 -0.5314  0.6652  0.4384
  762TIP3   OH2 2228   5.174   0.799   3.713  0.4100  0.2165  0.3580
  762TIP3    H1 2229   5.209   0.858   3.780  0.5058 -1.9519  2.3774
  762TIP3    H2 2230   5.145   0.722   3.763 -1.2610 -0.7540 -1.9387
  763TIP3   OH2 2231   1.133   2.334   2.980  0.3073  0.2046 -0.3999
  763TIP3    H1 2232   1.108   2.336   2.888  0.0814  0.2097 -0.3399
  763TIP3    H2 2233   1.072   2.394   3.023 -0.3021 -0.6121 -0.0797
  764TIP3   OH2 2234   1.038   7.418   1.444  0.1913 -0.1613 -0.6093
  764TIP3    H1 2235   1.065   7.337   1.488  0.4010  0.8210  1.1850
  764TIP3    H2 2236   1.080   7.414   1.358 -1.2980 -2.7746 -1.3329
  765TIP3   OH2 2237   1.317   0.267   1.262  0.1954  0.3955  0.3916
  765TIP3    H1 2238   1.384   0.224   1.314 -0.1701 -0.8667 -0.1408
  765TIP3    H2 2239   1.338   0.243   1.172 -0.7584  0.2676  0.1919
  766TIP3   OH2 2240   1.257   7.589   5.233  0.3181  0.2254 -0.0150
  766TIP3    H1 2241   1.316   7.651   5.275 -1.7358  0.6676  2.4636
  766TIP3    H2 2242   1.299   7.504   5.244  1.4518  0.7452 -0.1915
  767TIP3   OH2 2243   2.086   2.398   0.787 -0.4497 -0.2281  0.3644
  767TIP3    H1 2244   2.144   2.424   0.858 -0.1871 -1.2922  0.5580
  767TIP3    H2 2245   2.008   2.363   0.831 -0.4075 -0.6180  0.1367
  768TIP3   OH2 2246   5.885   2.448   1.754  0.2155 -0.6271  0.1117
  768TIP3    H1 2247   5.812   2.409   1.802  1.2895 -0.9688  1.5494
  768TIP3    H2 2248   5.945   2.479   1.822  0.6640  1.1459 -1.0008
  769TIP3   OH2 2249   7.747   0.543   5.992 -0.3464 -0.3542  0.2072
  769TIP3    H1 2250   7.696   0.469   5.959  0.0496 -0.7918  0.5576
  769TIP3    H2 2251   7.834   0.507   6.008 -0.0430  0.2862  0.0145
  770TIP3   OH2 2252   6.436   1.826   4.956 -0.0062 -0.3640 -0.4648
  770TIP3    H1 2253   6.417   1.748   4.902 -0.8818 -0.5245  0.0481
  770TIP3    H2 2254   6.444   1.897   4.893 -1.4904 -0.4658 -0.8025
  771TIP3   OH2 2255   4.063   0.646   5.076  0.3872 -0.0750 -0.5236
  771TIP3    H1 2256   3.986   0.655   5.021 -0.1564  0.2915  0.2755
  771TIP3    H2 2257   4.097   0.559   5.056 -0.0808 -0.1334 -1.0717
  772TIP3   OH2 2258   1.198   7.071   2.378 -0.5194 -0.2568  0.1728
  772TIP3    H1 2259   1.136   7.102   2.313  0.1482 -0.8554 -0.7794
  772TIP3    H2 2260   1.191   6.975   2.374  0.4151 -0.3343  0.0848
  773TIP3   OH2 2261   2.759   5.171   5.313  0.4832 -0.2267  0.5751
  773TIP3    H1 2262   2.784   5.093   5.363  0.3208 -1.5165 -1.2602
  773TIP3    H2 2263   2.842   5.213   5.291  0.6665 -0.7508  0.2488
  774TIP3   OH2 2264  -0.016   1.565   2.447  0.2455  0.3339  0.4659
  774TIP3    H1 2265   0.046   1.606   2.387  0.0199 -1.7916 -1.3677
  774TIP3    H2 2266   0.037   1.502   2.496 -0.5293 -2.6188 -2.1938
  775TIP3   OH2 2267   1.911   3.687   5.290 -0.5897  0.2299 -0.2735
  775TIP3    H1 2268   1.914   3.597   5.259 -1.5696  0.2268 -0.3982
  775TIP3    H2 2269   1.922   3.680   5.385 -1.0148 -0.0585 -0.2411
  776TIP3   OH2 2270   8.180   0.572   4.567  0.2648 -0.2033  0.8219
  776TIP3    H1 2271   8.220   0.499   4.615 -1.9743 -1.2666  1.2214
  776TIP3    H2 2272   8.088   0.548   4.560 -0.4497  2.3332  0.4352
  777TIP3   OH2 2273   6.920   0.941   4.868  0.5410  0.0717 -0.1568
  777TIP3    H1 2274   6.974   0.910   4.941  1.4135 -1.0883 -1.2589
  777TIP3    H2 2275   6.835   0.960   4.908  0.5247 -1.9892  0.9569
  778TIP3   OH2 2276   8.125   3.262   4.205  0.2287  0.1890 -0.1237
  778TIP3    H1 2277   8.177   3.241   4.283 -0.4481  0.6134  0.4523
  778TIP3    H2 2278   8.088   3.348   4.223 -2.4820 -0.9771  0.4954
  779TIP3   OH2 2279   2.297   6.640   2.672  0.4801 -0.4923  0.5472
  779TIP3    H1 2280   2.218   6.601   2.710 -0.2680  1.2958  0.9091
  779TIP3    H2 2281   2.346   6.674   2.747  1.5869 -1.5133  0.3163
  780TIP3   OH2 2282   2.024   6.620   4.066  0.4529 -0.1893 -0.1164
  780TIP3    H1 2283   2.097   6.566   4.097  0.8810  0.1618 -0.4812
  780TIP3    H2 2284   2.067   6.691   4.017 -0.1285  0.1320 -0.1644
  781TIP3   OH2 2285   5.985   2.954   4.314  0.1197 -0.3420 -0.0698
  781TIP3    H1 2286   5.943   2.875   4.280 -0.9402  0.6329 -1.1509
  781TIP3    H2 2287   5.996   2.937   4.408 -0.2271 -1.6981 -0.2498
  782TIP3   OH2 2288   0.375   6.183   4.067  0.5846  0.4420 -0.0928
  782TIP3    H1 2289   0.441   6.174   4.135  1.2499  3.6003 -0.1556
  782TIP3    H2 2290   0.422   6.166   3.985  0.9830  1.2394 -0.0370
  783TIP3   OH2 2291   8.029   4.274   4.413  0.4241  0.0110  0.3775
  783TIP3    H1 2292   8.076   4.349   4.450  0.6998 -0.7892  1.7625
  783TIP3    H2 2293   8.095   4.228   4.360  0.2023  0.8286 -0.6263
  784TIP3   OH2 2294   1.025   4.115   5.406  0.0483  0.4301  0.0097
  784TIP3    H1 2295   0.976   4.137   5.485 -0.1945 -0.6307  0.1689
  784TIP3    H2 2296   1.097   4.178   5.404  1.2688 -0.7826  2.1895
  785TIP3   OH2 2297   3.200   0.491   5.570  0.4263  0.8202 -0.4815
  785TIP3    H1 2298   3.210   0.586   5.578  1.0733  0.6918  0.4380
  785TIP3    H2 2299   3.215   0.458   5.658  5.2236 -0.5299 -1.4874
  786TIP3   OH2 2300   6.392   3.034   2.774 -0.0267 -0.2459 -0.7506
  786TIP3    H1 2301   6.314   2.985   2.748  0.8411 -1.2523 -1.6101
  786TIP3    H2 2302   6.391   3.111   2.718 -0.3624 -0.2984 -0.8217
  787TIP3   OH2 2303   0.875   3.159   1.100  0.5200  0.4148  0.4415
  787TIP3    H1 2304   0.875   3.197   1.012 -0.2273  0.4403  0.4423
  787TIP3    H2 2305   0.884   3.065   1.084  1.3651  0.5016  0.3900
  788TIP3   OH2 2306   6.994   0.419   4.315 -0.7210 -0.4262 -0.6948
  788TIP3    H1 2307   7.019   0.360   4.386 -0.4381 -0.3258 -0.7106
  788TIP3    H2 2308   7.075   0.432   4.265 -0.2092  1.6841  0.5244
  789TIP3   OH2 2309   2.739   4.209   4.439  0.2297  0.2365 -0.2373
  789TIP3    H1 2310   2.724   4.303   4.430 -0.8782  0.1950  0.8788
  789TIP3    H2 2311   2.745   4.177   4.349  0.4033  1.3424 -0.6322
  790TIP3   OH2 2312   1.895   3.513   0.848  0.4678  0.4806 -0.0302
  790TIP3    H1 2313   1.922   3.514   0.756  1.9769 -0.3527  0.3502
  790TIP3    H2 2314   1.961   3.566   0.892  2.9036 -3.1771  1.2227
  791TIP3   OH2 2315   0.306   4.999   3.178  0.1072  0.3979 -0.6082
  791TIP3    H1 2316   0.345   4.963   3.257  1.2985 -0.5977 -1.6121
  791TIP3    H2 2317   0.217   4.965   3.177  0.6303 -1.0478 -0.5765
  792TIP3   OH2 2318   3.891   4.273   0.005 -0.1991  0.0884  0.0594
  792TIP3    H1 2319   3.930   4.194  -0.031 -0.5929 -0.0936  0.0325
  792TIP3    H2 2320   3.887   4.257   0.099 -0.3712  0.0352  0.0432
  793TIP3   OH2 2321   1.341   3.847   2.732  0.0436 -0.3571 -0.5974
  793TIP3    H1 2322   1.422   3.876   2.773 -0.7758  0.8851  0.2126
  793TIP3    H2 2323   1.367   3.776   2.674  1.7391  0.1645 -0.5191
  794TIP3   OH2 2324   1.249   5.959   4.075 -0.1017 -0.1323  0.7618
  794TIP3    H1 2325   1.193   6.010   4.016  0.1054 -1.7267 -0.9064
  794TIP3    H2 2326   1.338   5.972   4.040  0.0750 -0.7912  0.9574
  795TIP3   OH2 2327   0.499   1.081   0.571  0.0577 -0.4467  0.0292
  795TIP3    H1 2328   0.577   1.110   0.619 -0.1427 -0.2140  0.2131
  795TIP3    H2 2329   0.531   1.062   0.482  0.2062  0.2535 -0.0698
  796TIP3   OH2 2330   7.854   3.639   2.570  0.1275  0.2858 -0.0596
  796TIP3    H1 2331   7.903   3.720   2.582  0.9509  0.2589 -2.6435
  796TIP3    H2 2332   7.911   3.583   2.517 -0.6996 -1.7396  1.0782
  797TIP3   OH2 2333   3.234   1.209   6.713 -0.6778  0.0825  0.1735
  797TIP3    H1 2334   3.194   1.283   6.668  1.3693  0.9659 -0.3269
  797TIP3    H2 2335   3.319   1.198   6.669  0.2701 -0.7314  2.1086
  798TIP3   OH2 2336   0.303   4.263   4.393  0.0830  0.3659 -0.7174
  798TIP3    H1 2337   0.305   4.253   4.488 -0.6943  0.3077 -0.7013
  798TIP3    H2 2338   0.293   4.357   4.379 -1.4385  0.2300 -0.6987
  799TIP3   OH2 2339   3.026   3.074   4.774  0.0921 -0.2896  0.3067
  799TIP3    H1 2340   3.109   3.034   4.802  0.3691 -0.0342 -0.1445
  799TIP3    H2 2341   3.052   3.147   4.718 -0.4516 -1.5670 -1.7030
  800TIP3   OH2 2342   6.142   1.022   3.406 -0.3464  0.1854  0.7356
  800TIP3    H1 2343   6.188   0.953   3.454 -0.2251  0.6721  1.3415
  800TIP3    H2 2344   6.138   1.095   3.468  2.1490  1.8040 -0.8166
  801TIP3   OH2 2345   3.027   7.374   3.879 -0.2861  0.0801  0.3728
  801TIP3    H1 2346   2.996   7.328   3.800  2.0823  0.4994 -0.8799
  801TIP3    H2 2347   3.016   7.466   3.858  1.1172  0.2182  0.1474
  802TIP3   OH2 2348   4.647   6.822   2.841 -0.0674 -0.9150 -0.6145
  802TIP3    H1 2349   4.742   6.820   2.854 -0.3328 -0.8617  1.8377
  802TIP3    H2 2350   4.623   6.733   2.817  0.5516 -1.0176 -0.8535
  803TIP3   OH2 2351   5.749   4.730   0.020  0.2382 -0.1105 -0.1274
  803TIP3    H1 2352   5.774   4.676  -0.056 -0.9449 -1.2271  0.2480
  803TIP3    H2 2353   5.661   4.700   0.043 -0.1330  1.4457  0.6091
  804TIP3   OH2 2354   1.422   5.445   6.405  0.0568  0.3218 -0.2530
  804TIP3    H1 2355   1.329   5.432   6.391 -0.0821  1.2239 -0.2118
  804TIP3    H2 2356   1.447   5.511   6.340  0.6790  0.0411 -0.3092
  805TIP3   OH2 2357   2.387   5.897   5.432 -0.3056 -0.5870  0.2723
  805TIP3    H1 2358   2.329   5.931   5.500  0.9479 -0.3496  1.2615
  805TIP3    H2 2359   2.405   5.972   5.375 -0.4221 -0.4964  0.3568
  806TIP3   OH2 2360   2.131   4.226   3.416  0.1089 -0.1103  0.0064
  806TIP3    H1 2361   2.153   4.318   3.431  2.3600 -0.5644 -0.2010
  806TIP3    H2 2362   2.072   4.228   3.341 -0.5524  1.2005  0.5260
  807TIP3   OH2 2363   0.997   2.173   2.771 -0.2435  0.0069  0.2659
  807TIP3    H1 2364   0.912   2.212   2.750 -0.9867 -1.2944  0.7452
  807TIP3    H2 2365   1.029   2.139   2.687  0.0542  0.9398 -0.0095
  808TIP3   OH2 2366   7.160   4.722   5.527 -0.5364 -0.0949 -0.3532
  808TIP3    H1 2367   7.160   4.679   5.612  0.7671  0.7142  0.0900
  808TIP3    H2 2368   7.117   4.806   5.542  1.4488  0.9288  0.0503
  809TIP3   OH2 2369   5.598   1.050   4.876  0.4052  0.0325 -0.3470
  809TIP3    H1 2370   5.526   0.986   4.877  1.1130 -0.8370 -1.6567
  809TIP3    H2 2371   5.657   1.020   4.945 -0.1645  0.3907  0.3153
  810TIP3   OH2 2372   8.160   5.868   1.054 -0.0629 -0.0451 -0.5354
  810TIP3    H1 2373   8.068   5.845   1.057  0.2134 -1.2657 -0.8713
  810TIP3    H2 2374   8.197   5.828   1.133  0.5876 -1.5793 -1.5677
  811TIP3   OH2 2375   4.734   6.161   0.332 -0.0999  0.0234 -0.2880
  811TIP3    H1 2376   4.666   6.195   0.390  0.6211  0.3233  0.4020
  811TIP3    H2 2377   4.693   6.157   0.246 -1.3938 -1.0196  0.3445
  812TIP3   OH2 2378   5.623   7.054   3.407 -0.7722 -0.5335 -0.1858
  812TIP3    H1 2379   5.678   6.975   3.408 -0.5220 -0.4206 -2.1345
  812TIP3    H2 2380   5.659   7.108   3.337  0.3139  2.3011  2.3665
  813TIP3   OH2 2381   4.842   1.889   1.327 -0.0561  0.2922  0.0907
  813TIP3    H1 2382   4.910   1.925   1.384 -0.3080  0.4250  0.3106
  813TIP3    H2 2383   4.783   1.963   1.310  1.3049  0.9081 -2.3261
  814TIP3   OH2 2384   5.019   0.047   3.780  0.0797 -0.2571 -0.0263
  814TIP3    H1 2385   5.052   0.016   3.864 -0.2313  0.4964  0.3814
  814TIP3    H2 2386   5.097   0.065   3.728  0.2892  0.0492  0.3909
  815TIP3   OH2 2387   3.973   3.683   0.549  0.4602 -0.2229  0.3020
  815TIP3    H1 2388   4.002   3.675   0.640 -0.5073  0.2542  0.6767
  815TIP3    H2 2389   3.974   3.777   0.531 -0.0372 -0.2535  0.0704
  816TIP3   OH2 2390   7.537   6.835   4.882  0.4197 -0.0963 -0.0867
  816TIP3    H1 2391   7.614   6.848   4.937 -0.0829  0.4078  0.5158
  816TIP3    H2 2392   7.463   6.856   4.939 -0.1951 -0.9947 -0.5134
  817TIP3   OH2 2393   7.977   0.778   2.645  0.1682  0.1949  0.1235
  817TIP3    H1 2394   7.888   0.748   2.623  0.5596 -0.9608  0.0335
  817TIP3    H2 2395   7.966   0.871   2.666 -1.0615  0.0855  0.0828
  818TIP3   OH2 2396   2.809   6.528   0.927  0.3343  0.0099 -0.3090
  818TIP3    H1 2397   2.716   6.511   0.913 -0.0061 -0.2092  1.8601
  818TIP3    H2 2398   2.854   6.465   0.869 -0.8467 -0.1978 -1.0341
  819TIP3   OH2 2399   2.812   7.454   1.700  0.1461  0.7739  0.6120
  819TIP3    H1 2400   2.821   7.387   1.767 -0.5541  0.3582  0.3100
  819TIP3    H2 2401   2.868   7.424   1.628 -0.8888  0.0013  0.1026
  820TIP3   OH2 2402   3.016   1.248   0.855  0.7986  0.2076 -1.1868
  820TIP3    H1 2403   3.041   1.284   0.769  2.7422  1.0615 -0.3368
  820TIP3    H2 2404   3.095   1.203   0.885  0.1037 -0.1916  0.0966
  821TIP3   OH2 2405   0.019   5.551   3.409 -0.7319 -0.4677  0.4796
  821TIP3    H1 2406   0.002   5.618   3.342 -2.0827  0.7136  1.9162
  821TIP3    H2 2407   0.079   5.593   3.470 -0.8966 -0.8755  0.9278
  822TIP3   OH2 2408   7.593   0.048   3.002  0.3732  0.0070 -0.1267
  822TIP3    H1 2409   7.646   0.127   3.012  0.6750 -0.1763 -0.2768
  822TIP3    H2 2410   7.503   0.080   3.002  0.4744  0.2942  0.3593
  823TIP3   OH2 2411   6.466   5.941   1.536 -0.2411 -0.1196  0.0164
  823TIP3    H1 2412   6.490   5.944   1.628  0.4234 -1.3155 -0.1017
  823TIP3    H2 2413   6.493   6.027   1.502 -1.4668  0.7489  1.1350
  824TIP3   OH2 2414   5.865   6.979   1.544  0.1490 -0.2221 -0.1448
  824TIP3    H1 2415   5.952   6.939   1.543  0.5230  0.5876 -1.1299
  824TIP3    H2 2416   5.823   6.948   1.464 -0.2408 -0.1165  0.0149
  825TIP3   OH2 2417   1.703   2.916   6.106 -0.1544  0.1150 -0.3411
  825TIP3    H1 2418   1.789   2.918   6.148 -1.5247 -1.5016  2.8634
  825TIP3    H2 2419   1.707   2.840   6.047 -0.3712 -2.2827  2.5089
  826TIP3   OH2 2420   1.766   6.531   3.618 -0.2102  0.5248 -0.2900
  826TIP3    H1 2421   1.711   6.454   3.603 -1.2657  1.5506 -2.0181
  826TIP3    H2 2422   1.719   6.582   3.684 -0.3097  0.4551 -0.3074
  827TIP3   OH2 2423   6.247   7.061   1.033 -0.2734 -0.1433 -0.3362
  827TIP3    H1 2424   6.335   7.042   1.065  0.6574  2.3182 -1.1972
  827TIP3    H2 2425   6.253   7.053   0.938 -0.4377  1.7262 -0.5584
  828TIP3   OH2 2426   6.242   2.091   1.445  0.0329 -0.0807 -0.3750
  828TIP3    H1 2427   6.320   2.135   1.479  1.1435 -0.2743 -2.4516
  828TIP3    H2 2428   6.268   1.999   1.436 -0.5093 -0.1989 -0.8184
  829TIP3   OH2 2429   6.280   7.568   6.116 -0.4204 -0.2238 -0.6432
  829TIP3    H1 2430   6.364   7.554   6.073  0.7010  0.0706  1.3731
  829TIP3    H2 2431   6.217   7.573   6.043  1.3437  0.0456 -2.2311
  830TIP3   OH2 2432   4.650   1.036   2.945  0.5531  0.2318  0.5935
  830TIP3    H1 2433   4.575   0.988   2.982 -0.2894 -0.0221 -1.3177
  830TIP3    H2 2434   4.619   1.127   2.939  0.8175  0.3392  0.8052
  831TIP3   OH2 2435   3.469   5.658   2.449  0.0873  0.4648  0.0798
  831TIP3    H1 2436   3.500   5.617   2.368  0.2598 -1.0871  0.8923
  831TIP3    H2 2437   3.545   5.659   2.506 -0.3143  0.5428  0.6186
  832TIP3   OH2 2438   3.591   4.355   5.024 -0.1530 -0.4491  0.6031
  832TIP3    H1 2439   3.593   4.269   4.981 -0.8697  0.1282 -0.6329
  832TIP3    H2 2440   3.638   4.413   4.964 -1.4183  0.4387  0.4511
  833TIP3   OH2 2441   2.619   1.995   5.605  0.3608 -0.2807 -0.1689
  833TIP3    H1 2442   2.554   1.924   5.604 -1.1662  1.0738 -1.1897
  833TIP3    H2 2443   2.639   2.007   5.698 -0.5278 -1.0137  0.1416
  834TIP3   OH2 2444   1.882   6.733   1.195  0.0274 -0.0894  0.7311
  834TIP3    H1 2445   1.970   6.743   1.157  0.1870  0.2521  1.1857
  834TIP3    H2 2446   1.835   6.680   1.130  0.6644 -0.5496  0.6267
  835TIP3   OH2 2447   4.770   4.350   3.592 -0.5728 -0.2334 -0.0423
  835TIP3    H1 2448   4.797   4.329   3.502 -0.2635 -1.0790  0.2418
  835TIP3    H2 2449   4.832   4.303   3.647  1.7503  3.2621  0.6924
  836TIP3   OH2 2450   4.092   4.346   6.262  0.4419 -0.0103  0.0871
  836TIP3    H1 2451   4.117   4.415   6.201  0.8466 -0.5918 -0.4105
  836TIP3    H2 2452   4.009   4.377   6.299 -0.6172 -0.3289 -1.8806
  837TIP3   OH2 2453   3.365   2.451   2.153  0.3933 -0.0896 -0.0123
  837TIP3    H1 2454   3.439   2.390   2.156 -0.2420 -0.8340  1.4101
  837TIP3    H2 2455   3.376   2.505   2.231  0.4017  0.9923 -0.7432
  838TIP3   OH2 2456   6.180   2.556   3.715 -0.4073  0.0614 -0.4252
  838TIP3    H1 2457   6.094   2.541   3.675  0.5298  0.3028 -2.6988
  838TIP3    H2 2458   6.209   2.470   3.744 -0.6728 -0.3285 -1.2903
  839TIP3   OH2 2459   3.490   7.509   1.182  0.0869  0.5525  0.6722
  839TIP3    H1 2460   3.423   7.501   1.115 -0.5303 -0.9027  1.4129
  839TIP3    H2 2461   3.464   7.585   1.234 -0.5581  0.4676  0.4803
  840TIP3   OH2 2462   1.533   7.762   0.076 -0.1211  0.8254 -0.1706
  840TIP3    H1 2463   1.574   7.849   0.084  1.4548  0.2524 -1.4788
  840TIP3    H2 2464   1.586   7.717   0.010  0.4954 -1.9048  1.9926
  841TIP3   OH2 2465   0.499   6.239   5.210  0.0273  0.2928  0.3299
  841TIP3    H1 2466   0.406   6.245   5.188 -1.0089 -1.0110  3.7171
  841TIP3    H2 2467   0.519   6.146   5.203  0.3502  0.2116  1.9983
  842TIP3   OH2 2468   1.447   2.835   0.104  0.0739 -0.5227 -0.0354
  842TIP3    H1 2469   1.537   2.867   0.098 -0.3803  0.9058  0.2298
  842TIP3    H2 2470   1.434   2.818   0.197  0.2806 -1.4130 -0.1638
  843TIP3   OH2 2471   0.290   2.448   2.205 -0.6106  0.4868 -0.2371
  843TIP3    H1 2472   0.212   2.473   2.255 -0.5100 -0.0431  0.1994
  843TIP3    H2 2473   0.294   2.353   2.214  1.2968  0.6629  1.6213
  844TIP3   OH2 2474   1.951   1.044   5.045 -0.4065 -0.1637 -0.5096
  844TIP3    H1 2475   1.880   1.001   4.996  1.6465 -3.4163 -0.9124
  844TIP3    H2 2476   1.915   1.055   5.134 -1.2184 -2.4607 -0.4885
  845TIP3   OH2 2477   1.342   6.475   1.484  0.4506  0.0260 -0.2318
  845TIP3    H1 2478   1.390   6.549   1.448  0.4290  0.1134 -0.0810
  845TIP3    H2 2479   1.383   6.398   1.444  0.7657  0.0945 -0.0465
  846TIP3   OH2 2480   5.902   6.397  -0.017 -0.1405  0.1121 -0.2079
  846TIP3    H1 2481   5.810   6.374  -0.030 -0.1507 -0.3756  0.6359
  846TIP3    H2 2482   5.901   6.463   0.052  0.2877 -1.9991  1.9705
  847TIP3   OH2 2483   4.208   7.027   5.480 -0.0488  0.4116 -0.1642
  847TIP3    H1 2484   4.226   7.075   5.399 -1.4127  0.8213 -0.2513
  847TIP3    H2 2485   4.114   7.007   5.476  0.4412 -2.1455 -0.0349
  848TIP3   OH2 2486   5.948   5.145   6.129 -0.0939 -0.5692 -0.6647
  848TIP3    H1 2487   5.902   5.097   6.060  0.7753  0.5429 -2.0773
  848TIP3    H2 2488   5.983   5.077   6.186 -1.3445 -1.5005 -0.9526
  849TIP3   OH2 2489   8.272   0.998   2.585 -0.2274  0.0758  0.0055
  849TIP3    H1 2490   8.238   0.939   2.653 -1.6464  0.4910 -0.3189
  849TIP3    H2 2491   8.340   0.947   2.541  0.7550 -0.1879  1.7435
  850TIP3   OH2 2492   5.564   2.712   0.787  0.1060  0.0572 -0.1320
  850TIP3    H1 2493   5.484   2.741   0.831 -0.3547  0.0271 -0.9409
  850TIP3    H2 2494   5.539   2.632   0.741  0.5829  0.0854 -0.4487
  851TIP3   OH2 2495   5.393   1.459   4.863 -0.2033 -0.1887 -0.1043
  851TIP3    H1 2496   5.438   1.442   4.780  1.1657  0.2871  0.5197
  851TIP3    H2 2497   5.397   1.375   4.909  0.7404  0.0416  0.2573
  852TIP3   OH2 2498   2.281   5.463   1.581  0.2340  0.4403  0.5373
  852TIP3    H1 2499   2.286   5.533   1.645  0.2863  1.0226 -0.0938
  852TIP3    H2 2500   2.201   5.482   1.531  0.5095  0.3295  0.0493
  853TIP3   OH2 2501   6.793   7.383   0.539 -0.0675 -0.1860  0.1395
  853TIP3    H1 2502   6.874   7.433   0.551  0.2988 -1.0831  1.6953
  853TIP3    H2 2503   6.723   7.448   0.544  0.4175  0.2491  1.6092
  854TIP3   OH2 2504   1.509   5.252   4.134 -0.2798  0.2883  0.2670
  854TIP3    H1 2505   1.430   5.223   4.178  0.3997 -1.6350  0.3227
  854TIP3    H2 2506   1.571   5.179   4.146  1.7691  2.0470  0.9087
  855TIP3   OH2 2507   3.551   4.368   0.499  0.1003 -0.4020  0.0002
  855TIP3    H1 2508   3.564   4.402   0.411 -0.3899 -0.6472 -0.1760
  855TIP3    H2 2509   3.458   4.385   0.518  0.7545  2.0119  1.5095
  856TIP3   OH2 2510   3.694   5.002   4.295 -0.2526 -0.4461 -0.2905
  856TIP3    H1 2511   3.722   4.931   4.353  0.5643  0.2222  0.1677
  856TIP3    H2 2512   3.680   4.960   4.210  0.0053 -1.1900  0.0275
  857TIP3   OH2 2513   3.847   1.546   2.129 -1.0995 -0.3104 -0.3530
  857TIP3    H1 2514   3.805   1.571   2.046  1.1723  0.0723 -1.4895
  857TIP3    H2 2515   3.793   1.586   2.197 -1.5875  1.6114 -1.7865
  858TIP3   OH2 2516   5.593   3.571   0.970  0.1472 -0.2579 -0.0815
  858TIP3    H1 2517   5.680   3.564   0.931  0.4608 -0.5240  0.6458
  858TIP3    H2 2518   5.541   3.504   0.925  0.6317 -0.8909  0.2745
  859TIP3   OH2 2519   2.947   5.381   2.100  0.1584  0.3017  0.6549
  859TIP3    H1 2520   3.000   5.377   2.020 -1.4427 -0.1487 -0.4238
  859TIP3    H2 2521   2.959   5.296   2.141 -1.4389 -0.6482 -0.7575
  860TIP3   OH2 2522   4.543   0.860   2.649  0.1943 -0.6469  0.1344
  860TIP3    H1 2523   4.615   0.860   2.586 -0.8465 -0.9079 -1.0891
  860TIP3    H2 2524   4.535   0.952   2.675  1.4183 -0.7175  0.8491
  861TIP3   OH2 2525   3.878   7.480   1.871  0.9602 -0.3641  0.3708
  861TIP3    H1 2526   3.835   7.408   1.825  0.8513  0.5400 -1.0242
  861TIP3    H2 2527   3.806   7.534   1.903  1.0440 -0.0595  0.0476
  862TIP3   OH2 2528   4.804   6.858   2.294  0.2664 -0.2974  0.0080
  862TIP3    H1 2529   4.872   6.925   2.286  0.2297 -0.3004 -0.3292
  862TIP3    H2 2530   4.832   6.804   2.367  0.7067 -0.3925 -0.2298
  863TIP3   OH2 2531   3.856   7.403   0.433 -0.1771 -0.3191  0.1039
  863TIP3    H1 2532   3.892   7.397   0.345  1.1274  1.9130  0.4171
  863TIP3    H2 2533   3.854   7.312   0.464 -1.4245 -1.2665 -2.4397
  864TIP3   OH2 2534   1.311   7.762   1.186 -0.2989  0.2651  0.0433
  864TIP3    H1 2535   1.269   7.835   1.140 -0.3739  0.1484 -0.0710
  864TIP3    H2 2536   1.383   7.736   1.129  1.4888  2.0631  1.3222
  865TIP3   OH2 2537   6.072   1.403   0.375  0.6072  0.0555  0.1320
  865TIP3    H1 2538   6.153   1.419   0.423  1.8057  1.4182 -2.1354
  865TIP3    H2 2539   6.094   1.332   0.314  0.5613  1.2496 -1.3421
  866TIP3   OH2 2540   7.333   2.605   6.769  0.0236  0.1114 -0.7136
  866TIP3    H1 2541   7.344   2.510   6.764  1.5476  0.2674 -0.6235
  866TIP3    H2 2542   7.414   2.641   6.734 -0.4289  1.3898 -0.5028
  867TIP3   OH2 2543   4.501   2.438   4.358 -0.0887 -0.6399 -0.5794
  867TIP3    H1 2544   4.534   2.427   4.269 -0.2623 -2.1315 -0.4745
  867TIP3    H2 2545   4.422   2.384   4.362 -0.9436  0.6092  0.0390
  868TIP3   OH2 2546   6.895   6.785   6.523  0.0431  0.2046  0.3753
  868TIP3    H1 2547   6.874   6.771   6.431  1.6503 -0.4188  0.0722
  868TIP3    H2 2548   6.824   6.839   6.556 -1.7528 -1.4096 -0.6648
  869TIP3   OH2 2549   8.106   1.506   4.234  0.1971 -0.1527  0.0597
  869TIP3    H1 2550   8.023   1.542   4.266  0.2497 -2.1746  2.8310
  869TIP3    H2 2551   8.081   1.441   4.169 -0.1854  1.0994 -1.0818
  870TIP3   OH2 2552   5.291   1.598   6.088  0.5625  0.2983 -0.1851
  870TIP3    H1 2553   5.375   1.626   6.051  1.3582  0.0231  1.3044
  870TIP3    H2 2554   5.276   1.511   6.051  1.6923 -0.2728  0.6429
  871TIP3   OH2 2555   5.851   1.586   2.926 -0.0697  0.2818  0.0744
  871TIP3    H1 2556   5.895   1.627   3.001  0.9723 -1.1016  0.2579
  871TIP3    H2 2557   5.863   1.648   2.854  1.5099  0.3117  0.3334
  872TIP3   OH2 2558   2.629   6.045   0.462 -0.3821  0.1029 -0.1291
  872TIP3    H1 2559   2.576   6.005   0.393 -1.8350  1.7629 -0.0314
  872TIP3    H2 2560   2.579   6.032   0.542 -0.0102  0.5555  0.1844
  873TIP3   OH2 2561   0.523   6.876   4.478 -0.9783 -0.0279 -0.0829
  873TIP3    H1 2562   0.587   6.856   4.409  1.3683  1.2155  1.6174
  873TIP3    H2 2563   0.495   6.966   4.460  0.2389  0.5824  0.9946
  874TIP3   OH2 2564   1.076   5.897   1.181 -0.5544 -0.3647  0.0786
  874TIP3    H1 2565   1.077   5.895   1.086 -0.7346 -0.4243  0.0775
  874TIP3    H2 2566   1.125   5.819   1.207 -1.4846 -0.9815  0.0313
  875TIP3   OH2 2567   5.572   2.058   6.385 -0.1172 -0.2292 -0.2634
  875TIP3    H1 2568   5.498   2.021   6.434  1.9518 -1.1075  2.4433
  875TIP3    H2 2569   5.532   2.126   6.331 -2.8092 -0.0959  1.6500
  876TIP3   OH2 2570   3.693   2.745   1.821  0.2378 -0.0357 -0.1367
  876TIP3    H1 2571   3.700   2.650   1.822  0.2903 -0.1012  2.9782
  876TIP3    H2 2572   3.605   2.763   1.789  0.4094 -1.0757 -1.2411
  877TIP3   OH2 2573   4.628   6.331   5.904 -0.5904  0.2494 -0.1584
  877TIP3    H1 2574   4.581   6.413   5.920 -0.2521  0.7364 -1.5850
  877TIP3    H2 2575   4.601   6.274   5.977 -1.6866  1.2440  0.2455
  878TIP3   OH2 2576   2.730   5.820   0.862 -0.2860 -0.6274  0.4228
  878TIP3    H1 2577   2.805   5.848   0.809 -1.3607  0.0312 -0.7880
  878TIP3    H2 2578   2.660   5.882   0.841 -0.9027 -0.6064  2.3014
  879TIP3   OH2 2579   4.711   2.581   5.623  0.0002  0.2227  0.3120
  879TIP3    H1 2580   4.623   2.584   5.660  0.0253  0.5896  0.3402
  879TIP3    H2 2581   4.748   2.667   5.641 -0.4503  0.8748 -1.7256
  880TIP3   OH2 2582   4.707   0.929   3.195  0.1715 -0.6224 -1.0303
  880TIP3    H1 2583   4.679   0.998   3.135 -1.5950 -0.7646 -0.4319
  880TIP3    H2 2584   4.625   0.888   3.223  0.7506  0.4518  2.7060
  881TIP3   OH2 2585   3.245   3.778   1.118 -0.0400 -1.0926 -0.1286
  881TIP3    H1 2586   3.203   3.694   1.138  1.0406 -1.6171 -0.0125
  881TIP3    H2 2587   3.190   3.842   1.164  1.6364 -2.1221  3.7761
  882TIP3   OH2 2588   7.943   1.159   2.980 -0.3405  0.7310  0.6359
  882TIP3    H1 2589   7.941   1.103   3.058 -0.6165  0.9982  0.8239
  882TIP3    H2 2590   7.912   1.245   3.011 -2.2816  0.3787 -0.1337
  883TIP3   OH2 2591   6.471   4.480   5.236  0.2665  0.1020 -0.0207
  883TIP3    H1 2592   6.528   4.430   5.294 -0.0743 -0.7602 -0.3992
  883TIP3    H2 2593   6.487   4.571   5.258  3.3752  0.0662 -1.5670
  884TIP3   OH2 2594   6.235   2.633   0.261 -0.0274  0.4594  0.3568
  884TIP3    H1 2595   6.241   2.726   0.283 -1.7623  0.4722  0.9666
  884TIP3    H2 2596   6.293   2.590   0.323 -1.8667  0.8607  2.4828
  885TIP3   OH2 2597   3.150   1.914   0.135  0.0425  0.4059 -0.3320
  885TIP3    H1 2598   3.232   1.960   0.117 -0.5023  2.3075  1.6929
  885TIP3    H2 2599   3.175   1.845   0.197  0.3687 -0.2194 -1.1314
  886TIP3   OH2 2600   5.042   5.568   4.078  0.1179 -0.3836  0.3787
  886TIP3    H1 2601   5.087   5.485   4.089 -1.3857 -1.3888 -0.7557
  886TIP3    H2 2602   4.950   5.548   4.094 -0.1616  1.2980  1.1124
  887TIP3   OH2 2603   8.175   2.759   0.635  0.1283 -0.4346 -0.3430
  887TIP3    H1 2604   8.097   2.710   0.662  0.7350 -2.5007 -2.0847
  887TIP3    H2 2605   8.147   2.850   0.636 -1.8628 -0.9902  0.4725
  888TIP3   OH2 2606   6.431   0.986   5.174 -0.0544  0.0446  0.0724
  888TIP3    H1 2607   6.477   1.069   5.177 -1.9489  1.1578  0.2095
  888TIP3    H2 2608   6.471   0.934   5.244  1.8931  0.3901 -0.7293
  889TIP3   OH2 2609   7.972   6.476   1.972  0.0872 -0.3436  0.5764
  889TIP3    H1 2610   7.879   6.465   1.951  0.0986  0.1776  0.2412
  889TIP3    H2 2611   7.974   6.546   2.036  0.4822  2.0865 -1.8985
  890TIP3   OH2 2612   5.624   0.122   0.651 -0.5491  0.0808  0.0689
  890TIP3    H1 2613   5.709   0.132   0.608 -0.0537 -0.4896  0.8953
  890TIP3    H2 2614   5.581   0.051   0.602  0.2822 -1.0293  0.8931
  891TIP3   OH2 2615   2.446   0.275   4.628  0.6016 -0.2672  0.2464
  891TIP3    H1 2616   2.518   0.286   4.690  0.6472  0.6032  0.0613
  891TIP3    H2 2617   2.377   0.232   4.678  1.1236 -0.7983  0.5195
  892TIP3   OH2 2618   3.114   4.123   3.077  0.2764 -0.4486 -0.3112
  892TIP3    H1 2619   3.138   4.188   3.011 -0.0750  0.0194  0.0186
  892TIP3    H2 2620   3.197   4.080   3.099  0.8103  0.9928  0.6428
  893TIP3   OH2 2621   2.718   2.137   2.916  0.3278  0.6391  0.1444
  893TIP3    H1 2622   2.638   2.171   2.957  1.4034  0.6731  2.3292
  893TIP3    H2 2623   2.758   2.081   2.982  2.5886  1.3324 -0.5351
  894TIP3   OH2 2624   4.557   6.571   1.262  0.0912 -0.7966  0.3104
  894TIP3    H1 2625   4.530   6.642   1.320  1.9994 -1.5550  2.2526
  894TIP3    H2 2626   4.519   6.492   1.301  0.9239 -1.2582  0.2050
  895TIP3   OH2 2627   1.633   0.874   4.467 -0.8033 -0.3678  0.1725
  895TIP3    H1 2628   1.650   0.951   4.521  1.1848 -1.3011  0.9553
  895TIP3    H2 2629   1.546   0.890   4.429 -0.3096  2.3707  0.0606
  896TIP3   OH2 2630   7.678   6.740   6.178 -0.0524 -0.6047  0.0776
  896TIP3    H1 2631   7.635   6.680   6.239 -0.2042  0.2472  0.8386
  896TIP3    H2 2632   7.769   6.744   6.209 -0.6770  1.8498  1.9861
  897TIP3   OH2 2633   1.588   5.943   3.649  0.0013  0.2063  0.4511
  897TIP3    H1 2634   1.615   5.861   3.607  1.4656  1.0924 -0.4168
  897TIP3    H2 2635   1.661   5.964   3.707  0.1763  1.4662 -0.1939
  898TIP3   OH2 2636   3.941   2.745   0.157  0.1868  0.4032 -0.0435
  898TIP3    H1 2637   3.944   2.667   0.213 -0.5706 -0.1555 -0.7659
  898TIP3    H2 2638   3.939   2.710   0.068  1.8960  1.2829 -0.4692
  899TIP3   OH2 2639   5.744   6.167   0.198 -0.0339 -0.3385  0.1355
  899TIP3    H1 2640   5.742   6.157   0.102 -2.7960  1.4076 -0.0853
  899TIP3    H2 2641   5.679   6.105   0.230 -0.5620  0.4918  0.6962
  900TIP3   OH2 2642   0.771   2.670   0.002  0.1773 -0.1430 -0.4123
  900TIP3    H1 2643   0.830   2.718   0.060 -0.2457 -0.5344  0.3470
  900TIP3    H2 2644   0.705   2.735  -0.025  0.6648  0.1712 -0.8844
  901TIP3   OH2 2645   1.975   2.795   1.906 -0.3090 -0.7838  0.4606
  901TIP3    H1 2646   1.981   2.890   1.896 -0.6969 -0.6731  1.1604
  901TIP3    H2 2647   1.896   2.782   1.959 -0.2374 -1.4943  0.4018
  902TIP3   OH2 2648   6.758   1.370   0.159 -0.3960  0.5941 -0.2878
  902TIP3    H1 2649   6.852   1.384   0.160 -0.0582 -1.1661 -2.1782
  902TIP3    H2 2650   6.747   1.276   0.170 -2.0133  0.8541  0.7474
  903TIP3   OH2 2651   4.341   7.674   6.171  0.4718 -0.1851  0.2545
  903TIP3    H1 2652   4.344   7.641   6.260  2.6162  0.2953  0.4114
  903TIP3    H2 2653   4.330   7.596   6.116 -2.8534 -0.3282  0.9441
  904TIP3   OH2 2654   0.973   3.664   2.183  0.0553 -0.3606 -0.2616
  904TIP3    H1 2655   1.031   3.704   2.248 -0.1561 -1.5059  0.6832
  904TIP3    H2 2656   0.888   3.660   2.226 -0.4891  0.3288 -1.2382
  905TIP3   OH2 2657   8.077   5.142   1.289  0.5223  0.1104 -0.3545
  905TIP3    H1 2658   8.169   5.164   1.281  0.3251  0.3610 -3.4340
  905TIP3    H2 2659   8.071   5.050   1.264 -0.1123  0.3700 -1.2619
  906TIP3   OH2 2660   6.805   1.510   3.504 -0.4016 -0.5846 -0.2244
  906TIP3    H1 2661   6.810   1.448   3.431  0.9465 -0.4235 -0.3024
  906TIP3    H2 2662   6.888   1.558   3.499 -0.7878  0.2009  0.7344
  907TIP3   OH2 2663   1.425   4.078   1.081 -0.5807 -0.0799 -0.2711
  907TIP3    H1 2664   1.418   4.139   1.155 -1.3434 -0.8545  0.3165
  907TIP3    H2 2665   1.507   4.032   1.096 -0.5626  0.0096 -0.0895
  908TIP3   OH2 2666   0.924   5.174   3.899 -0.1521  0.6438  0.2287
  908TIP3    H1 2667   0.914   5.259   3.941  0.1988 -0.3721  2.4925
  908TIP3    H2 2668   0.977   5.123   3.960 -0.2145 -1.1516 -1.1461
  909TIP3   OH2 2669   0.565   2.954   4.657 -0.5199 -0.1373 -0.1209
  909TIP3    H1 2670   0.621   2.934   4.732  1.8381  1.2870 -1.3460
  909TIP3    H2 2671   0.603   2.904   4.585 -1.0764  0.5499 -0.9135
  910TIP3   OH2 2672   2.362   1.889   0.673 -0.1031 -0.2174 -0.2198
  910TIP3    H1 2673   2.400   1.804   0.697  1.4404  1.0300  2.2038
  910TIP3    H2 2674   2.273   1.886   0.708  0.1266 -0.6728  0.3507
  911TIP3   OH2 2675   0.636   1.994   1.872  0.0759 -0.2992  0.0671
  911TIP3    H1 2676   0.543   1.997   1.894 -0.2242  1.1912 -1.2434
  911TIP3    H2 2677   0.675   1.940   1.941 -1.4476  0.6106  1.7337
  912TIP3   OH2 2678   7.801   0.068   2.690 -0.5111 -0.1804  0.0845
  912TIP3    H1 2679   7.707   0.054   2.681 -0.5574  0.2700 -0.1936
  912TIP3    H2 2680   7.812   0.162   2.676  0.2188 -0.5188 -1.9062
  913TIP3   OH2 2681   1.562   2.160   0.515 -0.1153 -0.2972 -0.3319
  913TIP3    H1 2682   1.469   2.174   0.530 -0.7359  0.5172 -3.9978
  913TIP3    H2 2683   1.583   2.080   0.562 -2.9947 -1.1703 -0.4042
  914TIP3   OH2 2684   1.242   0.190   2.665 -0.0338  0.1165  0.1270
  914TIP3    H1 2685   1.250   0.097   2.687 -0.6997  0.3129  1.3140
  914TIP3    H2 2686   1.264   0.235   2.746  0.9869  1.0256 -0.6410
  915TIP3   OH2 2687   0.270   3.392   1.877 -0.1623  0.6941 -0.3086
  915TIP3    H1 2688   0.270   3.414   1.784  0.0477  0.7980 -0.2835
  915TIP3    H2 2689   0.312   3.467   1.920  1.2102 -0.0504 -0.2964
  916TIP3   OH2 2690   3.767   2.123   3.166  0.5787 -0.4950  0.0813
  916TIP3    H1 2691   3.721   2.199   3.129  1.5721 -0.2908 -0.7942
  916TIP3    H2 2692   3.722   2.047   3.128 -0.2688 -0.3575  0.7764
  917TIP3   OH2 2693   0.251   4.807   4.930  0.3515  0.3266  0.0296
  917TIP3    H1 2694   0.265   4.833   5.021 -2.3082 -1.0657  0.9491
  917TIP3    H2 2695   0.214   4.885   4.888 -1.4200  0.0776  1.0368
  918TIP3   OH2 2696   1.035   5.368   5.694  0.2362 -0.1177  0.1668
  918TIP3    H1 2697   1.044   5.463   5.689  2.1296 -0.2667  0.1163
  918TIP3    H2 2698   0.941   5.354   5.708 -0.1799  1.7114 -0.4843
  919TIP3   OH2 2699   3.467   5.791   6.284 -0.4043  0.6239 -0.1118
  919TIP3    H1 2700   3.480   5.698   6.266  0.1746  0.9382 -1.4260
  919TIP3    H2 2701   3.494   5.803   6.375 -0.3042 -0.4519  0.0026
  920TIP3   OH2 2702   4.330   2.186   1.752  0.0827 -0.6297  0.9902
  920TIP3    H1 2703   4.275   2.209   1.676  0.8115 -0.5832  0.4637
  920TIP3    H2 2704   4.401   2.250   1.750  0.9999 -1.6302  0.7394
  921TIP3   OH2 2705   2.531   0.638   6.218  0.1965 -0.1734  0.1935
  921TIP3    H1 2706   2.544   0.653   6.312  0.2661  1.5802 -0.0626
  921TIP3    H2 2707   2.495   0.721   6.186 -0.7020 -1.0648 -1.1737
  922TIP3   OH2 2708   0.766   1.934   2.130 -0.3407  0.2800 -0.6840
  922TIP3    H1 2709   0.785   1.846   2.097  1.6035  0.6482 -0.6690
  922TIP3    H2 2710   0.839   1.954   2.190 -2.9089  0.2767  2.7131
  923TIP3   OH2 2711   6.884   6.035   5.318  0.5342 -0.0697  0.3527
  923TIP3    H1 2712   6.872   6.066   5.408 -4.1058 -1.0074  0.2771
  923TIP3    H2 2713   6.892   5.940   5.326  0.2559 -0.1465 -0.1996
  924TIP3   OH2 2714   0.033   5.601   6.492  0.8762  0.1633 -0.0919
  924TIP3    H1 2715   0.043   5.620   6.398 -0.4845 -0.1014 -0.3058
  924TIP3    H2 2716  -0.057   5.570   6.501  1.8438 -2.7370  0.8059
  925TIP3   OH2 2717   5.230   6.742   1.075 -0.2414  0.4201 -0.4047
  925TIP3    H1 2718   5.294   6.793   1.125  0.6131  0.5570 -1.5892
  925TIP3    H2 2719   5.145   6.776   1.103  0.2846  1.9883 -0.6098
  926TIP3   OH2 2720   6.836   4.062   1.264 -0.3319 -0.3129  0.1975
  926TIP3    H1 2721   6.905   4.000   1.288 -1.0743 -0.9113  0.8868
  926TIP3    H2 2722   6.879   4.125   1.207  0.7744 -0.6852  0.5805
  927TIP3   OH2 2723   2.042   5.362   2.592  0.2686  0.0091 -0.2026
  927TIP3    H1 2724   2.069   5.325   2.508  2.0939  0.3660  0.1826
  927TIP3    H2 2725   2.056   5.456   2.582  0.4851  0.0589  0.4875
  928TIP3   OH2 2726   6.182   0.378   4.654 -0.0970  0.6747 -0.1580
  928TIP3    H1 2727   6.157   0.467   4.680 -0.8057  0.1434  1.0500
  928TIP3    H2 2728   6.278   0.381   4.647 -0.2038  1.9412 -1.7874
  929TIP3   OH2 2729   4.589   4.183   6.602  0.4652 -0.1582  0.1867
  929TIP3    H1 2730   4.565   4.140   6.520 -1.4864  0.2217  0.5070
  929TIP3    H2 2731   4.587   4.112   6.667 -1.1064  0.0728  0.4244
  930TIP3   OH2 2732   0.122   1.598   3.884  0.2021 -0.1410  0.5107
  930TIP3    H1 2733   0.192   1.599   3.819  0.6832  0.8568  1.0229
  930TIP3    H2 2734   0.042   1.580   3.833  0.3409  2.0852 -0.6100
  931TIP3   OH2 2735   7.505   5.925   3.576  0.0374  0.7567  0.2146
  931TIP3    H1 2736   7.586   5.876   3.589  0.1587  1.2515  1.4604
  931TIP3    H2 2737   7.449   5.898   3.649 -0.3053  1.6306  0.2876
  932TIP3   OH2 2738   5.743   7.173   2.668  0.1072  0.1336  0.0901
  932TIP3    H1 2739   5.793   7.138   2.594  0.9501 -0.0938  0.7511
  932TIP3    H2 2740   5.693   7.246   2.631 -0.8333 -1.0462 -1.0715
  933TIP3   OH2 2741   2.943   0.307   3.685 -0.2810  0.4831  0.2250
  933TIP3    H1 2742   3.035   0.282   3.689 -0.4828 -0.1846  1.4526
  933TIP3    H2 2743   2.902   0.255   3.754 -1.3885  1.5427  0.3949
  934TIP3   OH2 2744   0.257   4.543   4.979 -1.1806 -0.2060 -0.2405
  934TIP3    H1 2745   0.248   4.627   4.935 -3.0231  0.1235  0.6469
  934TIP3    H2 2746   0.346   4.515   4.960  0.8946  3.6760  2.4711
  935TIP3   OH2 2747   1.509   3.758   0.822 -0.2657 -0.3661 -0.3791
  935TIP3    H1 2748   1.460   3.839   0.839 -0.7740 -0.8562  0.6022
  935TIP3    H2 2749   1.441   3.692   0.805  0.0602 -0.9757  0.6158
  936TIP3   OH2 2750   6.107   3.787   3.176 -0.0722  0.6218  0.2494
  936TIP3    H1 2751   6.131   3.740   3.096 -2.7000  0.6187 -0.6327
  936TIP3    H2 2752   6.149   3.872   3.166  1.5199 -0.1392  0.0060
  937TIP3   OH2 2753   2.548   0.371   6.624  0.3231 -0.1492 -0.1437
  937TIP3    H1 2754   2.591   0.453   6.598 -0.4349  0.5820  0.8233
  937TIP3    H2 2755   2.455   0.386   6.607 -0.0958  0.0142  1.9667
  938TIP3   OH2 2756   3.066   1.541   6.181 -0.2052 -0.1799 -0.1636
  938TIP3    H1 2757   2.984   1.579   6.213 -0.4536 -0.6840 -0.1992
  938TIP3    H2 2758   3.041   1.455   6.147  0.2447 -0.1150 -0.6793
  939TIP3   OH2 2759   3.555   6.290   3.291 -0.2457  0.0407  0.0339
  939TIP3    H1 2760   3.533   6.340   3.213  1.1375 -0.5788 -0.7863
  939TIP3    H2 2761   3.482   6.229   3.303 -1.8943  2.0690  0.9677
  940TIP3   OH2 2762   3.180   1.430   2.516 -0.5584  0.4201  0.4746
  940TIP3    H1 2763   3.159   1.478   2.597  0.8087  1.1062  0.4624
  940TIP3    H2 2764   3.264   1.467   2.488 -1.0735  0.2982 -1.3514
  941TIP3   OH2 2765   5.504   1.471   6.318 -0.6236  0.3826 -0.2744
  941TIP3    H1 2766   5.433   1.536   6.319 -2.7019 -1.7290 -1.0245
  941TIP3    H2 2767   5.507   1.439   6.409  0.3606  1.4170  0.0816
  942TIP3   OH2 2768   5.963   0.962   4.587 -0.4610  0.3726  0.3554
  942TIP3    H1 2769   5.959   0.872   4.553 -1.3646  0.3511  0.4886
  942TIP3    H2 2770   5.999   0.952   4.675 -1.0356  0.0822  0.5608
  943TIP3   OH2 2771   8.107   1.914   2.924 -0.3117 -0.3455 -0.2644
  943TIP3    H1 2772   8.075   1.826   2.900  0.1113 -0.3111 -1.0014
  943TIP3    H2 2773   8.175   1.932   2.859 -1.0659  0.9415 -0.7262
  944TIP3   OH2 2774   2.542   7.214   6.455 -0.4455 -0.6327 -0.1448
  944TIP3    H1 2775   2.477   7.246   6.393 -1.0488 -2.8415 -0.7391
  944TIP3    H2 2776   2.603   7.162   6.402 -1.1521 -2.8330  1.0778
  945TIP3   OH2 2777   7.962   6.787   3.632  0.1377  0.9267  0.2680
  945TIP3    H1 2778   7.920   6.782   3.546 -0.4277 -0.2133  0.5872
  945TIP3    H2 2779   8.012   6.706   3.639  1.8243  1.9347  0.2077
  946TIP3   OH2 2780   4.713   2.379   5.226  0.2379  0.6771 -0.0181
  946TIP3    H1 2781   4.729   2.384   5.321 -0.0926  0.4398  0.0499
  946TIP3    H2 2782   4.630   2.424   5.213  1.2733  2.5940 -0.4781
  947TIP3   OH2 2783   5.126   1.573   4.769 -0.1599 -0.7637 -0.9087
  947TIP3    H1 2784   5.151   1.608   4.684  0.4031  1.5893  0.1529
  947TIP3    H2 2785   5.208   1.540   4.806  0.5096  1.9471  0.3061
  948TIP3   OH2 2786   4.731   5.358   2.120 -0.6464 -0.0092  0.2734
  948TIP3    H1 2787   4.802   5.296   2.103  0.2979  1.1034  0.0644
  948TIP3    H2 2788   4.717   5.353   2.214  0.0345  0.1132  0.3835
  949TIP3   OH2 2789   6.655   1.818   3.985  0.2186 -0.3532 -0.2022
  949TIP3    H1 2790   6.612   1.854   4.063  1.1681  1.4782 -0.4661
  949TIP3    H2 2791   6.594   1.753   3.952 -0.5214 -0.6875  1.6781
  950TIP3   OH2 2792   2.879   4.141   3.458  1.1678  0.2256  0.2802
  950TIP3    H1 2793   2.868   4.055   3.418 -1.1622 -0.1822  1.5922
  950TIP3    H2 2794   2.950   4.129   3.522  1.0347 -0.6558  0.2709
  951TIP3   OH2 2795   2.808   6.456   3.619 -0.5666  0.0230  0.6972
  951TIP3    H1 2796   2.745   6.449   3.691  0.6865 -1.4561  1.7320
  951TIP3    H2 2797   2.825   6.365   3.595 -0.5525  0.4843 -1.1376
  952TIP3   OH2 2798   5.096   3.437   2.176 -0.2118  0.0486  0.6595
  952TIP3    H1 2799   5.040   3.504   2.137 -0.3999  0.2930  1.3384
  952TIP3    H2 2800   5.150   3.485   2.239  0.6915 -0.2018  0.0926
  953TIP3   OH2 2801   2.609   2.635   1.186  0.2479  0.9412 -0.2694
  953TIP3    H1 2802   2.574   2.556   1.144  1.2891 -0.4253  1.3070
  953TIP3    H2 2803   2.533   2.675   1.229 -0.5745  1.6516 -2.2517
  954TIP3   OH2 2804   4.465   6.757   4.883 -0.1878 -0.0612 -0.4429
  954TIP3    H1 2805   4.549   6.801   4.898 -0.6873  1.1299 -1.0132
  954TIP3    H2 2806   4.447   6.771   4.790 -0.7885 -0.7185 -0.4283
  955TIP3   OH2 2807   6.536   6.558   4.610 -0.4248  0.2465  0.0619
  955TIP3    H1 2808   6.594   6.632   4.628  0.0104 -0.2850  0.9513
  955TIP3    H2 2809   6.494   6.539   4.694  0.2765 -1.1754  0.1277
  956TIP3   OH2 2810   1.854   5.030   0.637 -0.4014  0.0089  0.5243
  956TIP3    H1 2811   1.906   5.057   0.561 -0.9220 -0.7462 -0.1135
  956TIP3    H2 2812   1.765   5.057   0.616 -0.8181 -1.5197  0.1787
  957TIP3   OH2 2813   2.024   3.466   6.272  0.5120 -0.1022  0.2466
  957TIP3    H1 2814   2.040   3.532   6.205 -1.7087  0.1812 -0.0855
  957TIP3    H2 2815   2.067   3.387   6.239 -0.6561 -0.0075 -1.6369
  958TIP3   OH2 2816   6.600   1.999   4.812  0.2349  0.7498  0.6736
  958TIP3    H1 2817   6.672   2.046   4.769  0.2660 -1.3089 -1.7642
  958TIP3    H2 2818   6.595   1.916   4.765 -2.2276 -0.1371  2.3486
  959TIP3   OH2 2819   5.131   3.805   1.136  0.2936 -0.0284 -0.4329
  959TIP3    H1 2820   5.104   3.823   1.046  1.9108 -0.9374 -1.1492
  959TIP3    H2 2821   5.049   3.795   1.184 -0.6207  1.8979 -1.4746
  960TIP3   OH2 2822   1.399   4.020   2.508  0.4431 -0.4791 -0.1174
  960TIP3    H1 2823   1.392   3.955   2.579 -0.3588  0.0502  0.3135
  960TIP3    H2 2824   1.308   4.047   2.493  0.3240 -1.9649 -2.6832
  961TIP3   OH2 2825   1.190   0.216   0.075 -0.2385  0.3719 -0.3638
  961TIP3    H1 2826   1.264   0.241   0.019  0.3872 -0.6995 -0.0324
  961TIP3    H2 2827   1.156   0.136   0.035  1.3998 -1.5331  1.7614
  962TIP3   OH2 2828   0.878   6.241   5.275  0.3708 -0.3862 -0.1162
  962TIP3    H1 2829   0.822   6.305   5.232 -1.2324 -2.6241 -1.5578
  962TIP3    H2 2830   0.966   6.262   5.244 -0.1860  0.7193 -1.0110
  963TIP3   OH2 2831   5.424   3.161   5.679  0.2674 -0.1470 -0.0910
  963TIP3    H1 2832   5.412   3.254   5.696 -3.3663 -0.8063  2.1222
  963TIP3    H2 2833   5.365   3.141   5.606  0.9281 -0.7451 -0.4757
  964TIP3   OH2 2834   3.398   4.712   5.412  0.5492  0.4681 -0.0502
  964TIP3    H1 2835   3.426   4.626   5.380 -1.3032 -1.1785  2.3459
  964TIP3    H2 2836   3.474   4.768   5.400  1.5439 -1.2331 -2.5324
  965TIP3   OH2 2837   2.672   1.069   2.117 -0.2495  0.1162  0.1737
  965TIP3    H1 2838   2.648   1.004   2.051 -0.9536 -0.0354  0.5760
  965TIP3    H2 2839   2.596   1.127   2.124  0.3111  0.8973 -0.0667
  966TIP3   OH2 2840   2.799   4.648   6.147  0.2503 -0.9445 -0.2166
  966TIP3    H1 2841   2.734   4.692   6.201 -0.3310 -0.7847 -1.0418
  966TIP3    H2 2842   2.849   4.595   6.209  0.9707  0.8507  0.8147
  967TIP3   OH2 2843   1.165   3.379   2.930  0.1468  0.1627 -0.6223
  967TIP3    H1 2844   1.092   3.351   2.986  1.1870  0.7782  1.1208
  967TIP3    H2 2845   1.188   3.466   2.963  1.5271  0.0696 -1.2783
  968TIP3   OH2 2846   3.773   5.028   6.629  0.0260  0.1992  0.4369
  968TIP3    H1 2847   3.835   4.971   6.585 -1.2134  0.2142 -1.4180
  968TIP3    H2 2848   3.801   5.117   6.605 -1.2720  0.1914 -1.3501
  969TIP3   OH2 2849   3.528   0.659   5.281 -0.2331 -0.4335 -0.0168
  969TIP3    H1 2850   3.574   0.716   5.220 -1.2672 -0.4543 -0.8431
  969TIP3    H2 2851   3.436   0.682   5.270 -0.4691 -0.6576  1.3211
  970TIP3   OH2 2852   7.864   7.502   5.563 -0.4179  0.7151  0.2071
  970TIP3    H1 2853   7.921   7.425   5.566 -2.0415 -0.7024 -2.2458
  970TIP3    H2 2854   7.883   7.543   5.479 -0.9639  1.9045  0.6373
  971TIP3   OH2 2855   0.368   7.328   6.316  0.5301  0.0861  0.2493
  971TIP3    H1 2856   0.326   7.414   6.317 -0.8385 -0.4745 -1.7077
  971TIP3    H2 2857   0.363   7.298   6.407 -0.7550  1.2614  0.6122
  972TIP3   OH2 2858   1.763   2.801   2.080  0.2138  0.2515 -0.6266
  972TIP3    H1 2859   1.672   2.804   2.052 -0.1144  1.0267  0.4436
  972TIP3    H2 2860   1.776   2.883   2.128 -0.3214 -2.1865  4.3668
  973TIP3   OH2 2861   4.854   7.520   3.780 -0.1394  0.2093 -0.2460
  973TIP3    H1 2862   4.849   7.444   3.838  0.7437  0.5059  0.2322
  973TIP3    H2 2863   4.847   7.482   3.692 -2.9414 -0.1097  0.0315
  974TIP3   OH2 2864   6.028   0.142   1.507 -0.0443 -0.4104  0.5539
  974TIP3    H1 2865   6.017   0.082   1.433 -2.3672  0.3583  0.1781
  974TIP3    H2 2866   6.039   0.228   1.467  1.5861 -0.3231  1.1110
  975TIP3   OH2 2867   3.871   4.090   4.505  0.0411  0.0626 -0.3480
  975TIP3    H1 2868   3.841   4.180   4.522  0.5180 -0.1614  2.0525
  975TIP3    H2 2869   3.964   4.092   4.524 -0.2293 -1.2486  1.3193
  976TIP3   OH2 2870   6.781   5.079   3.071 -0.0140  0.5003  0.4915
  976TIP3    H1 2871   6.793   5.045   2.982  0.0966  2.2301 -0.2006
  976TIP3    H2 2872   6.696   5.046   3.099 -0.5154  0.7506 -0.6712
  977TIP3   OH2 2873   5.895   5.768   2.833  0.0271 -0.0083 -0.5178
  977TIP3    H1 2874   5.806   5.779   2.801  0.2848  0.2948 -1.1356
  977TIP3    H2 2875   5.949   5.824   2.777  0.8671 -1.5990 -1.3579
  978TIP3   OH2 2876   4.043   4.763   4.424  0.2261  0.0929 -0.0182
  978TIP3    H1 2877   4.047   4.668   4.436  0.6911 -0.3489 -2.8973
  978TIP3    H2 2878   4.134   4.792   4.428  0.3228  0.0348 -1.3343
  979TIP3   OH2 2879   6.782   2.386   6.628  0.2231 -0.3208 -0.3735
  979TIP3    H1 2880   6.846   2.399   6.698 -1.2422 -2.2097  1.4417
  979TIP3    H2 2881   6.820   2.318   6.573 -0.3467 -1.8109  0.9899
  980TIP3   OH2 2882   5.502   5.004   4.929  0.7978 -0.1332 -0.1196
  980TIP3    H1 2883   5.416   5.043   4.911 -0.1423 -1.6152  0.9479
  980TIP3    H2 2884   5.555   5.077   4.959 -0.4619  0.6035  0.3974
  981TIP3   OH2 2885   4.446   3.866   4.553  0.0180  0.0179 -0.8735
  981TIP3    H1 2886   4.406   3.785   4.522  1.5713 -0.8854 -0.6350
  981TIP3    H2 2887   4.477   3.909   4.474  1.2219 -0.7715 -0.8597
  982TIP3   OH2 2888   0.826   3.213   4.692 -0.4468 -0.6017  0.4839
  982TIP3    H1 2889   0.836   3.294   4.742 -0.3422 -1.8692  2.6579
  982TIP3    H2 2890   0.757   3.232   4.629 -1.8485  0.5866  2.2688
  983TIP3   OH2 2891   1.616   6.026   2.857  0.0704 -0.1664 -0.2399
  983TIP3    H1 2892   1.616   6.057   2.947 -1.5061  1.0334 -0.6054
  983TIP3    H2 2893   1.545   5.962   2.853 -0.5799  0.5726 -0.8558
  984TIP3   OH2 2894   1.287   6.067   1.434  0.4641  0.1084 -0.2217
  984TIP3    H1 2895   1.253   6.040   1.519 -1.0690 -0.7231 -1.0494
  984TIP3    H2 2896   1.224   6.133   1.404  0.7030  0.0237 -0.9261
  985TIP3   OH2 2897   5.199   6.510   0.024  0.0089  0.5445 -0.2244
  985TIP3    H1 2898   5.286   6.545   0.007  0.3204 -0.1051 -0.0032
  985TIP3    H2 2899   5.141   6.586   0.018  0.5412  0.9229 -0.7336
  986TIP3   OH2 2900   1.610   2.640   4.554 -0.4103 -0.0991  0.2998
  986TIP3    H1 2901   1.678   2.686   4.506  1.6285 -2.1107  1.0719
  986TIP3    H2 2902   1.535   2.637   4.494  1.0388 -0.0016 -1.5890
  987TIP3   OH2 2903   4.178   6.699   0.278 -0.0880  0.0040  0.3262
  987TIP3    H1 2904   4.193   6.678   0.186 -2.8188  0.6492 -0.3622
  987TIP3    H2 2905   4.200   6.792   0.286 -0.0455 -0.0009  0.2628
  988TIP3   OH2 2906   1.219   2.281   2.555 -0.0074  0.9124  0.3351
  988TIP3    H1 2907   1.250   2.192   2.574  1.3090  1.1661 -0.5154
  988TIP3    H2 2908   1.169   2.272   2.474 -0.9495  0.7523  0.9206
  989TIP3   OH2 2909   7.862   4.973   4.177  0.0270  0.0374  0.1416
  989TIP3    H1 2910   7.943   4.996   4.132 -1.0674  0.6405 -1.6353
  989TIP3    H2 2911   7.888   4.907   4.241  1.9630  0.4739 -0.1268
  990TIP3   OH2 2912   5.065   4.600   3.753  0.1841  0.7654  0.4429
  990TIP3    H1 2913   5.004   4.666   3.786 -0.8658 -0.4799  1.1177
  990TIP3    H2 2914   5.150   4.626   3.789 -0.4722  0.9476  1.9533
  991TIP3   OH2 2915   2.184   4.018   4.328 -0.1305  0.0558 -0.0609
  991TIP3    H1 2916   2.097   4.023   4.288 -1.9647  1.0720  3.5364
  991TIP3    H2 2917   2.245   4.037   4.258 -2.8660  0.3134 -2.5520
  992TIP3   OH2 2918   7.585   2.906   5.038 -0.0297 -0.4609 -0.2716
  992TIP3    H1 2919   7.571   2.951   5.120 -0.8941 -1.2757  0.0508
  992TIP3    H2 2920   7.515   2.840   5.034 -0.4273  0.0057 -1.9668
  993TIP3   OH2 2921   6.085   2.231   0.341  0.4333  0.1905 -0.5784
  993TIP3    H1 2922   6.079   2.320   0.376 -1.8623 -0.0332 -0.2450
  993TIP3    H2 2923   6.063   2.240   0.248  2.2660  0.2016 -1.0526
  994TIP3   OH2 2924   1.167   0.830   3.365  0.1637  0.3001 -0.3056
  994TIP3    H1 2925   1.125   0.835   3.451  1.8521 -4.0820  1.0578
  994TIP3    H2 2926   1.258   0.858   3.381  0.6085 -0.9815 -0.5005
  995TIP3   OH2 2927   5.518   5.989   3.484  0.1461 -0.0648  0.0859
  995TIP3    H1 2928   5.480   5.903   3.498  1.1825 -0.5787 -0.1173
  995TIP3    H2 2929   5.612   5.973   3.478  0.3290  1.0365 -0.2981
  996TIP3   OH2 2930   5.225   7.313   3.100 -0.7642  0.5264  0.1744
  996TIP3    H1 2931   5.195   7.237   3.150 -1.0946  0.9409  0.6144
  996TIP3    H2 2932   5.146   7.364   3.085 -0.6352  0.4974 -0.6250
  997TIP3   OH2 2933   5.673   3.863   3.897  0.1494 -0.1520  0.5549
  997TIP3    H1 2934   5.708   3.838   3.983 -0.8313 -0.7109  0.8014
  997TIP3    H2 2935   5.713   3.802   3.836  1.4526  0.7278  0.4765
  998TIP3   OH2 2936   2.081   5.364   4.743  0.3169  0.0680  0.2440
  998TIP3    H1 2937   2.115   5.299   4.804 -0.3417  1.2415  1.9587
  998TIP3    H2 2938   2.140   5.439   4.752 -0.2397  0.5418  0.0416
  999TIP3   OH2 2939   4.342   7.236   3.167  0.2679 -0.0357 -0.2707
  999TIP3    H1 2940   4.315   7.319   3.127 -0.3730  0.4421  1.0736
  999TIP3    H2 2941   4.436   7.230   3.151  0.8622  2.2383  1.7303
 1000TIP3   OH2 2942   5.906   6.857   4.395 -0.4252 -0.6364  0.2493
 1000TIP3    H1 2943   5.902   6.922   4.465  0.0653 -0.4355  0.1000
 1000TIP3    H2 2944   5.969   6.792   4.427 -0.6414 -0.8475  0.2448
 1001TIP3   OH2 2945   1.002   4.840   2.060 -0.3680 -0.1830  0.2119
 1001TIP3    H1 2946   1.083   4.790   2.067 -0.9998 -1.2547  0.0930
 1001TIP3    H2 2947   0.946   4.806   2.130 -0.0072  1.9785  1.6588
 1002TIP3   OH2 2948   4.120   1.502   6.635 -0.2948  0.7013  0.5395
 1002TIP3    H1 2949   4.200   1.555   6.643 -0.7811  1.3631  1.0561
 1002TIP3    H2 2950   4.149   1.423   6.590  0.5581  1.1521  0.2694
 1003TIP3   OH2 2951   6.461   6.565   4.864  0.5604 -0.4722 -0.0877
 1003TIP3    H1 2952   6.386   6.514   4.892  0.1830  0.0274 -0.1655
 1003TIP3    H2 2953   6.456   6.646   4.916  0.8982 -0.3274 -0.2744
 1004TIP3   OH2 2954   1.614   7.168   4.033  0.4290 -0.4101  0.2239
 1004TIP3    H1 2955   1.582   7.211   4.112  0.5168 -0.2096  0.1492
 1004TIP3    H2 2956   1.590   7.076   4.045  3.3351 -1.0688  2.0008
 1005TIP3   OH2 2957   5.631   1.433   3.049  1.0108  0.3844  0.2463
 1005TIP3    H1 2958   5.703   1.449   2.988 -2.3918  0.9022 -4.1317
 1005TIP3    H2 2959   5.608   1.520   3.082  1.9319  0.2956  1.1544
 1006TIP3   OH2 2960   0.548   5.900   0.765 -0.3121  0.2104 -0.0976
 1006TIP3    H1 2961   0.633   5.925   0.800 -1.5033  1.2056  2.4137
 1006TIP3    H2 2962   0.520   5.975   0.714 -0.0882  0.2885 -0.1059
 1007TIP3   OH2 2963   6.783   5.320   5.250  0.2909  0.1735 -0.4921
 1007TIP3    H1 2964   6.730   5.243   5.227 -0.3097  0.3009  0.4093
 1007TIP3    H2 2965   6.804   5.360   5.166  0.3362 -0.7981 -0.9562
 1008TIP3   OH2 2966   5.112   0.628   1.857 -0.1546 -0.4173  0.4648
 1008TIP3    H1 2967   5.163   0.699   1.818 -0.1354 -0.8816 -0.3730
 1008TIP3    H2 2968   5.107   0.651   1.950 -0.2477  0.7336  0.1884
 1009TIP3   OH2 2969   4.133   5.743   0.435  0.2007 -0.1034  0.0750
 1009TIP3    H1 2970   4.124   5.798   0.513 -1.6845  1.2531 -1.0073
 1009TIP3    H2 2971   4.043   5.724   0.408  0.8072 -2.2414 -0.6480
 1010TIP3   OH2 2972   4.766   1.519   5.760 -0.5096  0.3247 -0.0722
 1010TIP3    H1 2973   4.806   1.603   5.781  2.1475 -0.5635 -1.1203
 1010TIP3    H2 2974   4.675   1.541   5.737 -0.8197  2.4397  2.7013
 1011TIP3   OH2 2975   3.133   1.114   3.768 -0.1353 -0.1705 -0.0228
 1011TIP3    H1 2976   3.224   1.138   3.784  0.0519 -0.6546 -0.3474
 1011TIP3    H2 2977   3.138   1.034   3.715 -0.7479  0.5118 -1.1234
 1012TIP3   OH2 2978   5.028   0.361   5.658  0.1460  0.2593 -0.3442
 1012TIP3    H1 2979   5.093   0.380   5.725 -0.5184 -2.7134  1.3094
 1012TIP3    H2 2980   5.069   0.293   5.604 -1.7477 -2.4371  1.3452
 1013TIP3   OH2 2981   1.130   4.695   6.493 -0.6753  0.3745  0.4175
 1013TIP3    H1 2982   1.132   4.762   6.561 -0.2375  2.3478 -1.4150
 1013TIP3    H2 2983   1.037   4.675   6.482 -0.8946  1.3327  0.4363
 1014TIP3   OH2 2984   4.097   5.605   0.111  0.0450 -0.4057 -0.3536
 1014TIP3    H1 2985   4.041   5.648   0.046 -0.2574  1.0540  0.8152
 1014TIP3    H2 2986   4.168   5.667   0.126 -0.3827 -0.2851  1.3556
 1015TIP3   OH2 2987   5.085   3.751   1.440  0.2485  0.2723  0.3162
 1015TIP3    H1 2988   5.175   3.720   1.437  0.1707  0.0824 -1.0505
 1015TIP3    H2 2989   5.087   3.828   1.496  1.5246  1.0840 -0.8033
 1016TIP3   OH2 2990   1.716   0.090   1.759 -0.0137 -0.2172  0.1775
 1016TIP3    H1 2991   1.697   0.123   1.847 -1.6347  0.7453 -0.4920
 1016TIP3    H2 2992   1.791   0.141   1.729 -0.8647  1.0698  0.1655
 1017TIP3   OH2 2993   5.348   2.667   6.274  0.1352  0.1265  0.1835
 1017TIP3    H1 2994   5.422   2.613   6.246 -0.7918 -0.7719 -0.6415
 1017TIP3    H2 2995   5.270   2.616   6.249 -0.7686  0.7269  1.6214
 1018TIP3   OH2 2996   1.760   2.308   0.386 -0.2729  0.9504  0.9000
 1018TIP3    H1 2997   1.839   2.270   0.423 -0.1232  0.4882  0.1298
 1018TIP3    H2 2998   1.689   2.253   0.419 -0.0662  0.0167 -0.1449
 1019TIP3   OH2 2999   1.148   4.434   3.994  0.3637 -0.4680  0.2226
 1019TIP3    H1 3000   1.190   4.451   4.078  2.1024  0.4971 -0.7944
 1019TIP3    H2 3001   1.112   4.346   4.003 -1.1862  0.3049  2.6131
 1020TIP3   OH2 3002   1.368   3.793   5.685 -0.3552 -0.1045 -0.1919
 1020TIP3    H1 3003   1.356   3.884   5.712  0.8167  0.0206 -0.0386
 1020TIP3    H2 3004   1.312   3.743   5.744 -0.0711  0.4208  0.5404
 1021TIP3   OH2 3005   3.821   5.819   6.102 -0.5686 -0.5026  0.1844
 1021TIP3    H1 3006   3.787   5.755   6.040 -0.7843 -0.9573  0.7547
 1021TIP3    H2 3007   3.792   5.786   6.188  0.4972 -0.3946  0.6052
 1022TIP3   OH2 3008   7.316   4.105   4.522 -0.2610 -0.2562 -0.2626
 1022TIP3    H1 3009   7.257   4.111   4.598 -0.4303  0.1762 -0.4314
 1022TIP3    H2 3010   7.388   4.165   4.543  0.2225 -0.9212  0.0288
 1023TIP3   OH2 3011   2.636   7.419   4.581  0.5582 -0.1386 -0.1400
 1023TIP3    H1 3012   2.575   7.477   4.627  0.1862 -1.2888  0.8466
 1023TIP3    H2 3013   2.604   7.331   4.598  2.4209 -0.7814  0.3324
 1024TIP3   OH2 3014   0.673   0.580   5.496  0.0191  0.6705  0.0854
 1024TIP3    H1 3015   0.592   0.534   5.518  0.9707 -1.1151  0.0156
 1024TIP3    H2 3016   0.652   0.629   5.416 -0.6065 -0.8875 -0.7299
 1025TIP3   OH2 3017   1.720   1.652   3.446 -0.4201 -0.1178 -0.2037
 1025TIP3    H1 3018   1.764   1.674   3.527 -0.0994 -0.5455 -0.2633
 1025TIP3    H2 3019   1.785   1.667   3.378  0.5616 -3.2758 -0.0980
 1026TIP3   OH2 3020   4.556   0.273   1.441  0.4425 -0.0662 -0.1868
 1026TIP3    H1 3021   4.537   0.225   1.521  0.2299  1.2362  0.5721
 1026TIP3    H2 3022   4.645   0.247   1.417  1.3174  1.0818  1.6442
 1027TIP3   OH2 3023   0.861   4.636   5.132  0.8425  0.2639 -0.3025
 1027TIP3    H1 3024   0.946   4.597   5.153  0.7357  0.3863  0.3748
 1027TIP3    H2 3025   0.801   4.561   5.128  0.1316  0.4377  3.3805
 1028TIP3   OH2 3026   5.812   2.267   5.045  0.0350 -0.2125  0.3180
 1028TIP3    H1 3027   5.751   2.194   5.052 -0.6782  0.2416 -0.8872
 1028TIP3    H2 3028   5.756   2.345   5.042  0.7308  0.3047  0.5162
 1029TIP3   OH2 3029   0.556   4.217   2.923 -0.3078  0.6658 -0.4525
 1029TIP3    H1 3030   0.554   4.285   2.856 -2.3434  2.4387  1.2400
 1029TIP3    H2 3031   0.475   4.168   2.909 -0.7844  1.0923  0.6570
 1030TIP3   OH2 3032   0.953   1.300   1.100 -0.3294  0.3469  0.0438
 1030TIP3    H1 3033   0.936   1.217   1.143  1.3817 -0.0770 -0.0093
 1030TIP3    H2 3034   0.899   1.363   1.146 -0.2033 -0.4764  1.3632
 1031TIP3   OH2 3035   1.164   3.037   0.249 -0.4816 -0.0228 -0.2079
 1031TIP3    H1 3036   1.079   3.060   0.285  0.3484  2.3855  0.4559
 1031TIP3    H2 3037   1.185   3.109   0.190  0.1233 -1.7231 -2.1750
 1032TIP3   OH2 3038   4.429   0.243   6.056  0.0056 -0.0327 -0.1029
 1032TIP3    H1 3039   4.519   0.213   6.046 -0.1500 -0.4778 -0.2072
 1032TIP3    H2 3040   4.424   0.274   6.147  0.1763 -0.3052 -0.0001
 1033TIP3   OH2 3041   6.437   1.389   5.641  0.0421  0.6431  0.3052
 1033TIP3    H1 3042   6.420   1.319   5.704  0.8475  0.8742  0.7987
 1033TIP3    H2 3043   6.351   1.423   5.618 -0.5316 -1.8116 -1.4779
 1034TIP3   OH2 3044   5.570   3.963   2.369 -0.3062 -0.1976 -0.2275
 1034TIP3    H1 3045   5.533   3.886   2.325 -1.4277  1.0268 -1.5462
 1034TIP3    H2 3046   5.664   3.949   2.368 -0.4506 -1.2340 -1.0639
 1035TIP3   OH2 3047   2.541   1.995   0.911  0.0834  0.0132  0.3145
 1035TIP3    H1 3048   2.499   1.972   0.828  2.3864 -2.3617 -0.3345
 1035TIP3    H2 3049   2.469   2.026   0.967 -1.5278  1.8975 -2.5506
 1036TIP3   OH2 3050   4.036   4.311   1.515 -0.0546  0.1996 -0.2186
 1036TIP3    H1 3051   4.082   4.395   1.510  0.3991 -0.1023 -1.4872
 1036TIP3    H2 3052   3.944   4.335   1.526  0.1373  0.8464  0.0351
 1037TIP3   OH2 3053   1.116   6.258   4.433 -0.0273  0.1860 -0.5056
 1037TIP3    H1 3054   1.146   6.171   4.406  0.3615 -0.0905  0.7747
 1037TIP3    H2 3055   1.055   6.284   4.364 -0.0094 -1.0154 -1.0061
 1038TIP3   OH2 3056   0.836   3.801   6.580 -0.0445  0.5213  0.3192
 1038TIP3    H1 3057   0.864   3.732   6.639  0.5543 -1.8396 -2.5056
 1038TIP3    H2 3058   0.908   3.864   6.581  1.3032 -0.9472 -0.0535
 1039TIP3   OH2 3059   2.150   6.752   1.117  0.8661 -0.1028 -0.4042
 1039TIP3    H1 3060   2.184   6.700   1.044 -3.1917 -0.4545 -2.3443
 1039TIP3    H2 3061   2.164   6.843   1.091 -2.2069 -0.1507 -2.8220
 1040TIP3   OH2 3062   3.015   4.810   5.505  0.0329  0.1526 -0.2776
 1040TIP3    H1 3063   3.083   4.743   5.497  1.0274  0.6438  2.8471
 1040TIP3    H2 3064   2.938   4.771   5.465  1.4036 -1.5168 -1.4565
 1041TIP3   OH2 3065   3.445   5.440   6.348  0.2806 -0.2199  0.2618
 1041TIP3    H1 3066   3.352   5.460   6.365 -0.0872 -0.4668 -1.2815
 1041TIP3    H2 3067   3.461   5.475   6.261  1.6859 -0.1173  0.5410
 1042TIP3   OH2 3068   2.912   2.887   2.366 -0.1604  0.1510 -0.1109
 1042TIP3    H1 3069   2.833   2.928   2.402 -1.2486 -0.7579 -1.3616
 1042TIP3    H2 3070   2.913   2.799   2.404  0.4591  0.2821  0.1813
 1043TIP3   OH2 3071   5.695   1.698   3.480  0.1000  0.5239  0.0814
 1043TIP3    H1 3072   5.708   1.724   3.389 -0.2603  1.0229  0.1674
 1043TIP3    H2 3073   5.684   1.603   3.477 -0.4719  0.6023 -0.4678
 1044TIP3   OH2 3074   2.890   4.254   3.871  0.0579 -0.0131 -0.1275
 1044TIP3    H1 3075   2.886   4.212   3.786  2.6137  0.6196 -0.6416
 1044TIP3    H2 3076   2.961   4.318   3.863  0.6742 -0.2466  2.6072
 1045TIP3   OH2 3077   8.043   7.237   4.487  0.1300  0.1103 -0.3368
 1045TIP3    H1 3078   7.995   7.290   4.422 -0.0806 -0.5265 -0.7080
 1045TIP3    H2 3079   7.980   7.223   4.558  0.5267  1.2561  0.2703
 1046TIP3   OH2 3080   3.595   6.938   1.504 -0.0832  0.2508 -0.6220
 1046TIP3    H1 3081   3.576   6.939   1.598  1.5494 -0.0902 -0.2480
 1046TIP3    H2 3082   3.532   6.998   1.466  0.8655  2.4296  1.0375
 1047TIP3   OH2 3083   0.458   4.594   3.138 -0.3324  0.4440  0.2810
 1047TIP3    H1 3084   0.460   4.498   3.138 -0.4709  0.3969 -1.3684
 1047TIP3    H2 3085   0.375   4.616   3.181 -1.2635 -0.2704 -1.0522
 1048TIP3   OH2 3086   2.699   5.283   1.911  0.4148 -0.2230  0.1026
 1048TIP3    H1 3087   2.744   5.199   1.903  0.3750 -0.2102 -0.2521
 1048TIP3    H2 3088   2.685   5.312   1.821  0.7748  0.3483  0.2227
 1049TIP3   OH2 3089   2.727   6.904   5.414  0.2088 -0.1462 -0.1821
 1049TIP3    H1 3090   2.802   6.953   5.448 -0.6826  1.4235 -0.3657
 1049TIP3    H2 3091   2.715   6.937   5.325  0.1835 -1.4505 -0.6817
 1050TIP3   OH2 3092   1.974   3.322   1.956  0.4076 -0.3718 -0.0922
 1050TIP3    H1 3093   1.910   3.294   2.022  0.6727  0.4191  0.5209
 1050TIP3    H2 3094   1.963   3.417   1.950  1.9561 -0.1101  0.5233
 1051TIP3   OH2 3095   5.824   5.217   4.525 -0.0527 -0.7372 -0.3077
 1051TIP3    H1 3096   5.805   5.251   4.613 -0.7687 -0.4521 -0.5718
 1051TIP3    H2 3097   5.860   5.130   4.541  0.7953 -0.2883  0.3218
 1052TIP3   OH2 3098   6.129   0.401   6.689 -0.3496 -0.2970 -0.1767
 1052TIP3    H1 3099   6.202   0.345   6.663 -1.0648 -0.6016 -1.5731
 1052TIP3    H2 3100   6.121   0.387   6.784  1.2520 -0.4151 -0.0260
 1053TIP3   OH2 3101   1.314   1.312   4.487  0.2371  0.1023  0.4290
 1053TIP3    H1 3102   1.340   1.229   4.526  2.8338  1.2042  1.3015
 1053TIP3    H2 3103   1.226   1.329   4.521  0.3808 -1.4397  1.6564
 1054TIP3   OH2 3104   0.443   1.402   1.203  0.1608  0.1035  0.2830
 1054TIP3    H1 3105   0.468   1.471   1.265  1.9978 -0.2721 -0.0017
 1054TIP3    H2 3106   0.447   1.445   1.117 -1.4190  0.3505  0.2890
 1055TIP3   OH2 3107   1.929   6.347   3.311  0.2945 -0.0148  0.2182
 1055TIP3    H1 3108   1.886   6.361   3.227  0.5110  1.0668  0.2706
 1055TIP3    H2 3109   1.864   6.300   3.364 -0.8950  1.6668  0.3274
 1056TIP3   OH2 3110   6.540   6.991   1.055 -0.1116 -0.1022 -0.1789
 1056TIP3    H1 3111   6.620   6.995   1.107 -0.1884  1.1866 -0.1120
 1056TIP3    H2 3112   6.556   6.922   0.991  0.5312 -0.7531  0.6681
 1057TIP3   OH2 3113   7.373   0.613   6.021 -0.0099 -0.0119 -0.6958
 1057TIP3    H1 3114   7.459   0.641   5.988 -0.4675  1.4168 -0.7340
 1057TIP3    H2 3115   7.374   0.518   6.011  0.4233  0.2007 -3.5325
 1058TIP3   OH2 3116   5.447   3.564   6.515  0.0589 -0.0650 -0.4138
 1058TIP3    H1 3117   5.402   3.520   6.443  0.1370 -0.7999 -0.0256
 1058TIP3    H2 3118   5.493   3.494   6.561  1.2232  0.6073 -0.5160
 1059TIP3   OH2 3119   0.003   7.209   2.127 -0.3999 -0.2229  0.0213
 1059TIP3    H1 3120   0.040   7.297   2.122  0.0022 -0.4392 -0.9213
 1059TIP3    H2 3121   0.067   7.158   2.175  0.7931 -0.7087 -1.9962
 1060TIP3   OH2 3122   1.789   7.531   5.800 -0.0979 -0.3865  0.5612
 1060TIP3    H1 3123   1.771   7.585   5.724 -1.7315  0.5710  1.5784
 1060TIP3    H2 3124   1.851   7.465   5.769 -1.0283 -0.2645 -1.6789
 1061TIP3   OH2 3125   0.104   6.052   2.403  0.2508  0.1456 -1.0765
 1061TIP3    H1 3126   0.013   6.051   2.432 -0.3730  1.7638 -2.7095
 1061TIP3    H2 3127   0.131   6.144   2.412  0.9147  0.1573 -2.7940
 1062TIP3   OH2 3128   8.085   6.803   1.450 -0.5597 -0.4656  0.1249
 1062TIP3    H1 3129   8.101   6.753   1.370 -1.1857  0.9540 -0.9408
 1062TIP3    H2 3130   8.166   6.795   1.500  0.0718 -0.9123 -0.9314
 1063TIP3   OH2 3131   6.535   5.622   0.519  0.3864  0.0138  0.3632
 1063TIP3    H1 3132   6.563   5.613   0.428  3.3685  0.2208  1.1718
 1063TIP3    H2 3133   6.483   5.542   0.536  0.3340 -0.3402 -1.2901
 1064TIP3   OH2 3134   4.922   7.071   2.512  0.0950  0.0181  0.1174
 1064TIP3    H1 3135   4.937   7.165   2.506 -0.0104  0.0296  0.0414
 1064TIP3    H2 3136   4.831   7.063   2.540  0.3242 -0.0485  0.8654
 1065TIP3   OH2 3137   6.344   6.728   1.069  0.2526  0.4750  0.3805
 1065TIP3    H1 3138   6.416   6.740   1.131  0.5792  0.6780 -0.0299
 1065TIP3    H2 3139   6.286   6.664   1.110  0.1904  1.0099  1.1321
 1066TIP3   OH2 3140   4.401   6.792   0.540 -0.4072 -0.0416 -0.3947
 1066TIP3    H1 3141   4.496   6.802   0.551 -0.1889 -2.2399  0.1671
 1066TIP3    H2 3142   4.364   6.823   0.622 -0.2745  1.4912 -0.8741
 1067TIP3   OH2 3143   3.475   3.236   1.870  0.0554 -0.0525 -0.2980
 1067TIP3    H1 3144   3.407   3.249   1.805 -0.6701 -2.9091 -0.2188
 1067TIP3    H2 3145   3.428   3.213   1.950  1.0367 -1.2492 -0.0270
 1068TIP3   OH2 3146   1.208   6.789   6.457  0.7097  0.4580  0.5973
 1068TIP3    H1 3147   1.119   6.753   6.455  0.9869 -0.2399  0.4228
 1068TIP3    H2 3148   1.216   6.838   6.376  0.2343  1.1548  0.9629
 1069TIP3   OH2 3149   6.420   3.465   2.210 -0.5796 -0.4369  0.6460
 1069TIP3    H1 3150   6.345   3.473   2.270 -1.5823 -2.2302 -0.2939
 1069TIP3    H2 3151   6.412   3.541   2.152 -1.9064 -0.7795  0.3352
 1070TIP3   OH2 3152   3.646   3.590   1.785 -0.1454  0.1890  0.1070
 1070TIP3    H1 3153   3.615   3.626   1.868 -0.3018 -0.2510  0.2435
 1070TIP3    H2 3154   3.566   3.572   1.735 -0.2244 -1.9445  0.8734
 1071TIP3   OH2 3155   1.716   7.515   5.360  0.0640  0.4094  0.3302
 1071TIP3    H1 3156   1.710   7.459   5.282  0.5138  0.5768  0.1761
 1071TIP3    H2 3157   1.763   7.593   5.331 -1.4259  1.3245  0.2981
 1072TIP3   OH2 3158   3.403   1.254   2.804  0.0269  0.3589  0.0618
 1072TIP3    H1 3159   3.406   1.160   2.823 -0.5372  0.3448  0.1190
 1072TIP3    H2 3160   3.314   1.280   2.828 -0.1147  0.7255 -0.8165
 1073TIP3   OH2 3161   5.191   7.044   0.573  0.0267 -0.4683 -0.2125
 1073TIP3    H1 3162   5.216   7.011   0.659  0.4242 -0.1467 -0.2011
 1073TIP3    H2 3163   5.117   6.990   0.547  0.5201 -1.2103 -0.0957
 1074TIP3   OH2 3164   1.293   7.294   4.760  0.2265  0.2720  0.3689
 1074TIP3    H1 3165   1.261   7.322   4.845  0.1541  0.4705  0.2781
 1074TIP3    H2 3166   1.234   7.225   4.733 -0.2252  0.7449  0.1309
 1075TIP3   OH2 3167   3.177   2.557   1.449  0.2537 -0.3644 -0.5159
 1075TIP3    H1 3168   3.197   2.634   1.501 -2.3736  0.9115 -1.2505
 1075TIP3    H2 3169   3.170   2.486   1.513 -0.7175  0.7241  0.6346
 1076TIP3   OH2 3170   7.163   7.355   6.140  0.1729  0.0945  0.6079
 1076TIP3    H1 3171   7.196   7.296   6.208  0.4041  0.3704  0.7367
 1076TIP3    H2 3172   7.080   7.316   6.113  0.0606  0.0048  1.0767
 1077TIP3   OH2 3173   1.010   3.053   6.467  0.3183 -0.1765 -0.1175
 1077TIP3    H1 3174   0.932   3.073   6.415 -0.5387 -0.7528  0.9264
 1077TIP3    H2 3175   1.076   3.030   6.401 -0.9943 -1.7824 -0.9550
 1078TIP3   OH2 3176   7.311   7.194   5.370  0.5187  0.2857 -0.1463
 1078TIP3    H1 3177   7.279   7.282   5.389  2.5129  0.6021  2.3962
 1078TIP3    H2 3178   7.401   7.195   5.402  0.9884 -2.3493 -1.1841
 1079TIP3   OH2 3179   4.432   0.547   1.389 -0.2053 -0.0471 -0.2709
 1079TIP3    H1 3180   4.368   0.537   1.319 -0.7412  1.5076 -0.0364
 1079TIP3    H2 3181   4.516   0.522   1.349 -0.8772 -1.7803 -0.6683
 1080TIP3   OH2 3182   8.072   5.942   2.219 -0.0700 -0.1051  0.2423
 1080TIP3    H1 3183   8.147   5.944   2.160 -0.3949 -1.0277 -0.2137
 1080TIP3    H2 3184   8.064   5.850   2.245 -1.4737 -0.1603 -0.2842
 1081TIP3   OH2 3185   0.873   0.134   5.123  0.1015 -0.0112 -0.1563
 1081TIP3    H1 3186   0.839   0.049   5.096  2.7885 -0.6526 -1.9909
 1081TIP3    H2 3187   0.875   0.130   5.219  1.1649 -2.5362 -0.1952
 1082TIP3   OH2 3188   3.198   2.423   1.002 -0.1408  0.0465  0.4150
 1082TIP3    H1 3189   3.282   2.437   1.047  0.5365 -0.4031 -0.6802
 1082TIP3    H2 3190   3.133   2.429   1.072  0.8172  0.1896  1.3259
 1083TIP3   OH2 3191   1.292   0.241   4.630  0.1152  0.2118 -0.0113
 1083TIP3    H1 3192   1.301   0.332   4.659 -1.2032 -0.2020  1.8140
 1083TIP3    H2 3193   1.200   0.233   4.605  0.0095 -0.8459  0.6868
 1084TIP3   OH2 3194   4.937   1.247   5.187 -0.0491 -0.0034  0.3710
 1084TIP3    H1 3195   4.945   1.287   5.100 -1.2973 -0.3352  0.0924
 1084TIP3    H2 3196   4.972   1.314   5.246 -3.4181  2.2940  0.0920
 1085TIP3   OH2 3197   6.274   3.818   3.966 -0.2538 -0.2374  0.5498
 1085TIP3    H1 3198   6.328   3.785   3.895  0.9455 -0.5726  1.5818
 1085TIP3    H2 3199   6.259   3.743   4.023  0.2298  0.3717  1.5152
 1086TIP3   OH2 3200   4.260   2.852   5.498  0.4506  0.0910  0.4625
 1086TIP3    H1 3201   4.219   2.890   5.420 -0.0401 -0.8865  0.2252
 1086TIP3    H2 3202   4.352   2.841   5.473  0.2575 -0.4049 -0.0569
 1087TIP3   OH2 3203   8.226   6.303   0.764 -0.2881 -0.1849 -0.0444
 1087TIP3    H1 3204   8.148   6.357   0.760 -0.5548 -0.1622  3.1005
 1087TIP3    H2 3205   8.208   6.239   0.833  2.9130  0.7082  1.8518
 1088TIP3   OH2 3206   5.417   3.010   4.020  0.6561  0.2492  0.1846
 1088TIP3    H1 3207   5.470   2.932   4.033  2.2489  0.9060 -1.8394
 1088TIP3    H2 3208   5.451   3.073   4.084  0.5408 -0.1532  0.6463
 1089TIP3   OH2 3209   2.049   3.671   0.991 -0.0008 -0.3669  0.1027
 1089TIP3    H1 3210   2.026   3.763   1.003  0.2833 -0.2596 -0.1816
 1089TIP3    H2 3211   2.032   3.631   1.076  0.2689  0.0285  0.3464
 1090TIP3   OH2 3212   7.780   4.840   0.945  0.5296  0.4089 -0.0679
 1090TIP3    H1 3213   7.691   4.824   0.914  0.1583 -1.1558  1.6374
 1090TIP3    H2 3214   7.832   4.846   0.865 -0.3843 -3.2950 -1.1295
 1091TIP3   OH2 3215   1.007   7.451   5.220 -0.4386 -0.1957 -0.5438
 1091TIP3    H1 3216   1.002   7.411   5.307 -0.8824 -0.7077 -0.7940
 1091TIP3    H2 3217   1.049   7.536   5.235  1.9936 -1.3502 -0.1848
 1092TIP3   OH2 3218   3.811   5.187   2.355  0.1935 -0.1580  0.3408
 1092TIP3    H1 3219   3.855   5.258   2.307  0.4912  0.3618  1.3521
 1092TIP3    H2 3220   3.725   5.223   2.377 -0.4825 -0.9063 -0.9919
 1093TIP3   OH2 3221   5.221   5.395   3.248 -0.0027 -0.3533 -0.3475
 1093TIP3    H1 3222   5.228   5.478   3.201  1.6745 -0.1873  0.1393
 1093TIP3    H2 3223   5.207   5.329   3.179 -0.2438  0.1970 -0.8274
 1094TIP3   OH2 3224   6.123   2.597   2.657 -0.4023  0.3472 -0.2015
 1094TIP3    H1 3225   6.191   2.578   2.592 -0.4946  1.3523 -0.6137
 1094TIP3    H2 3226   6.136   2.531   2.725  0.5250  0.0790 -0.6174
 1095TIP3   OH2 3227   0.742   4.470   1.463 -0.1822 -0.4279 -0.2435
 1095TIP3    H1 3228   0.666   4.526   1.445 -0.8319 -0.2662  2.5557
 1095TIP3    H2 3229   0.716   4.383   1.432 -1.3497 -0.2738  0.2518
 1096TIP3   OH2 3230   0.618   2.505   4.512 -0.4154 -0.3822  0.5234
 1096TIP3    H1 3231   0.548   2.444   4.534 -1.0034  0.0464 -0.1360
 1096TIP3    H2 3232   0.619   2.567   4.585 -1.3057  0.1136  0.1272
 1097TIP3   OH2 3233   5.689   5.256   4.071  0.2551 -0.2963 -0.1583
 1097TIP3    H1 3234   5.727   5.273   3.985 -0.1515 -0.9203 -0.4723
 1097TIP3    H2 3235   5.608   5.307   4.072 -0.3286 -1.1820 -0.6115
 1098TIP3   OH2 3236   3.286   6.021   0.372  0.4510 -0.1351  0.3991
 1098TIP3    H1 3237   3.378   5.997   0.373  0.6234  0.0941 -2.2678
 1098TIP3    H2 3238   3.243   5.956   0.428  2.2909  0.3429  2.4846
 1099TIP3   OH2 3239   6.220   7.101   3.934  0.3109  0.2488 -0.3753
 1099TIP3    H1 3240   6.126   7.105   3.919 -0.1937 -0.0279  2.2513
 1099TIP3    H2 3241   6.259   7.130   3.852 -2.0661  1.0313 -1.2988
 1100TIP3   OH2 3242   5.983   2.083   1.587 -0.3548 -0.0699  0.3651
 1100TIP3    H1 3243   6.068   2.093   1.546 -1.5259  1.9293 -1.8279
 1100TIP3    H2 3244   6.000   2.096   1.681  1.8126 -0.5826  0.0949
 1101TIP3   OH2 3245   8.062   7.374   3.111 -0.5279 -0.2773 -0.2467
 1101TIP3    H1 3246   8.102   7.325   3.183 -1.1781 -0.1122  0.2390
 1101TIP3    H2 3247   8.134   7.421   3.071  0.2309 -2.0807 -1.1104
 1102TIP3   OH2 3248   5.053   0.225   2.428 -0.0640  0.2912 -0.2722
 1102TIP3    H1 3249   5.007   0.306   2.448 -1.7600 -0.6412 -0.1843
 1102TIP3    H2 3250   4.988   0.170   2.383  1.1549 -0.8644 -0.7175
 1103TIP3   OH2 3251   6.134   7.749   1.765 -0.4453 -0.8946  0.2823
 1103TIP3    H1 3252   6.098   7.769   1.679  0.5782  0.0068  0.0492
 1103TIP3    H2 3253   6.227   7.736   1.750 -0.0921  0.2137  1.3794
 1104TIP3   OH2 3254   7.568   5.439   3.205  0.2527  0.1628 -0.0089
 1104TIP3    H1 3255   7.489   5.430   3.258  0.8144  0.1522  0.8602
 1104TIP3    H2 3256   7.542   5.414   3.117 -0.5003 -0.7158  0.4472
 1105TIP3   OH2 3257   4.032   6.030   0.331 -0.0337 -0.0468  0.3157
 1105TIP3    H1 3258   3.980   5.978   0.392  0.1337  0.2381  0.7055
 1105TIP3    H2 3259   4.011   5.994   0.245  2.7939 -3.2702  0.7546
 1106TIP3   OH2 3260   0.452   2.697   1.841  0.8351 -0.1557 -0.1717
 1106TIP3    H1 3261   0.394   2.772   1.845  0.9046 -0.1379  0.9438
 1106TIP3    H2 3262   0.396   2.624   1.815  1.0887  0.5434 -3.0398
 1107TIP3   OH2 3263   2.305   2.584   1.506  0.7009 -0.0779  0.2676
 1107TIP3    H1 3264   2.213   2.581   1.479  0.6312 -1.0469  0.5922
 1107TIP3    H2 3265   2.351   2.622   1.430  0.4844 -2.6211 -1.2416
 1108TIP3   OH2 3266   4.968   3.898   0.496 -0.2421  0.1876 -0.5036
 1108TIP3    H1 3267   4.948   3.988   0.523 -0.4764 -0.4035  1.4900
 1108TIP3    H2 3268   4.893   3.871   0.443 -1.1274  0.5420  0.5349
 1109TIP3   OH2 3269   1.627   6.282   2.388 -0.1143  0.2457 -0.5504
 1109TIP3    H1 3270   1.706   6.331   2.365 -0.2388  1.1411  0.8184
 1109TIP3    H2 3271   1.659   6.205   2.434  0.0313 -0.3053 -1.5699
 1110TIP3   OH2 3272   7.856   0.728   0.202  0.3155  0.3600  0.0051
 1110TIP3    H1 3273   7.836   0.716   0.295 -0.1969  1.5243  0.0587
 1110TIP3    H2 3274   7.828   0.818   0.182  0.6328  0.2108 -1.2185
 1111TIP3   OH2 3275   3.581   5.210   0.576  0.3350  0.0697 -0.2552
 1111TIP3    H1 3276   3.497   5.179   0.543  0.9475 -0.1241 -1.7288
 1111TIP3    H2 3277   3.590   5.169   0.662 -1.4993  0.8881  0.3858
 1112TIP3   OH2 3278   4.834   2.358   4.975 -0.2508 -0.1066 -0.2843
 1112TIP3    H1 3279   4.787   2.401   5.046 -0.5275  0.1308 -0.6065
 1112TIP3    H2 3280   4.925   2.359   5.003 -0.2920  0.4176 -0.1427
 1113TIP3   OH2 3281   3.063   4.776   1.361  0.3229 -0.0842 -0.3937
 1113TIP3    H1 3282   2.975   4.812   1.346 -0.6291 -1.6284  1.0464
 1113TIP3    H2 3283   3.115   4.851   1.389 -0.5451  0.8535 -1.2361
 1114TIP3   OH2 3284   0.841   6.471   5.480 -0.2523  0.0353  0.0206
 1114TIP3    H1 3285   0.832   6.383   5.517 -1.7967 -0.1899 -0.7662
 1114TIP3    H2 3286   0.925   6.469   5.434 -0.7822 -1.4684 -0.9930
 1115TIP3   OH2 3287   2.298   6.011   1.754 -0.0373  0.4964  0.2693
 1115TIP3    H1 3288   2.330   6.082   1.698 -0.7648 -0.1937 -1.0835
 1115TIP3    H2 3289   2.279   6.053   1.838 -1.2196  2.0961 -0.7365
 1116TIP3   OH2 3290   2.492   4.414   4.674 -0.5322 -0.4002 -0.1869
 1116TIP3    H1 3291   2.484   4.319   4.674  1.4248 -0.6748  1.9389
 1116TIP3    H2 3292   2.492   4.438   4.767 -1.5776  1.7588 -0.6883
 1117TIP3   OH2 3293   7.721   6.085   3.748 -0.0236 -0.8788 -0.0122
 1117TIP3    H1 3294   7.780   6.136   3.691  0.4679 -0.8621  0.4991
 1117TIP3    H2 3295   7.640   6.136   3.750 -0.2529 -1.1633 -1.1433
 1118TIP3   OH2 3296   1.146   5.178   3.684  0.4452  0.0521 -0.1530
 1118TIP3    H1 3297   1.084   5.162   3.613 -1.2168  0.1806  1.1976
 1118TIP3    H2 3298   1.102   5.143   3.762  2.3541 -0.3884  0.7702
 1119TIP3   OH2 3299   0.042   1.776   6.241  0.1841 -0.1475 -0.2303
 1119TIP3    H1 3300   0.111   1.824   6.195  0.2395  0.8870  0.8642
 1119TIP3    H2 3301  -0.034   1.782   6.183  0.0787  1.6432  0.0128
 1120TIP3   OH2 3302   4.473   1.411   4.760 -0.0632  0.7191 -0.3284
 1120TIP3    H1 3303   4.474   1.477   4.691 -2.1834 -1.4867 -2.7061
 1120TIP3    H2 3304   4.382   1.407   4.789  0.1429 -0.6491  0.2126
 1121TIP3   OH2 3305   4.458   7.494   2.110  0.5122 -0.3311 -0.1486
 1121TIP3    H1 3306   4.493   7.570   2.063  0.8969 -1.6914 -2.1891
 1121TIP3    H2 3307   4.365   7.494   2.090  0.3733  0.0278  0.4884
 1122TIP3   OH2 3308   3.778   2.045   5.198  0.0731  0.5295 -0.1691
 1122TIP3    H1 3309   3.751   2.089   5.279  1.1025 -1.6530  1.4634
 1122TIP3    H2 3310   3.702   1.995   5.171  0.0083  0.5397 -0.0095
 1123TIP3   OH2 3311   4.495   2.703   4.016 -0.2956 -0.2820  0.6395
 1123TIP3    H1 3312   4.499   2.666   3.928  0.6010  0.0228  0.5462
 1123TIP3    H2 3313   4.573   2.669   4.060 -0.9492 -0.7760  1.4588
 1124TIP3   OH2 3314   2.919   7.665   6.653 -0.4912 -0.1563 -0.2630
 1124TIP3    H1 3315   2.939   7.572   6.640 -2.0180 -0.3462 -1.6032
 1124TIP3    H2 3316   2.972   7.691   6.728  0.5817 -1.8989 -0.3650
 1125TIP3   OH2 3317   4.865   3.533   0.937  0.1462  0.4593 -0.2984
 1125TIP3    H1 3318   4.874   3.599   0.869  0.1238 -0.9067 -1.6844
 1125TIP3    H2 3319   4.928   3.465   0.914 -0.7339 -0.6152  0.3265
 1126TIP3   OH2 3320   4.822   1.488   3.142  0.3729 -0.0386 -0.7829
 1126TIP3    H1 3321   4.810   1.486   3.237  2.2331  0.4197 -0.4925
 1126TIP3    H2 3322   4.754   1.548   3.111 -0.9717 -1.0465  0.1095
 1127TIP3   OH2 3323   1.807   3.252   2.373  0.3862  0.3924  0.2275
 1127TIP3    H1 3324   1.743   3.319   2.351  1.2794  1.1377 -0.1249
 1127TIP3    H2 3325   1.844   3.280   2.457  1.4134  0.8423 -0.3598
 1128TIP3   OH2 3326   0.888   6.280   5.968 -0.6244 -0.2769 -0.5730
 1128TIP3    H1 3327   0.932   6.364   5.980  0.1155 -0.6712 -0.4705
 1128TIP3    H2 3328   0.959   6.216   5.961 -0.9597 -0.4939 -4.1895
 1129TIP3   OH2 3329   4.941   5.739   5.362 -0.7886  0.3069 -0.5870
 1129TIP3    H1 3330   4.945   5.831   5.390 -1.5633  0.5626 -1.3018
 1129TIP3    H2 3331   5.016   5.729   5.303  1.9739 -0.6946  2.7035
 1130TIP3   OH2 3332   2.611   4.587   2.886  0.3658  0.3466 -0.0915
 1130TIP3    H1 3333   2.647   4.673   2.865  1.8740  0.4220  2.4521
 1130TIP3    H2 3334   2.631   4.574   2.979 -0.9229 -2.2258 -0.0858
 1131TIP3   OH2 3335   0.303   6.710   0.521 -0.1345 -0.1948 -0.0032
 1131TIP3    H1 3336   0.353   6.646   0.571  0.1585  0.4485  0.5544
 1131TIP3    H2 3337   0.304   6.677   0.431  2.9288  0.7028 -0.4151
 1132TIP3   OH2 3338   5.353   1.935   2.208 -0.5439  0.5572  0.0279
 1132TIP3    H1 3339   5.280   1.887   2.248 -1.9263  2.3950 -0.1853
 1132TIP3    H2 3340   5.429   1.911   2.262 -1.0232 -2.2032 -0.3482
 1133TIP3   OH2 3341   5.817   4.654   4.718  0.1069 -0.1046 -0.0113
 1133TIP3    H1 3342   5.910   4.668   4.699 -0.3129  1.1598 -1.3594
 1133TIP3    H2 3343   5.779   4.627   4.634 -1.4451  3.5613 -0.6856
 1134TIP3   OH2 3344   2.251   3.428   3.497  0.0958  0.2600  0.3161
 1134TIP3    H1 3345   2.313   3.500   3.506 -0.0348  0.2988  1.0040
 1134TIP3    H2 3346   2.166   3.468   3.517  0.0447 -0.1240  0.8699
 1135TIP3   OH2 3347   3.424   0.407   2.555 -0.4359 -0.7187 -0.3743
 1135TIP3    H1 3348   3.347   0.358   2.584  0.9264 -1.8553  1.5299
 1135TIP3    H2 3349   3.498   0.350   2.575  1.1318  1.5083  0.6163
 1136TIP3   OH2 3350   3.193   2.386   4.026 -0.1277 -0.8243  0.0754
 1136TIP3    H1 3351   3.118   2.337   3.993 -0.8853  0.8429 -0.7529
 1136TIP3    H2 3352   3.156   2.459   4.075  0.9104  0.3457 -0.8057
 1137TIP3   OH2 3353   1.106   7.732   1.910  0.1663  0.0182 -0.1932
 1137TIP3    H1 3354   1.053   7.806   1.882  0.9753  0.8323  0.3534
 1137TIP3    H2 3355   1.043   7.667   1.939 -0.5542  1.5469  1.9020
 1138TIP3   OH2 3356   5.815   5.916   5.164  0.2249  0.2757 -0.2575
 1138TIP3    H1 3357   5.894   5.970   5.166 -0.2382  1.0380  2.6614
 1138TIP3    H2 3358   5.752   5.964   5.217 -0.8645 -2.1693  0.8299
 1139TIP3   OH2 3359   4.679   2.062   0.053  0.4964 -0.3518 -0.0566
 1139TIP3    H1 3360   4.643   1.975   0.071  0.0360 -0.0458  0.5634
 1139TIP3    H2 3361   4.629   2.120   0.110  1.3192  0.2224  0.0901
 1140TIP3   OH2 3362   7.336   4.317   0.177 -0.1632  0.0148 -0.3627
 1140TIP3    H1 3363   7.265   4.268   0.136 -0.4431 -0.5591  0.7932
 1140TIP3    H2 3364   7.382   4.358   0.103 -1.4786  0.1241 -1.1464
 1141TIP3   OH2 3365   2.472   5.452   1.166 -0.0455 -0.3664 -0.7511
 1141TIP3    H1 3366   2.456   5.365   1.130 -0.4795 -1.0346  0.9390
 1141TIP3    H2 3367   2.426   5.452   1.250  1.4408  0.8499  0.1308
 1142TIP3   OH2 3368   7.103   2.638   6.469 -0.1163  0.1040 -0.0567
 1142TIP3    H1 3369   7.102   2.555   6.421 -0.9924 -0.7581  1.3886
 1142TIP3    H2 3370   7.111   2.705   6.401 -2.1694 -1.0057 -1.5065
 1143TIP3   OH2 3371   6.616   5.176   4.060 -0.4495 -0.2258 -0.4652
 1143TIP3    H1 3372   6.588   5.234   3.989 -0.3894 -1.5087 -1.5774
 1143TIP3    H2 3373   6.696   5.216   4.094 -1.0364  0.9475 -0.4165
 1144TIP3   OH2 3374   2.567   5.203   4.422 -0.2413 -0.1314  0.0380
 1144TIP3    H1 3375   2.526   5.264   4.361  0.7020  1.4278  0.8934
 1144TIP3    H2 3376   2.625   5.149   4.368  0.4999  1.1532 -0.5013
 1145TIP3   OH2 3377   4.955   5.333   5.540  0.4716  0.4247 -0.1434
 1145TIP3    H1 3378   4.922   5.281   5.613  2.2444  0.3572  0.6629
 1145TIP3    H2 3379   4.907   5.301   5.464 -0.9022 -0.0014  0.8746
 1146TIP3   OH2 3380   7.511   2.057   4.013  0.4527  0.1627  0.2217
 1146TIP3    H1 3381   7.465   2.075   4.096 -0.2512 -1.4174  0.2111
 1146TIP3    H2 3382   7.481   1.970   3.987  1.7490  0.0324 -0.9841
 1147TIP3   OH2 3383   8.145   0.134   0.790  0.2088 -0.1449 -0.1115
 1147TIP3    H1 3384   8.096   0.062   0.830 -0.0195 -0.5579 -1.0943
 1147TIP3    H2 3385   8.234   0.123   0.823  0.2551 -1.1014 -0.5141
 1148TIP3   OH2 3386   3.573   3.746   4.471 -0.2254 -0.3683 -0.0360
 1148TIP3    H1 3387   3.655   3.698   4.483 -0.1980 -0.2580  0.2285
 1148TIP3    H2 3388   3.599   3.829   4.430 -0.0384  0.2334  1.2572
 1149TIP3   OH2 3389   6.605   3.988   3.860  0.2565 -0.2602 -0.0626
 1149TIP3    H1 3390   6.551   3.910   3.847 -0.4514  0.0573  0.8593
 1149TIP3    H2 3391   6.591   4.012   3.952 -0.6376  1.7656 -0.6762
 1150TIP3   OH2 3392   0.687   7.141   6.460 -0.3505 -0.4589 -0.3218
 1150TIP3    H1 3393   0.750   7.135   6.389  2.1286  2.5819  1.3343
 1150TIP3    H2 3394   0.649   7.228   6.451 -0.9454 -0.5086  1.2864
 1151TIP3   OH2 3395   0.322   0.572   2.993  0.8114 -0.0254  0.0525
 1151TIP3    H1 3396   0.340   0.563   3.087 -1.2576 -0.3423  0.4769
 1151TIP3    H2 3397   0.342   0.486   2.956  2.3418  0.3174  0.0508
 1152TIP3   OH2 3398   8.218   7.023   2.900 -0.3698 -0.2568 -0.3823
 1152TIP3    H1 3399   8.250   7.107   2.868  0.2661  0.0618  0.9947
 1152TIP3    H2 3400   8.229   6.963   2.826 -0.0170  0.6707 -1.1031
 1153TIP3   OH2 3401   6.528   5.257   6.324 -0.0581  0.3580 -0.1447
 1153TIP3    H1 3402   6.434   5.240   6.330 -0.0688  0.0823 -0.8933
 1153TIP3    H2 3403   6.543   5.333   6.380 -1.0051  1.3759 -1.2166
 1154TIP3   OH2 3404   0.606   5.525   2.239  0.4025  0.2294 -0.2971
 1154TIP3    H1 3405   0.526   5.544   2.190 -0.4901 -0.3238  0.9031
 1154TIP3    H2 3406   0.639   5.444   2.200  0.8683  0.8902 -1.3422
 1155TIP3   OH2 3407   5.969   2.517   5.851 -0.7084  0.9213 -0.6975
 1155TIP3    H1 3408   6.003   2.595   5.895 -0.0394 -0.1185  0.6962
 1155TIP3    H2 3409   6.044   2.485   5.800 -0.1959 -0.1534  0.6691
 1156TIP3   OH2 3410   2.148   5.324   0.805 -0.1031  0.1059 -0.1106
 1156TIP3    H1 3411   2.128   5.231   0.817  1.3325 -0.0138  1.6623
 1156TIP3    H2 3412   2.242   5.331   0.821 -0.2269  1.9153  0.0293
 1157TIP3   OH2 3413   0.659   6.150   6.773 -0.0735  0.2398 -0.1716
 1157TIP3    H1 3414   0.617   6.172   6.690 -0.2549  0.4863 -0.0131
 1157TIP3    H2 3415   0.725   6.217   6.786  0.2130 -0.0120 -0.3010
 1158TIP3   OH2 3416   7.168   7.208   2.857 -0.0981 -0.3900 -0.1924
 1158TIP3    H1 3417   7.173   7.231   2.950 -1.5934  0.7576 -0.3561
 1158TIP3    H2 3418   7.213   7.124   2.851  0.3563 -0.3088  1.5026
 1159TIP3   OH2 3419   3.051   6.220   5.933  1.1092  0.3201 -0.0351
 1159TIP3    H1 3420   3.114   6.197   6.002  0.6999 -0.2963  0.1445
 1159TIP3    H2 3421   2.965   6.207   5.974  0.8563 -0.2570 -0.7188
 1160TIP3   OH2 3422   5.540   7.182   5.608 -0.2157  0.4847 -0.3695
 1160TIP3    H1 3423   5.477   7.237   5.561  1.5196  1.0966 -2.1604
 1160TIP3    H2 3424   5.590   7.244   5.661 -0.9885  0.0259  0.9193
 1161TIP3   OH2 3425   5.445   6.459   0.210 -0.5333 -0.5547  0.4164
 1161TIP3    H1 3426   5.514   6.401   0.243 -0.6805 -1.0778 -0.1775
 1161TIP3    H2 3427   5.368   6.403   0.206 -0.1095 -1.0633 -2.6107
 1162TIP3   OH2 3428   3.054   6.043   5.652 -0.1574  0.4224  0.1320
 1162TIP3    H1 3429   2.994   5.995   5.594  2.3425 -1.8649 -0.7432
 1162TIP3    H2 3430   3.057   5.990   5.732  1.8841 -0.4398 -0.4665
 1163TIP3   OH2 3431   7.275   1.294   4.211  0.1157  0.1565  0.5500
 1163TIP3    H1 3432   7.181   1.311   4.221  0.0626  0.4686 -0.4011
 1163TIP3    H2 3433   7.311   1.310   4.299 -0.5870  0.9244  0.7157
 1164TIP3   OH2 3434   4.183   2.026   1.923 -0.1291 -0.0248  0.4519
 1164TIP3    H1 3435   4.238   2.092   1.880 -2.4541  0.9499 -1.1812
 1164TIP3    H2 3436   4.168   1.959   1.857  0.0319 -0.9020  1.2731
 1165TIP3   OH2 3437   1.543   7.228   3.462 -0.0852  0.0632  0.2131
 1165TIP3    H1 3438   1.505   7.160   3.406 -1.6635  0.3066  0.9412
 1165TIP3    H2 3439   1.547   7.188   3.549 -0.1221  0.5699  0.4512
 1166TIP3   OH2 3440   6.436   7.554   5.257  0.4565  0.2614  0.0164
 1166TIP3    H1 3441   6.381   7.583   5.331 -0.3991 -0.9833 -0.0945
 1166TIP3    H2 3442   6.525   7.558   5.291  0.1070  0.0545  1.0018
 1167TIP3   OH2 3443   7.470   3.469   1.085  0.3908  0.6009  0.3475
 1167TIP3    H1 3444   7.483   3.547   1.139 -1.6232  1.3688 -0.1721
 1167TIP3    H2 3445   7.390   3.429   1.120 -1.0114  1.1415 -1.9886
 1168TIP3   OH2 3446   3.893   1.687   1.511 -0.1582  0.1936  0.4118
 1168TIP3    H1 3447   3.889   1.597   1.478  0.6075  0.6396 -0.9940
 1168TIP3    H2 3448   3.820   1.732   1.470  0.5746  0.6627 -0.4070
 1169TIP3   OH2 3449   0.223   5.597   3.558  0.4217 -0.8347 -0.6040
 1169TIP3    H1 3450   0.310   5.636   3.569 -0.4969  0.8618  1.2025
 1169TIP3    H2 3451   0.207   5.550   3.640 -0.9994  0.2703 -0.2163
 1170TIP3   OH2 3452   7.517   0.994   1.046  0.1367 -0.7123  0.4520
 1170TIP3    H1 3453   7.471   1.078   1.039  0.2789 -0.5451  1.4483
 1170TIP3    H2 3454   7.456   0.931   1.006  0.4249 -0.0170 -1.1569
 1171TIP3   OH2 3455   4.641   2.466   3.639  0.1759  0.5235  0.0346
 1171TIP3    H1 3456   4.627   2.437   3.549  2.1669 -0.1796 -0.0880
 1171TIP3    H2 3457   4.627   2.388   3.693 -0.0248  0.6977  0.2370
 1172TIP3   OH2 3458   6.137   1.041   6.204  0.4864 -0.5577  0.0945
 1172TIP3    H1 3459   6.201   1.112   6.202  0.6071 -0.6780 -0.8472
 1172TIP3    H2 3460   6.149   0.995   6.121  1.8434 -2.9381  1.4639
 1173TIP3   OH2 3461   6.915   0.058   3.614  0.0339  0.4909 -0.1916
 1173TIP3    H1 3462   6.839   0.112   3.594 -0.5280 -0.8103 -1.9081
 1173TIP3    H2 3463   6.896   0.021   3.700 -1.0661  0.5616 -0.3872
 1174TIP3   OH2 3464   3.087   3.775   5.529 -0.4192 -0.2227  0.3160
 1174TIP3    H1 3465   3.115   3.711   5.464 -1.5339  0.2463 -0.6700
 1174TIP3    H2 3466   3.023   3.829   5.483  1.1254  2.1901  0.8416
 1175TIP3   OH2 3467   4.805   5.335   6.511 -0.3680  0.4060 -0.2450
 1175TIP3    H1 3468   4.890   5.293   6.522 -0.8523 -0.7755 -0.7599
 1175TIP3    H2 3469   4.772   5.348   6.600 -0.2115 -0.3592 -0.0667
 1176TIP3   OH2 3470   4.094   3.588   0.956  0.1790  0.0600 -0.7512
 1176TIP3    H1 3471   4.070   3.513   1.011  1.7735  0.3789  0.4643
 1176TIP3    H2 3472   4.010   3.628   0.933 -0.6014 -0.6911  0.6032
 1177TIP3   OH2 3473   2.791   7.788   0.451  0.2126 -0.1453  0.0503
 1177TIP3    H1 3474   2.846   7.713   0.470  0.8453  0.1813 -0.4759
 1177TIP3    H2 3475   2.746   7.766   0.369 -0.0607 -0.1973  0.2112
 1178TIP3   OH2 3476   7.875   1.262   2.536 -0.2233  0.2223 -0.0965
 1178TIP3    H1 3477   7.947   1.290   2.592  1.3419 -0.6943 -1.5191
 1178TIP3    H2 3478   7.914   1.259   2.448 -2.2549  0.5199 -1.0572
 1179TIP3   OH2 3479   6.850   6.167   4.660 -0.6435  0.0547 -0.2057
 1179TIP3    H1 3480   6.897   6.190   4.740  0.2065  0.9931 -0.9329
 1179TIP3    H2 3481   6.850   6.248   4.608  2.0313 -1.3471 -2.7140
 1180TIP3   OH2 3482   3.454   1.144   4.650 -0.2083  0.6233  0.2136
 1180TIP3    H1 3483   3.394   1.071   4.641  0.4764  0.1134 -0.4416
 1180TIP3    H2 3484   3.400   1.222   4.640 -0.8469  0.1890  0.2689
 1181TIP3   OH2 3485   6.565   3.758   4.126 -0.1410  0.0142  0.8746
 1181TIP3    H1 3486   6.659   3.768   4.114 -0.5445  1.6834 -1.7393
 1181TIP3    H2 3487   6.545   3.670   4.095  0.8489 -1.6751  4.4994
 1182TIP3   OH2 3488   6.935   6.918   5.727 -0.1505  0.6597 -0.7915
 1182TIP3    H1 3489   6.896   6.980   5.789 -1.5524  0.5897 -1.5603
 1182TIP3    H2 3490   7.017   6.959   5.700 -0.8570  1.9972 -0.9701
 1183TIP3   OH2 3491   6.303   0.334   1.936  0.2559  0.1613  0.0398
 1183TIP3    H1 3492   6.313   0.246   1.971  0.1540  0.9805  2.2720
 1183TIP3    H2 3493   6.215   0.361   1.963  0.6615  1.3102  0.2725
 1184TIP3   OH2 3494   2.855   4.290   6.267 -0.4860 -0.1143  0.3151
 1184TIP3    H1 3495   2.927   4.354   6.262 -1.1174  0.5514 -0.6099
 1184TIP3    H2 3496   2.864   4.238   6.187 -0.9479 -0.1095  0.2575
 1185TIP3   OH2 3497   3.275   1.253   2.310 -0.3526 -0.0826 -0.4517
 1185TIP3    H1 3498   3.341   1.304   2.263 -1.2097  2.3481  0.8364
 1185TIP3    H2 3499   3.231   1.316   2.367 -2.5518 -1.9725  0.1112
 1186TIP3   OH2 3500   3.463   6.461   5.338  0.1640  0.1524  0.8027
 1186TIP3    H1 3501   3.550   6.435   5.369 -0.6611 -2.1157  1.3933
 1186TIP3    H2 3502   3.447   6.546   5.380  1.7726  0.2414  1.3000
 1187TIP3   OH2 3503   6.045   0.425   3.316  0.5091  0.0339  0.0741
 1187TIP3    H1 3504   6.103   0.491   3.354  2.5116 -0.4257 -1.9378
 1187TIP3    H2 3505   6.081   0.341   3.346 -0.7373 -0.2479  0.8835
 1188TIP3   OH2 3506   1.772   7.695   3.440  1.3504  0.2003 -0.2474
 1188TIP3    H1 3507   1.683   7.661   3.448  1.5771 -0.8921 -1.8786
 1188TIP3    H2 3508   1.818   7.657   3.514  0.9222 -0.8802 -0.5098
 1189TIP3   OH2 3509   6.694   1.299   6.449  0.4354 -0.2371 -0.5221
 1189TIP3    H1 3510   6.733   1.223   6.404  1.5955  0.6448 -1.0527
 1189TIP3    H2 3511   6.702   1.278   6.542 -0.5257 -1.3707 -0.6669
 1190TIP3   OH2 3512   4.867   1.985   3.159 -0.0445 -0.0014  0.4744
 1190TIP3    H1 3513   4.810   2.013   3.087  1.0544 -1.0448 -0.8539
 1190TIP3    H2 3514   4.868   2.059   3.219 -0.4736  1.1658 -0.9066
 1191TIP3   OH2 3515   3.297   6.563   0.535 -0.2291  0.8174  0.2619
 1191TIP3    H1 3516   3.370   6.610   0.575  0.0543  0.3293  0.3339
 1191TIP3    H2 3517   3.292   6.597   0.445 -1.4078  2.5278  0.9357
 1192TIP3   OH2 3518   5.418   6.374   2.263  0.6221  0.3086 -0.2100
 1192TIP3    H1 3519   5.428   6.288   2.221 -0.0503  0.3305 -0.4388
 1192TIP3    H2 3520   5.343   6.362   2.322  0.2304  0.8540 -0.5853
 1193TIP3   OH2 3521   1.478   6.293   0.216 -0.1618  0.7416  0.3187
 1193TIP3    H1 3522   1.566   6.267   0.242 -0.1421 -0.3983 -0.8277
 1193TIP3    H2 3523   1.484   6.314   0.123 -1.5684 -1.8174 -0.4421
 1194TIP3   OH2 3524   7.679   7.017   3.177  0.3357  0.3247  0.5457
 1194TIP3    H1 3525   7.692   6.928   3.145  0.6604  0.6711 -0.3008
 1194TIP3    H2 3526   7.764   7.060   3.166 -0.3971  1.4404 -1.3340
 1195TIP3   OH2 3527   7.753   5.076   2.290 -0.1657 -0.4207  0.7345
 1195TIP3    H1 3528   7.678   5.021   2.316 -0.6967 -0.1339 -0.1506
 1195TIP3    H2 3529   7.751   5.150   2.350 -0.4920 -0.5030  0.8269
 1196TIP3   OH2 3530   5.208   2.524   0.687 -0.3761 -0.1796  0.3448
 1196TIP3    H1 3531   5.193   2.430   0.677 -0.8539  0.0186 -1.0349
 1196TIP3    H2 3532   5.302   2.535   0.673 -0.3494 -0.4390  0.3166
 1197TIP3   OH2 3533   5.516   0.820   3.788 -0.2603  0.0810  0.1951
 1197TIP3    H1 3534   5.438   0.796   3.737  0.1983  1.6143 -1.3547
 1197TIP3    H2 3535   5.589   0.796   3.731  0.4173 -1.1101  1.5293
 1198TIP3   OH2 3536   2.262   7.611   1.783  0.6029 -0.4511 -0.4174
 1198TIP3    H1 3537   2.324   7.620   1.855  0.1160  1.1908 -0.1781
 1198TIP3    H2 3538   2.226   7.698   1.771 -2.2305 -1.4855 -0.0897
 1199TIP3   OH2 3539   4.129   7.272   4.730  0.3991  0.2526  0.2792
 1199TIP3    H1 3540   4.090   7.357   4.755  1.0316  0.8449 -0.6909
 1199TIP3    H2 3541   4.210   7.295   4.685  0.7170 -0.8935  0.2345
 1200TIP3   OH2 3542   1.108   1.488   5.461  0.2533 -0.6361 -0.5510
 1200TIP3    H1 3543   1.115   1.394   5.482 -0.4530 -0.4926  0.4070
 1200TIP3    H2 3544   1.018   1.510   5.482  0.8205  0.5976  0.7776
 1201TIP3   OH2 3545   3.171   3.808   5.071  0.2673 -0.0483 -0.7165
 1201TIP3    H1 3546   3.200   3.790   5.160  0.5091 -1.4361 -1.0546
 1201TIP3    H2 3547   3.080   3.777   5.068 -0.5666  2.1043 -0.3422
 1202TIP3   OH2 3548   6.673   4.040   3.330  0.0342  0.4888 -0.0667
 1202TIP3    H1 3549   6.736   4.091   3.381  0.8958  0.0539 -0.6743
 1202TIP3    H2 3550   6.647   3.968   3.388  0.8778  0.0906 -0.1770
 1203TIP3   OH2 3551   3.489   2.964   0.015  0.4265 -0.1853 -0.0504
 1203TIP3    H1 3552   3.511   3.056   0.021  0.2099 -0.0684 -0.9214
 1203TIP3    H2 3553   3.518   2.927   0.099 -2.0863  1.1982  1.5542
 1204TIP3   OH2 3554   6.417   5.938   2.723 -0.3670 -0.1784  0.5201
 1204TIP3    H1 3555   6.402   5.994   2.799  2.1440  2.4560 -0.7483
 1204TIP3    H2 3556   6.360   5.974   2.655  2.4826  2.2774 -0.8241
 1205TIP3   OH2 3557   8.109   0.566   0.923  0.1474  0.6311  0.1352
 1205TIP3    H1 3558   8.051   0.523   0.859  0.4319  2.0866 -1.1577
 1205TIP3    H2 3559   8.094   0.518   1.004 -1.7836  0.0352 -0.5108
 1206TIP3   OH2 3560   6.907   1.709   4.076  0.3782  0.3509  0.1549
 1206TIP3    H1 3561   6.936   1.734   4.163  1.5490  1.6311 -0.5688
 1206TIP3    H2 3562   6.834   1.768   4.057  0.0791  0.0270  0.2796
 1207TIP3   OH2 3563   7.025   5.616   1.184  0.5805 -0.5575 -0.6312
 1207TIP3    H1 3564   7.092   5.665   1.137  1.1082  0.4540  1.0591
 1207TIP3    H2 3565   6.973   5.573   1.116  1.3056  0.7871 -2.0955
 1208TIP3   OH2 3566   2.073   6.803   0.245 -0.0913  0.5102  0.5159
 1208TIP3    H1 3567   2.147   6.850   0.285 -1.9098  2.2299  2.0633
 1208TIP3    H2 3568   2.056   6.849   0.164  1.6362 -1.0711 -0.8455
 1209TIP3   OH2 3569   3.192   0.321   2.975 -0.5683 -0.9442  0.3187
 1209TIP3    H1 3570   3.223   0.411   2.968  0.5946 -1.3333  0.1674
 1209TIP3    H2 3571   3.261   0.276   3.024 -0.3763 -2.0854 -0.9495
 1210TIP3   OH2 3572   6.568   5.702   6.185 -0.4021 -0.3957  0.3438
 1210TIP3    H1 3573   6.581   5.787   6.143  1.3686 -0.6528  0.3175
 1210TIP3    H2 3574   6.592   5.638   6.118  0.9202 -0.8381  1.2059
 1211TIP3   OH2 3575   2.835   1.164   2.339 -0.6634  0.0615 -0.8147
 1211TIP3    H1 3576   2.753   1.126   2.370 -2.0626  2.9074 -0.6276
 1211TIP3    H2 3577   2.886   1.178   2.419  0.8129 -3.1177 -1.0546
 1212TIP3   OH2 3578   5.039   3.211   3.006 -0.7057 -0.1431  0.6106
 1212TIP3    H1 3579   5.021   3.230   3.098  0.9505 -0.2558  0.9919
 1212TIP3    H2 3580   5.022   3.117   2.997 -0.0413 -0.3113  1.0364
 1213TIP3   OH2 3581   2.373   4.051   0.959 -0.2888  0.1321 -0.1350
 1213TIP3    H1 3582   2.376   4.108   1.035  1.1337 -0.3903  0.2295
 1213TIP3    H2 3583   2.309   4.093   0.900  0.3720  1.8565  0.3024
 1214TIP3   OH2 3584   7.143   3.266   0.613 -0.0839  0.0631 -0.1786
 1214TIP3    H1 3585   7.095   3.263   0.530  1.3355 -0.9887 -0.9903
 1214TIP3    H2 3586   7.116   3.188   0.660 -0.3973  0.3257  0.0854
 1215TIP3   OH2 3587   7.602   7.046   3.445  0.8679  0.2661  0.2330
 1215TIP3    H1 3588   7.641   7.125   3.483  2.4517 -0.0867 -0.5840
 1215TIP3    H2 3589   7.622   7.052   3.352 -1.3887  0.2272 -0.3057
 1216TIP3   OH2 3590   1.169   2.765   1.613  0.0483 -0.3132 -0.2546
 1216TIP3    H1 3591   1.154   2.859   1.618 -1.7847 -0.6345  1.6061
 1216TIP3    H2 3592   1.088   2.726   1.644  0.9691 -2.5148 -0.4090
 1217TIP3   OH2 3593   7.540   4.854   4.659  0.3935  0.2184  0.3010
 1217TIP3    H1 3594   7.613   4.820   4.607 -1.3064 -2.4151 -0.5005
 1217TIP3    H2 3595   7.466   4.855   4.599 -0.2888  2.9776  1.0681
 1218TIP3   OH2 3596   2.739   6.898   2.472  0.1090 -0.3891 -0.1517
 1218TIP3    H1 3597   2.667   6.910   2.535 -0.9766 -0.6617 -1.2941
 1218TIP3    H2 3598   2.754   6.804   2.471 -1.1215 -0.6065 -1.5848
 1219TIP3   OH2 3599   5.036   3.972   1.610 -0.2216 -0.2089 -0.1825
 1219TIP3    H1 3600   5.111   4.031   1.616 -0.8311  0.5522  0.3293
 1219TIP3    H2 3601   4.962   4.026   1.641 -0.6886 -1.4324  0.9156
 1220TIP3   OH2 3602   1.423   2.324   1.968 -0.1251 -0.4604 -0.2290
 1220TIP3    H1 3603   1.518   2.319   1.967 -0.0453 -0.7550  2.1086
 1220TIP3    H2 3604   1.393   2.246   1.922  0.7264 -0.1344 -1.3730
 1221TIP3   OH2 3605   7.282   1.792   4.086 -0.2921  0.0483 -0.4090
 1221TIP3    H1 3606   7.275   1.697   4.077 -3.1118 -0.2965  3.1167
 1221TIP3    H2 3607   7.198   1.826   4.055 -0.4213  1.0442  0.9442
 1222TIP3   OH2 3608   2.550   2.130   4.837  0.0644  0.6533 -0.1715
 1222TIP3    H1 3609   2.555   2.196   4.907 -0.2190  1.0093 -0.4809
 1222TIP3    H2 3610   2.585   2.050   4.877  1.0391  1.1510  0.0074
 1223TIP3   OH2 3611   4.347   6.164   6.327  0.2596  0.2256  0.9049
 1223TIP3    H1 3612   4.344   6.097   6.396  0.0665  1.3773  2.0385
 1223TIP3    H2 3613   4.287   6.232   6.356  0.9883  1.2319  0.1289
 1224TIP3   OH2 3614   2.423   3.576   3.772 -0.2550 -1.0027 -0.5460
 1224TIP3    H1 3615   2.421   3.488   3.807  1.1655 -0.3955  1.2225
 1224TIP3    H2 3616   2.342   3.617   3.804  1.1181 -0.3769  2.5123
 1225TIP3   OH2 3617   6.713   2.189   5.727  0.0852  0.7998  0.1875
 1225TIP3    H1 3618   6.701   2.243   5.806 -0.1527 -0.3953  1.0054
 1225TIP3    H2 3619   6.801   2.152   5.737  0.0782  0.6931 -0.1423
 1226TIP3   OH2 3620   2.447   4.091   0.571 -0.1838 -0.2921 -0.1740
 1226TIP3    H1 3621   2.395   4.155   0.522  0.8772  1.0022  0.3178
 1226TIP3    H2 3622   2.386   4.019   0.589 -1.4523  0.6275 -0.6551
 1227TIP3   OH2 3623   3.754   7.251   1.791  0.4944 -0.2607 -0.4746
 1227TIP3    H1 3624   3.828   7.193   1.806 -0.3459 -1.4551 -0.7842
 1227TIP3    H2 3625   3.680   7.192   1.779 -0.9908  0.8878  2.1495
 1228TIP3   OH2 3626   6.599   1.201   5.235 -0.3147  0.5910  0.3974
 1228TIP3    H1 3627   6.597   1.293   5.261 -0.0094  0.4969  0.7522
 1228TIP3    H2 3628   6.668   1.162   5.288 -0.7994  0.0397  0.6324
 1229TIP3   OH2 3629   4.090   0.061   0.900  0.4566  0.0664 -0.4683
 1229TIP3    H1 3630   4.033   0.085   0.827 -0.1859  0.2523  0.0831
 1229TIP3    H2 3631   4.144   0.139   0.915 -0.4630  0.5917  0.2292
 1230TIP3   OH2 3632   3.815   7.778   4.424 -0.0436 -0.1669 -0.1116
 1230TIP3    H1 3633   3.765   7.733   4.492 -1.0424  1.9405  0.6266
 1230TIP3    H2 3634   3.793   7.731   4.343 -2.1599 -0.1775  0.4107
 1231TIP3   OH2 3635   7.430   6.776   3.025  0.3797  0.3335  0.6377
 1231TIP3    H1 3636   7.407   6.862   2.990  1.7450  0.5741  0.2993
 1231TIP3    H2 3637   7.375   6.767   3.103 -2.9538 -0.3023 -1.5590
 1232TIP3   OH2 3638   2.943   0.823   1.511  0.1716 -0.4486  0.0424
 1232TIP3    H1 3639   2.879   0.882   1.552  1.2983  0.1090  1.0917
 1232TIP3    H2 3640   3.028   0.863   1.532  0.8460 -0.0581 -3.0110
 1233TIP3   OH2 3641   4.056   2.611   5.269  0.3938 -0.3465 -0.1796
 1233TIP3    H1 3642   3.986   2.611   5.204 -1.7522  0.3217  1.9794
 1233TIP3    H2 3643   4.063   2.702   5.297  0.3575 -0.7906  1.3885
 1234TIP3   OH2 3644   1.147   3.066   2.983 -0.6452  0.0513  0.0165
 1234TIP3    H1 3645   1.092   3.074   2.905  1.4766  0.3858 -1.5522
 1234TIP3    H2 3646   1.190   2.981   2.975  0.9530  0.8223 -0.2048
 1235TIP3   OH2 3647   1.898   6.347   1.719 -0.2576 -0.1709  0.6935
 1235TIP3    H1 3648   1.820   6.324   1.770 -1.1103 -0.8002 -0.8158
 1235TIP3    H2 3649   1.866   6.355   1.629  1.0806  1.4569  0.2974
 1236TIP3   OH2 3650   7.029   2.479   3.877 -0.0614 -0.2017  0.0390
 1236TIP3    H1 3651   7.111   2.473   3.926  0.0441  0.4481 -0.0560
 1236TIP3    H2 3652   7.055   2.480   3.785 -0.2765 -1.7537 -0.0671
 1237TIP3   OH2 3653   4.695   7.380   2.465  0.3294  0.0937  0.0289
 1237TIP3    H1 3654   4.633   7.452   2.465  0.3572  0.1171 -0.3826
 1237TIP3    H2 3655   4.666   7.322   2.395  0.1240 -0.4565  0.5576
 1238TIP3   OH2 3656   7.273   1.945   1.366  0.1748 -0.4733  0.5788
 1238TIP3    H1 3657   7.288   1.873   1.306  0.7674 -1.2646  1.6496
 1238TIP3    H2 3658   7.332   2.014   1.337  1.5047 -1.3686  1.0951
 1239TIP3   OH2 3659   6.087   7.715   2.990  0.6270 -0.0436 -0.3986
 1239TIP3    H1 3660   5.997   7.747   2.990 -0.0453 -1.6737  2.1606
 1239TIP3    H2 3661   6.085   7.636   2.935  0.6319  0.2012 -0.7547
 1240TIP3   OH2 3662   7.241   4.474   2.599  0.6200 -0.5472  0.2304
 1240TIP3    H1 3663   7.227   4.506   2.688 -1.1507  0.1316 -0.2423
 1240TIP3    H2 3664   7.195   4.390   2.596 -0.9155  0.2678 -0.4979
 1241TIP3   OH2 3665   0.165   2.916   5.207 -0.4793 -0.1251  0.0878
 1241TIP3    H1 3666   0.200   2.864   5.279  0.9497  1.6217  0.7373
 1241TIP3    H2 3667   0.216   2.997   5.209 -2.3759  1.1774 -1.0683
 1242TIP3   OH2 3668   1.914   2.181   5.971  0.4776  0.4426  0.1649
 1242TIP3    H1 3669   1.963   2.134   6.038 -0.5020 -0.8421  0.0252
 1242TIP3    H2 3670   1.825   2.188   6.007 -0.4979 -1.6824 -1.5608
 1243TIP3   OH2 3671   8.084   2.620   3.197  0.2602  0.0423  0.6787
 1243TIP3    H1 3672   8.152   2.558   3.172  0.0476  0.4228 -0.9705
 1243TIP3    H2 3673   8.059   2.594   3.286  2.2669 -0.3418  1.1745
 1244TIP3   OH2 3674   6.781   5.826   1.475  0.1239  0.4016 -0.3509
 1244TIP3    H1 3675   6.770   5.879   1.395 -0.7477 -0.4953 -0.8385
 1244TIP3    H2 3676   6.717   5.756   1.467  1.5892 -1.0467  0.0441
 1245TIP3   OH2 3677   5.898   3.298   6.421  0.3650 -0.1667  0.1957
 1245TIP3    H1 3678   5.849   3.312   6.502  0.0913  0.6534 -0.1069
 1245TIP3    H2 3679   5.863   3.362   6.360  2.8003  1.4622  0.3786
 1246TIP3   OH2 3680   2.052   5.708   2.259 -0.4066 -0.8299  0.0996
 1246TIP3    H1 3681   2.036   5.630   2.312  0.4315 -0.3189  1.1515
 1246TIP3    H2 3682   2.050   5.780   2.322 -0.8960 -0.0272 -0.8112
 1247TIP3   OH2 3683   7.875   7.528   4.235  0.3346 -0.3047 -0.2029
 1247TIP3    H1 3684   7.807   7.475   4.194 -1.0498  0.1465  1.3872
 1247TIP3    H2 3685   7.886   7.604   4.177 -0.7176 -0.2542 -0.3428
 1248TIP3   OH2 3686   3.767   5.642   6.397 -0.3936 -0.5267  0.4708
 1248TIP3    H1 3687   3.764   5.547   6.411 -0.4476 -0.7771 -1.0469
 1248TIP3    H2 3688   3.810   5.676   6.476  2.0726 -2.0916 -0.0574
 1249TIP3   OH2 3689   2.234   4.140   5.581  0.0458  0.3552 -0.8844
 1249TIP3    H1 3690   2.155   4.163   5.531 -1.2317  0.6122  1.1433
 1249TIP3    H2 3691   2.267   4.224   5.612  1.2495  0.2620 -1.8527
 1250TIP3   OH2 3692   0.269   1.451   4.398  0.1381  0.0759  1.0767
 1250TIP3    H1 3693   0.246   1.373   4.448  1.1143  0.0453  1.5115
 1250TIP3    H2 3694   0.207   1.517   4.427 -0.9174 -0.6203  0.4556
 1251TIP3   OH2 3695   1.996   5.553   6.183  0.4584 -0.1403  0.5443
 1251TIP3    H1 3696   2.034   5.557   6.271  0.4501 -1.0047  0.5933
 1251TIP3    H2 3697   2.071   5.550   6.124  0.4645 -0.0763  0.5488
 1252TIP3   OH2 3698   4.078   5.864   1.108 -0.2070  0.0252 -0.3605
 1252TIP3    H1 3699   4.013   5.829   1.047 -1.5049  1.5322  0.0994
 1252TIP3    H2 3700   4.048   5.836   1.194 -0.1988  0.6573 -0.1501
 1253TIP3   OH2 3701   1.213   5.278   5.517  0.0296  0.7367  0.1415
 1253TIP3    H1 3702   1.163   5.311   5.592  1.1420 -0.5849  1.5512
 1253TIP3    H2 3703   1.221   5.184   5.534 -0.1386  0.3096 -1.9443
 1254TIP3   OH2 3704   3.584   1.582   6.570 -0.4951 -0.1150 -0.2613
 1254TIP3    H1 3705   3.589   1.509   6.631  0.6035 -1.0292 -1.3977
 1254TIP3    H2 3706   3.673   1.614   6.563 -0.9870  1.4886  0.3448
 1255TIP3   OH2 3707   7.258   5.676   4.268  0.2863 -0.5533 -0.3885
 1255TIP3    H1 3708   7.234   5.764   4.240  1.5940  0.2032  0.7126
 1255TIP3    H2 3709   7.354   5.678   4.273  0.2387 -1.0393  2.5759
 1256TIP3   OH2 3710   0.744   0.815   6.710 -0.3505  0.1469 -0.2204
 1256TIP3    H1 3711   0.737   0.907   6.734  0.3738  0.1919 -0.1647
 1256TIP3    H2 3712   0.714   0.768   6.788 -1.1243  0.3292 -0.3941
 1257TIP3   OH2 3713   1.706   2.262   1.309  0.4352 -0.2799  0.1040
 1257TIP3    H1 3714   1.738   2.344   1.272 -0.4153  0.9597  1.9631
 1257TIP3    H2 3715   1.779   2.202   1.300  0.4436  0.0483 -3.0286
 1258TIP3   OH2 3716   5.275   2.064   0.722 -0.4509  0.6797 -0.4805
 1258TIP3    H1 3717   5.219   2.128   0.679 -0.4596  1.2515  0.3545
 1258TIP3    H2 3718   5.298   2.002   0.653 -4.2492 -1.1180 -0.3402
 1259TIP3   OH2 3719   5.120   6.844   6.751  0.3665  0.2856  0.0487
 1259TIP3    H1 3720   5.097   6.756   6.780 -2.8399  0.3454 -1.7836
 1259TIP3    H2 3721   5.181   6.829   6.679  0.5933 -0.3900  0.3689
 1260TIP3   OH2 3722   3.665   0.819   3.938  0.1220  0.1981  0.4893
 1260TIP3    H1 3723   3.702   0.907   3.938 -0.7057  0.5542  0.3618
 1260TIP3    H2 3724   3.734   0.764   3.977  0.8515  0.8033  0.0844
 1261TIP3   OH2 3725   6.591   0.235   5.906  0.8135  0.7069 -0.0423
 1261TIP3    H1 3726   6.624   0.232   5.816  0.9884  2.8291 -0.0914
 1261TIP3    H2 3727   6.581   0.328   5.925  1.0795  0.3200  2.2503
 1262TIP3   OH2 3728   2.976   7.572   0.250  0.3285 -0.8040  0.7567
 1262TIP3    H1 3729   3.021   7.538   0.172 -3.8456 -0.0640 -2.3283
 1262TIP3    H2 3730   2.953   7.494   0.300 -0.5393 -1.7708 -1.0492
 1263TIP3   OH2 3731   4.474   0.963   1.966  0.2878  0.0124 -0.0145
 1263TIP3    H1 3732   4.423   1.043   1.955  0.1715 -0.0697 -0.0701
 1263TIP3    H2 3733   4.452   0.909   1.890 -1.0477 -0.8458  0.9353
 1264TIP3   OH2 3734   5.549   0.852   5.285  0.0132  0.2341 -0.3435
 1264TIP3    H1 3735   5.544   0.781   5.349 -1.2109  1.3335  0.8542
 1264TIP3    H2 3736   5.468   0.844   5.234  0.1591  0.3962 -0.6019
 1265TIP3   OH2 3737   1.886   4.094   6.309 -0.4147  0.2146 -0.1059
 1265TIP3    H1 3738   1.826   4.157   6.268  1.9235  1.7673 -1.3928
 1265TIP3    H2 3739   1.912   4.136   6.391  1.2361  1.0468 -1.0190
 1266TIP3   OH2 3740   6.479   3.703   0.909  0.2295 -0.3233  0.3885
 1266TIP3    H1 3741   6.424   3.754   0.850  1.9837 -0.1803 -1.2061
 1266TIP3    H2 3742   6.504   3.625   0.859  2.3593  0.1533  0.6141
 1267TIP3   OH2 3743   8.238   1.014   1.874 -0.0474  0.1543 -0.5176
 1267TIP3    H1 3744   8.194   1.083   1.923  0.3844  0.2609 -0.2677
 1267TIP3    H2 3745   8.278   0.958   1.942 -0.9116 -0.6995 -0.6917
 1268TIP3   OH2 3746   1.974   4.041   0.103  0.2141  0.3640 -0.2485
 1268TIP3    H1 3747   1.939   3.956   0.132 -1.8812  0.6720 -1.6216
 1268TIP3    H2 3748   2.055   4.019   0.057 -0.1907 -0.8931 -0.4072
 1269TIP3   OH2 3749   2.138   2.863   4.621 -0.0548 -0.5318 -0.5059
 1269TIP3    H1 3750   2.073   2.799   4.647  0.9581 -1.6287 -0.6067
 1269TIP3    H2 3751   2.100   2.948   4.647 -0.6783 -1.2789  1.1280
 1270TIP3   OH2 3752   6.979   4.437   4.994  0.1014  0.0630  0.1944
 1270TIP3    H1 3753   7.041   4.489   4.943 -0.8496 -0.4794 -1.5914
 1270TIP3    H2 3754   6.895   4.482   4.983 -0.4945 -1.1610 -0.3859
 1271TIP3   OH2 3755   5.134   0.320   4.437 -0.2583 -0.8635 -0.2445
 1271TIP3    H1 3756   5.042   0.337   4.455 -0.2874 -1.4733  0.1953
 1271TIP3    H2 3757   5.172   0.407   4.423 -0.6837 -0.5329  0.6084
 1272TIP3   OH2 3758   5.972   3.519   4.954  0.2676 -0.6053 -0.3263
 1272TIP3    H1 3759   5.938   3.437   4.919 -0.7373 -0.5791  0.5478
 1272TIP3    H2 3760   6.016   3.494   5.035  1.6084 -0.5124 -0.9879
 1273TIP3   OH2 3761   0.320   0.235   6.705 -0.5977 -0.4270  0.0790
 1273TIP3    H1 3762   0.382   0.308   6.703 -1.6872  0.5525  0.7999
 1273TIP3    H2 3763   0.334   0.194   6.791  1.4624 -2.4350 -1.0957
 1274TIP3   OH2 3764   4.263   4.123   6.299 -0.2433  0.4414 -0.2851
 1274TIP3    H1 3765   4.203   4.054   6.272  1.8051 -1.4416 -0.3625
 1274TIP3    H2 3766   4.209   4.202   6.305 -2.0326 -0.2633 -3.9725
 1275TIP3   OH2 3767   3.169   4.697   5.092 -0.6674  0.6593  0.1026
 1275TIP3    H1 3768   3.196   4.780   5.130 -0.0759  0.3399  0.3979
 1275TIP3    H2 3769   3.251   4.648   5.079 -1.0735 -0.3387  1.0494
 1276TIP3   OH2 3770   5.119   0.761   4.963 -0.3492 -0.4649  0.1033
 1276TIP3    H1 3771   5.098   0.739   4.872 -0.4881 -0.0712  0.0369
 1276TIP3    H2 3772   5.083   0.689   5.014 -0.3496 -0.6448 -0.1466
 1277TIP3   OH2 3773   7.414   0.077   3.699 -0.5206 -0.1912 -0.0755
 1277TIP3    H1 3774   7.372   0.104   3.617  0.8024  1.5276 -0.2488
 1277TIP3    H2 3775   7.345   0.088   3.765 -1.4235 -1.0179 -0.8326
 1278TIP3   OH2 3776   1.558   1.800   0.813  0.1826 -0.4595 -0.4438
 1278TIP3    H1 3777   1.466   1.782   0.832  1.0899 -4.0219  1.4149
 1278TIP3    H2 3778   1.603   1.718   0.834  3.5764  0.4998 -3.1562
 1279TIP3   OH2 3779   7.736   7.211   3.668 -0.1794  0.0956 -0.4958
 1279TIP3    H1 3780   7.696   7.155   3.735  0.5111 -1.2921 -1.1851
 1279TIP3    H2 3781   7.830   7.200   3.681 -0.0374  0.1454 -1.4089
 1280TIP3   OH2 3782   2.874   1.172   0.112 -0.5408  0.5470  0.2236
 1280TIP3    H1 3783   2.925   1.239   0.158 -1.6297  0.5445  1.4952
 1280TIP3    H2 3784   2.808   1.222   0.064 -1.1807  0.4211  0.9536
 1281TIP3   OH2 3785   7.350   0.799   2.796  0.3803 -0.7121 -0.7392
 1281TIP3    H1 3786   7.304   0.871   2.837 -1.0028 -0.3644 -2.7327
 1281TIP3    H2 3787   7.440   0.804   2.830  0.8009  2.9516 -1.9617
 1282TIP3   OH2 3788   6.812   3.950   6.330 -0.7157  0.6078  0.3083
 1282TIP3    H1 3789   6.741   3.934   6.267 -2.7062  0.6581  2.4176
 1282TIP3    H2 3790   6.793   3.891   6.403  0.2949  2.0444  1.7988
 1283TIP3   OH2 3791   3.214   3.019   1.644 -0.7714 -0.2888 -0.5327
 1283TIP3    H1 3792   3.120   3.035   1.643 -0.6382  0.5727 -0.6194
 1283TIP3    H2 3793   3.237   3.013   1.736 -1.1475 -2.1339 -0.5260
 1284TIP3   OH2 3794   7.335   3.172   1.411 -0.8351  0.3513 -0.2083
 1284TIP3    H1 3795   7.321   3.197   1.503 -1.3856  0.0664 -0.2120
 1284TIP3    H2 3796   7.247   3.167   1.374 -0.6601 -0.3381 -0.5410
 1285TIP3   OH2 3797   1.321   5.553   5.539  0.1031  0.1880 -0.4141
 1285TIP3    H1 3798   1.323   5.472   5.591 -1.9336  1.0262  1.1371
 1285TIP3    H2 3799   1.412   5.567   5.514  0.8016 -1.6205  0.8318
 1286TIP3   OH2 3800   1.093   3.297   1.217 -0.1018 -0.0854  0.0464
 1286TIP3    H1 3801   1.151   3.224   1.195  1.0408 -0.1242  2.7946
 1286TIP3    H2 3802   1.008   3.272   1.181  0.9787 -1.1393 -2.0001
 1287TIP3   OH2 3803   4.672   2.346   5.496 -0.1753 -0.3139  0.1338
 1287TIP3    H1 3804   4.615   2.305   5.561 -0.6862  0.2456  0.0417
 1287TIP3    H2 3805   4.691   2.432   5.531  1.9473 -1.0624  0.9436
 1288TIP3   OH2 3806   6.914   6.913   0.436  0.0344 -0.0723 -0.4812
 1288TIP3    H1 3807   6.893   6.837   0.380  1.5613 -1.1017  0.2949
 1288TIP3    H2 3808   6.857   6.902   0.512  0.5229 -0.6655 -0.1942
 1289TIP3   OH2 3809   7.316   6.869   2.215  0.8453  0.0934  0.3988
 1289TIP3    H1 3810   7.304   6.845   2.123  1.7723  0.6958  0.0930
 1289TIP3    H2 3811   7.242   6.831   2.261  0.6265 -0.6279 -0.5306
 1290TIP3   OH2 3812   3.393   2.571   0.668 -0.8253 -0.1467 -0.0512
 1290TIP3    H1 3813   3.446   2.631   0.616 -0.1128  0.1652  0.9945
 1290TIP3    H2 3814   3.334   2.627   0.718  0.7511 -0.1552  1.9357
 1291TIP3   OH2 3815   4.559   7.149   1.037 -0.0559  0.1987 -0.4129
 1291TIP3    H1 3816   4.502   7.207   1.086 -0.6582 -0.0952 -0.7471
 1291TIP3    H2 3817   4.604   7.097   1.103 -0.9379 -0.2678 -0.1601
 1292TIP3   OH2 3818   4.442   3.280   2.217 -0.5055 -0.3369 -0.0454
 1292TIP3    H1 3819   4.506   3.232   2.164 -1.6494 -0.8400 -0.9948
 1292TIP3    H2 3820   4.480   3.367   2.227  0.3167 -0.6154 -0.6207
 1293TIP3   OH2 3821   4.159   5.302   4.486  0.1270 -0.3840 -0.0493
 1293TIP3    H1 3822   4.171   5.208   4.500 -0.5748 -0.5492 -0.4877
 1293TIP3    H2 3823   4.084   5.308   4.426  0.1491  0.4542 -0.0075
 1294TIP3   OH2 3824   0.687   1.854   5.756 -0.3277 -0.3493  0.6547
 1294TIP3    H1 3825   0.720   1.766   5.774 -0.1255 -0.4078  0.0228
 1294TIP3    H2 3826   0.631   1.874   5.831 -0.3299 -0.9899  0.8319
 1295TIP3   OH2 3827   2.498   4.264   0.133  0.1764  0.1048 -0.4707
 1295TIP3    H1 3828   2.479   4.192   0.074  0.7265  0.1711 -0.7269
 1295TIP3    H2 3829   2.545   4.328   0.080  1.5325 -0.2579  0.2704
 1296TIP3   OH2 3830   0.393   2.442   3.987 -0.5253  0.0749  0.1575
 1296TIP3    H1 3831   0.419   2.501   3.916 -2.4120  1.6972  0.7331
 1296TIP3    H2 3832   0.448   2.365   3.974  1.8251  1.7791 -0.8243
 1297TIP3   OH2 3833   0.025   7.332   1.359 -0.0566  0.0340 -0.6165
 1297TIP3    H1 3834   0.109   7.312   1.318  0.1708  0.9664 -0.6400
 1297TIP3    H2 3835   0.031   7.295   1.447  0.4185  0.1831 -0.5852
 1298TIP3   OH2 3836   1.776   5.448   6.267 -0.0964 -0.6005 -0.1947
 1298TIP3    H1 3837   1.740   5.533   6.290  1.5337 -0.1073  0.7305
 1298TIP3    H2 3838   1.848   5.468   6.206  0.2772 -1.2999  0.0020
 1299TIP3   OH2 3839   7.290   5.952   3.082  0.1140 -0.6087  0.0743
 1299TIP3    H1 3840   7.278   5.956   3.176 -0.4697 -0.7608  0.0111
 1299TIP3    H2 3841   7.217   5.898   3.051  1.0720 -1.7134 -0.3176
 1300TIP3   OH2 3842   3.982   4.680   3.132 -0.7962  0.5171  0.1206
 1300TIP3    H1 3843   4.002   4.770   3.105  0.0325 -0.1747 -1.7334
 1300TIP3    H2 3844   3.888   4.671   3.117 -0.5559  0.5204 -1.5376
 1301TIP3   OH2 3845   3.729   6.367   1.355  0.3475  0.5420 -0.1914
 1301TIP3    H1 3846   3.794   6.431   1.385 -2.1802  3.0012  0.4276
 1301TIP3    H2 3847   3.663   6.419   1.310 -0.6922 -1.9931 -1.8409
 1302TIP3   OH2 3848   5.366   2.429   5.498 -0.1460  0.5682  0.0534
 1302TIP3    H1 3849   5.388   2.503   5.554  0.7559  1.6005 -1.5928
 1302TIP3    H2 3850   5.381   2.352   5.553 -0.7959  1.5690  1.6981
 1303TIP3   OH2 3851   2.820   1.740   6.058 -0.1026 -0.2179  0.1923
 1303TIP3    H1 3852   2.816   1.667   5.996  0.2158 -0.1454  0.0815
 1303TIP3    H2 3853   2.907   1.778   6.043 -0.0980 -0.0867  0.5552
 1304TIP3   OH2 3854   4.629   2.978   0.091 -0.4655  0.3830 -0.0477
 1304TIP3    H1 3855   4.720   2.987   0.118 -0.7025 -2.3386  2.0024
 1304TIP3    H2 3856   4.579   3.028   0.157 -0.6092 -0.4100  0.4514
 1305TIP3   OH2 3857   0.422   2.119   5.223  0.2125 -0.4713  0.5881
 1305TIP3    H1 3858   0.433   2.213   5.205 -0.6160 -0.3497  0.6809
 1305TIP3    H2 3859   0.328   2.107   5.229  0.3353 -1.1972  1.2271
 1306TIP3   OH2 3860   0.900   2.986   3.990 -0.5604  0.7645 -0.5593
 1306TIP3    H1 3861   0.944   2.930   3.926 -0.6424 -0.6403  0.5738
 1306TIP3    H2 3862   0.952   3.067   3.991  0.8216 -0.0952 -0.6855
 1307TIP3   OH2 3863   2.231   3.249   3.003 -0.6747  0.1492  0.3352
 1307TIP3    H1 3864   2.322   3.242   2.974 -0.3419  0.4580  1.2644
 1307TIP3    H2 3865   2.209   3.162   3.036 -0.2400  0.4438  1.4315
 1308TIP3   OH2 3866   7.466   3.821   0.734 -0.0375 -0.4309  0.2983
 1308TIP3    H1 3867   7.380   3.809   0.774  0.1661  1.4878  1.4456
 1308TIP3    H2 3868   7.465   3.911   0.701  1.5391 -0.3393  0.4187
 1309TIP3   OH2 3869   1.518   4.200   0.820 -0.0947 -0.1754  0.6812
 1309TIP3    H1 3870   1.604   4.221   0.856  0.1682  1.2681 -0.7054
 1309TIP3    H2 3871   1.459   4.205   0.896  0.5073  2.3605  1.0699
 1310TIP3   OH2 3872   6.115   0.200   1.763  0.0385 -0.2751  0.5342
 1310TIP3    H1 3873   6.207   0.222   1.747  0.1403 -1.0224  0.0630
 1310TIP3    H2 3874   6.079   0.184   1.676 -0.2473 -1.1009  0.7972
 1311TIP3   OH2 3875   0.222   5.063   1.812  0.4122 -0.0107  0.0750
 1311TIP3    H1 3876   0.135   5.081   1.847 -0.0225 -1.1970 -0.3404
 1311TIP3    H2 3877   0.252   5.148   1.778 -0.8698  0.2902 -0.3948
 1312TIP3   OH2 3878   3.593   2.415   4.976  0.1956 -0.1027  0.4519
 1312TIP3    H1 3879   3.589   2.463   5.059 -1.6256  0.0153  0.3324
 1312TIP3    H2 3880   3.505   2.421   4.940  0.7269 -0.9000 -1.0889
 1313TIP3   OH2 3881   4.741   3.081   0.491 -0.2478  0.0571  0.1691
 1313TIP3    H1 3882   4.660   3.036   0.515 -0.1817 -0.1375  0.0284
 1313TIP3    H2 3883   4.744   3.157   0.549 -0.1841 -0.3042  0.6465
 1314TIP3   OH2 3884   6.172   2.267   6.031  0.0122 -0.0238 -0.0029
 1314TIP3    H1 3885   6.088   2.312   6.037  1.1155  1.9741  1.8286
 1314TIP3    H2 3886   6.188   2.236   6.120  0.6529 -1.5282 -0.6162
 1315TIP3   OH2 3887   6.056   5.531   5.092 -0.4731 -0.5407  0.1135
 1315TIP3    H1 3888   6.112   5.460   5.061  1.3670  1.8003 -2.4231
 1315TIP3    H2 3889   5.972   5.516   5.048  0.2101 -0.6332 -1.2257
 1316TIP3   OH2 3890   4.288   1.649   6.333 -0.1215 -0.1869 -0.1894
 1316TIP3    H1 3891   4.317   1.559   6.348  0.5505  0.3173  1.8310
 1316TIP3    H2 3892   4.282   1.688   6.421  0.4430  1.9944 -1.0459
 1317TIP3   OH2 3893   4.595   1.130   0.595 -0.1768 -0.0886 -0.2681
 1317TIP3    H1 3894   4.602   1.212   0.547  0.0573  1.3708  2.1057
 1317TIP3    H2 3895   4.501   1.116   0.605 -0.2775 -1.0133 -1.9883
 1318TIP3   OH2 3896   1.966   1.587   0.684  0.5081 -0.3404 -0.9223
 1318TIP3    H1 3897   1.892   1.543   0.727 -0.4167  2.2993  0.4320
 1318TIP3    H2 3898   1.946   1.582   0.591 -1.3373  0.1454 -0.5904
 1319TIP3   OH2 3899   1.659   1.854   4.549  0.4910  0.6117 -0.1226
 1319TIP3    H1 3900   1.672   1.824   4.639  0.7849  0.9421 -0.0508
 1319TIP3    H2 3901   1.638   1.947   4.558 -1.8693  0.1516 -0.2336
 1320TIP3   OH2 3902   2.152   3.750   2.576 -0.0059  0.0466  0.2921
 1320TIP3    H1 3903   2.095   3.818   2.541 -1.5004 -0.3040  1.9426
 1320TIP3    H2 3904   2.229   3.798   2.608  0.1317  0.6442 -0.8568
 1321TIP3   OH2 3905   6.124   3.501   6.764  0.4044 -0.0836  0.0144
 1321TIP3    H1 3906   6.094   3.557   6.691 -1.7337 -0.3566  0.5978
 1321TIP3    H2 3907   6.067   3.525   6.837  0.5548 -1.8229  0.7591
 1322TIP3   OH2 3908   2.629   4.741   3.322 -0.4073  0.5140  0.0992
 1322TIP3    H1 3909   2.649   4.780   3.236  1.4385  1.3873  0.8564
 1322TIP3    H2 3910   2.695   4.672   3.332 -0.7544  0.2765  0.7187
 1323TIP3   OH2 3911   5.737   0.697   4.374  0.6504 -0.2284 -0.1736
 1323TIP3    H1 3912   5.675   0.672   4.304  0.8178 -0.4318 -0.2488
 1323TIP3    H2 3913   5.695   0.667   4.454 -0.1290  1.0856 -0.0480
 1324TIP3   OH2 3914   0.746   5.556   2.779 -0.1683  0.0576 -0.5329
 1324TIP3    H1 3915   0.714   5.554   2.689 -0.1746 -1.0700 -0.5256
 1324TIP3    H2 3916   0.722   5.470   2.815  0.3359  0.2740  0.3590
 1325TIP3   OH2 3917   7.457   3.806   3.417  0.1659  0.3524  0.5055
 1325TIP3    H1 3918   7.421   3.848   3.339 -0.8959 -0.3722  0.5888
 1325TIP3    H2 3919   7.528   3.865   3.445  0.7236  0.5085 -1.1181
 1326TIP3   OH2 3920   4.446   2.585   3.760 -0.9043  0.1534  0.1190
 1326TIP3    H1 3921   4.528   2.545   3.730 -0.8280  0.1947  0.2700
 1326TIP3    H2 3922   4.386   2.511   3.773 -0.8659  0.1163  0.0848
 1327TIP3   OH2 3923   2.635   2.362   0.407 -0.1046 -0.5774  0.5764
 1327TIP3    H1 3924   2.551   2.395   0.439 -0.6417 -1.2864 -0.0702
 1327TIP3    H2 3925   2.655   2.288   0.464  0.8798  0.5366  1.7391
 1328TIP3   OH2 3926   0.969   7.064   5.438  0.0734  0.0215 -0.2077
 1328TIP3    H1 3927   0.939   7.046   5.349  0.2767  0.2717 -0.3268
 1328TIP3    H2 3928   1.064   7.048   5.436  0.1473  0.4251 -0.1430
 1329TIP3   OH2 3929   6.454   5.474   5.739  0.3295 -0.3151 -0.5439
 1329TIP3    H1 3930   6.423   5.537   5.673 -0.9169 -1.5231 -1.1622
 1329TIP3    H2 3931   6.475   5.528   5.815  0.1984  0.9436 -1.3608
 1330TIP3   OH2 3932   2.739   3.041   4.856  0.5007  0.0918  0.4278
 1330TIP3    H1 3933   2.822   3.050   4.808  1.2999  1.2792  1.9550
 1330TIP3    H2 3934   2.765   3.011   4.943 -0.7176  0.0504  0.7864
 1331TIP3   OH2 3935   0.208   7.473   2.331  0.3525 -0.0068  0.3652
 1331TIP3    H1 3936   0.212   7.402   2.394  1.6955 -0.7339 -0.4713
 1331TIP3    H2 3937   0.197   7.552   2.384 -4.3709 -0.9263  1.2120
 1332TIP3   OH2 3938   5.726   2.894   0.645  0.3134 -0.2520  0.5622
 1332TIP3    H1 3939   5.697   2.829   0.709 -0.9760  0.1628  0.4354
 1332TIP3    H2 3940   5.738   2.974   0.697 -1.4121  0.2679  0.2170
 1333TIP3   OH2 3941   1.665   1.420   6.348 -0.0392 -0.1426 -0.0990
 1333TIP3    H1 3942   1.601   1.407   6.278  0.2115 -0.9970 -0.1754
 1333TIP3    H2 3943   1.735   1.357   6.330  0.5276  0.3375  0.3415
 1334TIP3   OH2 3944   7.507   2.999   0.732 -0.4509 -0.0473  0.2931
 1334TIP3    H1 3945   7.440   2.991   0.663 -0.8473  1.6895  0.4177
 1334TIP3    H2 3946   7.568   3.064   0.699 -1.0675  1.4219  1.8410
 1335TIP3   OH2 3947   7.375   7.134   1.966  0.2007 -0.3933  0.5928
 1335TIP3    H1 3948   7.407   7.094   1.886 -0.3059 -1.6339  0.9761
 1335TIP3    H2 3949   7.299   7.081   1.990 -1.4639  1.7146  0.3333
 1336TIP3   OH2 3950   1.714   4.276   6.173  0.0927  0.0470 -0.2199
 1336TIP3    H1 3951   1.715   4.308   6.083  0.7202 -1.4302 -0.7806
 1336TIP3    H2 3952   1.623   4.253   6.189  0.1916 -0.9686 -0.9913
 1337TIP3   OH2 3953   0.471   4.469   6.713  0.2036 -0.5732  0.4856
 1337TIP3    H1 3954   0.400   4.408   6.692 -0.2213  0.1749 -0.3005
 1337TIP3    H2 3955   0.454   4.494   6.804  0.4386 -1.6857  0.8527
 1338TIP3   OH2 3956   0.855   7.208   0.233 -0.5357  0.5531 -0.7723
 1338TIP3    H1 3957   0.847   7.150   0.308 -1.0148  0.0126 -1.2221
 1338TIP3    H2 3958   0.921   7.272   0.258  0.6560 -0.7067 -0.5862
 1339TIP3   OH2 3959   3.538   0.552   4.199 -0.6547  0.0935  0.1953
 1339TIP3    H1 3960   3.613   0.573   4.255 -2.8340  0.8633  3.1081
 1339TIP3    H2 3961   3.521   0.633   4.151 -1.2024  0.8679  1.6201
 1340TIP3   OH2 3962   4.863   4.148   1.742  0.1082 -0.0745  0.3720
 1340TIP3    H1 3963   4.782   4.183   1.780 -0.0400  0.2052 -0.1999
 1340TIP3    H2 3964   4.907   4.224   1.705  0.6834 -0.2139  0.7588
 1341TIP3   OH2 3965   6.539   1.804   2.328 -0.2171  0.8118  0.7561
 1341TIP3    H1 3966   6.612   1.743   2.333  1.4277  2.3842 -1.5179
 1341TIP3    H2 3967   6.567   1.880   2.378 -0.8667  0.9380  0.9450
 1342TIP3   OH2 3968   4.409   5.025   4.044  0.2287  0.1211 -0.9748
 1342TIP3    H1 3969   4.393   5.119   4.057  0.4831  0.0537 -0.1310
 1342TIP3    H2 3970   4.331   4.993   4.000 -1.3607  0.0880  1.6915
 1343TIP3   OH2 3971   0.352   3.456   0.698  0.4518  0.1375  0.0774
 1343TIP3    H1 3972   0.424   3.446   0.761  2.5330  4.3010 -1.2250
 1343TIP3    H2 3973   0.280   3.492   0.749  0.7535 -0.1327  0.7058
 1344TIP3   OH2 3974   0.266   0.753   1.446  0.8410  0.0000 -0.2089
 1344TIP3    H1 3975   0.241   0.776   1.535 -0.9695  2.8716 -1.3150
 1344TIP3    H2 3976   0.188   0.711   1.409  0.6737  1.0531 -1.1196
 1345TIP3   OH2 3977   4.086   6.806   4.813 -0.5090  0.3400  0.5674
 1345TIP3    H1 3978   3.994   6.798   4.786 -0.4612  0.4107  0.3813
 1345TIP3    H2 3979   4.130   6.843   4.737 -0.2437 -0.1052  0.5013
 1346TIP3   OH2 3980   0.850   5.853   4.711  0.6748 -0.1615  0.3902
 1346TIP3    H1 3981   0.925   5.906   4.682  0.7594  0.1868  1.1927
 1346TIP3    H2 3982   0.778   5.915   4.719  0.3795 -0.4390 -0.0709
 1347TIP3   OH2 3983   3.884   0.956   5.008 -0.1207 -0.0500  0.0176
 1347TIP3    H1 3984   3.970   0.975   5.046 -0.0286  0.1015 -0.2656
 1347TIP3    H2 3985   3.874   1.020   4.937 -0.4408 -0.1065  0.0099
 1348TIP3   OH2 3986   7.328   1.879   3.109 -0.3792  0.1842 -0.7892
 1348TIP3    H1 3987   7.363   1.834   3.032 -0.8446  0.2768 -1.0555
 1348TIP3    H2 3988   7.380   1.844   3.182 -1.6245 -1.8091 -0.7907
 1349TIP3   OH2 3989   8.124   2.022   3.548 -0.1876 -0.6330  0.3649
 1349TIP3    H1 3990   8.091   2.000   3.636 -2.9972 -0.8947 -0.6334
 1349TIP3    H2 3991   8.137   2.116   3.550  1.6229 -0.8684  1.5751
 1350TIP3   OH2 3992   7.358   5.548   0.501  0.3869 -0.0506 -0.3696
 1350TIP3    H1 3993   7.285   5.502   0.461  0.3826  1.0795 -1.7477
 1350TIP3    H2 3994   7.434   5.494   0.480  0.4413  0.6969 -2.3283
 1351TIP3   OH2 3995   1.411   1.181   2.662 -0.0932 -0.3405 -0.0012
 1351TIP3    H1 3996   1.397   1.177   2.756 -1.0606 -1.0489 -0.1600
 1351TIP3    H2 3997   1.504   1.160   2.650 -0.0011 -0.3868  0.7703
 1352TIP3   OH2 3998   0.127   7.247   0.962 -0.7212  0.6749  0.1076
 1352TIP3    H1 3999   0.200   7.240   1.024  0.5189  1.7547 -1.1606
 1352TIP3    H2 4000   0.049   7.233   1.015  0.3728 -5.4531  0.8745
 1353TIP3   OH2 4001   7.328   2.536   1.595 -0.5047  0.6119  0.3417
 1353TIP3    H1 4002   7.405   2.479   1.595 -0.4782  0.6292 -0.8135
 1353TIP3    H2 4003   7.255   2.478   1.615 -0.5735 -0.0055 -1.4989
 1354TIP3   OH2 4004   0.711   0.802   2.187 -0.8413  0.2965  0.0489
 1354TIP3    H1 4005   0.750   0.797   2.274  0.5386 -1.1869 -0.5983
 1354TIP3    H2 4006   0.622   0.832   2.202 -1.3207 -1.8827  2.2156
 1355TIP3   OH2 4007   5.742   7.525   6.442 -0.6477 -0.4993  0.3714
 1355TIP3    H1 4008   5.670   7.588   6.444 -0.5640 -0.4099  0.5336
 1355TIP3    H2 4009   5.816   7.575   6.408 -0.6977 -0.6287  0.0651
 1356TIP3   OH2 4010   1.319   6.553   1.123  0.0532  0.0396 -0.2035
 1356TIP3    H1 4011   1.251   6.560   1.056 -0.8615  1.4117  0.8268
 1356TIP3    H2 4012   1.272   6.562   1.206  1.3820  0.1436  0.5643
 1357TIP3   OH2 4013   0.055   1.497   0.493 -0.5054  0.2428 -0.0368
 1357TIP3    H1 4014   0.104   1.556   0.435 -1.3693  0.2775 -0.7567
 1357TIP3    H2 4015   0.070   1.410   0.456  1.3744 -0.1327  1.4538
 1358TIP3   OH2 4016   7.421   7.767   5.904  0.4823 -0.1624  0.0435
 1358TIP3    H1 4017   7.377   7.707   5.965 -0.8862  0.3052 -0.4522
 1358TIP3    H2 4018   7.425   7.850   5.952 -1.3545  0.4382 -0.7580
 1359TIP3   OH2 4019   1.753   4.049   6.685  0.2938 -0.6161 -0.5481
 1359TIP3    H1 4020   1.832   4.082   6.729 -0.0061  1.2241 -1.2948
 1359TIP3    H2 4021   1.683   4.106   6.716 -0.1399 -0.0690 -2.3766
 1360TIP3   OH2 4022   0.560   6.886   6.471  0.2664 -0.2911 -0.4405
 1360TIP3    H1 4023   0.628   6.832   6.433  1.8004  0.0979  1.5780
 1360TIP3    H2 4024   0.602   6.971   6.486 -0.6560 -0.0222  0.8184
 1361TIP3   OH2 4025   6.255   3.022   3.907 -0.4089 -0.1732 -0.3257
 1361TIP3    H1 4026   6.250   2.933   3.939 -1.1492 -0.9679 -2.4759
 1361TIP3    H2 4027   6.277   3.013   3.814 -0.5971  1.8722 -0.6171
 1362TIP3   OH2 4028   5.233   2.334   1.047 -0.0604  0.5597  0.0529
 1362TIP3    H1 4029   5.304   2.296   0.995  0.1599  0.7776  0.1912
 1362TIP3    H2 4030   5.228   2.425   1.018 -0.8537  0.3281 -0.5630
 1363TIP3   OH2 4031   6.925   6.406   1.718  0.0473 -0.4792  0.3352
 1363TIP3    H1 4032   7.013   6.440   1.704  0.0862 -0.2939  0.9890
 1363TIP3    H2 4033   6.900   6.439   1.804 -0.3820 -1.1225  0.4647
 1364TIP3   OH2 4034   0.200   7.080   1.187  0.1825  0.6137  0.2638
 1364TIP3    H1 4035   0.127   7.026   1.217 -0.8603  2.0049  0.3498
 1364TIP3    H2 4036   0.259   7.085   1.262 -0.7754  1.3437  0.9935
 1365TIP3   OH2 4037   7.850   5.420   6.132 -0.0589  0.0012 -0.4201
 1365TIP3    H1 4038   7.924   5.376   6.089  2.2177  0.9070  2.2671
 1365TIP3    H2 4039   7.809   5.351   6.185  0.0612 -0.0967 -0.4542
 1366TIP3   OH2 4040   4.072   5.886   2.095 -0.0320  0.3583  0.1445
 1366TIP3    H1 4041   4.035   5.972   2.117 -1.9547  0.1305 -1.8342
 1366TIP3    H2 4042   4.099   5.895   2.004  1.4345 -0.6329  0.4533
 1367TIP3   OH2 4043   1.458   6.649   5.316 -0.1986 -0.2551 -0.4431
 1367TIP3    H1 4044   1.432   6.593   5.242 -1.4387 -0.7781  0.3467
 1367TIP3    H2 4045   1.538   6.692   5.286  0.4066 -1.8981 -1.3633
 1368TIP3   OH2 4046   0.790   2.625   2.735  0.3007 -0.3307 -0.6464
 1368TIP3    H1 4047   0.874   2.645   2.775 -0.2988  1.8360 -0.3838
 1368TIP3    H2 4048   0.812   2.593   2.647  1.4287 -1.2668 -0.0408
 1369TIP3   OH2 4049   6.839   7.743   3.069  0.3311 -0.2407  0.0144
 1369TIP3    H1 4050   6.887   7.742   3.151  0.1167 -1.1697  0.1414
 1369TIP3    H2 4051   6.747   7.736   3.094  0.1661  0.8832 -0.2525
 1370TIP3   OH2 4052   2.434   6.917   3.961 -0.0774  0.2747  0.2506
 1370TIP3    H1 4053   2.446   6.823   3.945 -1.4664 -0.0258  0.8616
 1370TIP3    H2 4054   2.480   6.959   3.889 -2.3324 -0.9485 -2.0478
 1371TIP3   OH2 4055   3.397   7.712   1.340 -0.2531  0.2291  0.0543
 1371TIP3    H1 4056   3.440   7.795   1.320  0.6895 -0.3798 -0.5365
 1371TIP3    H2 4057   3.381   7.715   1.434  1.1447  0.4601  0.3069
 1372TIP3   OH2 4058   0.622   3.128   0.061  0.6966 -0.5066 -0.1412
 1372TIP3    H1 4059   0.699   3.125   0.004  0.7135  0.0462 -0.1552
 1372TIP3    H2 4060   0.558   3.180   0.012  0.9696  0.5958  0.6373
 1373TIP3   OH2 4061   0.837   0.409   1.373  0.5690  0.3549 -0.2381
 1373TIP3    H1 4062   0.895   0.336   1.353 -0.3654 -0.5160  0.1945
 1373TIP3    H2 4063   0.767   0.404   1.308 -1.0096 -0.8553  1.4487
 1374TIP3   OH2 4064   7.653   5.482   1.902  0.0650 -0.3079 -0.3158
 1374TIP3    H1 4065   7.628   5.500   1.992  1.0848  1.0794 -0.2702
 1374TIP3    H2 4066   7.584   5.426   1.868 -2.1350  1.8644  0.3115
 1375TIP3   OH2 4067   7.643   2.031   2.029  0.0187  0.0144 -0.3093
 1375TIP3    H1 4068   7.663   1.971   1.956  0.1115 -0.9507  0.4887
 1375TIP3    H2 4069   7.553   2.009   2.053  0.3523 -0.4428  0.5648
 1376TIP3   OH2 4070   2.389   6.726   2.408  0.3303 -0.6473  0.0357
 1376TIP3    H1 4071   2.430   6.795   2.460  1.8953 -1.5383  0.0722
 1376TIP3    H2 4072   2.346   6.670   2.473 -3.4940  1.7170 -0.1659
 1377TIP3   OH2 4073   1.332   6.542   3.133 -0.6259  0.3295  0.3962
 1377TIP3    H1 4074   1.241   6.521   3.112 -0.1704 -1.0747 -0.3257
 1377TIP3    H2 4075   1.336   6.637   3.133 -1.8806  0.3999 -0.4809
 1378TIP3   OH2 4076   0.446   4.177   6.394  0.2006  0.1311 -0.0331
 1378TIP3    H1 4077   0.509   4.167   6.322 -1.2174 -0.7772 -1.2043
 1378TIP3    H2 4078   0.498   4.162   6.473  1.3429 -1.2984 -0.9896
 1379TIP3   OH2 4079   0.054   3.301   5.203  0.0296  0.4107 -0.0374
 1379TIP3    H1 4080   0.101   3.384   5.209 -0.0986  0.5022 -0.2867
 1379TIP3    H2 4081  -0.019   3.309   5.265 -0.0843  0.5534 -0.1882
 1380TIP3   OH2 4082   4.009   5.253   1.026  0.0647 -0.7390 -0.6558
 1380TIP3    H1 4083   3.998   5.185   1.093 -2.6353 -2.4847 -2.6782
 1380TIP3    H2 4084   3.937   5.313   1.042  0.4492 -0.1974 -0.9536
 1381TIP3   OH2 4085   3.259   3.971   6.377 -0.1375  0.0898  0.0310
 1381TIP3    H1 4086   3.232   3.936   6.292 -0.4947 -2.0593  0.9635
 1381TIP3    H2 4087   3.321   4.042   6.356  0.3358 -0.8665 -1.9944
 1382TIP3   OH2 4088   6.590   6.790   0.866  0.1940 -0.2730  0.1114
 1382TIP3    H1 4089   6.606   6.822   0.777  1.9352  0.7543  0.7289
 1382TIP3    H2 4090   6.506   6.745   0.862 -0.3400  0.8261 -1.7689
 1383TIP3   OH2 4091   7.790   6.099   5.061 -0.0566 -0.5850  0.1976
 1383TIP3    H1 4092   7.745   6.025   5.101  0.1281 -0.7382  0.1243
 1383TIP3    H2 4093   7.809   6.158   5.135 -1.5754  0.1296  0.0449
 1384TIP3   OH2 4094   6.053   6.361   1.393  0.3393  0.2361 -0.2937
 1384TIP3    H1 4095   5.985   6.427   1.409 -1.4672 -1.6743  0.4779
 1384TIP3    H2 4096   6.018   6.309   1.320  1.1489 -0.5763 -0.1121
 1385TIP3   OH2 4097   7.917   1.182   5.546  0.5738  0.2275  0.3616
 1385TIP3    H1 4098   7.913   1.167   5.451  0.0253  0.7992  0.2845
 1385TIP3    H2 4099   7.918   1.094   5.584 -0.0300 -0.0154 -0.1577
 1386TIP3   OH2 4100   0.153   0.702   2.224 -0.0680  0.0271  0.0989
 1386TIP3    H1 4101   0.092   0.745   2.164  1.4175  0.1258 -1.4125
 1386TIP3    H2 4102   0.152   0.610   2.198 -0.0642 -0.0980  0.5283
 1387TIP3   OH2 4103   2.640   3.472   1.426 -0.0987 -0.1569 -0.2135
 1387TIP3    H1 4104   2.547   3.467   1.448 -0.3489 -1.7300 -1.4743
 1387TIP3    H2 4105   2.643   3.518   1.342  0.1706 -0.8790 -0.6079
 1388TIP3   OH2 4106   0.943   7.230   4.225  0.2168  0.1057 -0.2989
 1388TIP3    H1 4107   0.982   7.273   4.301  0.2353 -0.4813  0.0359
 1388TIP3    H2 4108   0.857   7.201   4.256 -0.2449  0.8701 -0.8547
 1389TIP3   OH2 4109   3.585   1.942   0.229 -0.0853  0.1957 -0.3488
 1389TIP3    H1 4110   3.629   1.925   0.313 -3.1390 -2.7883  0.8932
 1389TIP3    H2 4111   3.648   1.914   0.163  1.4151  0.0601  1.0605
 1390TIP3   OH2 4112   8.162   5.563   2.016 -0.2153 -0.1370 -0.1621
 1390TIP3    H1 4113   8.100   5.506   2.062 -0.7985 -0.3955 -1.2375
 1390TIP3    H2 4114   8.174   5.637   2.075  1.0784 -1.6509  1.5696
 1391TIP3   OH2 4115   2.316   5.244   3.680 -0.7343 -0.0609  0.2274
 1391TIP3    H1 4116   2.333   5.338   3.679  0.3397 -0.2498 -0.5452
 1391TIP3    H2 4117   2.263   5.228   3.602  1.4595 -0.4731 -1.2770
 1392TIP3   OH2 4118   1.161   5.237   3.342  0.1306 -0.1567  0.0080
 1392TIP3    H1 4119   1.184   5.237   3.249  1.5396  1.1663  0.3265
 1392TIP3    H2 4120   1.154   5.144   3.365  0.7436 -0.5126 -1.1807
 1393TIP3   OH2 4121   2.019   0.336   4.400  0.2507  0.1538 -0.2838
 1393TIP3    H1 4122   1.957   0.316   4.329  1.5926 -1.2391 -1.1119
 1393TIP3    H2 4123   1.974   0.307   4.480 -0.3965 -0.3115 -0.8011
 1394TIP3   OH2 4124   4.247   6.351   2.426 -0.0783  0.0929 -0.2787
 1394TIP3    H1 4125   4.279   6.407   2.355 -0.3625  1.6565  0.7877
 1394TIP3    H2 4126   4.169   6.396   2.459 -0.8184 -1.3830  0.0657
 1395TIP3   OH2 4127   5.785   6.232   2.232  0.3629 -0.1626  0.0192
 1395TIP3    H1 4128   5.720   6.210   2.299  0.8312 -1.0153  0.2041
 1395TIP3    H2 4129   5.857   6.170   2.247 -0.1529 -1.4117 -2.2218
 1396TIP3   OH2 4130   5.360   3.199   1.599  0.3321 -0.2338 -0.3146
 1396TIP3    H1 4131   5.380   3.163   1.512  0.5189  0.0702 -0.3984
 1396TIP3    H2 4132   5.308   3.130   1.641  0.0566 -0.2981 -0.7442
 1397TIP3   OH2 4133   6.269   3.796   1.813  0.1771 -0.1356 -0.1366
 1397TIP3    H1 4134   6.293   3.794   1.720 -0.8772  1.5421 -0.4894
 1397TIP3    H2 4135   6.316   3.722   1.851 -1.0185 -2.1808 -2.3776
 1398TIP3   OH2 4136   3.638   7.423   2.097  0.1026  0.7184  1.1242
 1398TIP3    H1 4137   3.561   7.396   2.046  1.2801 -0.5432 -0.0507
 1398TIP3    H2 4138   3.636   7.519   2.093 -0.2707  0.6814 -0.7076
 1399TIP3   OH2 4139   2.903   1.759   2.236 -0.3315  0.9250 -0.1657
 1399TIP3    H1 4140   2.901   1.751   2.332 -0.7988 -2.4208 -0.3392
 1399TIP3    H2 4141   2.988   1.797   2.217  0.6273 -0.2069  1.5466
 1400TIP3   OH2 4142   0.993   5.349   5.261 -0.2526 -0.1316  0.1455
 1400TIP3    H1 4143   1.041   5.297   5.326 -0.2781 -0.5552 -0.1644
 1400TIP3    H2 4144   1.059   5.408   5.224 -0.4116  0.6861  1.1153
 1401TIP3   OH2 4145   6.934   6.071   6.544 -0.1381 -0.2477  0.3000
 1401TIP3    H1 4146   6.967   6.150   6.501 -1.4055 -0.9563 -2.1165
 1401TIP3    H2 4147   7.009   6.010   6.542  0.1862  0.1486  0.2246
 1402TIP3   OH2 4148   7.654   5.038   0.689 -0.5160 -0.2802 -0.5192
 1402TIP3    H1 4149   7.587   4.991   0.739 -0.5753  0.4172  0.0622
 1402TIP3    H2 4150   7.621   5.127   0.682  0.3434  0.0719 -0.2338
 1403TIP3   OH2 4151   7.506   4.755   3.570  0.0221  0.0074 -0.2739
 1403TIP3    H1 4152   7.429   4.808   3.588  1.0650  0.8741  1.9733
 1403TIP3    H2 4153   7.569   4.816   3.531  0.5220 -0.0326  0.4553
 1404TIP3   OH2 4154   6.679   1.162   0.632  0.1042 -0.7612  0.0561
 1404TIP3    H1 4155   6.702   1.253   0.610  0.8762 -1.2608 -1.3148
 1404TIP3    H2 4156   6.637   1.169   0.718  0.2714  0.8765  0.0514
 1405TIP3   OH2 4157   8.205   6.303   6.140 -0.4207 -0.0559 -0.8271
 1405TIP3    H1 4158   8.180   6.384   6.184 -0.6313 -0.2367 -0.6135
 1405TIP3    H2 4159   8.248   6.332   6.059  0.2348  0.2830 -0.3659
 1406TIP3   OH2 4160   2.582   7.158   2.795  0.0345 -0.7121 -0.2330
 1406TIP3    H1 4161   2.507   7.135   2.740  0.7082 -1.3735 -0.8949
 1406TIP3    H2 4162   2.650   7.186   2.734 -0.2260  1.6359  0.4678
 1407TIP3   OH2 4163   5.758   7.631   4.824 -0.4986 -0.7570  0.1458
 1407TIP3    H1 4164   5.769   7.721   4.793 -1.7024 -0.7999 -0.4429
 1407TIP3    H2 4165   5.744   7.639   4.918 -0.3747 -0.3484  0.1285
 1408TIP3   OH2 4166   6.597   4.790   2.473 -0.0173 -0.2386  0.1370
 1408TIP3    H1 4167   6.573   4.712   2.422 -1.3022  0.3506 -0.1990
 1408TIP3    H2 4168   6.638   4.848   2.408 -3.5442  1.3971 -0.8513
 1409TIP3   OH2 4169   0.199   2.396   0.696  1.0393 -0.6610 -0.1245
 1409TIP3    H1 4170   0.157   2.478   0.722 -0.5277 -1.8563  1.3581
 1409TIP3    H2 4171   0.134   2.351   0.642  0.8031 -2.0106  1.1923
 1410TIP3   OH2 4172   5.175   5.712   2.794 -0.0752  0.4984 -0.4071
 1410TIP3    H1 4173   5.082   5.730   2.807 -0.7016 -0.8841 -2.4631
 1410TIP3    H2 4174   5.205   5.784   2.738  0.5491  1.8081  1.4988
 1411TIP3   OH2 4175   7.316   2.650   5.366 -0.2814  0.3395 -0.2441
 1411TIP3    H1 4176   7.406   2.618   5.373 -0.2579  0.5591  0.6121
 1411TIP3    H2 4177   7.263   2.571   5.357 -0.0694  0.1591  0.0782
 1412TIP3   OH2 4178   4.358   5.261   2.605 -0.0048 -0.2799 -0.2545
 1412TIP3    H1 4179   4.353   5.228   2.695  1.6136 -0.0557 -0.0469
 1412TIP3    H2 4180   4.281   5.224   2.562 -0.0004 -1.6482  0.8282
 1413TIP3   OH2 4181   2.989   2.491   0.147  0.7183  0.4064  0.1239
 1413TIP3    H1 4182   3.056   2.540   0.100  0.2431  0.1055 -0.8835
 1413TIP3    H2 4183   3.008   2.399   0.128 -0.5195  0.3493 -0.9355
 1414TIP3   OH2 4184   7.111   5.473   1.443  0.5118 -0.1575 -0.3192
 1414TIP3    H1 4185   7.085   5.522   1.364 -0.6248 -0.4558 -0.1495
 1414TIP3    H2 4186   7.060   5.392   1.439 -0.0019  0.0758  1.0100
 1415TIP3   OH2 4187   7.389   0.574   3.739 -0.2551  0.8708 -0.0604
 1415TIP3    H1 4188   7.295   0.594   3.731 -0.5540 -0.8427 -1.3471
 1415TIP3    H2 4189   7.420   0.566   3.649  1.1921  1.5636  0.3438
 1416TIP3   OH2 4190   5.861   2.311   2.688 -0.1621 -0.3447  0.1854
 1416TIP3    H1 4191   5.850   2.285   2.596  2.5532 -0.1511 -0.2586
 1416TIP3    H2 4192   5.833   2.234   2.738 -0.6157 -0.8577 -0.8218
 1417TIP3   OH2 4193   4.258   5.289   1.589  0.0762  0.8453  0.4160
 1417TIP3    H1 4194   4.188   5.275   1.654 -0.2947 -1.7294 -0.4142
 1417TIP3    H2 4195   4.315   5.212   1.599 -1.3974 -1.1101 -3.9183
 1418TIP3   OH2 4196   4.191   4.375   3.265  0.0933  0.1785  0.4424
 1418TIP3    H1 4197   4.180   4.466   3.292  1.0314  0.2593  0.6025
 1418TIP3    H2 4198   4.175   4.375   3.171 -0.7864  0.3402  0.5857
 1419TIP3   OH2 4199   3.808   1.463   1.749  0.2719 -0.5636  0.2978
 1419TIP3    H1 4200   3.769   1.406   1.683 -0.6483 -0.7753  1.0154
 1419TIP3    H2 4201   3.734   1.504   1.793  0.9082  0.7098  0.2237
 1420TIP3   OH2 4202   5.800   4.925   5.508  0.2338 -0.2639  1.0527
 1420TIP3    H1 4203   5.857   4.894   5.437  0.5135  0.6878  0.8390
 1420TIP3    H2 4204   5.728   4.970   5.464 -0.4324 -1.0394  1.3381
 1421TIP3   OH2 4205   1.338   0.031   6.039 -0.1288  0.1417  0.0634
 1421TIP3    H1 4206   1.296   0.117   6.028 -2.1853 -0.6577  1.1251
 1421TIP3    H2 4207   1.399   0.044   6.111  1.7808  1.3905 -1.6625
 1422TIP3   OH2 4208   2.961   6.246   2.475 -0.0757  0.1495  0.2243
 1422TIP3    H1 4209   2.989   6.324   2.428 -0.7211  0.1533 -0.1589
 1422TIP3    H2 4210   3.021   6.177   2.446 -0.0541  0.3053 -0.0986
 1423TIP3   OH2 4211   6.025   5.012   6.353  0.2930 -0.1270  0.2769
 1423TIP3    H1 4212   6.008   5.034   6.444 -1.9764 -1.0261  0.1524
 1423TIP3    H2 4213   6.101   4.953   6.356 -0.8663 -1.6542  1.8487
 1424TIP3   OH2 4214   5.201   1.353   6.011  0.2233  0.5151 -0.2402
 1424TIP3    H1 4215   5.182   1.286   5.946 -0.0410  0.1993  0.1543
 1424TIP3    H2 4216   5.222   1.304   6.091 -0.8313  0.8981  0.2901
 1425TIP3   OH2 4217   5.555   2.850   2.008  0.3702 -0.6349  0.2679
 1425TIP3    H1 4218   5.573   2.771   1.956 -0.1736  0.3458 -1.5247
 1425TIP3    H2 4219   5.612   2.917   1.970 -0.1648  0.1565  0.8409
 1426TIP3   OH2 4220   3.574   3.810   3.103  0.6356 -0.1295 -0.3624
 1426TIP3    H1 4221   3.664   3.825   3.134  0.8168  1.3757 -1.5289
 1426TIP3    H2 4222   3.579   3.822   3.009 -0.8817  0.4660 -0.3913
 1427TIP3   OH2 4223   2.484   4.887  -0.021 -0.2699 -0.3261 -0.1055
 1427TIP3    H1 4224   2.415   4.833   0.018  0.6816 -0.6391  1.2350
 1427TIP3    H2 4225   2.482   4.968   0.030 -1.5313  0.8801 -1.9458
 1428TIP3   OH2 4226   7.570   6.661   5.583  0.1284  0.4424  0.0848
 1428TIP3    H1 4227   7.541   6.681   5.495  0.2001  0.5296  0.0806
 1428TIP3    H2 4228   7.657   6.623   5.572  0.0256  0.1995  0.0982
 1429TIP3   OH2 4229   2.795   0.887   6.464 -0.5715  0.5170 -0.3584
 1429TIP3    H1 4230   2.881   0.847   6.457 -0.7405  0.4231 -2.3518
 1429TIP3    H2 4231   2.811   0.971   6.508 -0.0009 -0.9229  2.4428
 1430TIP3   OH2 4232   7.423   4.893   5.749  0.2051 -0.3230 -0.2476
 1430TIP3    H1 4233   7.337   4.929   5.769 -0.2256 -1.0516 -0.7681
 1430TIP3    H2 4234   7.416   4.800   5.768  1.6090 -0.0451  2.0874
 1431TIP3   OH2 4235   5.889   3.751   1.562 -0.4266  0.3214  0.1801
 1431TIP3    H1 4236   5.951   3.679   1.566 -0.5420  0.0893 -1.6289
 1431TIP3    H2 4237   5.924   3.810   1.495 -0.4985  1.8204  1.3863
 1432TIP3   OH2 4238   2.116   3.893   3.683 -0.0052  0.0224  0.4565
 1432TIP3    H1 4239   2.203   3.930   3.699  1.1738 -3.1672  2.3399
 1432TIP3    H2 4240   2.089   3.858   3.768 -3.6580  1.6786  0.2035
 1433TIP3   OH2 4241   4.972   5.818   3.120 -0.0396  0.0780 -0.2730
 1433TIP3    H1 4242   4.933   5.855   3.200  0.0490  0.8704 -0.5857
 1433TIP3    H2 4243   5.052   5.869   3.108  0.1611 -0.3248 -0.6372
 1434TIP3   OH2 4244   0.261   6.138   5.124  0.1159 -0.0290 -0.1033
 1434TIP3    H1 4245   0.199   6.066   5.136 -1.5089  1.5340  1.4109
 1434TIP3    H2 4246   0.242   6.172   5.037 -0.4332 -0.2593 -0.0804
 1435TIP3   OH2 4247   4.115   0.213   4.195 -0.5800 -0.0933  0.0066
 1435TIP3    H1 4248   4.135   0.302   4.227 -0.8772 -0.4346  1.1808
 1435TIP3    H2 4249   4.199   0.167   4.200 -0.8714 -0.5275  1.6409
 1436TIP3   OH2 4250   7.231   2.483   1.087  0.1535 -0.7092  0.1739
 1436TIP3    H1 4251   7.226   2.443   1.000 -0.2083 -2.2652  0.8833
 1436TIP3    H2 4252   7.197   2.572   1.074  2.7273  0.0995 -1.8252
 1437TIP3   OH2 4253   7.208   0.640   4.771  0.0355 -0.6736  0.4975
 1437TIP3    H1 4254   7.248   0.692   4.841 -0.0813  0.4885 -0.2821
 1437TIP3    H2 4255   7.283   0.601   4.725  0.1293 -1.0631  0.9692
 1438TIP3   OH2 4256   7.619   1.219   2.569  0.3050  0.2403  0.4364
 1438TIP3    H1 4257   7.713   1.225   2.557  0.1778  0.7090 -0.4022
 1438TIP3    H2 4258   7.597   1.293   2.626  0.3652  0.5004  0.1250
 1439TIP3   OH2 4259   3.754   5.760   2.275  0.4327 -0.1600 -0.2936
 1439TIP3    H1 4260   3.723   5.827   2.214  0.0852 -0.7442 -0.7620
 1439TIP3    H2 4261   3.706   5.681   2.251  1.9226 -0.9802 -0.7228
 1440TIP3   OH2 4262   7.298   1.723   5.573 -0.1268 -0.0904 -0.2267
 1440TIP3    H1 4263   7.376   1.685   5.533 -0.6828 -0.1183 -1.3294
 1440TIP3    H2 4264   7.227   1.703   5.512 -0.8339  0.7394  0.2902
 1441TIP3   OH2 4265   6.635   3.477   1.363 -0.2974  0.8359 -0.1619
 1441TIP3    H1 4266   6.699   3.414   1.396 -2.3486 -0.8218  0.9025
 1441TIP3    H2 4267   6.641   3.469   1.268  0.4392  0.0574 -0.0675
 1442TIP3   OH2 4268   8.234   3.916   1.843  0.1056  0.1656  0.5387
 1442TIP3    H1 4269   8.222   3.911   1.748 -1.4283 -0.6935  0.7352
 1442TIP3    H2 4270   8.213   4.007   1.865  0.4095  0.3515  0.0553
 1443TIP3   OH2 4271   5.668   1.583   6.116 -0.2145 -0.2388  0.6586
 1443TIP3    H1 4272   5.668   1.677   6.134 -0.6275 -0.3872  1.4790
 1443TIP3    H2 4273   5.640   1.543   6.198 -0.8168 -1.0338  0.0761
 1444TIP3   OH2 4274   3.511   1.548   0.572  0.4631  0.0873 -0.5185
 1444TIP3    H1 4275   3.506   1.475   0.633 -2.2714 -0.8524 -1.7090
 1444TIP3    H2 4276   3.450   1.613   0.607  1.9766  1.3752 -0.1161
 1445TIP3   OH2 4277   3.829   0.569   5.713  0.2110  0.3771 -0.1310
 1445TIP3    H1 4278   3.918   0.577   5.678  0.1609 -0.1700 -0.3851
 1445TIP3    H2 4279   3.777   0.630   5.660  0.0174 -0.8654 -1.4484
 1446TIP3   OH2 4280   7.266   2.078   4.924 -0.1982  0.4036  0.1136
 1446TIP3    H1 4281   7.333   2.083   4.856  1.5044 -0.7384  1.5873
 1446TIP3    H2 4282   7.204   2.013   4.891  0.9378 -0.6143 -0.1218
 1447TIP3   OH2 4283   6.057   5.798   3.997  0.0401  0.0009  0.3780
 1447TIP3    H1 4284   6.043   5.845   3.915  0.6480  0.2643  0.4154
 1447TIP3    H2 4285   6.152   5.802   4.010 -0.1600  0.9007  1.6529
 1448TIP3   OH2 4286   5.029   6.161   2.695 -0.0471 -0.4079 -0.2465
 1448TIP3    H1 4287   5.017   6.226   2.625 -0.0392 -1.9608 -1.7525
 1448TIP3    H2 4288   5.061   6.212   2.769 -1.2537  1.4961 -0.9577
 1449TIP3   OH2 4289   2.260   7.424   6.550  0.0325  0.0623 -0.0657
 1449TIP3    H1 4290   2.343   7.467   6.570  0.4116 -0.8264  0.2973
 1449TIP3    H2 4291   2.206   7.493   6.512  1.6315  0.1953 -2.2459
 1450TIP3   OH2 4292   1.331   3.529   0.864 -0.3031 -0.5581  1.3905
 1450TIP3    H1 4293   1.271   3.457   0.881  0.6354 -1.3210  1.5785
 1450TIP3    H2 4294   1.412   3.487   0.835 -0.3937  0.4946 -0.6621
 1451TIP3   OH2 4295   1.846   6.393   6.782 -0.2048 -0.2471  0.0140
 1451TIP3    H1 4296   1.888   6.476   6.758 -1.0795  1.5535  3.8448
 1451TIP3    H2 4297   1.753   6.408   6.768 -0.2158 -1.4796 -1.4096
 1452TIP3   OH2 4298   4.637   7.702   3.367  0.3534 -0.0585  0.0965
 1452TIP3    H1 4299   4.564   7.712   3.305 -1.3596  0.4112  2.0952
 1452TIP3    H2 4300   4.648   7.607   3.376 -1.4041 -0.1753  1.2977
 1453TIP3   OH2 4301   5.322   1.561   3.013  0.2167 -0.4348 -0.2610
 1453TIP3    H1 4302   5.381   1.486   3.008  0.2985 -0.3543 -0.4935
 1453TIP3    H2 4303   5.298   1.566   3.106  1.0336 -0.1115 -0.0610
 1454TIP3   OH2 4304   7.919   6.986   2.854  0.2898  0.0607  0.0988
 1454TIP3    H1 4305   7.920   7.028   2.940  0.8070 -1.3252  0.7935
 1454TIP3    H2 4306   7.987   6.918   2.859 -0.6982 -1.0462 -0.8943
 1455TIP3   OH2 4307   5.169   0.030   4.458 -0.4228 -0.0774 -0.2158
 1455TIP3    H1 4308   5.167   0.125   4.443 -0.3830 -0.4092 -2.8253
 1455TIP3    H2 4309   5.077   0.005   4.463 -0.4337  0.0666  0.4559
 1456TIP3   OH2 4310   5.646   6.452   6.140  0.1160 -0.7253 -0.2727
 1456TIP3    H1 4311   5.707   6.507   6.092 -2.1795  1.1379 -1.2652
 1456TIP3    H2 4312   5.590   6.514   6.187  0.0891 -2.4012  2.0949
 1457TIP3   OH2 4313   5.587   4.898   0.446  0.6011 -0.0662 -0.3018
 1457TIP3    H1 4314   5.651   4.930   0.383 -1.1162  0.6410 -1.7769
 1457TIP3    H2 4315   5.544   4.977   0.479 -0.2319 -0.5616 -0.1630
 1458TIP3   OH2 4316   1.295   2.062   4.999  0.4815 -0.1862  0.2904
 1458TIP3    H1 4317   1.276   1.988   5.057  2.6898 -1.8767 -0.9939
 1458TIP3    H2 4318   1.257   2.138   5.043  1.8936 -1.3767  3.9212
 1459TIP3   OH2 4319   0.540   1.950   3.833  0.2375  0.2924  0.0722
 1459TIP3    H1 4320   0.482   1.878   3.860  0.1761  0.6674  0.9760
 1459TIP3    H2 4321   0.547   1.940   3.738 -1.4148  0.3139 -0.0831
 1460TIP3   OH2 4322   5.916   1.625   2.250  0.2926 -0.4578 -0.1849
 1460TIP3    H1 4323   5.995   1.606   2.301 -0.1245 -1.2842  0.1785
 1460TIP3    H2 4324   5.870   1.691   2.301  0.8880  0.2381 -0.5441
 1461TIP3   OH2 4325   2.868   3.558   4.843  0.1040  0.1218  0.5420
 1461TIP3    H1 4326   2.845   3.473   4.804  1.6673 -0.0611 -0.0711
 1461TIP3    H2 4327   2.891   3.538   4.933  0.8172 -0.1905  0.3022
 1462TIP3   OH2 4328   1.630   6.064   6.444  0.7772 -0.2870 -0.0006
 1462TIP3    H1 4329   1.602   6.109   6.364  0.6944 -0.9276 -0.3355
 1462TIP3    H2 4330   1.683   6.129   6.490 -0.0617  0.4532 -0.0532
 1463TIP3   OH2 4331   3.666   1.539   4.228  0.0027  0.0575 -0.0147
 1463TIP3    H1 4332   3.754   1.547   4.192 -0.2144  1.5497 -0.2451
 1463TIP3    H2 4333   3.610   1.582   4.164 -0.9654 -1.1670 -0.0379
 1464TIP3   OH2 4334   7.357   6.148   3.853  0.6386  0.1125  0.1496
 1464TIP3    H1 4335   7.428   6.195   3.898  1.9635 -0.6910 -1.0345
 1464TIP3    H2 4336   7.346   6.195   3.771  0.3342 -0.2469 -0.0154
 1465TIP3   OH2 4337   4.097   0.377   5.088 -0.2195  0.4198 -0.0760
 1465TIP3    H1 4338   4.065   0.416   5.169 -0.1444 -0.9184  0.6213
 1465TIP3    H2 4339   4.061   0.289   5.087  2.3347 -0.7134  0.1158
 1466TIP3   OH2 4340   5.950   2.615   3.105 -0.6071  0.8030  0.5375
 1466TIP3    H1 4341   6.013   2.602   3.176 -0.4642 -0.3651  0.2202
 1466TIP3    H2 4342   5.928   2.708   3.108  0.4315  1.0329  1.2402
 1467TIP3   OH2 4343   8.207   4.214   6.556  0.5276  0.6740 -0.6420
 1467TIP3    H1 4344   8.197   4.131   6.602 -0.2285  0.1999 -1.6234
 1467TIP3    H2 4345   8.284   4.201   6.500 -0.2032  0.2344 -1.5776
 1468TIP3   OH2 4346   4.641   1.959   0.855 -0.1143 -0.3923  0.4890
 1468TIP3    H1 4347   4.697   1.887   0.826  0.6602  1.0801 -1.9093
 1468TIP3    H2 4348   4.699   2.035   0.860 -1.4949  0.7616 -0.1697
 1469TIP3   OH2 4349   6.551   1.950   2.670  0.9668 -0.2212  0.0701
 1469TIP3    H1 4350   6.600   1.927   2.749 -1.0696 -0.7780  1.2482
 1469TIP3    H2 4351   6.534   2.044   2.679  1.6589 -0.0564 -0.2719
 1470TIP3   OH2 4352   0.387   4.884   0.399 -0.4231  0.4635  0.4664
 1470TIP3    H1 4353   0.307   4.927   0.369  0.4318  0.7000 -1.6589
 1470TIP3    H2 4354   0.432   4.950   0.452 -0.1253  1.4916 -1.0228
 1471TIP3   OH2 4355   4.252   3.745   0.813 -0.5402 -0.0309  0.5582
 1471TIP3    H1 4356   4.198   3.697   0.876 -0.2330 -0.7347  0.2932
 1471TIP3    H2 4357   4.286   3.820   0.863 -0.8884 -0.1732  1.0207
 1472TIP3   OH2 4358   7.866   5.593   5.275  0.3708  0.1582  0.4219
 1472TIP3    H1 4359   7.770   5.596   5.278  0.2402 -1.0563 -1.1696
 1472TIP3    H2 4360   7.891   5.542   5.352 -0.3569 -0.5864  0.1780
 1473TIP3   OH2 4361   0.628   7.658   0.300  0.1802  0.2993  0.3294
 1473TIP3    H1 4362   0.584   7.740   0.320 -0.1790  0.1380  0.2074
 1473TIP3    H2 4363   0.717   7.670   0.333 -0.2429  0.2290  1.5396
 1474TIP3   OH2 4364   6.552   4.948   4.289  0.3447  0.3423 -0.3324
 1474TIP3    H1 4365   6.551   4.855   4.310 -2.4780  0.3072 -0.1774
 1474TIP3    H2 4366   6.644   4.969   4.273  1.0641 -2.4203 -0.2466
 1475TIP3   OH2 4367   8.068   4.275   0.570  0.8211  0.1584  0.2977
 1475TIP3    H1 4368   8.050   4.318   0.487  0.8998  1.0300  0.7205
 1475TIP3    H2 4369   8.007   4.202   0.573 -0.6033  1.3007  0.3737
 1476TIP3   OH2 4370   2.378   7.214   6.742 -0.5910  0.0450 -0.0693
 1476TIP3    H1 4371   2.408   7.268   6.670  0.8763 -0.1970  0.3207
 1476TIP3    H2 4372   2.458   7.188   6.788 -1.0689 -3.3147 -0.8436
 1477TIP3   OH2 4373   7.549   6.780   1.237  0.3702  0.4767  0.2532
 1477TIP3    H1 4374   7.599   6.747   1.312 -0.2770 -0.9825  0.0746
 1477TIP3    H2 4375   7.501   6.704   1.205 -0.0074  1.2692 -1.1464
 1478TIP3   OH2 4376   2.630   6.946   3.764  0.2825  0.8574  0.1426
 1478TIP3    H1 4377   2.614   6.971   3.673 -0.5425  0.0120  0.0439
 1478TIP3    H2 4378   2.684   6.867   3.758  0.1907  0.7746  0.3911
 1479TIP3   OH2 4379   5.152   0.629   2.623 -0.0590  0.1943  0.1120
 1479TIP3    H1 4380   5.230   0.641   2.568  0.9194  1.0238  1.6171
 1479TIP3    H2 4381   5.120   0.718   2.639 -0.7531 -0.0837  0.3025
 1480TIP3   OH2 4382   0.343   4.354   1.811 -0.4211 -0.1591  0.7074
 1480TIP3    H1 4383   0.348   4.298   1.888  1.2180 -0.0365  0.7364
 1480TIP3    H2 4384   0.418   4.328   1.758  0.3622  1.9240  0.6820
 1481TIP3   OH2 4385   7.442   2.814   1.061 -0.9232  0.8780 -0.1364
 1481TIP3    H1 4386   7.535   2.835   1.055 -0.9504  1.5999  1.2999
 1481TIP3    H2 4387   7.432   2.777   1.149 -1.8176 -0.2513 -0.6897
 1482TIP3   OH2 4388   0.960   1.676   1.104 -0.0959 -0.1950 -0.4041
 1482TIP3    H1 4389   1.008   1.615   1.160 -1.5925 -0.9320  0.1335
 1482TIP3    H2 4390   1.026   1.712   1.045  0.9953 -1.6376 -0.1143
 1483TIP3   OH2 4391   0.598   1.919   5.486  0.1411 -0.3090 -0.7290
 1483TIP3    H1 4392   0.569   2.009   5.502  1.7416  0.2960 -1.0070
 1483TIP3    H2 4393   0.637   1.892   5.569  1.3385 -0.0387 -1.1765
 1484TIP3   OH2 4394   2.006   6.569   5.000  0.5289  0.5202 -0.5083
 1484TIP3    H1 4395   1.986   6.479   4.975  0.3018  0.5710 -0.5148
 1484TIP3    H2 4396   1.978   6.621   4.925  2.4446  0.4411 -1.3277
 1485TIP3   OH2 4397   1.401   4.579   0.808  0.8637  0.3263 -0.0164
 1485TIP3    H1 4398   1.460   4.626   0.867  1.4171  1.4714 -1.4305
 1485TIP3    H2 4399   1.456   4.555   0.733 -0.1657  0.2534 -0.7666
 1486TIP3   OH2 4400   7.411   1.160   2.827  0.6477 -0.0736 -0.3966
 1486TIP3    H1 4401   7.336   1.103   2.845  1.2916 -1.5170 -1.9853
 1486TIP3    H2 4402   7.401   1.185   2.736  2.1336 -0.3962 -0.6791
 1487TIP3   OH2 4403   3.966   3.419   5.057  0.2057  0.0762  0.5240
 1487TIP3    H1 4404   3.932   3.497   5.013 -2.3317 -0.3797  1.5373
 1487TIP3    H2 4405   4.023   3.453   5.125  0.3696  0.9667 -0.0390
 1488TIP3   OH2 4406   0.016   2.663   2.157  0.0534 -0.2491 -0.5184
 1488TIP3    H1 4407  -0.020   2.733   2.101  1.2639 -0.1217 -1.1771
 1488TIP3    H2 4408   0.033   2.591   2.096  1.6323 -0.0173 -0.3756
 1489TIP3   OH2 4409   8.231   6.993   1.245  0.5123 -1.0492  0.4314
 1489TIP3    H1 4410   8.151   7.029   1.206 -0.0563 -1.2677  1.3871
 1489TIP3    H2 4411   8.227   6.899   1.226  0.1029 -1.1985  1.2262
 1490TIP3   OH2 4412   7.704   3.125   4.920  0.0017 -0.5543 -0.0267
 1490TIP3    H1 4413   7.753   3.097   4.842  0.1059 -0.7438  0.1066
 1490TIP3    H2 4414   7.633   3.062   4.928 -0.6461  0.0918 -0.5892
 1491TIP3   OH2 4415   1.951   4.970   3.104 -0.1266  0.4857  0.1311
 1491TIP3    H1 4416   1.957   4.937   3.014  3.0024  0.9291  0.0889
 1491TIP3    H2 4417   2.015   5.041   3.108 -0.9578  1.1862  2.4450
 1492TIP3   OH2 4418   1.675   6.877   3.298 -0.1665 -0.6644  0.4662
 1492TIP3    H1 4419   1.749   6.824   3.327  0.3318  0.9090  2.2874
 1492TIP3    H2 4420   1.615   6.877   3.373 -1.4874 -0.9308 -0.5436
 1493TIP3   OH2 4421   6.788   3.538   6.702 -1.0734  0.4672  0.0474
 1493TIP3    H1 4422   6.845   3.474   6.658 -0.6750  1.4203 -0.8498
 1493TIP3    H2 4423   6.758   3.493   6.782  1.3855  0.1508  0.8541
 1494TIP3   OH2 4424   2.534   1.524   1.798 -0.3493  0.1003  0.0354
 1494TIP3    H1 4425   2.460   1.584   1.802  0.0942  0.6953 -0.3941
 1494TIP3    H2 4426   2.602   1.573   1.752  1.1083  0.4131  2.3568
 1495TIP3   OH2 4427   1.587   1.702   1.779  0.3107 -0.4627 -0.2929
 1495TIP3    H1 4428   1.523   1.679   1.847  0.6719 -0.8962 -0.0981
 1495TIP3    H2 4429   1.643   1.625   1.771  1.6319  0.3829  0.4839
 1496TIP3   OH2 4430   0.772   5.750   6.113  0.2341 -0.3305 -0.0710
 1496TIP3    H1 4431   0.703   5.816   6.112 -0.2788 -0.7519  2.1101
 1496TIP3    H2 4432   0.848   5.793   6.074 -1.1730  0.1684 -2.4689
 1497TIP3   OH2 4433   2.123   7.642   3.647  0.0404  0.2148 -0.0594
 1497TIP3    H1 4434   2.176   7.574   3.689 -1.2697 -0.0384  1.2518
 1497TIP3    H2 4435   2.183   7.716   3.637  1.0356 -0.5546  0.0110
 1498TIP3   OH2 4436   5.093   3.993   4.489 -0.0488  0.1916  0.5244
 1498TIP3    H1 4437   5.177   4.033   4.466 -0.2202 -0.1576 -0.7756
 1498TIP3    H2 4438   5.036   4.066   4.511 -0.0922  0.6279 -0.9301
 1499TIP3   OH2 4439   5.720   5.297   5.744  0.1552  0.3184  0.0042
 1499TIP3    H1 4440   5.642   5.317   5.692 -0.5182  0.6767  1.1137
 1499TIP3    H2 4441   5.789   5.351   5.705 -0.1683  0.0847 -0.9156
 1500TIP3   OH2 4442   3.001   0.992   3.453  0.0080  0.3432  0.4431
 1500TIP3    H1 4443   2.923   1.047   3.446 -0.2689 -0.2480 -3.2122
 1500TIP3    H2 4444   2.970   0.904   3.431  1.4503 -0.1265  0.1867
 1501TIP3   OH2 4445   6.388   5.718   6.435 -0.7804 -0.8861  0.1591
 1501TIP3    H1 4446   6.293   5.735   6.433 -0.7471 -0.5857  0.9544
 1501TIP3    H2 4447   6.410   5.696   6.344 -1.2805  0.8838 -0.4338
 1502TIP3   OH2 4448   6.226   4.847   4.704 -0.7788  0.0959  0.4240
 1502TIP3    H1 4449   6.210   4.888   4.619  2.1876  3.5402  1.2572
 1502TIP3    H2 4450   6.238   4.754   4.685  0.7828  0.8606 -3.1458
 1503TIP3   OH2 4451   5.226   7.008   3.456  0.3827 -0.3061  0.0458
 1503TIP3    H1 4452   5.296   6.962   3.409  0.2315  0.3126 -0.8208
 1503TIP3    H2 4453   5.176   7.052   3.387 -1.0595 -0.9986  0.6153
 1504TIP3   OH2 4454   1.050   1.605   4.397 -0.6804 -0.0149  0.0247
 1504TIP3    H1 4455   1.068   1.515   4.373  1.5481  0.7751 -1.5572
 1504TIP3    H2 4456   1.014   1.600   4.486 -1.7528 -2.4912 -0.4721
 1505TIP3   OH2 4457   0.777   7.253   1.862 -0.4716  0.1516 -0.7185
 1505TIP3    H1 4458   0.760   7.232   1.954  1.0060  1.5068 -0.0692
 1505TIP3    H2 4459   0.866   7.221   1.846 -0.2823  0.9169 -1.3055
 1506TIP3   OH2 4460   8.034   5.765   2.606 -0.0610  0.5591 -0.1465
 1506TIP3    H1 4461   7.963   5.815   2.566 -0.9382 -1.5984 -1.4710
 1506TIP3    H2 4462   7.999   5.735   2.689 -0.6933 -0.3869 -0.7354
 1507TIP3   OH2 4463   3.527   3.633   2.016  0.0292  0.3139  0.2350
 1507TIP3    H1 4464   3.464   3.561   2.014 -0.5175  0.7949  0.0874
 1507TIP3    H2 4465   3.475   3.712   2.007  0.3692  0.9216  2.8281
 1508TIP3   OH2 4466   7.363   0.817   4.944 -0.3226  0.0992  0.5685
 1508TIP3    H1 4467   7.405   0.836   4.860  0.3302 -0.7304  0.6959
 1508TIP3    H2 4468   7.345   0.903   4.982  1.7726  0.5175  0.7545
 1509TIP3   OH2 4469   0.044   6.384   5.289 -0.2135 -0.0549  0.0106
 1509TIP3    H1 4470   0.026   6.434   5.368 -0.1992  0.8343 -0.5278
 1509TIP3    H2 4471   0.050   6.450   5.220  1.9288 -0.5787 -0.3786
 1510TIP3   OH2 4472   5.185   4.402   3.618  0.5157  0.0607  0.2036
 1510TIP3    H1 4473   5.115   4.337   3.611  0.2714  0.3613 -0.1704
 1510TIP3    H2 4474   5.147   4.475   3.666  0.4820  0.3423 -0.2444
 1511TIP3   OH2 4475   1.545   4.947   5.779 -0.1990 -0.2783  0.1878
 1511TIP3    H1 4476   1.537   4.900   5.862 -0.1529  1.2601  1.1080
 1511TIP3    H2 4477   1.457   4.981   5.762  0.2254  1.1421  0.7086
 1512TIP3   OH2 4478   5.856   1.902   4.550  0.3159 -0.0793 -0.1401
 1512TIP3    H1 4479   5.797   1.957   4.602  1.3247 -0.6631  1.7076
 1512TIP3    H2 4480   5.943   1.938   4.566  0.8412 -1.3583  0.0184
 1513TIP3   OH2 4481   2.510   6.869   2.623  0.0781  0.1518 -0.2961
 1513TIP3    H1 4482   2.552   6.791   2.659  1.0446  0.3571 -0.9111
 1513TIP3    H2 4483   2.445   6.894   2.688  1.1243 -0.0189  0.8541
 1514TIP3   OH2 4484   8.114   0.254   3.124 -0.1463 -0.3577  0.3639
 1514TIP3    H1 4485   8.069   0.221   3.046  2.9564 -0.4868 -1.5463
 1514TIP3    H2 4486   8.119   0.349   3.111 -0.5132 -0.2459  0.9687
 1515TIP3   OH2 4487   0.561   6.697   5.066  0.3361  0.7457  0.0329
 1515TIP3    H1 4488   0.632   6.758   5.087  0.3803  0.9872 -0.8018
 1515TIP3    H2 4489   0.487   6.753   5.045  0.3735  0.5208 -0.7281
 1516TIP3   OH2 4490   4.430   4.222   1.360 -0.5825  0.0410 -0.4602
 1516TIP3    H1 4491   4.524   4.212   1.341  0.0483  1.3950  1.5701
 1516TIP3    H2 4492   4.408   4.146   1.413 -0.4237  0.0877 -0.3234
 1517TIP3   OH2 4493   0.126   1.145   2.747  0.4405  0.0397  0.0085
 1517TIP3    H1 4494   0.079   1.079   2.696  0.6423  0.2113 -0.4102
 1517TIP3    H2 4495   0.218   1.122   2.738  0.6294  1.1671 -1.3197
 1518TIP3   OH2 4496   6.205   3.469   3.247 -0.9474 -0.5985  0.2607
 1518TIP3    H1 4497   6.201   3.377   3.219 -1.8959 -1.1599  2.0644
 1518TIP3    H2 4498   6.135   3.477   3.312 -0.0723  1.0806  1.0527
 1519TIP3   OH2 4499   2.899   6.560   6.227 -0.4916 -0.1758  0.3073
 1519TIP3    H1 4500   2.821   6.541   6.175 -1.1427  0.2769  1.1112
 1519TIP3    H2 4501   2.866   6.600   6.307  0.6363  1.2992  0.0743
 1520TIP3   OH2 4502   1.048   3.573   5.524  0.1765 -0.4237 -0.2932
 1520TIP3    H1 4503   1.018   3.485   5.499  0.2281 -0.9438  1.3905
 1520TIP3    H2 4504   1.127   3.558   5.575 -0.1381  0.5714  0.5110
 1521TIP3   OH2 4505   3.903   7.131   0.527 -0.3089 -0.1351  0.4423
 1521TIP3    H1 4506   3.973   7.079   0.567 -0.4545 -0.0756  0.7798
 1521TIP3    H2 4507   3.822   7.090   0.557 -0.4389  0.8287  1.4633
 1522TIP3   OH2 4508   6.604   2.816   0.113  0.3954 -0.2934 -0.0489
 1522TIP3    H1 4509   6.644   2.731   0.133  0.0991 -0.7072 -1.1436
 1522TIP3    H2 4510   6.560   2.802   0.029 -1.0258  0.4940  0.5319
 1523TIP3   OH2 4511   2.918   5.774   3.435  0.4729 -0.1329 -0.1054
 1523TIP3    H1 4512   2.828   5.743   3.444  0.6589 -0.6912 -0.1029
 1523TIP3    H2 4513   2.958   5.757   3.520 -0.0720  2.3885  0.7300
 1524TIP3   OH2 4514   3.537   0.477   4.822  0.8083 -0.1353  0.8729
 1524TIP3    H1 4515   3.492   0.457   4.739  1.4722  1.4959  0.0765
 1524TIP3    H2 4516   3.622   0.435   4.813  0.2730 -1.4160  1.4884
 1525TIP3   OH2 4517   1.650   4.207   4.487  0.0702  0.2798 -0.4576
 1525TIP3    H1 4518   1.670   4.195   4.580  0.7109 -1.1094 -0.7399
 1525TIP3    H2 4519   1.689   4.291   4.465 -2.3552  1.9288  1.0899
 1526TIP3   OH2 4520   0.345   6.004   3.708  0.0264 -0.7522  0.0187
 1526TIP3    H1 4521   0.294   5.956   3.642 -1.2213 -0.0946  0.4769
 1526TIP3    H2 4522   0.280   6.051   3.759  1.0959 -0.0430  0.7691
 1527TIP3   OH2 4523   4.670   5.115   0.080  0.4301 -0.7361 -0.0752
 1527TIP3    H1 4524   4.640   5.205   0.093 -1.0180 -1.3111  0.8609
 1527TIP3    H2 4525   4.720   5.118  -0.002  0.8804  1.0104  0.2312
 1528TIP3   OH2 4526   7.437   2.922   4.674  0.5968 -0.2743 -0.4173
 1528TIP3    H1 4527   7.423   2.829   4.690 -0.1689 -0.4703 -2.0605
 1528TIP3    H2 4528   7.468   2.927   4.583  2.5450  0.9291  0.2252
 1529TIP3   OH2 4529   1.171   0.946   0.465 -0.2287  0.2783  0.2456
 1529TIP3    H1 4530   1.239   0.951   0.398 -0.7067 -0.1833 -0.2745
 1529TIP3    H2 4531   1.217   0.911   0.542 -0.0293 -0.7146 -0.3126
 1530TIP3   OH2 4532   3.626   5.461   2.953 -0.2427  0.2485 -0.4388
 1530TIP3    H1 4533   3.701   5.420   2.995  0.1775  0.4749 -0.9703
 1530TIP3    H2 4534   3.650   5.554   2.944 -1.3848  0.7645  1.2354
 1531TIP3   OH2 4535   0.132   6.538   5.086 -0.1872  0.1820 -0.5251
 1531TIP3    H1 4536   0.159   6.573   5.000 -0.8771  1.3472 -0.2856
 1531TIP3    H2 4537   0.215   6.521   5.131  0.2389 -1.7374 -1.8747
 1532TIP3   OH2 4538   4.771   5.259   5.319 -0.3008 -0.1612  0.0943
 1532TIP3    H1 4539   4.687   5.222   5.294 -0.5013  0.3323  0.0219
 1532TIP3    H2 4540   4.765   5.352   5.295 -0.0880  0.0848  0.9350
 1533TIP3   OH2 4541   6.710   3.923   4.851 -0.3816  0.4231 -0.1347
 1533TIP3    H1 4542   6.750   3.941   4.766  0.3347 -1.8302 -0.3526
 1533TIP3    H2 4543   6.749   3.987   4.910  0.4119  0.9482 -1.1900
 1534TIP3   OH2 4544   2.847   0.479   6.405  0.0386  0.1774  0.0442
 1534TIP3    H1 4545   2.837   0.386   6.385 -1.7742  0.2434  0.5137
 1534TIP3    H2 4546   2.911   0.510   6.341 -0.0623 -1.1827 -0.7615
 1535TIP3   OH2 4547   6.417   4.867   0.230  0.4976  0.1992 -0.2551
 1535TIP3    H1 4548   6.351   4.851   0.163 -1.5968  1.3913  1.4004
 1535TIP3    H2 4549   6.389   4.947   0.274  1.9212 -0.3633  1.8723
 1536TIP3   OH2 4550   0.798   3.466   1.326 -0.4593  0.2616  0.4532
 1536TIP3    H1 4551   0.830   3.505   1.408 -0.1306 -1.1158  1.0158
 1536TIP3    H2 4552   0.850   3.507   1.258 -1.1018  1.8277  0.8652
 1537TIP3   OH2 4553   5.137   1.720   5.473  0.2458 -0.2926  0.4093
 1537TIP3    H1 4554   5.126   1.678   5.558  1.2048 -0.9549  0.2197
 1537TIP3    H2 4555   5.215   1.775   5.482  1.2568 -1.5315 -0.4644
 1538TIP3   OH2 4556   3.373   3.760   4.672 -0.3590  0.2364 -0.0323
 1538TIP3    H1 4557   3.287   3.801   4.664 -0.0756  1.0441  0.8264
 1538TIP3    H2 4558   3.410   3.763   4.584 -0.8582  0.6752 -0.2292
 1539TIP3   OH2 4559   0.158   5.079   0.598 -0.9023 -0.1586 -0.1264
 1539TIP3    H1 4560   0.075   5.032   0.607 -1.3182  0.6635  0.4862
 1539TIP3    H2 4561   0.133   5.164   0.562 -0.5522  0.7157  1.6040
 1540TIP3   OH2 4562   3.201   5.698   1.351  0.8035 -0.0490  0.1902
 1540TIP3    H1 4563   3.187   5.791   1.370  0.3740  0.1956 -1.2020
 1540TIP3    H2 4564   3.180   5.689   1.258 -0.4990 -1.8042  0.5899
 1541TIP3   OH2 4565   5.404   6.812   1.284  0.3894 -0.3968  0.1093
 1541TIP3    H1 4566   5.415   6.837   1.375 -0.2143  0.7874 -0.1249
 1541TIP3    H2 4567   5.369   6.722   1.287 -0.6761  0.0328  1.0734
 1542TIP3   OH2 4568   7.801   4.708   0.390  0.2830  0.2959  0.0628
 1542TIP3    H1 4569   7.706   4.718   0.383 -0.0745 -2.4702 -0.0710
 1542TIP3    H2 4570   7.836   4.777   0.334 -1.6635  0.6662 -0.7992
 1543TIP3   OH2 4571   4.612   1.236   4.913  0.2121 -0.2950 -0.0307
 1543TIP3    H1 4572   4.578   1.290   4.985  0.2336  0.7947 -0.8251
 1543TIP3    H2 4573   4.580   1.278   4.834  1.8544 -0.3276 -0.7391
 1544TIP3   OH2 4574   7.949   7.356   1.294  0.1928 -0.2830  0.2048
 1544TIP3    H1 4575   7.994   7.439   1.274  0.0634  0.0104  1.1023
 1544TIP3    H2 4576   7.870   7.359   1.240 -0.5396  0.8533  1.3005
 1545TIP3   OH2 4577   5.121   2.646   4.760  0.2065 -0.5281  0.2240
 1545TIP3    H1 4578   5.090   2.652   4.669  2.4168 -1.0783 -0.6293
 1545TIP3    H2 4579   5.156   2.733   4.778  0.3377 -0.5998  0.3151
 1546TIP3   OH2 4580   3.174   7.472   0.666  0.2349  0.0296  0.1195
 1546TIP3    H1 4581   3.258   7.431   0.648 -0.2312 -0.9426  0.1038
 1546TIP3    H2 4582   3.191   7.530   0.741  1.4157  1.5893 -1.2757
 1547TIP3   OH2 4583   6.976   1.619   4.794  0.3950  0.2602 -0.4305
 1547TIP3    H1 4584   7.004   1.529   4.775  0.0721 -0.0201  0.3444
 1547TIP3    H2 4585   6.948   1.616   4.886 -0.1248  1.0274 -0.5546
 1548TIP3   OH2 4586   7.801   4.943   6.571  0.3899 -0.2177  0.4896
 1548TIP3    H1 4587   7.809   4.981   6.658  1.4689 -2.3750  1.4154
 1548TIP3    H2 4588   7.790   4.849   6.587 -1.9396 -0.4208 -1.6591
 1549TIP3   OH2 4589   1.047   0.994   3.156 -0.0350 -0.2731 -0.1653
 1549TIP3    H1 4590   0.959   0.975   3.189  0.3197  1.3645  1.9648
 1549TIP3    H2 4591   1.105   0.962   3.225  0.9269  0.5071 -0.6041
 1550TIP3   OH2 4592   4.890   1.001   5.890 -0.1974  0.2859 -0.2638
 1550TIP3    H1 4593   4.862   0.982   5.800  0.7460  0.0961 -0.5321
 1550TIP3    H2 4594   4.849   1.085   5.911  0.9694  1.2021 -1.5157
 1551TIP3   OH2 4595   4.570   4.919   0.677  0.2984  0.0326 -0.7448
 1551TIP3    H1 4596   4.486   4.965   0.680  0.7875  0.8695  1.3000
 1551TIP3    H2 4597   4.601   4.931   0.587 -1.0904  0.9349 -1.1299
 1552TIP3   OH2 4598   1.376   1.962   5.506  0.4182  0.2084 -0.3242
 1552TIP3    H1 4599   1.349   1.874   5.482 -0.0385 -0.7196  3.0451
 1552TIP3    H2 4600   1.298   2.016   5.497 -0.2492 -0.5280  0.8308
 1553TIP3   OH2 4601   3.121   4.588   0.244 -0.6100  0.0098  0.3348
 1553TIP3    H1 4602   3.120   4.562   0.152 -0.6047  0.0722  0.3172
 1553TIP3    H2 4603   3.120   4.505   0.292  0.3853 -0.0545  0.2725
 1554TIP3   OH2 4604   0.186   6.884   0.314  0.3127  0.7129 -0.0005
 1554TIP3    H1 4605   0.171   6.919   0.402 -1.1806  0.0461  0.0460
 1554TIP3    H2 4606   0.181   6.789   0.324  0.6266  0.6107 -0.7272
 1555TIP3   OH2 4607   4.204   5.758   5.876 -0.0671 -0.5865  0.0169
 1555TIP3    H1 4608   4.274   5.768   5.812  0.3219 -1.1528  0.3414
 1555TIP3    H2 4609   4.248   5.763   5.961 -0.3520 -1.3158  0.2235
 1556TIP3   OH2 4610   3.206   6.380   6.522  0.2462  0.1466 -0.3610
 1556TIP3    H1 4611   3.125   6.398   6.570  0.8011 -0.6459  0.9275
 1556TIP3    H2 4612   3.207   6.285   6.510  1.0873  0.1228 -0.1692
 1557TIP3   OH2 4613   3.560   0.989   2.444  0.2682 -0.4861  0.0480
 1557TIP3    H1 4614   3.532   0.987   2.536 -0.8700 -1.1037 -0.2942
 1557TIP3    H2 4615   3.641   1.041   2.445  0.5005 -0.8221  1.4515
 1558TIP3   OH2 4616   4.139   4.045   4.503  0.2733  0.5302 -0.5835
 1558TIP3    H1 4617   4.177   4.130   4.483  0.9585  0.5681  0.7949
 1558TIP3    H2 4618   4.108   4.012   4.418 -0.0196  2.1427 -1.1298
 1559TIP3   OH2 4619   5.231   3.591   2.387 -0.1428 -0.1715  0.1807
 1559TIP3    H1 4620   5.139   3.618   2.391 -0.1842  0.3915 -2.6108
 1559TIP3    H2 4621   5.240   3.529   2.459 -2.2070  1.1128  1.6611
 1560TIP3   OH2 4622   8.232   5.732   0.831 -0.2201  0.5225  0.2222
 1560TIP3    H1 4623   8.153   5.770   0.792 -1.5024 -1.9125  0.2645
 1560TIP3    H2 4624   8.255   5.792   0.902 -3.2754  0.2978  1.5681
 1561TIP3   OH2 4625   7.699   6.060   0.627 -0.6619  0.3615  0.1569
 1561TIP3    H1 4626   7.640   6.002   0.580  0.6405  0.6101 -1.8765
 1561TIP3    H2 4627   7.785   6.019   0.619 -0.1736  1.1571  1.1144
 1562TIP3   OH2 4628   4.421   0.201   0.110  0.5477  0.4807 -0.3043
 1562TIP3    H1 4629   4.454   0.248   0.033 -1.1470  2.2739 -0.0153
 1562TIP3    H2 4630   4.355   0.259   0.147 -0.2336 -1.3087  1.2714
 1563TIP3   OH2 4631   3.401   3.163   2.131  0.3524  0.1117 -0.2940
 1563TIP3    H1 4632   3.309   3.190   2.142  0.0484 -0.8034 -0.5071
 1563TIP3    H2 4633   3.445   3.200   2.207 -0.3334 -0.0011  0.1741
 1564TIP3   OH2 4634   6.062   4.983   6.648  0.5255  0.1356 -0.0240
 1564TIP3    H1 4635   6.098   4.896   6.628  1.7686  0.6769 -0.2176
 1564TIP3    H2 4636   5.968   4.967   6.661  1.0045 -1.5455  1.8452
 1565TIP3   OH2 4637   2.359   3.285   2.157 -0.1820  0.4620  0.2359
 1565TIP3    H1 4638   2.347   3.246   2.244  0.8753  0.0248  0.2009
 1565TIP3    H2 4639   2.324   3.219   2.096 -1.2202  0.9043  0.3257
 1566TIP3   OH2 4640   4.968   1.696   5.853 -0.0347 -0.1730 -0.3719
 1566TIP3    H1 4641   4.906   1.758   5.814  0.7947  0.0614 -1.3756
 1566TIP3    H2 4642   5.053   1.737   5.842  0.3374 -0.5797  0.8106
 1567TIP3   OH2 4643   0.215   0.461   3.626  0.1114 -0.2745 -0.0131
 1567TIP3    H1 4644   0.163   0.387   3.656  0.0833  0.4978  2.0039
 1567TIP3    H2 4645   0.300   0.449   3.668 -0.1115  1.1568  0.9178
 1568TIP3   OH2 4646   3.448   2.853   3.819  0.4481  0.1738  0.0869
 1568TIP3    H1 4647   3.463   2.762   3.844  1.4828  0.2034 -0.3899
 1568TIP3    H2 4648   3.453   2.902   3.901 -2.4725 -0.4232  0.7390
 1569TIP3   OH2 4649   5.970   3.998   3.798  0.1951  0.5369  0.9048
 1569TIP3    H1 4650   5.885   4.019   3.837  0.1334 -0.4016  1.3020
 1569TIP3    H2 4651   5.972   3.902   3.793  0.3732  0.5938 -1.0458
 1570TIP3   OH2 4652   0.091   1.018   6.423 -0.8076 -0.2748  0.1331
 1570TIP3    H1 4653   0.051   0.934   6.447  1.6204 -0.8857  2.5946
 1570TIP3    H2 4654   0.063   1.078   6.492  2.5463 -0.8335  2.2056
 1571TIP3   OH2 4655   4.116   4.999   6.439  0.2976  0.8207  0.3315
 1571TIP3    H1 4656   4.043   4.938   6.430 -0.3749  1.6449  0.1069
 1571TIP3    H2 4657   4.091   5.075   6.387  0.2729  2.0674  2.0980
 1572TIP3   OH2 4658   6.714   1.182   6.726 -0.1373  0.0672  0.1120
 1572TIP3    H1 4659   6.669   1.182   6.811  1.8262 -1.4692  1.2407
 1572TIP3    H2 4660   6.739   1.091   6.712  0.2279  0.4101 -1.7950
 1573TIP3   OH2 4661   3.138   5.313  -0.036 -0.0955 -0.2248  0.0985
 1573TIP3    H1 4662   3.074   5.372   0.003  0.5468 -0.1917  1.1298
 1573TIP3    H2 4663   3.192   5.283   0.037  0.4728 -0.9983 -0.6106
 1574TIP3   OH2 4664   6.166   5.731   1.138  0.3749 -0.3856 -0.3876
 1574TIP3    H1 4665   6.217   5.799   1.181 -0.6811 -0.3994  0.9655
 1574TIP3    H2 4666   6.205   5.722   1.051  0.7739  1.6621 -0.4619
 1575TIP3   OH2 4667   6.472   1.396   0.118  0.6845 -0.8089  0.7231
 1575TIP3    H1 4668   6.566   1.397   0.096  0.3587 -1.0883 -0.8112
 1575TIP3    H2 4669   6.467   1.442   0.202  2.4091 -2.4017  1.7788
 1576TIP3   OH2 4670   0.383   5.672   4.395  0.1959 -0.1406 -0.3404
 1576TIP3    H1 4671   0.298   5.630   4.384 -0.5331  1.3125 -0.3748
 1576TIP3    H2 4672   0.367   5.746   4.453  1.7860 -0.8521  1.1154
 1577TIP3   OH2 4673   0.522   0.825   1.511 -0.0675 -0.0164  0.0651
 1577TIP3    H1 4674   0.514   0.900   1.570  0.6386  0.4237 -0.3811
 1577TIP3    H2 4675   0.431   0.805   1.486 -0.4643 -0.8298  2.0224
 1578TIP3   OH2 4676   5.238   7.769   0.963 -0.2294  0.5974  0.1258
 1578TIP3    H1 4677   5.308   7.704   0.951 -0.3017  0.7630 -1.4179
 1578TIP3    H2 4678   5.186   7.764   0.883 -0.2966  2.4777 -0.0010
 1579TIP3   OH2 4679   3.905   3.781   6.275  0.0876  0.2493 -0.0603
 1579TIP3    H1 4680   3.846   3.854   6.295  0.5652  0.5617  0.2184
 1579TIP3    H2 4681   3.847   3.712   6.242 -0.1669  1.4808 -2.4483
 1580TIP3   OH2 4682   2.168   7.424   5.779 -0.0175  0.3577  0.3707
 1580TIP3    H1 4683   2.252   7.423   5.734  0.3812  0.5945  1.1025
 1580TIP3    H2 4684   2.140   7.516   5.775  0.4287  0.5428  1.3504
 1581TIP3   OH2 4685   2.340   2.442   4.921  0.1749  0.0577 -0.0111
 1581TIP3    H1 4686   2.335   2.398   4.837 -1.4937 -0.8236  0.5076
 1581TIP3    H2 4687   2.432   2.469   4.929  1.0662 -2.4575 -0.8005
 1582TIP3   OH2 4688   4.518   4.041   0.449 -0.4312 -0.1015 -0.0772
 1582TIP3    H1 4689   4.578   4.096   0.399  0.3438  1.0530  1.9969
 1582TIP3    H2 4690   4.501   3.966   0.391  0.3349  1.1572 -2.0526
 1583TIP3   OH2 4691   1.158   7.350   5.007 -0.1606  0.7041  0.3247
 1583TIP3    H1 4692   1.077   7.339   5.058 -0.0627 -0.0540  0.3225
 1583TIP3    H2 4693   1.224   7.373   5.072  0.1361 -1.0162  0.6816
 1584TIP3   OH2 4694   2.455   4.248   2.630  0.2412 -0.4099 -0.1548
 1584TIP3    H1 4695   2.515   4.210   2.694  0.7108 -1.4492 -1.1772
 1584TIP3    H2 4696   2.375   4.196   2.638  0.4439 -0.8112 -0.6818
 1585TIP3   OH2 4697   3.625   4.843   5.470 -0.0815  0.0227 -0.0767
 1585TIP3    H1 4698   3.639   4.934   5.494 -0.6696  0.2602 -0.6090
 1585TIP3    H2 4699   3.709   4.800   5.488 -0.2619  0.3322  1.6737
 1586TIP3   OH2 4700   2.656   6.836   5.893  0.1965 -0.1991  0.3743
 1586TIP3    H1 4701   2.703   6.753   5.895 -0.8410 -0.8036  0.6485
 1586TIP3    H2 4702   2.620   6.841   5.804 -0.3457 -0.4062  0.5764
 1587TIP3   OH2 4703   5.275   3.887   0.492  0.0164  0.5348 -0.0336
 1587TIP3    H1 4704   5.314   3.942   0.560 -0.2140 -0.5070  0.9671
 1587TIP3    H2 4705   5.181   3.903   0.499 -0.3410 -1.8267  2.0298
 1588TIP3   OH2 4706   5.425   5.001   3.516  0.0415  0.3133  0.1906
 1588TIP3    H1 4707   5.471   5.080   3.484  0.1120  0.3749  0.4447
 1588TIP3    H2 4708   5.363   4.980   3.446 -0.8888  1.3526  0.6740
 1589TIP3   OH2 4709   2.383   0.395   2.140 -0.2067  0.3892  0.2466
 1589TIP3    H1 4710   2.387   0.408   2.235  1.6388  1.8794  0.0263
 1589TIP3    H2 4711   2.292   0.369   2.123 -0.5867  0.1449  2.3926
 1590TIP3   OH2 4712   2.118   6.789   3.881  0.2762  0.0679 -0.4917
 1590TIP3    H1 4713   2.174   6.834   3.818  1.6225 -2.8744 -1.5572
 1590TIP3    H2 4714   2.068   6.727   3.829 -2.6621  1.2392  0.7155
 1591TIP3   OH2 4715   0.268   0.007   5.877 -0.3453 -0.0537 -0.6591
 1591TIP3    H1 4716   0.341   0.058   5.911 -1.2147  1.3384 -0.7836
 1591TIP3    H2 4717   0.218  -0.018   5.954 -0.1547 -0.3319 -0.6270
 1592TIP3   OH2 4718   4.757   7.301   2.724 -0.1515  0.1892 -0.1126
 1592TIP3    H1 4719   4.754   7.336   2.635 -1.1996  0.1923 -0.0948
 1592TIP3    H2 4720   4.720   7.213   2.717  1.3674 -0.4811  0.0452
 1593TIP3   OH2 4721   2.613   6.647   2.264 -0.1741  0.2179 -0.0164
 1593TIP3    H1 4722   2.519   6.657   2.256 -0.4485 -1.7626  0.3176
 1593TIP3    H2 4723   2.630   6.643   2.358  0.1010 -0.4383 -0.0863
 1594TIP3   OH2 4724   4.260   2.339   4.384 -0.3458  0.3825  0.0150
 1594TIP3    H1 4725   4.186   2.379   4.430 -0.1944  0.3421  0.2983
 1594TIP3    H2 4726   4.220   2.284   4.317 -0.6573 -1.2696  1.4755
 1595TIP3   OH2 4727   1.712   1.463   1.789  0.1136 -0.2483  0.5768
 1595TIP3    H1 4728   1.723   1.395   1.855  0.8021 -0.9293 -0.2135
 1595TIP3    H2 4729   1.642   1.430   1.732  1.4291 -1.0381 -0.6633
 1596TIP3   OH2 4730   5.434   4.192   5.620  1.0036 -0.2589  0.4820
 1596TIP3    H1 4731   5.496   4.263   5.635  3.1136 -1.1215 -3.0142
 1596TIP3    H2 4732   5.351   4.237   5.602  2.0924  1.3771 -0.8435
 1597TIP3   OH2 4733   7.143   1.648   6.614  0.5968 -0.4493 -0.1587
 1597TIP3    H1 4734   7.085   1.712   6.656  1.5661 -0.3572  1.0793
 1597TIP3    H2 4735   7.229   1.689   6.615  1.1473 -1.5808  0.2106
 1598TIP3   OH2 4736   4.193   3.355   3.353 -0.5971  0.5659 -0.6427
 1598TIP3    H1 4737   4.098   3.351   3.342 -0.6485  1.5184 -0.6159
 1598TIP3    H2 4738   4.207   3.427   3.414  0.1516  0.4627 -0.6829
 1599TIP3   OH2 4739   3.495   1.689   4.069 -0.7717 -0.2853 -0.1249
 1599TIP3    H1 4740   3.460   1.762   4.018 -1.4558 -1.2845 -1.1352
 1599TIP3    H2 4741   3.441   1.614   4.043  0.4907 -1.3406  0.2021
 1600TIP3   OH2 4742   3.079   2.916   0.476  0.6764  0.0009 -0.6170
 1600TIP3    H1 4743   3.044   2.895   0.390 -0.9151 -1.2312  0.2864
 1600TIP3    H2 4744   3.094   2.832   0.518 -1.3516  0.5131  1.3502
 1601TIP3   OH2 4745   7.974   1.734   1.710 -0.1182 -0.0237 -0.2253
 1601TIP3    H1 4746   7.891   1.686   1.713  0.3662 -0.8494  0.6435
 1601TIP3    H2 4747   8.024   1.692   1.640  0.0476 -0.3564  0.0903
 1602TIP3   OH2 4748   7.076   7.288   6.663  0.8235 -0.6248  0.5979
 1602TIP3    H1 4749   7.090   7.354   6.595 -0.6451 -0.6601  0.2366
 1602TIP3    H2 4750   7.050   7.209   6.615  1.2208 -1.0746  1.1124
 1603TIP3   OH2 4751   5.552   4.460   5.363 -0.4966 -0.5283  0.6369
 1603TIP3    H1 4752   5.466   4.501   5.355  0.1169  1.3572  2.8271
 1603TIP3    H2 4753   5.573   4.466   5.456  2.2955 -0.3542  0.0636
 1604TIP3   OH2 4754   3.933   5.147   2.622  0.2246  0.2920  0.4749
 1604TIP3    H1 4755   3.982   5.172   2.544 -0.6553 -0.0209 -0.1891
 1604TIP3    H2 4756   3.906   5.230   2.662  0.0559  0.4464  0.0427
 1605TIP3   OH2 4757   0.489   5.946   5.185 -0.0382  0.3996 -0.2127
 1605TIP3    H1 4758   0.408   5.952   5.235 -0.6511  0.6437 -1.2204
 1605TIP3    H2 4759   0.462   5.946   5.094  1.1242  1.0015 -0.5851
 1606TIP3   OH2 4760   1.052   2.674   2.853 -0.2242 -0.2407 -0.1316
 1606TIP3    H1 4761   1.057   2.749   2.793 -1.6619  1.8242  2.0991
 1606TIP3    H2 4762   1.117   2.612   2.821  2.0855  2.5824 -1.3344
 1607TIP3   OH2 4763   6.736   3.098   1.775  0.0050  0.2368 -0.2791
 1607TIP3    H1 4764   6.663   3.081   1.716 -1.2402  0.7611  1.0687
 1607TIP3    H2 4765   6.714   3.053   1.856  0.7595  1.1120  0.4419
 1608TIP3   OH2 4766   0.661   4.307   5.737  0.1619  0.1372 -0.0531
 1608TIP3    H1 4767   0.623   4.269   5.816  0.2939 -1.3806 -0.6728
 1608TIP3    H2 4768   0.637   4.246   5.667  0.4778  1.1741 -1.0987
 1609TIP3   OH2 4769   2.563   2.451   5.902 -0.1476 -0.2689  0.0099
 1609TIP3    H1 4770   2.606   2.524   5.945 -0.3045 -1.2098  1.8692
 1609TIP3    H2 4771   2.633   2.404   5.857  0.0387  0.6657 -0.6937
 1610TIP3   OH2 4772   0.224   4.699   3.273 -0.1237 -0.9276 -0.3856
 1610TIP3    H1 4773   0.164   4.743   3.212  1.2870  1.7374 -0.0442
 1610TIP3    H2 4774   0.167   4.659   3.338 -1.5767 -0.0583 -1.0582
 1611TIP3   OH2 4775   4.764   5.621   4.507 -0.1344  0.1443 -0.1337
 1611TIP3    H1 4776   4.752   5.703   4.553  1.3447 -0.1487  0.8516
 1611TIP3    H2 4777   4.858   5.618   4.487 -0.4776 -0.4614 -1.7998
 1612TIP3   OH2 4778   4.597   1.354   2.478 -0.0208 -0.1667  0.7972
 1612TIP3    H1 4779   4.649   1.310   2.411 -0.0024 -1.9382  1.9085
 1612TIP3    H2 4780   4.661   1.378   2.546 -0.3014 -0.0819  1.0347
 1613TIP3   OH2 4781   3.992   3.783   3.433 -0.3284  0.0210  0.3370
 1613TIP3    H1 4782   4.012   3.858   3.377 -2.2197 -0.4151 -1.0259
 1613TIP3    H2 4783   4.007   3.706   3.377  0.2293 -0.5797  1.2737
 1614TIP3   OH2 4784   3.929   7.344   0.162  0.0298 -0.4927  0.2882
 1614TIP3    H1 4785   3.840   7.351   0.128 -0.3906  0.8354  1.5117
 1614TIP3    H2 4786   3.982   7.319   0.087 -1.0605  0.8374 -0.9959
 1615TIP3   OH2 4787   5.004   6.498   6.469 -0.0542  0.2914  0.3046
 1615TIP3    H1 4788   5.085   6.454   6.442  0.1290  0.6046  0.3288
 1615TIP3    H2 4789   5.031   6.552   6.543 -0.9933 -2.2436  2.6355
 1616TIP3   OH2 4790   4.756   4.325   2.039  0.0854  0.0719  0.0107
 1616TIP3    H1 4791   4.681   4.351   1.985 -0.2405  0.7747  0.7842
 1616TIP3    H2 4792   4.831   4.368   1.998 -0.0426 -0.0163 -0.3190
 1617TIP3   OH2 4793   6.257   7.397   3.833  0.0734 -0.5617  0.5322
 1617TIP3    H1 4794   6.328   7.450   3.795  1.3263 -1.9643  0.8149
 1617TIP3    H2 4795   6.192   7.391   3.763  0.2363  0.7046  0.2394
 1618TIP3   OH2 4796   0.621   2.780   2.140 -0.0480  0.0870  0.3599
 1618TIP3    H1 4797   0.583   2.701   2.179  2.3090 -2.2226 -1.6752
 1618TIP3    H2 4798   0.548   2.823   2.096 -1.4155 -0.8886  1.5891
 1619TIP3   OH2 4799   6.694   2.803   0.979 -0.2075 -0.3008  0.1699
 1619TIP3    H1 4800   6.620   2.863   0.965  0.4196  1.2251  2.8007
 1619TIP3    H2 4801   6.653   2.719   0.997 -1.1908 -0.1465 -1.1967
 1620TIP3   OH2 4802   3.038   5.926   1.326  0.1841 -0.3058  0.0247
 1620TIP3    H1 4803   2.974   5.938   1.396  0.8836  2.3280  0.3510
 1620TIP3    H2 4804   2.994   5.871   1.261 -1.7458 -0.0246  1.0279
 1621TIP3   OH2 4805   4.227   1.991   4.097  0.5334 -0.0341 -0.5480
 1621TIP3    H1 4806   4.139   1.953   4.095  0.0049  1.1965 -1.6656
 1621TIP3    H2 4807   4.233   2.033   4.183  0.7189 -1.6319  0.2574
 1622TIP3   OH2 4808   6.068   4.938   1.840 -0.6645 -0.5489 -0.6287
 1622TIP3    H1 4809   6.104   4.870   1.897 -1.0542 -1.4542 -1.4533
 1622TIP3    H2 4810   6.144   4.992   1.817 -0.4698 -0.2849  0.5771
 1623TIP3   OH2 4811   0.718   6.826   3.990  0.5623  0.8174 -0.1875
 1623TIP3    H1 4812   0.685   6.788   3.909  1.5111  1.1003 -0.7234
 1623TIP3    H2 4813   0.744   6.915   3.966 -0.1622  1.2942  0.6885
 1624TIP3   OH2 4814   6.459   3.220   0.839 -0.4109  0.3897  0.1809
 1624TIP3    H1 4815   6.548   3.190   0.858 -0.0873  0.9757 -0.4005
 1624TIP3    H2 4816   6.408   3.139   0.832 -0.1026  0.0678  1.3079
 1625TIP3   OH2 4817   3.952   2.422   3.688 -0.0324 -0.0120  0.1996
 1625TIP3    H1 4818   4.013   2.470   3.632 -1.0840  2.4268  1.0113
 1625TIP3    H2 4819   3.869   2.424   3.640 -0.6516  1.0793  1.2604
 1626TIP3   OH2 4820   0.085   2.996   3.021  0.5623  0.2859  0.1716
 1626TIP3    H1 4821   0.168   2.957   2.994  0.0581 -0.7406  0.0645
 1626TIP3    H2 4822   0.046   2.932   3.081 -1.1845 -0.3623 -1.5157
 1627TIP3   OH2 4823   4.005   1.891   6.561 -0.3519  0.0496 -0.5529
 1627TIP3    H1 4824   4.000   1.921   6.651  0.0301  0.1278 -0.5563
 1627TIP3    H2 4825   4.039   1.966   6.512  0.4203 -0.3137 -0.5928
 1628TIP3   OH2 4826   6.374   2.871   4.510  0.0136 -0.3752  0.3397
 1628TIP3    H1 4827   6.354   2.790   4.556 -0.9465  0.6124  1.7425
 1628TIP3    H2 4828   6.357   2.940   4.574  0.8921  0.9410 -0.7811
 1629TIP3   OH2 4829   0.030   3.998   0.265 -0.3883 -0.1933 -0.1855
 1629TIP3    H1 4830  -0.049   3.943   0.269 -0.6872  0.3066  1.3959
 1629TIP3    H2 4831   0.096   3.950   0.315 -0.1801  0.1546 -0.1234
 1630TIP3   OH2 4832   1.843   0.299   0.617  0.6039  0.2988 -0.0227
 1630TIP3    H1 4833   1.762   0.333   0.577  0.6630 -0.2500 -0.6299
 1630TIP3    H2 4834   1.904   0.291   0.544  0.3380 -1.8769 -0.0919
 1631TIP3   OH2 4835   5.921   7.606   2.547  0.2116 -0.2750 -0.2773
 1631TIP3    H1 4836   5.871   7.602   2.629  3.0135  0.0179  1.5943
 1631TIP3    H2 4837   5.884   7.536   2.493 -1.5578 -0.6675  1.3342
 1632TIP3   OH2 4838   3.996   0.124   2.085  0.1951 -0.1156  0.0476
 1632TIP3    H1 4839   4.091   0.133   2.090  0.3307 -1.6167  0.6726
 1632TIP3    H2 4840   3.982   0.057   2.019 -0.5115  0.9365 -0.9150
 1633TIP3   OH2 4841   2.320   4.271   6.034 -0.3344  0.0622 -0.2781
 1633TIP3    H1 4842   2.335   4.203   6.100  1.3760  0.1740 -0.5066
 1633TIP3    H2 4843   2.376   4.344   6.062 -1.0589  0.8497 -0.8125
 1634TIP3   OH2 4844   8.095   3.319   3.178 -0.0915 -0.2001  0.1616
 1634TIP3    H1 4845   8.041   3.382   3.225  2.3083  1.8758  0.3762
 1634TIP3    H2 4846   8.142   3.372   3.112 -0.3154 -2.3383 -1.8454
 1635TIP3   OH2 4847   1.659   1.870   0.572  0.2259 -0.0911 -0.2079
 1635TIP3    H1 4848   1.626   1.857   0.661 -1.3995  1.6991 -0.4704
 1635TIP3    H2 4849   1.736   1.925   0.582  1.8852 -2.3812  0.2533
 1636TIP3   OH2 4850   2.768   7.696   5.449  0.6544  0.5721 -0.5007
 1636TIP3    H1 4851   2.802   7.622   5.500 -0.0264  0.8277  0.3546
 1636TIP3    H2 4852   2.845   7.750   5.431  1.2394 -0.5618 -1.5449
 1637TIP3   OH2 4853   0.466   1.572   0.992 -0.1343 -0.3369 -0.0562
 1637TIP3    H1 4854   0.397   1.635   1.011  0.6163  0.2340  0.8744
 1637TIP3    H2 4855   0.454   1.549   0.900 -1.1411  0.2616 -0.0842
 1638TIP3   OH2 4856   3.579   3.931   3.937  0.4678 -0.3876  0.0301
 1638TIP3    H1 4857   3.541   4.002   3.885  0.9748  0.1169  0.3367
 1638TIP3    H2 4858   3.520   3.921   4.011  0.1559 -0.5898 -0.2440
 1639TIP3   OH2 4859   5.039   7.705   2.955 -0.2749 -0.4621 -0.2747
 1639TIP3    H1 4860   4.951   7.733   2.979 -0.2196  0.4255 -1.0472
 1639TIP3    H2 4861   5.025   7.636   2.890 -0.4212  0.5098 -1.3066
 1640TIP3   OH2 4862   6.577   0.182   3.021  0.3504 -0.4002 -0.7076
 1640TIP3    H1 4863   6.512   0.227   3.075  1.1266  1.7980 -1.5247
 1640TIP3    H2 4864   6.645   0.154   3.084 -0.3957 -0.9662 -0.1267
 1641TIP3   OH2 4865   0.899   4.359   0.245 -0.6739  0.5485  0.3773
 1641TIP3    H1 4866   0.821   4.328   0.291 -1.1115  1.1643  0.0729
 1641TIP3    H2 4867   0.938   4.423   0.305 -1.6539  1.9100 -0.3575
 1642TIP3   OH2 4868   6.374   7.403   0.686  0.2058 -0.0012  0.4220
 1642TIP3    H1 4869   6.449   7.344   0.686 -1.2643 -1.9498 -0.1263
 1642TIP3    H2 4870   6.299   7.346   0.701 -1.2312  1.8307  0.4728
 1643TIP3   OH2 4871   6.866   1.120   1.498 -0.3159  0.2875 -0.2308
 1643TIP3    H1 4872   6.801   1.159   1.439  0.1970  0.6999 -0.5364
 1643TIP3    H2 4873   6.828   1.129   1.585 -0.7013  0.4677 -0.4156
 1644TIP3   OH2 4874   4.848   3.023   0.235  0.1731  0.9276 -0.1793
 1644TIP3    H1 4875   4.935   3.056   0.255 -0.3238  2.3382 -0.1959
 1644TIP3    H2 4876   4.794   3.052   0.310 -0.4442  0.8402 -0.5825
 1645TIP3   OH2 4877   1.771   7.679   5.037 -0.1577  0.0308  0.2987
 1645TIP3    H1 4878   1.796   7.756   4.986 -0.0882  0.6637  1.2718
 1645TIP3    H2 4879   1.691   7.705   5.083  0.6838  0.0608  1.8038
 1646TIP3   OH2 4880   8.015   3.553   5.143 -0.0215 -0.7475 -0.2063
 1646TIP3    H1 4881   8.029   3.490   5.072  0.4860  0.1058 -0.8896
 1646TIP3    H2 4882   7.987   3.634   5.098  2.2071  0.4138  0.3628
 1647TIP3   OH2 4883   0.815   0.247   1.039  0.8564 -0.1175 -0.6102
 1647TIP3    H1 4884   0.771   0.187   0.978  0.5155 -1.1477  0.6076
 1647TIP3    H2 4885   0.883   0.194   1.081  0.4442  0.2721  0.6084
 1648TIP3   OH2 4886   3.073   3.684   0.409 -0.2301  0.2322 -0.2032
 1648TIP3    H1 4887   3.033   3.618   0.353  2.3554 -0.7685 -0.9900
 1648TIP3    H2 4888   3.028   3.765   0.387  0.1700 -0.2635 -3.2290
 1649TIP3   OH2 4889   1.498   0.264   0.064 -0.0683 -0.5705  1.0955
 1649TIP3    H1 4890   1.548   0.297  -0.011 -1.6097  0.8890  0.6691
 1649TIP3    H2 4891   1.454   0.186   0.030 -1.8122  0.8015 -0.0143
 1650TIP3   OH2 4892   6.954   1.304   4.295  0.4147  0.4997 -0.1992
 1650TIP3    H1 4893   6.951   1.241   4.368  0.5096  0.8897  0.1453
 1650TIP3    H2 4894   6.863   1.312   4.266  0.3920  0.2597 -0.1987
 1651TIP3   OH2 4895   3.877   7.177   4.528 -0.3161  0.1164  0.8526
 1651TIP3    H1 4896   3.864   7.242   4.459 -1.9280 -0.9249  0.1410
 1651TIP3    H2 4897   3.970   7.153   4.521 -0.0659  1.2098  0.1483
 1652TIP3   OH2 4898   3.141   0.420   0.508  0.5028 -0.2281  0.3951
 1652TIP3    H1 4899   3.060   0.435   0.558  1.9640  2.5265  2.2421
 1652TIP3    H2 4900   3.119   0.445   0.418 -1.0696 -1.0825  0.5080
 1653TIP3   OH2 4901   4.213   6.855   3.830 -0.0498  0.1751  0.3054
 1653TIP3    H1 4902   4.166   6.893   3.904 -0.5309  2.5065 -1.1130
 1653TIP3    H2 4903   4.209   6.922   3.762  2.3146 -0.9740 -1.0808
 1654TIP3   OH2 4904   1.952   7.685   0.576  0.0408  0.2397 -0.4103
 1654TIP3    H1 4905   1.957   7.664   0.669 -0.6950  1.2639 -0.1208
 1654TIP3    H2 4906   1.917   7.605   0.536 -3.6861  1.0691  0.7959
 1655TIP3   OH2 4907   6.086   0.901   1.881 -1.0193  0.0031 -0.0726
 1655TIP3    H1 4908   6.044   0.887   1.796 -0.4223 -0.3774 -0.3088
 1655TIP3    H2 4909   6.141   0.978   1.867 -0.1601 -0.6421 -0.3248
 1656TIP3   OH2 4910   8.238   5.912   2.677  0.5458  0.2465 -0.0022
 1656TIP3    H1 4911   8.178   5.861   2.621  1.9881 -0.9098 -0.5539
 1656TIP3    H2 4912   8.202   5.902   2.765 -0.3811  0.0422 -0.3847
 1657TIP3   OH2 4913   6.571   4.823   1.896 -0.0810 -0.2086  0.4331
 1657TIP3    H1 4914   6.525   4.851   1.818  1.0576 -1.0043 -0.5634
 1657TIP3    H2 4915   6.530   4.740   1.920 -0.1982 -0.1403  0.4667
 1658TIP3   OH2 4916   6.258   0.293   4.004  0.4316  0.3620 -0.2723
 1658TIP3    H1 4917   6.322   0.241   4.052 -0.5010  0.4574  1.1434
 1658TIP3    H2 4918   6.265   0.262   3.913  0.6410 -1.4697  0.3259
 1659TIP3   OH2 4919   0.481   1.944   5.908 -0.4278 -0.3300  1.0175
 1659TIP3    H1 4920   0.399   1.916   5.949 -0.4161  0.0164  1.2871
 1659TIP3    H2 4921   0.521   2.001   5.973 -0.1898 -0.1350  0.6998
 1660TIP3   OH2 4922   0.681   4.011   3.927 -0.3923  0.3413  0.2128
 1660TIP3    H1 4923   0.765   4.005   3.880  0.4043  2.4331  1.2474
 1660TIP3    H2 4924   0.615   3.994   3.860  0.7754  1.4775 -1.3017
 1661TIP3   OH2 4925   3.077   6.209   1.228  0.0519  0.2952  0.3522
 1661TIP3    H1 4926   3.061   6.117   1.248  0.9140  0.2573  0.9134
 1661TIP3    H2 4927   3.158   6.209   1.175  1.1492  0.8474  1.9467
 1662TIP3   OH2 4928   0.815   4.181   1.853 -0.4735 -0.1533  0.7214
 1662TIP3    H1 4929   0.860   4.229   1.923 -3.2239 -0.8755  3.2404
 1662TIP3    H2 4930   0.836   4.089   1.871 -0.0095 -0.2612 -0.3544
 1663TIP3   OH2 4931   3.101   7.761   1.008  0.1661  0.1380 -0.3632
 1663TIP3    H1 4932   3.141   7.818   1.073  1.2465 -0.8888 -0.0812
 1663TIP3    H2 4933   3.028   7.719   1.053  0.4814 -0.0415 -0.0133
 1664TIP3   OH2 4934   3.279   4.750   5.984  0.2819  0.4192  0.1692
 1664TIP3    H1 4935   3.247   4.765   5.895  0.3869 -2.4667 -0.4255
 1664TIP3    H2 4936   3.210   4.784   6.040 -0.7974  0.2727 -1.0353
 1665TIP3   OH2 4937   5.406   3.768   3.461 -0.2001 -0.0358 -0.7016
 1665TIP3    H1 4938   5.379   3.716   3.537  2.5285  1.6451  1.6174
 1665TIP3    H2 4939   5.335   3.831   3.449  0.3156  1.2192  2.1055
 1666TIP3   OH2 4940   1.663   6.142   3.167  0.3584  0.4946 -0.0570
 1666TIP3    H1 4941   1.748   6.129   3.209  0.0229 -1.1952  0.1589
 1666TIP3    H2 4942   1.604   6.165   3.239 -0.0666 -1.7283  0.3976
 1667TIP3   OH2 4943   1.261   7.168   0.559  0.1551 -0.1004 -0.1759
 1667TIP3    H1 4944   1.223   7.082   0.579  0.5730 -0.2607 -0.0618
 1667TIP3    H2 4945   1.309   7.155   0.478  0.6412 -0.1025  0.1095
 1668TIP3   OH2 4946   3.245   6.991   1.898  0.1761  0.2647  0.4603
 1668TIP3    H1 4947   3.245   6.910   1.847  1.0111 -0.2092  1.1747
 1668TIP3    H2 4948   3.191   7.052   1.848 -0.2376 -0.6473 -0.2299
 1669TIP3   OH2 4949   1.249   2.036   0.441  0.2815 -0.5844 -0.3773
 1669TIP3    H1 4950   1.267   1.945   0.467 -1.6336 -1.4238 -1.7323
 1669TIP3    H2 4951   1.155   2.037   0.423 -0.3325  2.3575  2.1047
 1670TIP3   OH2 4952   3.725   7.297   4.826  0.3062  0.6294 -0.2478
 1670TIP3    H1 4953   3.651   7.322   4.771  0.4983  1.0696 -0.3150
 1670TIP3    H2 4954   3.801   7.332   4.779  0.6529 -0.6589 -0.6882
 1671TIP3   OH2 4955   8.081   6.316   2.895 -0.6139  0.3176  0.6988
 1671TIP3    H1 4956   8.124   6.318   2.810 -1.6183 -0.6503  0.1364
 1671TIP3    H2 4957   7.990   6.293   2.875 -0.0969 -4.1550  2.2180
 1672TIP3   OH2 4958   2.841   5.936   1.972  0.3066  0.5675 -0.1002
 1672TIP3    H1 4959   2.919   5.939   2.027  0.2449  0.2483  0.0054
 1672TIP3    H2 4960   2.782   5.876   2.017 -0.3480  1.4767  0.2701
 1673TIP3   OH2 4961   2.388   4.244   2.064 -0.6189  0.1095  0.2051
 1673TIP3    H1 4962   2.439   4.324   2.051 -0.6901  0.0819 -0.2466
 1673TIP3    H2 4963   2.360   4.249   2.155  1.3756 -0.5765  0.9035
 1674TIP3   OH2 4964   5.093   4.084   2.254  0.4857  0.8928 -0.2956
 1674TIP3    H1 4965   5.014   4.060   2.205 -0.6034  2.8051  0.3907
 1674TIP3    H2 4966   5.106   4.011   2.315 -0.4805  0.3292 -0.7292
 1675TIP3   OH2 4967   4.021   0.411   2.518 -0.1422  0.2833  0.3857
 1675TIP3    H1 4968   3.943   0.361   2.492 -0.4104  0.9504 -0.1156
 1675TIP3    H2 4969   4.083   0.344   2.548 -0.5804 -0.3332 -0.0503
 1676TIP3   OH2 4970   1.741   4.210   2.229 -0.0325 -0.8042  0.6302
 1676TIP3    H1 4971   1.742   4.138   2.166  2.3515  0.1870 -0.6161
 1676TIP3    H2 4972   1.711   4.286   2.178  1.9689  0.0205  0.5949
 1677TIP3   OH2 4973   4.617   2.537   3.013 -0.0891  0.0084  0.4204
 1677TIP3    H1 4974   4.552   2.562   2.948  0.6269  0.0535 -0.2816
 1677TIP3    H2 4975   4.630   2.443   2.999 -0.0118 -0.0039  0.5710
 1678TIP3   OH2 4976   7.335   7.033   6.565  0.0937 -0.0387  0.3006
 1678TIP3    H1 4977   7.389   6.957   6.587 -0.9271 -0.9877 -0.3603
 1678TIP3    H2 4978   7.246   7.007   6.588 -0.2384  1.0648  0.3086
 1679TIP3   OH2 4979   0.390   4.741   0.059  0.0078 -0.4319  0.0959
 1679TIP3    H1 4980   0.407   4.655   0.099 -0.2703 -1.6538 -2.2413
 1679TIP3    H2 4981   0.473   4.787   0.066  0.8615 -1.7903 -0.6328
 1680TIP3   OH2 4982   1.447   2.473   1.266 -0.0741 -0.4511 -0.4172
 1680TIP3    H1 4983   1.467   2.412   1.337 -0.3676 -0.5359 -0.4080
 1680TIP3    H2 4984   1.423   2.554   1.310 -1.9311 -0.9969 -0.3687
 1681TIP3   OH2 4985   5.088   1.755   1.804  0.1241  0.1322  0.3446
 1681TIP3    H1 4986   4.999   1.721   1.805 -0.2620  0.9844 -1.3352
 1681TIP3    H2 4987   5.137   1.695   1.860 -1.5477 -0.1714  1.5635
 1682TIP3   OH2 4988   5.784   6.791   5.524  0.0577  0.2132  0.3019
 1682TIP3    H1 4989   5.848   6.857   5.551 -0.3371  0.4801  0.5881
 1682TIP3    H2 4990   5.834   6.730   5.470  0.1165  1.5051 -1.1403
 1683TIP3   OH2 4991   7.393   2.830   2.629  0.0419  0.1061 -0.1609
 1683TIP3    H1 4992   7.327   2.900   2.633  0.6519  0.6336  1.5811
 1683TIP3    H2 4993   7.475   2.873   2.654  0.8633 -0.7763 -1.2341
 1684TIP3   OH2 4994   7.520   6.233   5.026 -0.7863 -1.1535 -0.2658
 1684TIP3    H1 4995   7.510   6.199   5.115  0.8950  0.4609  0.6013
 1684TIP3    H2 4996   7.435   6.272   5.006 -1.2200 -1.6377  0.5739
 1685TIP3   OH2 4997   3.279   2.801   6.631 -0.0922 -0.1030  0.1381
 1685TIP3    H1 4998   3.319   2.808   6.717  1.0849  1.8825 -0.4868
 1685TIP3    H2 4999   3.279   2.891   6.597 -1.7252 -0.6192 -1.4099
 1686TIP3   OH2 5000   7.990   3.301   2.794  0.4208 -0.1816  0.6366
 1686TIP3    H1 5001   8.049   3.368   2.761  0.4855 -1.0884 -1.1832
 1686TIP3    H2 5002   8.047   3.228   2.818  0.2440 -0.0596  1.4786
 1687TIP3   OH2 5003   4.170   6.678   2.611 -0.3274  0.0268 -0.0237
 1687TIP3    H1 5004   4.095   6.737   2.624 -0.1511  0.5500 -1.2388
 1687TIP3    H2 5005   4.162   6.649   2.520  0.7291 -0.2298 -0.0472
 1688TIP3   OH2 5006   7.666   5.781   4.579  0.0343  0.1258  0.6440
 1688TIP3    H1 5007   7.592   5.817   4.629  0.3297  1.6339  0.0315
 1688TIP3    H2 5008   7.634   5.777   4.489 -0.0111 -1.2592  0.6958
 1689TIP3   OH2 5009   0.705   1.599   2.881  0.1129  0.2154  0.0037
 1689TIP3    H1 5010   0.644   1.658   2.926 -0.8846  1.9669 -3.3242
 1689TIP3    H2 5011   0.790   1.644   2.887 -0.0400  0.5061  0.0035
 1690TIP3   OH2 5012   7.238   2.192   6.027  0.4422  0.2163  0.3613
 1690TIP3    H1 5013   7.226   2.171   5.934  0.4098 -0.4979  0.5160
 1690TIP3    H2 5014   7.163   2.246   6.050  0.0456 -0.2393  0.1525
 1691TIP3   OH2 5015   1.453   3.602   4.845  0.1072 -0.2396  0.4105
 1691TIP3    H1 5016   1.540   3.604   4.886  1.2757 -1.0539 -1.8972
 1691TIP3    H2 5017   1.424   3.694   4.848  0.9089  0.0045  1.4457
 1692TIP3   OH2 5018   5.775   0.013   5.413 -0.0689 -0.1082 -0.5088
 1692TIP3    H1 5019   5.862  -0.025   5.430 -0.2220  0.2532  1.2845
 1692TIP3    H2 5020   5.789   0.074   5.341  1.6749  1.5497  1.1271
 1693TIP3   OH2 5021   5.792   0.735   0.883  0.4253 -0.3091  0.0085
 1693TIP3    H1 5022   5.885   0.720   0.863  0.9001  0.6649  1.3914
 1693TIP3    H2 5023   5.764   0.801   0.820 -0.4573 -3.2581 -3.0367
 1694TIP3   OH2 5024   4.842   2.493   2.350 -0.3670  0.0592  0.1081
 1694TIP3    H1 5025   4.837   2.536   2.265 -1.0067  1.1511  0.6759
 1694TIP3    H2 5026   4.775   2.424   2.346 -0.6757  0.3675 -0.1437
 1695TIP3   OH2 5027   1.595   0.564   1.642  0.5365  0.4831  0.1364
 1695TIP3    H1 5028   1.500   0.552   1.641  0.4525  0.9221  1.4535
 1695TIP3    H2 5029   1.622   0.546   1.551 -0.6784 -0.5333 -0.0566
 1696TIP3   OH2 5030   4.666   0.624   4.887 -0.2628 -0.3311 -0.1852
 1696TIP3    H1 5031   4.707   0.585   4.964 -0.2752 -0.0142 -0.0185
 1696TIP3    H2 5032   4.595   0.678   4.921 -0.4704 -0.4368 -0.4392
 1697TIP3   OH2 5033   3.893   1.858   6.122  0.2346 -0.0980  0.1050
 1697TIP3    H1 5034   3.911   1.788   6.060 -0.6643 -0.0908 -0.1716
 1697TIP3    H2 5035   3.964   1.852   6.186  0.9937 -0.3147 -0.7290
 1698TIP3   OH2 5036   8.088   5.868   6.058 -0.1710 -0.0481 -0.4609
 1698TIP3    H1 5037   8.009   5.878   6.006 -0.0782  0.4241 -0.5182
 1698TIP3    H2 5038   8.092   5.775   6.079 -0.0864 -0.2916 -1.4985
 1699TIP3   OH2 5039   8.021   3.423   3.709  0.5643 -0.0719 -0.5271
 1699TIP3    H1 5040   8.081   3.406   3.636  1.5757  2.9246 -0.5504
 1699TIP3    H2 5041   8.079   3.444   3.783 -0.4666 -0.4753  0.4141
 1700TIP3   OH2 5042   5.589   5.965   4.294 -0.6169  0.3090 -0.0246
 1700TIP3    H1 5043   5.544   5.893   4.249 -2.2111  0.0570  1.8669
 1700TIP3    H2 5044   5.538   6.043   4.272  0.3438  0.6985 -0.9979
 1701TIP3   OH2 5045   1.248   4.305  -0.011 -0.1775  0.3751 -0.1030
 1701TIP3    H1 5046   1.219   4.309   0.080 -0.2408  0.7932 -0.1416
 1701TIP3    H2 5047   1.236   4.394  -0.044  0.3501  0.3501 -0.3663
 1702TIP3   OH2 5048   4.104   0.512   5.634  0.0994  0.3800  0.0997
 1702TIP3    H1 5049   4.187   0.560   5.630 -0.1505  0.7661 -0.6961
 1702TIP3    H2 5050   4.111   0.448   5.564  0.1097 -0.2367  0.6551
 1703TIP3   OH2 5051   5.188   2.816   3.702 -0.1337 -0.2052  0.4578
 1703TIP3    H1 5052   5.254   2.755   3.668 -0.8299  0.3469 -2.0849
 1703TIP3    H2 5053   5.104   2.776   3.679 -0.6356  0.7526  0.5774
 1704TIP3   OH2 5054   3.745   4.656   6.075  0.6422 -0.0406 -0.1591
 1704TIP3    H1 5055   3.698   4.723   6.124 -0.5893 -1.9182  1.3826
 1704TIP3    H2 5056   3.828   4.646   6.120  0.7833  0.3769 -0.3280
 1705TIP3   OH2 5057   2.488   6.846   5.102 -0.0036 -0.1699 -0.1847
 1705TIP3    H1 5058   2.478   6.766   5.155 -0.2461 -0.1661 -0.2213
 1705TIP3    H2 5059   2.434   6.911   5.147  0.5936  0.1166  0.1287
 1706TIP3   OH2 5060   2.996   5.001   6.353 -0.2131  0.6897  0.4553
 1706TIP3    H1 5061   2.932   5.004   6.283  0.4051  0.5380 -0.1298
 1706TIP3    H2 5062   3.000   5.090   6.387 -0.7407  0.6944  0.5165
 1707TIP3   OH2 5063   8.106   2.311   5.698 -0.3137  0.3952 -0.4530
 1707TIP3    H1 5064   8.023   2.358   5.711  0.6786  1.9455  0.5921
 1707TIP3    H2 5065   8.110   2.250   5.772  0.6087  2.1155  0.9979
 1708TIP3   OH2 5066   1.466   3.095   3.021 -0.2074  0.1393 -0.1483
 1708TIP3    H1 5067   1.483   3.104   3.115  0.2502  0.6814 -0.2780
 1708TIP3    H2 5068   1.391   3.036   3.016 -0.3166  0.2063  0.5645
 1709TIP3   OH2 5069   4.516   2.384   4.086 -0.1090  0.3927  0.3021
 1709TIP3    H1 5070   4.560   2.300   4.074  0.0140  0.4252  0.5167
 1709TIP3    H2 5071   4.581   2.449   4.063  0.8198  0.5342  2.9538
 1710TIP3   OH2 5072   7.399   0.812   0.878  0.2810  0.1592 -0.0803
 1710TIP3    H1 5073   7.365   0.844   0.794  0.1231 -0.1833 -0.1480
 1710TIP3    H2 5074   7.329   0.757   0.912  1.7273 -2.7579 -1.4696
 1711TIP3   OH2 5075   5.269   2.795   4.495  0.7288  0.4696 -0.5294
 1711TIP3    H1 5076   5.175   2.814   4.494  0.7903  0.7784 -1.0573
 1711TIP3    H2 5077   5.296   2.812   4.585  0.3211  0.6004 -0.4280
 1712TIP3   OH2 5078   0.111   3.929   3.615  0.0674 -0.2651  0.4446
 1712TIP3    H1 5079   0.042   3.893   3.671 -0.1320 -0.2609  0.1999
 1712TIP3    H2 5080   0.150   3.853   3.573 -0.5425 -0.1826 -0.2923
 1713TIP3   OH2 5081   1.535   3.307   3.905  0.1406 -0.7661 -0.2453
 1713TIP3    H1 5082   1.462   3.303   3.966 -0.3986  0.5292 -0.7864
 1713TIP3    H2 5083   1.505   3.259   3.828  0.4818 -1.6117  0.1306
 1714TIP3   OH2 5084   2.352  -0.010   6.089 -0.6082 -0.1429  0.5020
 1714TIP3    H1 5085   2.418   0.018   6.025  0.3092 -1.1483  0.9856
 1714TIP3    H2 5086   2.352   0.060   6.155  0.8702 -0.6806  1.1268
 1715TIP3   OH2 5087   5.361   1.275   5.739 -0.1905  0.1550  0.1174
 1715TIP3    H1 5088   5.398   1.223   5.810 -1.1690 -0.2484  0.3550
 1715TIP3    H2 5089   5.290   1.220   5.704  1.0836 -0.2248 -2.0340
 1716TIP3   OH2 5090   0.101   1.664   2.777 -0.1705  0.1407  0.0635
 1716TIP3    H1 5091   0.008   1.661   2.798 -0.2713  0.9066 -0.2180
 1716TIP3    H2 5092   0.121   1.577   2.742 -0.5678 -0.3201  0.9492
 1717TIP3   OH2 5093   7.591   6.429   6.719  0.3174  0.1108 -0.6415
 1717TIP3    H1 5094   7.642   6.387   6.649  0.4223  0.7816 -0.9701
 1717TIP3    H2 5095   7.635   6.513   6.733 -0.0759  0.2431 -0.1977
 1718TIP3   OH2 5096   6.667   5.164   5.509 -0.1365  0.3632  0.2215
 1718TIP3    H1 5097   6.738   5.227   5.521  1.1769 -1.2697  1.4782
 1718TIP3    H2 5098   6.704   5.080   5.535 -2.3307 -0.6845  0.2426
 1719TIP3   OH2 5099   5.455   5.358   5.194 -0.0624  0.5033  0.5476
 1719TIP3    H1 5100   5.391   5.350   5.123  0.7529  0.4365 -0.1973
 1719TIP3    H2 5101   5.539   5.370   5.149  0.8376 -1.8493  1.4328
 1720TIP3   OH2 5102   8.042   5.279   5.045  0.3575 -0.5679  0.2028
 1720TIP3    H1 5103   8.018   5.370   5.031  0.0875 -0.2340  2.4515
 1720TIP3    H2 5104   8.028   5.237   4.960 -0.9257  1.1695 -0.5069
 1721TIP3   OH2 5105   5.566   0.880   6.274  0.3460  0.1389  0.2424
 1721TIP3    H1 5106   5.478   0.871   6.237  0.9166  0.4747 -1.2872
 1721TIP3    H2 5107   5.619   0.912   6.201  1.7817 -0.2491  1.0801
 1722TIP3   OH2 5108   4.297   2.343   0.526 -0.0047 -0.3841  0.2328
 1722TIP3    H1 5109   4.339   2.386   0.451 -0.9785 -1.6160 -1.0694
 1722TIP3    H2 5110   4.339   2.382   0.603  1.4224  0.5117 -0.9542
 1723TIP3   OH2 5111   6.513   0.497   6.241  0.1477  0.0138 -0.1387
 1723TIP3    H1 5112   6.512   0.480   6.335  0.5178  0.1345 -0.1123
 1723TIP3    H2 5113   6.461   0.426   6.203  0.1992 -0.1701  0.1343
 1724TIP3   OH2 5114   7.841   0.351   5.422 -0.1070 -0.5992  0.1402
 1724TIP3    H1 5115   7.908   0.370   5.488  0.5994 -0.6274 -0.5549
 1724TIP3    H2 5116   7.870   0.269   5.382  0.4418  0.2912 -1.3871
 1725TIP3   OH2 5117   7.279   4.171   3.121 -0.8352 -0.6677  0.2526
 1725TIP3    H1 5118   7.293   4.218   3.203 -0.6178 -0.8504  0.3206
 1725TIP3    H2 5119   7.230   4.233   3.067 -0.2316 -0.2109  0.2109
 1726TIP3   OH2 5120   4.068   4.437   0.531 -0.3408 -0.3680  0.4411
 1726TIP3    H1 5121   4.021   4.380   0.592  0.2295 -0.5150  0.7479
 1726TIP3    H2 5122   4.160   4.420   0.549 -0.1219 -1.4109 -1.3489
 1727TIP3   OH2 5123   6.846   2.452   3.585 -0.1388  0.4145  0.5063
 1727TIP3    H1 5124   6.785   2.525   3.597 -0.6289 -0.0963  1.1736
 1727TIP3    H2 5125   6.793   2.373   3.596  0.4257 -0.0512  0.0000
 1728TIP3   OH2 5126   1.784   4.630   5.726  0.0133 -0.3701 -0.2245
 1728TIP3    H1 5127   1.862   4.579   5.746  1.2968  1.7157  0.3798
 1728TIP3    H2 5128   1.716   4.594   5.784  0.7614 -1.5503 -0.0468
 1729TIP3   OH2 5129   3.854   3.780   3.130  0.1284 -0.0484  0.1533
 1729TIP3    H1 5130   3.924   3.720   3.155  1.3350  1.5382  0.7149
 1729TIP3    H2 5131   3.878   3.864   3.169 -2.3084  0.4713  0.7485
 1730TIP3   OH2 5132   5.996   4.205   1.157  0.0888  0.0752 -0.1808
 1730TIP3    H1 5133   6.082   4.163   1.159  0.4287  0.7784  0.7619
 1730TIP3    H2 5134   6.013   4.293   1.124 -0.4453 -0.1343 -1.0409
 1731TIP3   OH2 5135   7.985   1.930   2.386  0.6853  0.4650 -0.3222
 1731TIP3    H1 5136   7.921   1.976   2.440  1.6200  2.4159 -0.8116
 1731TIP3    H2 5137   8.045   1.889   2.449 -1.4269 -2.1792  0.1810
 1732TIP3   OH2 5138   7.970   4.663   2.191 -0.6516  0.0932  0.0029
 1732TIP3    H1 5139   7.978   4.685   2.098 -0.3585  1.8607  0.4181
 1732TIP3    H2 5140   7.877   4.645   2.203 -0.7014 -0.0896 -0.6165
 1733TIP3   OH2 5141   8.200   5.390   5.274 -0.1757  0.5496 -0.0863
 1733TIP3    H1 5142   8.107   5.373   5.264 -0.1515 -0.6831  1.3766
 1733TIP3    H2 5143   8.242   5.335   5.208 -0.3120 -2.4818  2.1624
 1734TIP3   OH2 5144   3.372   4.314   1.944  0.4480  0.0877  0.1886
 1734TIP3    H1 5145   3.381   4.388   2.005 -0.3406  0.1672  0.2190
 1734TIP3    H2 5146   3.340   4.354   1.863 -0.5463 -0.2840  0.3831
 1735TIP3   OH2 5147   6.430   6.886   4.510 -0.3973 -0.0264 -0.1155
 1735TIP3    H1 5148   6.433   6.914   4.602  1.3461  1.4623 -0.5806
 1735TIP3    H2 5149   6.383   6.956   4.465  0.4005  0.1776 -0.6489
 1736TIP3   OH2 5150   3.709   5.964   6.627 -0.1812  0.3348 -0.2876
 1736TIP3    H1 5151   3.738   5.998   6.711 -2.0330 -0.6167  0.8118
 1736TIP3    H2 5152   3.790   5.944   6.580  0.8989  1.6336  0.9316
 1737TIP3   OH2 5153   1.477   3.042   6.228 -0.0900  0.7969  0.0925
 1737TIP3    H1 5154   1.532   2.993   6.166 -0.6435  0.7882 -0.3946
 1737TIP3    H2 5155   1.387   3.020   6.203 -0.3626  2.2691 -0.3012
 1738TIP3   OH2 5156   8.291   2.814   3.214 -0.3859 -0.0897 -0.7270
 1738TIP3    H1 5157   8.200   2.786   3.200 -1.4288  2.7280 -0.2220
 1738TIP3    H2 5158   8.299   2.819   3.309 -0.1678  1.0063 -0.7954
 1739TIP3   OH2 5159   4.388   0.035   6.647  0.3669 -0.3385  0.3351
 1739TIP3    H1 5160   4.427  -0.042   6.606 -0.1354 -0.7021  0.5272
 1739TIP3    H2 5161   4.294   0.015   6.650  0.3034  0.0344  0.9097
 1740TIP3   OH2 5162   7.730   3.887   2.527 -0.0822 -0.6455  0.2213
 1740TIP3    H1 5163   7.742   3.924   2.440 -0.1755 -1.5200 -0.1707
 1740TIP3    H2 5164   7.721   3.793   2.513  0.1034 -0.8265  1.1911
 1741TIP3   OH2 5165   7.744   2.500   3.879 -0.4064 -0.5849 -0.3682
 1741TIP3    H1 5166   7.725   2.533   3.967 -0.4806 -2.0758  0.1945
 1741TIP3    H2 5167   7.676   2.435   3.863  0.9907 -2.0339 -0.5688
 1742TIP3   OH2 5168   3.467   2.600   3.956  0.7485  0.0507  0.3298
 1742TIP3    H1 5169   3.555   2.562   3.959  0.9832  0.5543 -0.0461
 1742TIP3    H2 5170   3.418   2.542   3.898  0.8795 -0.1319  0.3996
 1743TIP3   OH2 5171   5.264   2.164   4.661  0.7664  0.2207 -0.8207
 1743TIP3    H1 5172   5.216   2.169   4.744  0.8989  0.5571 -0.7594
 1743TIP3    H2 5173   5.274   2.071   4.644  1.4181  0.1347 -0.0550
 1744TIP3   OH2 5174   0.358   1.004   3.514 -0.4878 -0.9683 -0.2653
 1744TIP3    H1 5175   0.280   1.059   3.507  0.1262 -0.0113  0.0897
 1744TIP3    H2 5176   0.365   0.985   3.608  0.7714  0.6293  0.0261
 1745TIP3   OH2 5177   2.944   4.669   2.818  0.1598 -0.0963 -0.3034
 1745TIP3    H1 5178   2.994   4.631   2.746 -0.0496 -0.7531 -0.1131
 1745TIP3    H2 5179   2.909   4.593   2.865  0.0996  0.3281  0.3487
 1746TIP3   OH2 5180   8.059   0.463   0.285 -0.2377  0.3332  0.8531
 1746TIP3    H1 5181   7.985   0.456   0.345 -0.7964 -1.2284  0.0332
 1746TIP3    H2 5182   8.064   0.378   0.242  0.1930  1.3408 -1.2588
 1747TIP3   OH2 5183   1.753   0.803   1.699  0.1551 -0.1487  0.3519
 1747TIP3    H1 5184   1.707   0.720   1.684  0.7187 -0.5264  0.6727
 1747TIP3    H2 5185   1.809   0.786   1.775 -0.5512  0.8657  1.1256
 1748TIP3   OH2 5186   1.624   4.963   1.750  0.1623 -0.1752  0.3353
 1748TIP3    H1 5187   1.638   4.967   1.655 -2.4895 -0.4261 -0.1548
 1748TIP3    H2 5188   1.545   5.017   1.764  0.5806 -0.0450  2.4279
 1749TIP3   OH2 5189   1.702   3.989   1.082 -0.7327 -0.2617 -0.2245
 1749TIP3    H1 5190   1.731   4.073   1.047 -0.7046 -0.8089 -1.5639
 1749TIP3    H2 5191   1.777   3.931   1.070 -1.0897 -0.7249 -0.2340
 1750TIP3   OH2 5192   5.606   3.566   3.463 -0.2154 -0.0264  0.2822
 1750TIP3    H1 5193   5.534   3.622   3.434  0.1457  0.5778  0.5310
 1750TIP3    H2 5194   5.581   3.478   3.435 -0.7433  0.2725 -0.2052
 1751TIP3   OH2 5195   0.431   6.280   1.791  0.0333  0.3689  0.2099
 1751TIP3    H1 5196   0.490   6.240   1.855  0.4873  3.3927  1.9157
 1751TIP3    H2 5197   0.418   6.213   1.724  2.3035 -1.7677  1.7262
 1752TIP3   OH2 5198   5.104   2.964   4.989  0.1330 -0.7131 -0.1005
 1752TIP3    H1 5199   5.055   3.000   4.915  0.8806 -0.6554 -0.5805
 1752TIP3    H2 5200   5.059   2.882   5.009  0.1010 -0.8797 -0.8221
 1753TIP3   OH2 5201   2.101   6.596   1.395 -0.0421  0.0190  0.7779
 1753TIP3    H1 5202   2.177   6.539   1.402  0.0539 -0.1228 -0.9322
 1753TIP3    H2 5203   2.124   6.659   1.326 -1.3266  0.1780  0.4573
 1754TIP3   OH2 5204   1.647   1.810   1.080  0.1142 -0.3195  1.0206
 1754TIP3    H1 5205   1.626   1.854   0.998 -0.0425  0.5275  1.4943
 1754TIP3    H2 5206   1.735   1.775   1.068  0.1622 -0.0436  0.5549
 1755TIP3   OH2 5207   3.188   1.809   6.246  0.0797  0.0004  0.3164
 1755TIP3    H1 5208   3.096   1.834   6.247  0.5043  1.8291 -0.9266
 1755TIP3    H2 5209   3.187   1.713   6.244 -1.7319 -0.0824  2.0162
 1756TIP3   OH2 5210   0.328   6.076   0.990  0.0204  0.0947  0.5901
 1756TIP3    H1 5211   0.243   6.119   1.004  0.6599  1.8844 -0.7044
 1756TIP3    H2 5212   0.367   6.072   1.078  0.2992  3.0799  0.7102
 1757TIP3   OH2 5213   6.594   1.423   4.877  0.0295 -0.0752  0.9842
 1757TIP3    H1 5214   6.580   1.331   4.898 -0.6724  0.3801  2.7110
 1757TIP3    H2 5215   6.689   1.433   4.872  0.0976 -0.9719  0.3058
 1758TIP3   OH2 5216   0.961   1.638   2.648 -0.1916  0.0068 -0.2855
 1758TIP3    H1 5217   0.996   1.570   2.706  1.2675 -0.1965 -1.3402
 1758TIP3    H2 5218   0.899   1.592   2.592 -1.6770  0.2231  1.1300
 1759TIP3   OH2 5219   5.085   4.310   0.654  0.2732 -0.1156  0.3901
 1759TIP3    H1 5220   5.118   4.292   0.566 -1.5801 -0.0563 -0.3769
 1759TIP3    H2 5221   5.135   4.386   0.684  0.8324 -0.0391 -0.6853
 1760TIP3   OH2 5222   4.416   0.498   3.303  0.4089  0.3866 -0.4267
 1760TIP3    H1 5223   4.404   0.471   3.212 -1.4979  0.3637 -0.1951
 1760TIP3    H2 5224   4.331   0.485   3.344  1.9111 -2.5896  2.1795
 1761TIP3   OH2 5225   0.473   1.531   2.585  0.5030 -0.1674 -0.1123
 1761TIP3    H1 5226   0.552   1.480   2.599  0.6263 -0.2538 -1.0504
 1761TIP3    H2 5227   0.433   1.492   2.507  0.3244  0.8205 -0.5349
 1762TIP3   OH2 5228   0.041   5.610   4.148 -0.2456  0.1391 -0.3626
 1762TIP3    H1 5229   0.095   5.613   4.069 -0.9934  1.8195 -0.8416
 1762TIP3    H2 5230   0.077   5.678   4.204 -0.8051  0.1254  0.0229
 1763TIP3   OH2 5231   3.277   1.079   0.596  0.0207  0.0144 -0.1373
 1763TIP3    H1 5232   3.182   1.076   0.596 -0.1226  2.3069  0.5680
 1763TIP3    H2 5233   3.303   1.027   0.672 -0.7182 -0.0671  0.0647
 1764TIP3   OH2 5234   1.431   5.367   3.229 -0.6105  0.0446  0.2649
 1764TIP3    H1 5235   1.494   5.376   3.301 -2.2119  0.2994  1.7008
 1764TIP3    H2 5236   1.422   5.272   3.218  0.0997  0.0041 -0.0420
 1765TIP3   OH2 5237   6.510   0.957   2.859 -0.0241 -0.1142 -0.2443
 1765TIP3    H1 5238   6.547   0.984   2.774 -0.2823 -1.9729 -1.0031
 1765TIP3    H2 5239   6.578   0.901   2.898 -0.1248  0.2968  0.5373
 1766TIP3   OH2 5240   0.462   2.858   2.405 -0.0026 -0.0716 -0.0962
 1766TIP3    H1 5241   0.456   2.763   2.390  0.3198 -0.5310  2.2711
 1766TIP3    H2 5242   0.553   2.880   2.383  0.0501 -0.3972 -0.2157
 1767TIP3   OH2 5243   0.638   1.302   4.471  0.0958  0.1423  0.0798
 1767TIP3    H1 5244   0.660   1.366   4.538  0.9879  0.8593 -0.8586
 1767TIP3    H2 5245   0.551   1.270   4.495 -0.5726  2.0550  0.3053
 1768TIP3   OH2 5246   7.750   4.352   3.748  0.1504  0.5034  0.2019
 1768TIP3    H1 5247   7.811   4.366   3.820  0.9870 -0.8363 -0.2143
 1768TIP3    H2 5248   7.669   4.323   3.791 -0.3621  2.5758  0.7764
 1769TIP3   OH2 5249   4.397   4.265   4.887 -0.2252  0.2876  0.5335
 1769TIP3    H1 5250   4.373   4.179   4.852 -2.3355  0.7139  0.8094
 1769TIP3    H2 5251   4.440   4.309   4.814  1.0029 -1.0153  0.4271
 1770TIP3   OH2 5252   5.488   1.802   3.634 -0.1721  0.5850 -0.0493
 1770TIP3    H1 5253   5.554   1.804   3.703  1.0993 -1.3736 -1.1129
 1770TIP3    H2 5254   5.523   1.742   3.568 -2.2737  0.7595 -1.4481
 1771TIP3   OH2 5255   5.340   2.395   4.158  0.7681  0.7221 -0.2275
 1771TIP3    H1 5256   5.430   2.428   4.161  0.8027  0.5632  1.2387
 1771TIP3    H2 5257   5.289   2.462   4.204  0.2095  0.5674 -0.6081
 1772TIP3   OH2 5258   8.203   2.251   4.463 -0.1234 -0.6844  0.5344
 1772TIP3    H1 5259   8.188   2.251   4.368  2.3746 -1.9383  0.0382
 1772TIP3    H2 5260   8.135   2.308   4.498 -1.3524 -0.4567 -1.9650
 1773TIP3   OH2 5261   4.948   1.690   6.543 -0.2086 -0.3223  0.2784
 1773TIP3    H1 5262   4.980   1.774   6.509  0.2261 -0.1106  1.1711
 1773TIP3    H2 5263   5.018   1.659   6.600 -0.6950 -0.9181  0.5641
 1774TIP3   OH2 5264   7.451   5.273   5.476 -0.2060  0.1575  0.1290
 1774TIP3    H1 5265   7.418   5.314   5.556 -0.7935 -2.3782  1.2832
 1774TIP3    H2 5266   7.374   5.230   5.438  0.4135 -0.0370 -0.9571
 1775TIP3   OH2 5267   0.977   1.413   5.771  0.2562 -0.0182 -0.5053
 1775TIP3    H1 5268   0.884   1.390   5.775  0.3875 -0.6541 -1.0700
 1775TIP3    H2 5269   1.021   1.331   5.750  0.9938  0.1861  0.1873
 1776TIP3   OH2 5270   5.207   2.267   3.945 -0.1340 -0.8867 -0.4299
 1776TIP3    H1 5271   5.231   2.307   3.861 -2.3672  1.8144  0.0791
 1776TIP3    H2 5272   5.254   2.318   4.010 -1.8607  0.0492  0.1507
 1777TIP3   OH2 5273   1.764   4.244   1.007 -0.1357 -0.5052 -0.2447
 1777TIP3    H1 5274   1.723   4.296   1.076  0.4849  1.4108 -1.2366
 1777TIP3    H2 5275   1.854   4.275   1.003 -0.1928 -0.4749 -1.9812
 1778TIP3   OH2 5276   4.333   6.672   2.028  0.5507  0.1632 -0.5816
 1778TIP3    H1 5277   4.246   6.710   2.039  0.3010 -0.5929  0.1740
 1778TIP3    H2 5278   4.365   6.708   1.946 -0.7639 -0.0935 -1.2242
 1779TIP3   OH2 5279   0.801   7.201   5.751 -0.3993 -0.7669 -0.1929
 1779TIP3    H1 5280   0.755   7.126   5.788 -0.1399 -0.6189  0.4380
 1779TIP3    H2 5281   0.840   7.245   5.826 -1.6709  0.7783 -0.4013
 1780TIP3   OH2 5282   0.439   4.687   4.783 -0.2234 -0.4337 -0.3052
 1780TIP3    H1 5283   0.389   4.744   4.841  1.3359  1.3029 -0.5726
 1780TIP3    H2 5284   0.530   4.713   4.796  0.3970 -1.7946 -1.6102
 1781TIP3   OH2 5285   4.836   7.121   0.765 -0.2202  0.3205 -0.3561
 1781TIP3    H1 5286   4.770   7.184   0.734 -0.0034 -0.0772 -1.6678
 1781TIP3    H2 5287   4.817   7.041   0.716 -0.3930 -0.6199  1.1798
 1782TIP3   OH2 5288   3.133   0.144   3.970  0.1328  0.2531 -0.3164
 1782TIP3    H1 5289   3.223   0.113   3.970 -1.0226 -3.5891 -1.0872
 1782TIP3    H2 5290   3.092   0.099   3.896 -2.2570  2.6053 -0.5842
 1783TIP3   OH2 5291   7.628   4.836   4.280 -0.8594 -0.4260 -0.2951
 1783TIP3    H1 5292   7.677   4.891   4.220  1.3061 -0.4123  1.3672
 1783TIP3    H2 5293   7.555   4.890   4.309  0.2181  0.9474 -0.0611
 1784TIP3   OH2 5294   2.000   3.513   5.768 -0.2242 -0.4601 -0.5363
 1784TIP3    H1 5295   1.949   3.438   5.798  1.0082 -1.4242 -0.7625
 1784TIP3    H2 5296   2.022   3.561   5.847  1.0624 -1.7251 -0.0816
 1785TIP3   OH2 5297   1.672   5.491   3.718 -0.2319 -0.1769 -0.1636
 1785TIP3    H1 5298   1.666   5.424   3.786  0.5646  0.7465  0.8721
 1785TIP3    H2 5299   1.614   5.561   3.750  0.2224  0.3023 -0.3759
 1786TIP3   OH2 5300   6.662   4.461   4.213 -0.4768 -0.1609 -0.3081
 1786TIP3    H1 5301   6.604   4.407   4.160  0.5418 -1.9277  0.2962
 1786TIP3    H2 5302   6.749   4.446   4.177  0.1452 -0.8389  1.3739
 1787TIP3   OH2 5303   2.738   4.480   3.463  0.5838 -0.2700 -0.0041
 1787TIP3    H1 5304   2.720   4.387   3.474 -0.0617 -0.1857 -0.3274
 1787TIP3    H2 5305   2.776   4.507   3.547  0.0096 -0.6484  0.3825
 1788TIP3   OH2 5306   2.197   0.586   0.884 -0.1596 -0.3169  0.1340
 1788TIP3    H1 5307   2.237   0.673   0.883 -1.3311  0.2711  1.1371
 1788TIP3    H2 5308   2.202   0.559   0.976 -0.2727 -1.0860 -0.0792
 1789TIP3   OH2 5309   7.724   5.292   2.516  0.0294  0.5575 -0.0806
 1789TIP3    H1 5310   7.781   5.368   2.508 -0.9682  1.9221  3.5938
 1789TIP3    H2 5311   7.772   5.231   2.572 -0.6950  0.1545  0.1184
 1790TIP3   OH2 5312   5.992   0.220   4.512  0.2295 -0.1317 -0.4362
 1790TIP3    H1 5313   5.901   0.249   4.513  0.4507  0.5835  0.2076
 1790TIP3    H2 5314   6.041   0.294   4.548  1.0921 -0.4256 -0.9707
 1791TIP3   OH2 5315   5.806   3.998   2.117  0.0577 -0.1147  0.4372
 1791TIP3    H1 5316   5.735   3.953   2.070 -0.0927 -0.9899  1.4549
 1791TIP3    H2 5317   5.886   3.957   2.084  0.0524  0.3696 -0.1881
 1792TIP3   OH2 5318   4.106   1.916   1.378 -0.6857  0.9543 -0.0817
 1792TIP3    H1 5319   4.170   1.861   1.333 -2.3040  0.2281 -1.6148
 1792TIP3    H2 5320   4.078   1.864   1.453  0.0607  1.0375  0.2690
 1793TIP3   OH2 5321   7.093   5.158   4.944 -0.7414 -0.2850  0.0091
 1793TIP3    H1 5322   7.130   5.204   5.019 -1.1670  0.1800 -0.0606
 1793TIP3    H2 5323   7.082   5.226   4.877  1.5902 -1.0222 -1.2561
 1794TIP3   OH2 5324   7.693   3.846   0.069  0.2716 -0.2338  0.0443
 1794TIP3    H1 5325   7.764   3.884   0.120  1.6156 -3.2022  0.5346
 1794TIP3    H2 5326   7.725   3.846  -0.021  0.3160 -0.3311  0.0605
 1795TIP3   OH2 5327   8.296   1.619   3.080  0.5433 -0.3164  0.3622
 1795TIP3    H1 5328   8.357   1.577   3.019  0.5578 -1.3456  1.0496
 1795TIP3    H2 5329   8.210   1.606   3.040  0.8174  3.0083 -1.7091
 1796TIP3   OH2 5330   7.016   2.736   1.639  0.2919  0.4323  0.8349
 1796TIP3    H1 5331   7.036   2.675   1.710  1.2634 -0.2371  0.0130
 1796TIP3    H2 5332   7.095   2.736   1.584 -1.1277 -0.6430 -1.3661
 1797TIP3   OH2 5333   4.564   2.302   1.874 -0.5289  0.4027 -0.2584
 1797TIP3    H1 5334   4.592   2.288   1.965  0.5836 -1.3451 -0.8081
 1797TIP3    H2 5335   4.628   2.364   1.838 -1.2180  1.4244  0.2416
 1798TIP3   OH2 5336   4.725   1.489   6.079  0.3259 -0.0549  0.2137
 1798TIP3    H1 5337   4.820   1.496   6.069  0.3652  0.4480  0.8623
 1798TIP3    H2 5338   4.708   1.519   6.169 -0.3944 -0.6058  0.2717
 1799TIP3   OH2 5339   1.263   0.949   5.949 -0.0412 -0.5052  0.4191
 1799TIP3    H1 5340   1.302   0.876   5.998 -2.2803 -1.3446  1.1275
 1799TIP3    H2 5341   1.198   0.907   5.892  0.0258  0.7843 -0.6435
 1800TIP3   OH2 5342   5.754   1.021   3.690 -1.0552  0.5997  0.1929
 1800TIP3    H1 5343   5.709   1.003   3.607  0.5111  3.3905 -1.4131
 1800TIP3    H2 5344   5.811   0.945   3.703  0.3894  1.0520 -2.6248
 1801TIP3   OH2 5345   6.286   5.923   1.268  0.9302 -0.0843  0.5241
 1801TIP3    H1 5346   6.207   5.942   1.321  0.9276  1.5583 -0.0050
 1801TIP3    H2 5347   6.357   5.963   1.318  1.1806 -0.0984  0.1759
 1802TIP3   OH2 5348   7.001   0.964   0.908  0.2085 -0.0046 -0.3209
 1802TIP3    H1 5349   6.921   1.012   0.931  0.7035 -0.3595  2.4678
 1802TIP3    H2 5350   7.028   1.002   0.824 -1.5546  1.8060 -0.1636
 1803TIP3   OH2 5351   2.737   1.996   5.847  0.5121  0.3181 -0.5790
 1803TIP3    H1 5352   2.760   1.903   5.846 -0.0088  0.1920 -1.1251
 1803TIP3    H2 5353   2.744   2.021   5.939  0.9210 -0.1923 -0.4665
 1804TIP3   OH2 5354   6.769   3.265   6.163  0.3550  0.3116 -0.4857
 1804TIP3    H1 5355   6.801   3.210   6.235 -2.0833 -0.8791 -0.1941
 1804TIP3    H2 5356   6.805   3.352   6.181  1.7773 -0.4989  0.8000
 1805TIP3   OH2 5357   1.157   7.279   3.271 -0.3071 -0.2064  0.3017
 1805TIP3    H1 5358   1.177   7.371   3.286  0.2711 -0.2888  0.0466
 1805TIP3    H2 5359   1.182   7.264   3.179 -0.5574 -0.5738  0.2937
 1806TIP3   OH2 5360   5.349   3.054   0.729 -0.1946  0.1691 -0.1000
 1806TIP3    H1 5361   5.403   3.109   0.786  1.0353 -0.2822 -0.8000
 1806TIP3    H2 5362   5.393   3.057   0.645 -1.2672 -0.2364 -0.6916
 1807TIP3   OH2 5363   7.831   0.160   1.641 -0.7397  0.2914 -0.5421
 1807TIP3    H1 5364   7.838   0.065   1.636 -1.0299  0.0793  1.8009
 1807TIP3    H2 5365   7.785   0.186   1.561 -1.1145 -1.5904 -0.9711
 1808TIP3   OH2 5366   1.068   6.385   5.027  0.0867 -0.1360  1.2428
 1808TIP3    H1 5367   1.022   6.466   5.046  0.6031  0.3446  0.4950
 1808TIP3    H2 5368   1.142   6.412   4.972 -1.5631 -1.4728 -1.8908
 1809TIP3   OH2 5369   3.729   3.112   3.024 -0.9683  0.0646  0.0089
 1809TIP3    H1 5370   3.758   3.050   2.957 -0.7921  0.1924 -0.0326
 1809TIP3    H2 5371   3.678   3.058   3.085 -0.1770 -0.2633  0.3855
 1810TIP3   OH2 5372   3.216   6.078   0.688  0.8192  0.5177  0.2353
 1810TIP3    H1 5373   3.291   6.120   0.646  1.1879  1.0961  1.4212
 1810TIP3    H2 5374   3.144   6.139   0.675  1.0820  0.9966  0.9581
 1811TIP3   OH2 5375   0.710   5.071   1.255  0.2419 -0.2880 -0.0151
 1811TIP3    H1 5376   0.709   5.108   1.344 -0.7277 -1.6564  0.5702
 1811TIP3    H2 5377   0.634   5.110   1.212 -2.0485 -3.0019  1.2677
 1812TIP3   OH2 5378   2.405   6.482   0.399 -0.0175 -0.0296 -0.5856
 1812TIP3    H1 5379   2.411   6.393   0.363 -1.8812 -0.3868 -0.1474
 1812TIP3    H2 5380   2.328   6.520   0.356 -0.2809  0.7271  0.5078
 1813TIP3   OH2 5381   2.415   2.901   0.698  0.8964  0.5867  0.1733
 1813TIP3    H1 5382   2.464   2.968   0.747  3.2401 -1.5917  1.0701
 1813TIP3    H2 5383   2.457   2.899   0.612 -0.0267  1.1233 -0.2989
 1814TIP3   OH2 5384   1.026   4.677   6.057  0.0500  0.0872 -0.5226
 1814TIP3    H1 5385   0.933   4.684   6.035  0.1917  1.8548 -0.7115
 1814TIP3    H2 5386   1.050   4.589   6.031 -1.7156 -0.6295  0.0897
 1815TIP3   OH2 5387   8.024   2.461   4.556 -0.1594 -0.3801 -0.0081
 1815TIP3    H1 5388   8.008   2.528   4.489 -1.5579 -1.4829 -0.8318
 1815TIP3    H2 5389   8.086   2.502   4.616  0.2981  1.0418 -1.3836
 1816TIP3   OH2 5390   2.693   3.459   1.097 -0.0992 -0.4033  0.4383
 1816TIP3    H1 5391   2.629   3.399   1.134 -0.3939 -0.5110 -0.2341
 1816TIP3    H2 5392   2.643   3.538   1.076 -0.1930 -0.7761 -0.8312
 1817TIP3   OH2 5393   2.970   3.485   0.675  0.3742 -0.0230  0.0083
 1817TIP3    H1 5394   2.979   3.467   0.581  2.0401  0.5733  0.0221
 1817TIP3    H2 5395   2.877   3.471   0.693 -0.5072  2.1561 -2.2199
 1818TIP3   OH2 5396   7.193   4.543   1.477  0.2109 -0.6215  0.0392
 1818TIP3    H1 5397   7.240   4.465   1.449 -1.2571 -1.5327  0.0004
 1818TIP3    H2 5398   7.219   4.611   1.415  1.0639 -1.2339 -0.2821
 1819TIP3   OH2 5399   7.714   3.822   0.585 -0.8246 -0.3173  0.0589
 1819TIP3    H1 5400   7.648   3.774   0.634  0.1880 -1.4731  0.3429
 1819TIP3    H2 5401   7.762   3.755   0.537  0.3482  0.4555  0.1010
 1820TIP3   OH2 5402   2.613   5.114   3.590  0.3445 -0.0980  0.2693
 1820TIP3    H1 5403   2.615   5.094   3.497  0.5245  0.5862  0.1187
 1820TIP3    H2 5404   2.570   5.199   3.596  1.3236  0.3873  0.7000
 1821TIP3   OH2 5405   3.450   2.707   5.553  0.3067  0.8147  0.1759
 1821TIP3    H1 5406   3.371   2.746   5.516  1.2146  0.4155 -2.3578
 1821TIP3    H2 5407   3.519   2.727   5.490  2.6271  2.3485  2.9240
 1822TIP3   OH2 5408   3.650   7.641   4.618 -1.0317 -0.0620  0.0374
 1822TIP3    H1 5409   3.623   7.549   4.621  0.2768 -0.4650  0.2827
 1822TIP3    H2 5410   3.678   7.660   4.707  1.8827 -0.4817 -0.6820
 1823TIP3   OH2 5411   3.460   1.310   1.449 -0.5579  0.3631  0.2236
 1823TIP3    H1 5412   3.544   1.311   1.496 -0.7761 -0.8517  0.6738
 1823TIP3    H2 5413   3.457   1.224   1.407 -2.6280 -0.6015  2.1650
 1824TIP3   OH2 5414   5.163   0.195   5.485 -0.3328 -0.1145  0.5015
 1824TIP3    H1 5415   5.171   0.100   5.488 -0.5824 -0.1285  0.7882
 1824TIP3    H2 5416   5.244   0.225   5.443 -0.0919 -0.4320  0.7344
 1825TIP3   OH2 5417   0.954   6.278   0.167 -0.1565 -0.1212 -0.2050
 1825TIP3    H1 5418   1.018   6.337   0.127 -0.4677 -0.3069 -0.9970
 1825TIP3    H2 5419   1.005   6.201   0.191  0.0837  0.1004  0.0097
 1826TIP3   OH2 5420   2.316   2.475   2.527  0.0283 -0.3014  0.2016
 1826TIP3    H1 5421   2.401   2.505   2.494  0.2066 -0.8568  0.1351
 1826TIP3    H2 5422   2.296   2.533   2.601  0.7455 -0.5326  0.5862
 1827TIP3   OH2 5423   5.864   3.253   3.250 -0.0101 -0.4451  0.1532
 1827TIP3    H1 5424   5.954   3.223   3.251  0.0932 -0.1346  1.1444
 1827TIP3    H2 5425   5.853   3.300   3.332 -0.5053  1.2240 -0.8117
 1828TIP3   OH2 5426   7.670   0.034   6.679  0.2991 -0.4774 -0.1279
 1828TIP3    H1 5427   7.641   0.115   6.637  0.7125 -0.6707 -0.7934
 1828TIP3    H2 5428   7.661  -0.033   6.612 -0.4701 -1.0819  0.5544
 1829TIP3   OH2 5429   0.138   5.224   5.595  0.0634 -0.0439 -0.0570
 1829TIP3    H1 5430   0.231   5.203   5.605  0.0400  0.0862  0.4262
 1829TIP3    H2 5431   0.092   5.152   5.639 -0.0136  1.1516  1.8894
 1830TIP3   OH2 5432   7.239   0.497   2.111  0.0005 -0.1526 -0.2597
 1830TIP3    H1 5433   7.223   0.559   2.040 -0.4970  1.0457  0.8656
 1830TIP3    H2 5434   7.273   0.419   2.067 -2.1895 -0.1979 -2.0118
 1831TIP3   OH2 5435   3.744   0.424   4.336  0.2083  0.4226 -0.6646
 1831TIP3    H1 5436   3.765   0.421   4.243 -0.5643  0.2841 -0.8446
 1831TIP3    H2 5437   3.718   0.334   4.357  0.2375  0.4873 -0.3547
 1832TIP3   OH2 5438   0.853   0.391   0.634 -0.4490  0.7077 -0.3976
 1832TIP3    H1 5439   0.871   0.398   0.541 -0.1975  0.9664 -0.3293
 1832TIP3    H2 5440   0.759   0.371   0.639 -0.4115  0.4414 -0.7116
 1833TIP3   OH2 5441   5.338   7.643   2.938 -0.2498 -0.1891 -0.1959
 1833TIP3    H1 5442   5.281   7.718   2.924  0.8984  0.3612 -2.2034
 1833TIP3    H2 5443   5.309   7.578   2.874 -0.7578 -1.2255  1.0299
 1834TIP3   OH2 5444   5.352   0.826   6.613  0.2320 -0.1911 -0.5957
 1834TIP3    H1 5445   5.290   0.792   6.678 -2.4469  1.6486 -1.9673
 1834TIP3    H2 5446   5.350   0.762   6.542 -1.1315  0.4198 -1.1492
 1835TIP3   OH2 5447   4.019   4.692   6.139 -0.0458  0.2287  0.3200
 1835TIP3    H1 5448   4.055   4.650   6.062 -0.0395  0.3077  0.2794
 1835TIP3    H2 5449   4.079   4.669   6.210  0.6165  1.1374  0.0724
 1836TIP3   OH2 5450   2.933   3.332   2.006 -0.1721 -0.4468  0.5390
 1836TIP3    H1 5451   2.891   3.246   2.008 -2.2734  0.4762 -0.5062
 1836TIP3    H2 5452   2.866   3.392   2.037  0.8409  0.9584  0.0902
 1837TIP3   OH2 5453   4.832   1.083   1.192  0.0260  0.5269  0.1745
 1837TIP3    H1 5454   4.838   1.150   1.259  0.9919 -0.7351  1.4288
 1837TIP3    H2 5455   4.892   1.113   1.123  0.1189  1.1602  0.5211
 1838TIP3   OH2 5456   3.759   7.274   3.752 -0.4377  0.6929 -0.4337
 1838TIP3    H1 5457   3.806   7.357   3.739 -1.7342  1.4269 -0.5980
 1838TIP3    H2 5458   3.667   7.299   3.755 -1.0747 -1.0168 -2.9411
 1839TIP3   OH2 5459   6.504   1.178   1.135 -0.2434 -0.4094 -0.0318
 1839TIP3    H1 5460   6.504   1.256   1.192  2.7594 -0.8912  0.7812
 1839TIP3    H2 5461   6.443   1.118   1.178  0.4020  0.0242  1.5599
 1840TIP3   OH2 5462   7.542   0.342   5.419  0.3894 -0.5899  0.0253
 1840TIP3    H1 5463   7.527   0.363   5.511 -0.9558 -0.7689 -0.1412
 1840TIP3    H2 5464   7.637   0.348   5.409  0.4127  1.6631  0.8876
 1841TIP3   OH2 5465  -0.014   7.396   0.101 -0.0925  0.2949 -0.2472
 1841TIP3    H1 5466   0.032   7.475   0.073 -0.3058  1.5955  2.7194
 1841TIP3    H2 5467   0.042   7.358   0.169 -2.4372  0.9526  2.2209
 1842TIP3   OH2 5468   0.748   1.347   3.067 -0.4322  0.3434  0.1371
 1842TIP3    H1 5469   0.792   1.425   3.032 -0.0234  0.9934  1.9604
 1842TIP3    H2 5470   0.809   1.275   3.048 -0.8904  0.3937 -1.7148
 1843TIP3   OH2 5471   6.821   2.890   5.660 -0.1221  0.3427 -0.0587
 1843TIP3    H1 5472   6.749   2.945   5.689 -1.6563 -1.7988  0.4270
 1843TIP3    H2 5473   6.779   2.810   5.628  2.0199 -0.8093 -0.1911
 1844TIP3   OH2 5474   4.831   3.056   5.222  0.3851  0.2637  0.6165
 1844TIP3    H1 5475   4.824   3.151   5.217 -0.1388  0.1864 -0.2514
 1844TIP3    H2 5476   4.759   3.024   5.169  0.9903 -0.6199  0.3157
 1845TIP3   OH2 5477   3.867   0.333   5.846 -0.1321  0.2289 -0.3026
 1845TIP3    H1 5478   3.847   0.342   5.939 -0.9853 -1.0065 -0.3513
 1845TIP3    H2 5479   3.838   0.416   5.808 -2.5611 -0.3725  0.0985
 1846TIP3   OH2 5480   7.486   0.759   3.306  0.4767  0.1937 -0.0891
 1846TIP3    H1 5481   7.569   0.785   3.265  1.0635 -0.5624  0.5966
 1846TIP3    H2 5482   7.449   0.696   3.245 -0.0807  1.2527 -0.8739
 1847TIP3   OH2 5483   5.348   2.842   0.888 -0.5674 -0.2532  0.1919
 1847TIP3    H1 5484   5.308   2.880   0.966  2.5671 -0.4641  2.0793
 1847TIP3    H2 5485   5.333   2.906   0.819 -1.5245  0.9896  1.5034
 1848TIP3   OH2 5486   4.808   1.945   2.663  0.2986 -0.0718  0.4257
 1848TIP3    H1 5487   4.830   1.865   2.616  1.6359  0.2944  0.3731
 1848TIP3    H2 5488   4.813   2.014   2.597  2.3651  0.4715  1.0710
 1849TIP3   OH2 5489   1.851   3.558   4.641  0.2258  0.1035  0.0645
 1849TIP3    H1 5490   1.938   3.520   4.630  0.1452 -0.0246 -0.1242
 1849TIP3    H2 5491   1.801   3.491   4.687 -0.2199 -0.4474 -1.1847
 1850TIP3   OH2 5492   7.821   7.317   0.834  0.0881 -0.0625 -0.2691
 1850TIP3    H1 5493   7.756   7.358   0.777  1.2415  0.2815 -1.3812
 1850TIP3    H2 5494   7.787   7.229   0.851 -2.1053  1.0520  1.6106
 1851TIP3   OH2 5495   3.019   1.858   2.962  0.0916 -0.2135  0.5070
 1851TIP3    H1 5496   2.973   1.814   2.891  1.8458 -0.5537 -0.4439
 1851TIP3    H2 5497   2.951   1.914   3.002 -0.5097  1.6714 -2.7754
 1852TIP3   OH2 5498   1.426   5.923   0.564  0.0831  0.1323 -0.1870
 1852TIP3    H1 5499   1.488   5.995   0.574 -0.1172  0.3693 -0.6582
 1852TIP3    H2 5500   1.475   5.856   0.516  0.4218 -0.2438  0.6528
 1853TIP3   OH2 5501   0.402   5.169   0.541 -0.2881  0.0883  0.1808
 1853TIP3    H1 5502   0.430   5.216   0.619  1.0656 -0.3384 -0.0333
 1853TIP3    H2 5503   0.313   5.140   0.562 -1.2586  2.8258  0.2474
 1854TIP3   OH2 5504   5.327   3.815   3.080 -0.5759 -0.0171  0.0746
 1854TIP3    H1 5505   5.399   3.752   3.091 -1.0794 -0.2732  2.5029
 1854TIP3    H2 5506   5.365   3.887   3.030  1.3899 -0.1651  1.2351
 1855TIP3   OH2 5507   1.967   0.588   4.204 -0.2703 -0.1070 -1.0709
 1855TIP3    H1 5508   1.947   0.513   4.148  1.0885  0.4809 -2.4299
 1855TIP3    H2 5509   1.904   0.583   4.275 -0.4581 -2.3247 -1.3230
 1856TIP3   OH2 5510   1.518   4.714   0.150  0.0907  0.4838  0.4751
 1856TIP3    H1 5511   1.527   4.706   0.245 -0.5308 -0.2956  0.4780
 1856TIP3    H2 5512   1.598   4.674   0.115 -0.5141 -0.9189  0.6387
 1857TIP3   OH2 5513   6.457   6.604   5.284  0.4465  0.2685 -0.6996
 1857TIP3    H1 5514   6.466   6.664   5.209 -0.1270  1.6686  0.3067
 1857TIP3    H2 5515   6.386   6.643   5.336 -0.6144 -1.8260 -0.4946
 1858TIP3   OH2 5516   4.825   6.051   2.323 -0.6226  0.0810 -0.2793
 1858TIP3    H1 5517   4.827   6.010   2.236  0.6221  0.6807 -0.5437
 1858TIP3    H2 5518   4.886   5.999   2.376 -1.3500 -0.2632  0.2458
 1859TIP3   OH2 5519   2.130   3.760   1.455 -0.0470  0.1361  0.2295
 1859TIP3    H1 5520   2.057   3.811   1.489  0.1132  0.2974  0.3318
 1859TIP3    H2 5521   2.166   3.813   1.384 -0.8399 -0.5255 -0.6988
 1860TIP3   OH2 5522   3.333   3.895   2.014  0.1041  0.2782  0.3511
 1860TIP3    H1 5523   3.280   3.821   1.986 -0.9296  0.9980  0.3736
 1860TIP3    H2 5524   3.279   3.942   2.077  1.5759 -0.1076  1.9551
 1861TIP3   OH2 5525   1.620   5.743   3.431 -0.5618 -0.1231 -0.1227
 1861TIP3    H1 5526   1.597   5.789   3.350 -0.6727 -0.7037 -0.4234
 1861TIP3    H2 5527   1.666   5.664   3.401 -0.0514 -0.0299  0.4004
 1862TIP3   OH2 5528   3.324   6.720   6.672  0.0454 -0.1098 -0.2953
 1862TIP3    H1 5529   3.246   6.693   6.624  0.6261  0.8720 -1.8622
 1862TIP3    H2 5530   3.372   6.776   6.611  0.7628  1.3290  1.4956
 1863TIP3   OH2 5531   4.051   6.803   6.657  0.7828 -0.0691  0.4570
 1863TIP3    H1 5532   4.100   6.782   6.737  0.4851  0.5854  0.8235
 1863TIP3    H2 5533   4.118   6.822   6.591  1.0509 -1.4740  0.2929
 1864TIP3   OH2 5534   7.944   1.310   0.287 -0.2584  0.3154 -0.2543
 1864TIP3    H1 5535   7.993   1.289   0.366  0.6345 -0.6458 -1.0290
 1864TIP3    H2 5536   7.991   1.264   0.217 -0.9517  1.2378 -1.3583
 1865TIP3   OH2 5537   3.519   6.156   3.585  0.0863  0.1248 -0.0188
 1865TIP3    H1 5538   3.615   6.152   3.579  0.2687  1.6004  1.1346
 1865TIP3    H2 5539   3.501   6.248   3.607 -1.6115 -0.0900 -0.4303
 1866TIP3   OH2 5540   5.428   5.787   4.162  0.1304  0.2476 -0.1313
 1866TIP3    H1 5541   5.395   5.812   4.075 -1.0091 -0.3464  0.0993
 1866TIP3    H2 5542   5.395   5.697   4.174  2.5793 -0.7300 -0.2090
 1867TIP3   OH2 5543   5.229   0.871   1.787 -0.0373 -0.2997  0.1767
 1867TIP3    H1 5544   5.200   0.908   1.704  0.6756 -0.3042 -0.0863
 1867TIP3    H2 5545   5.297   0.931   1.817 -0.0898 -0.4542  0.6132
 1868TIP3   OH2 5546   5.421   0.221   5.362  0.0110  0.5727  0.4459
 1868TIP3    H1 5547   5.457   0.162   5.295 -0.4405 -0.1974  0.8586
 1868TIP3    H2 5548   5.497   0.264   5.400  0.3620  0.1795  0.1966
 1869TIP3   OH2 5549   3.897   2.042   1.206  0.4619  0.0966 -0.3282
 1869TIP3    H1 5550   3.977   2.007   1.245 -1.1940 -2.6399  0.8910
 1869TIP3    H2 5551   3.858   2.095   1.276 -0.4970 -1.4900  0.3809
 1870TIP3   OH2 5552   0.088   1.662   0.974 -0.2190  0.3739 -0.2602
 1870TIP3    H1 5553   0.173   1.690   1.006 -0.5222 -0.3429  1.2229
 1870TIP3    H2 5554   0.042   1.744   0.955  1.4089  0.7891 -2.9284
 1871TIP3   OH2 5555   7.176   7.076   3.941  0.0184 -0.6287 -0.6395
 1871TIP3    H1 5556   7.189   7.167   3.913 -0.4236  1.0249  3.6843
 1871TIP3    H2 5557   7.084   7.058   3.919 -1.2807  1.7274  2.0829
 1872TIP3   OH2 5558   7.120   6.712   4.027  1.1995 -0.2315 -0.0274
 1872TIP3    H1 5559   7.091   6.687   4.114 -0.6802  1.1431 -0.2070
 1872TIP3    H2 5560   7.196   6.770   4.043 -0.3325  1.6558  0.8638
 1873TIP3   OH2 5561   2.119   1.554   3.028  0.6424 -0.6414 -0.1884
 1873TIP3    H1 5562   2.145   1.494   3.097 -0.0961 -1.5862 -0.7157
 1873TIP3    H2 5563   2.191   1.617   3.023  0.9410 -0.8508  1.0801
 1874TIP3   OH2 5564   0.273   1.629   6.497  0.4564  0.4776 -0.0356
 1874TIP3    H1 5565   0.203   1.580   6.452  0.3368 -1.5929  2.1731
 1874TIP3    H2 5566   0.309   1.687   6.430 -0.0891 -1.9372 -2.6042
 1875TIP3   OH2 5567   2.911   6.209   2.010 -0.0762  0.1674 -0.0719
 1875TIP3    H1 5568   2.994   6.198   2.057 -0.0657  0.8832  0.0981
 1875TIP3    H2 5569   2.908   6.137   1.948  0.3022 -0.3225  0.4681
 1876TIP3   OH2 5570   6.681   7.350   3.446  0.5101 -0.4660 -0.3887
 1876TIP3    H1 5571   6.670   7.442   3.423 -0.7998 -0.4380  0.2378
 1876TIP3    H2 5572   6.622   7.303   3.387 -0.9742 -0.6147  1.1400
 1877TIP3   OH2 5573   8.224   6.826   0.699 -0.3309 -0.3384  0.0418
 1877TIP3    H1 5574   8.257   6.745   0.659 -0.1232 -0.0989 -0.2814
 1877TIP3    H2 5575   8.193   6.878   0.624 -0.6227 -0.1909  0.2633
 1878TIP3   OH2 5576   6.376   5.037   4.891  0.1748 -0.1231 -0.3979
 1878TIP3    H1 5577   6.347   4.984   4.817 -0.8995  2.4807 -1.9962
 1878TIP3    H2 5578   6.453   5.084   4.859  0.1614  0.4633  0.4034
 1879TIP3   OH2 5579   1.762   4.429   1.813 -0.1684  0.1584 -0.1718
 1879TIP3    H1 5580   1.772   4.512   1.767 -0.5489 -0.5677 -1.6115
 1879TIP3    H2 5581   1.828   4.431   1.882 -0.1170  1.6086 -0.2459
 1880TIP3   OH2 5582   4.192   6.074   2.916 -0.2717  0.2772 -0.5590
 1880TIP3    H1 5583   4.253   6.117   2.976 -0.3765  0.8106 -0.8319
 1880TIP3    H2 5584   4.231   6.085   2.829  0.6965 -1.8532 -0.4725
 1881TIP3   OH2 5585   6.083   0.742   3.136  0.1614 -0.1917  0.3420
 1881TIP3    H1 5586   6.062   0.752   3.043  0.4100  0.9631  0.4022
 1881TIP3    H2 5587   5.999   0.726   3.178  0.0119 -0.4053 -0.0276
 1882TIP3   OH2 5588   6.026   6.723   2.850  0.4619  0.1650 -0.3458
 1882TIP3    H1 5589   5.999   6.814   2.839 -2.1586 -0.2407  1.7822
 1882TIP3    H2 5590   6.112   6.728   2.893 -0.3879  1.6944  1.2941
 1883TIP3   OH2 5591   3.188   0.827   4.893 -0.9697 -0.3731 -0.7473
 1883TIP3    H1 5592   3.177   0.922   4.883 -0.1557 -0.4479 -2.9885
 1883TIP3    H2 5593   3.129   0.789   4.827 -3.4178 -1.6245  1.9501
 1884TIP3   OH2 5594   6.407   3.794   2.326  0.5558 -0.5494 -0.0394
 1884TIP3    H1 5595   6.430   3.887   2.322  0.3207 -0.4358  0.9243
 1884TIP3    H2 5596   6.316   3.793   2.356  0.3134 -1.0746 -0.7893
 1885TIP3   OH2 5597   5.323   0.083   2.909  0.1012 -0.0610 -0.2014
 1885TIP3    H1 5598   5.390   0.014   2.913  1.0544  0.8482 -0.1534
 1885TIP3    H2 5599   5.355   0.151   2.968 -1.3500 -0.0018  0.5759
 1886TIP3   OH2 5600   4.054   5.642   0.825 -0.0113 -0.0581 -0.2266
 1886TIP3    H1 5601   3.963   5.613   0.818 -0.9484  1.8762  2.2377
 1886TIP3    H2 5602   4.105   5.562   0.812 -2.1483 -1.6305  0.3530
 1887TIP3   OH2 5603   5.607   6.365   4.914  0.0621  0.4730 -0.3686
 1887TIP3    H1 5604   5.515   6.380   4.893 -0.3860 -0.4743  0.7917
 1887TIP3    H2 5605   5.635   6.444   4.961 -0.2579  0.6119 -0.4124
 1888TIP3   OH2 5606   5.503   2.691   2.615 -0.1523 -0.1851 -0.0676
 1888TIP3    H1 5607   5.462   2.651   2.538  1.2799 -1.2026 -0.3360
 1888TIP3    H2 5608   5.550   2.620   2.657  1.2390  0.9109  0.2998
 1889TIP3   OH2 5609   1.047   2.031   3.903  0.6633 -0.1126  0.0673
 1889TIP3    H1 5610   1.107   2.099   3.934 -0.8350 -0.0688  3.2067
 1889TIP3    H2 5611   1.077   1.951   3.946 -0.6594 -0.3635  0.5423
 1890TIP3   OH2 5612   2.824   6.314   5.329 -0.4758 -0.3364 -0.0767
 1890TIP3    H1 5613   2.891   6.381   5.319 -0.4436 -0.4044 -0.3137
 1890TIP3    H2 5614   2.743   6.355   5.300 -0.6317 -0.0945  0.6680
 1891TIP3   OH2 5615   7.859   2.274   6.765 -0.0556 -0.0100  0.0947
 1891TIP3    H1 5616   7.917   2.316   6.701 -0.5437  0.2465 -0.1869
 1891TIP3    H2 5617   7.832   2.193   6.723  2.5103 -1.6937  1.4535
 1892TIP3   OH2 5618   1.196   5.504   3.285  0.0825 -0.6419  0.0754
 1892TIP3    H1 5619   1.143   5.426   3.271 -1.4248  0.6148 -1.8225
 1892TIP3    H2 5620   1.286   5.477   3.263  0.0255 -2.3917  1.7571
 1893TIP3   OH2 5621   7.145   3.303   3.470  0.4345  0.7340  0.2890
 1893TIP3    H1 5622   7.102   3.232   3.516  1.4807  0.0539  0.2438
 1893TIP3    H2 5623   7.177   3.264   3.389  1.3094  1.1640  0.4108
 1894TIP3   OH2 5624   4.455   6.654   3.154 -0.6256  0.5694 -0.0724
 1894TIP3    H1 5625   4.417   6.674   3.239 -0.1081 -0.3011  0.3813
 1894TIP3    H2 5626   4.439   6.732   3.101  2.5500  2.8953  1.9838
 1895TIP3   OH2 5627   1.044   3.749   3.910  0.4161  0.6509  0.3755
 1895TIP3    H1 5628   1.090   3.732   3.828 -0.7961 -0.8829 -0.0365
 1895TIP3    H2 5629   1.108   3.732   3.979  0.4099 -1.9224 -0.1587
 1896TIP3   OH2 5630   5.237   3.691   4.327  0.8284  0.2883  0.0107
 1896TIP3    H1 5631   5.255   3.636   4.250  0.9388 -1.0393  0.9440
 1896TIP3    H2 5632   5.324   3.716   4.358  0.7774  1.0107 -0.4127
 1897TIP3   OH2 5633   3.051   7.337   0.410  0.0490  0.1193  0.1179
 1897TIP3    H1 5634   3.097   7.279   0.471 -0.6426 -0.0226  0.5185
 1897TIP3    H2 5635   3.010   7.278   0.347  0.6388  0.2602 -0.4040
 1898TIP3   OH2 5636   3.278   4.351   0.510  0.1246 -0.0929 -0.0945
 1898TIP3    H1 5637   3.241   4.369   0.596  0.8138 -0.4088  0.2766
 1898TIP3    H2 5638   3.202   4.344   0.452 -0.3396  0.1680  0.4788
 1899TIP3   OH2 5639   7.948   7.484   3.891 -0.0273 -0.3428 -0.5179
 1899TIP3    H1 5640   7.999   7.554   3.931  0.1579  0.3176 -1.8862
 1899TIP3    H2 5641   8.004   7.447   3.824 -0.5516 -1.0612 -0.5795
 1900TIP3   OH2 5642   0.243   3.847   6.205  0.6129  0.2418 -0.4346
 1900TIP3    H1 5643   0.191   3.824   6.128 -1.6195 -0.6217  1.2181
 1900TIP3    H2 5644   0.180   3.885   6.265  2.0481 -0.2331  1.4486
 1901TIP3   OH2 5645   4.493   0.768   2.178  0.1495  0.1744  0.2518
 1901TIP3    H1 5646   4.510   0.845   2.232 -2.2955 -0.0709  1.5093
 1901TIP3    H2 5647   4.498   0.800   2.088  0.9240  1.3747  0.7026
 1902TIP3   OH2 5648   3.293   5.884   6.082 -0.2918  0.3469  0.2673
 1902TIP3    H1 5649   3.355   5.851   6.148 -0.6464 -0.4706  0.2028
 1902TIP3    H2 5650   3.279   5.976   6.107  0.8467  0.5198  0.3552
 1903TIP3   OH2 5651   7.304   7.558   3.659 -0.4194  0.4267 -0.0519
 1903TIP3    H1 5652   7.309   7.476   3.610 -0.1186  0.1767  0.3926
 1903TIP3    H2 5653   7.383   7.558   3.713 -1.4192  0.0405  1.4784
 1904TIP3   OH2 5654   1.062   0.136   3.983 -0.0405 -0.1208  0.4263
 1904TIP3    H1 5655   0.990   0.087   4.021 -0.3160  0.0177  0.0923
 1904TIP3    H2 5656   1.049   0.226   4.014  0.1870 -0.1608  0.6446
 1905TIP3   OH2 5657   2.234   5.747   3.362  0.0080 -0.4794 -0.2932
 1905TIP3    H1 5658   2.146   5.776   3.341  1.3781  3.2866 -1.6519
 1905TIP3    H2 5659   2.240   5.753   3.457 -0.6014  1.3063 -0.3463
 1906TIP3   OH2 5660   5.674   1.600   2.532 -0.2976 -0.3198 -0.6345
 1906TIP3    H1 5661   5.638   1.591   2.620  1.0034 -1.0781 -0.1496
 1906TIP3    H2 5662   5.754   1.547   2.534  0.3539  0.5847 -1.9320
 1907TIP3   OH2 5663   3.170   2.977   6.032  0.5284 -0.5164  0.2221
 1907TIP3    H1 5664   3.242   3.040   6.027  0.1100  0.0179  0.8247
 1907TIP3    H2 5665   3.093   3.026   6.007  0.3099 -0.9990 -0.0740
 1908TIP3   OH2 5666   2.980   5.958   2.242 -0.5106 -0.8568  0.0080
 1908TIP3    H1 5667   3.040   5.993   2.307 -1.2477  1.4212 -0.4573
 1908TIP3    H2 5668   2.893   5.984   2.273 -1.0491 -1.7312 -0.7190
 1909TIP3   OH2 5669   5.465   3.135   2.898 -0.3925 -0.3340  0.2214
 1909TIP3    H1 5670   5.478   3.095   2.984 -0.2418  1.1815  0.9514
 1909TIP3    H2 5671   5.542   3.192   2.887 -1.6704  1.5078  0.2993
 1910TIP3   OH2 5672   4.102   1.300   0.572 -0.4589 -0.2097 -0.5295
 1910TIP3    H1 5673   4.080   1.331   0.484 -0.5489  0.4423 -0.2745
 1910TIP3    H2 5674   4.115   1.379   0.624  1.0214 -0.5699 -0.3000
 1911TIP3   OH2 5675   6.790   0.066   2.519 -0.2231  0.5444 -0.0147
 1911TIP3    H1 5676   6.713   0.021   2.554  1.4753 -1.0679  1.8156
 1911TIP3    H2 5677   6.833   0.105   2.595  1.2035  0.7540 -0.8923
 1912TIP3   OH2 5678   3.395   2.121   0.363 -0.2720  0.7797  0.1176
 1912TIP3    H1 5679   3.424   2.113   0.272 -1.9321  2.4814 -0.6369
 1912TIP3    H2 5680   3.449   2.190   0.400  0.6308 -0.1394  0.5622
 1913TIP3   OH2 5681   6.472   5.985   6.073  0.0449 -0.0071  0.6748
 1913TIP3    H1 5682   6.425   6.060   6.110 -0.9054  0.5529 -1.5426
 1913TIP3    H2 5683   6.408   5.914   6.071 -0.6532  0.6161 -1.9004
 1914TIP3   OH2 5684   0.577   2.183   4.299  0.5277 -0.1362  0.2751
 1914TIP3    H1 5685   0.510   2.165   4.366  1.1092  1.0531  1.2075
 1914TIP3    H2 5686   0.606   2.096   4.271  1.4179 -0.7135  2.7642
 1915TIP3   OH2 5687   0.101   5.472   2.708  0.0954  0.0102 -0.4490
 1915TIP3    H1 5688   0.130   5.384   2.731 -0.9135 -0.7258 -1.8674
 1915TIP3    H2 5689   0.039   5.460   2.637 -2.1614  1.6698  1.0769
 1916TIP3   OH2 5690   2.699  -0.001   4.352 -0.3594 -0.0124  0.0393
 1916TIP3    H1 5691   2.623   0.056   4.362 -1.6882 -1.6334 -0.3111
 1916TIP3    H2 5692   2.745   0.032   4.275 -2.8317 -1.1791 -2.1117
 1917TIP3   OH2 5693   8.000   4.448   1.690 -0.5073 -0.0283  0.7516
 1917TIP3    H1 5694   7.930   4.456   1.755 -0.9206  2.9979  0.0519
 1917TIP3    H2 5695   7.961   4.394   1.620 -0.9877 -1.0104  1.7389
 1918TIP3   OH2 5696   6.368   2.170   4.983  0.0237 -0.7545  0.1650
 1918TIP3    H1 5697   6.407   2.218   5.056 -0.8759 -2.8433  2.1089
 1918TIP3    H2 5698   6.421   2.195   4.907  1.2258  1.1926  1.5477
 1919TIP3   OH2 5699   6.866   5.730   6.623  0.3327 -0.2672  0.0419
 1919TIP3    H1 5700   6.792   5.671   6.616 -0.5575  0.8612 -0.3404
 1919TIP3    H2 5701   6.880   5.762   6.534 -0.4105  1.5117  0.5351
 1920TIP3   OH2 5702   1.531   4.928   5.273  0.0843 -0.3109 -0.0554
 1920TIP3    H1 5703   1.569   4.997   5.327 -1.6658 -0.2845  1.1934
 1920TIP3    H2 5704   1.525   4.852   5.331 -1.3849 -0.4230 -0.3118
 1921TIP3   OH2 5705   3.250   5.145   3.906  0.4505 -0.3857 -0.1261
 1921TIP3    H1 5706   3.329   5.191   3.878  1.1853 -1.2946  0.3793
 1921TIP3    H2 5707   3.261   5.056   3.871  0.1782 -0.8269  0.8722
 1922TIP3   OH2 5708   5.290   4.269   5.228  0.4947  0.2095  0.1874
 1922TIP3    H1 5709   5.324   4.356   5.206  2.0621 -0.8470 -1.9234
 1922TIP3    H2 5710   5.367   4.212   5.224 -0.7503 -1.5321  0.0792
 1923TIP3   OH2 5711   3.572   6.520   5.617 -0.2128 -0.5297 -0.0878
 1923TIP3    H1 5712   3.651   6.572   5.600 -0.7549  0.4258  0.2730
 1923TIP3    H2 5713   3.578   6.496   5.709  0.3721 -1.7173 -0.4086
 1924TIP3   OH2 5714   8.260   4.084   3.959 -0.0486  0.0173 -0.0946
 1924TIP3    H1 5715   8.258   4.111   4.051  1.6310 -0.0095 -0.0208
 1924TIP3    H2 5716   8.337   4.026   3.953  0.6496  1.0584 -1.7751
 1925TIP3   OH2 5717   6.331   2.492   2.858  0.3416 -0.1239  0.0070
 1925TIP3    H1 5718   6.269   2.517   2.927 -0.4568  1.5688 -1.2671
 1925TIP3    H2 5719   6.406   2.455   2.906 -0.5208  0.2515  1.7329
 1926TIP3   OH2 5720   4.433   2.592   2.810  0.8541 -0.7178 -0.5091
 1926TIP3    H1 5721   4.408   2.685   2.811  0.1100 -0.8470 -2.5799
 1926TIP3    H2 5722   4.507   2.588   2.749  0.2701 -1.5944 -1.1889
 1927TIP3   OH2 5723   7.151   6.583   3.675 -0.4448  0.5636  0.0787
 1927TIP3    H1 5724   7.220   6.564   3.740 -1.1932 -0.4663  0.6056
 1927TIP3    H2 5725   7.125   6.673   3.694 -0.0788  0.5557  0.6738
 1928TIP3   OH2 5726   5.877   5.668   1.270  0.6074  0.1146  0.6439
 1928TIP3    H1 5727   5.880   5.651   1.176  1.1133  0.6597  0.5507
 1928TIP3    H2 5728   5.964   5.644   1.301  0.1070 -1.0790  1.1687
 1929TIP3   OH2 5729   1.227   1.543   3.411  0.8512 -0.3895  0.0453
 1929TIP3    H1 5730   1.173   1.622   3.406  0.5818 -0.6247 -1.1876
 1929TIP3    H2 5731   1.182   1.487   3.474  1.7308  0.9224  1.9239
 1930TIP3   OH2 5732   5.685   7.335   2.059  0.1831 -0.2207 -0.0796
 1930TIP3    H1 5733   5.769   7.367   2.091 -0.4106 -0.4051  1.8111
 1930TIP3    H2 5734   5.684   7.242   2.084 -0.1233 -0.5059 -1.1065
 1931TIP3   OH2 5735   1.762   3.567   4.325 -0.3372  0.1295  0.1930
 1931TIP3    H1 5736   1.797   3.654   4.344 -1.4236  0.9238 -1.2630
 1931TIP3    H2 5737   1.836   3.508   4.338  0.6201  1.3598  0.4679
 1932TIP3   OH2 5738   2.875   1.997   1.573  0.6070 -0.4810  0.4773
 1932TIP3    H1 5739   2.895   2.091   1.564  0.0331 -0.4218 -0.2605
 1932TIP3    H2 5740   2.812   1.979   1.503 -1.2143 -0.8726  2.1347
 1933TIP3   OH2 5741   1.881   1.289   4.304 -0.0489  0.0422  0.1125
 1933TIP3    H1 5742   1.834   1.367   4.331  0.1040  0.4418 -0.7366
 1933TIP3    H2 5743   1.812   1.231   4.269  0.0038  0.3703 -0.5466
 1934TIP3   OH2 5744   3.393   1.854   4.505  0.2749 -0.6959  0.0284
 1934TIP3    H1 5745   3.376   1.791   4.575 -0.0489 -0.1322  0.4609
 1934TIP3    H2 5746   3.486   1.841   4.484  0.4854 -0.6049  0.8401
 1935TIP3   OH2 5747   0.643   3.069   3.289 -0.6845  0.2934  0.7162
 1935TIP3    H1 5748   0.584   3.128   3.336  1.7733  4.2183 -0.6551
 1935TIP3    H2 5749   0.633   3.094   3.197  0.7742 -1.1819  0.1116
 1936TIP3   OH2 5750   3.470   7.200   4.410  0.5390 -0.0602  0.4330
 1936TIP3    H1 5751   3.555   7.213   4.369  1.1362 -0.5696  1.4972
 1936TIP3    H2 5752   3.412   7.261   4.363  1.4803  0.3216 -0.2674
 1937TIP3   OH2 5753   8.164   4.477   3.834 -0.2610 -0.6035 -0.2112
 1937TIP3    H1 5754   8.177   4.546   3.768  1.3758 -0.9481 -0.2785
 1937TIP3    H2 5755   8.224   4.407   3.808 -0.2665 -1.1282  1.1330
 1938TIP3   OH2 5756   4.924   6.408   5.094 -0.2316 -0.1792  0.0673
 1938TIP3    H1 5757   4.860   6.479   5.084  0.1838  0.3104  0.7651
 1938TIP3    H2 5758   4.950   6.386   5.005  0.4780  1.3421 -0.1318
 1939TIP3   OH2 5759   2.652   1.835   4.039 -0.1123 -0.0479  0.2262
 1939TIP3    H1 5760   2.566   1.810   4.006 -0.4508  0.3200  0.8201
 1939TIP3    H2 5761   2.704   1.754   4.033 -0.6802 -0.4370  0.4502
 1940TIP3   OH2 5762   4.088   0.019   5.859  0.0196  0.1259  0.4987
 1940TIP3    H1 5763   4.014  -0.039   5.879  0.8749 -0.8552  0.9521
 1940TIP3    H2 5764   4.056   0.076   5.790 -0.5292 -1.6399 -0.7931
 1941TIP3   OH2 5765   0.680   2.436   5.727 -0.2219  0.5637 -0.4680
 1941TIP3    H1 5766   0.766   2.397   5.742 -0.7925 -1.7662 -2.5932
 1941TIP3    H2 5767   0.697   2.530   5.715  2.1623  0.0465 -1.6257
 1942TIP3   OH2 5768   2.402   2.188   0.661 -0.1633 -0.0831 -0.4921
 1942TIP3    H1 5769   2.315   2.177   0.623  0.3537  0.5493 -1.9304
 1942TIP3    H2 5770   2.438   2.100   0.665 -0.6345 -0.2762 -0.4731
 1943TIP3   OH2 5771   4.380   0.138   0.841  0.4175  0.1945 -0.0121
 1943TIP3    H1 5772   4.468   0.110   0.864  0.1537  0.4558  1.3688
 1943TIP3    H2 5773   4.381   0.144   0.745  2.3510  1.7210  0.0496
 1944TIP3   OH2 5774   2.999   6.209   2.963 -0.1609 -0.3284 -0.0325
 1944TIP3    H1 5775   2.944   6.197   2.885 -0.5345  0.2598  0.1306
 1944TIP3    H2 5776   3.086   6.229   2.928 -0.3415 -0.0043 -0.3043
 1945TIP3   OH2 5777   1.450   4.844   1.032 -0.1884 -0.2879 -0.1536
 1945TIP3    H1 5778   1.425   4.890   0.952 -3.0995 -1.7945 -0.2319
 1945TIP3    H2 5779   1.381   4.779   1.045  1.8756 -2.2479  1.8664
 1946TIP3   OH2 5780   5.836   6.332   0.411  0.3216  0.5372  0.0372
 1946TIP3    H1 5781   5.799   6.274   0.345  0.8622  0.6081 -0.3411
 1946TIP3    H2 5782   5.889   6.394   0.360 -0.1731  1.3020  0.4429
 1947TIP3   OH2 5783   2.729   4.831   5.339  0.2066  0.3918  0.7293
 1947TIP3    H1 5784   2.659   4.892   5.315 -0.0115  0.1023  0.6057
 1947TIP3    H2 5785   2.690   4.777   5.408  0.8341  1.2240  1.7604
 1948TIP3   OH2 5786   6.618   1.173   4.951 -0.2929 -0.3719  0.1777
 1948TIP3    H1 5787   6.642   1.081   4.966 -0.4154 -0.2456  1.1946
 1948TIP3    H2 5788   6.617   1.212   5.038  0.3872  0.7629 -0.3055
 1949TIP3   OH2 5789   3.361   4.146   0.955  0.8944  0.2009 -0.4524
 1949TIP3    H1 5790   3.396   4.203   0.887 -0.9536  1.4806 -0.4256
 1949TIP3    H2 5791   3.294   4.199   0.999 -0.7306 -1.8632 -0.2325
 1950TIP3   OH2 5792   4.776   0.053   1.610 -0.3923 -0.2783 -0.1952
 1950TIP3    H1 5793   4.819   0.132   1.644 -1.3042 -0.4764  1.5393
 1950TIP3    H2 5794   4.773   0.066   1.515 -0.9704  2.0189  0.0769
 1951TIP3   OH2 5795   3.626   4.555   4.484  0.3987  0.3668 -0.6094
 1951TIP3    H1 5796   3.585   4.531   4.401 -0.5553  0.1801 -0.0983
 1951TIP3    H2 5797   3.562   4.528   4.551  1.0841  0.6542  0.1728
 1952TIP3   OH2 5798   4.276   3.855   0.548 -0.0340  0.1470  0.1991
 1952TIP3    H1 5799   4.268   3.802   0.628  0.0737  0.6149  0.5286
 1952TIP3    H2 5800   4.359   3.829   0.510  0.1059  0.2082  0.4592
 1953TIP3   OH2 5801   6.566   5.997   2.343  0.2488  0.0017  0.1651
 1953TIP3    H1 5802   6.504   5.963   2.279  0.0988  0.1832  0.2102
 1953TIP3    H2 5803   6.648   5.953   2.324  0.2311  0.1356 -0.2226
 1954TIP3   OH2 5804   6.684   2.286   1.948  0.5644 -0.3512 -0.2717
 1954TIP3    H1 5805   6.680   2.335   2.030 -0.5579 -0.6019 -0.1558
 1954TIP3    H2 5806   6.634   2.206   1.965 -1.5536  0.5217 -1.7910
 1955TIP3   OH2 5807   7.161   6.947   5.909 -0.0983 -0.1916  0.3576
 1955TIP3    H1 5808   7.208   6.897   5.976 -1.9713  0.1854  2.0614
 1955TIP3    H2 5809   7.141   7.030   5.952  1.8035  1.6060 -1.9544
 1956TIP3   OH2 5810   1.881   6.047   6.621  0.5173 -1.0442 -0.2692
 1956TIP3    H1 5811   1.836   5.994   6.687 -0.5568  0.2911  0.1114
 1956TIP3    H2 5812   1.922   6.118   6.670  2.7078 -1.9608 -0.6738
 1957TIP3   OH2 5813   7.700   7.753   0.548 -0.2773 -0.1215  0.3240
 1957TIP3    H1 5814   7.728   7.692   0.480  2.3648  0.6331  0.6211
 1957TIP3    H2 5815   7.735   7.837   0.521 -0.5112  0.5019  1.8360
 1958TIP3   OH2 5816   8.139   2.596   3.955  0.2272  0.4880  0.3080
 1958TIP3    H1 5817   8.193   2.675   3.948  0.5567  0.3125  0.8247
 1958TIP3    H2 5818   8.067   2.611   3.894  0.8292  0.7470 -0.3612
 1959TIP3   OH2 5819   6.797   5.644   3.500  0.2712  0.2284 -0.1600
 1959TIP3    H1 5820   6.812   5.726   3.547  0.4581  0.3788 -0.4775
 1959TIP3    H2 5821   6.703   5.627   3.511  0.7002 -0.9661  2.2375
 1960TIP3   OH2 5822   8.211   0.966   2.288 -0.9770  0.0955 -0.3202
 1960TIP3    H1 5823   8.221   0.893   2.349 -0.3835 -0.2334 -0.7933
 1960TIP3    H2 5824   8.145   0.937   2.226 -0.1712 -0.3731 -0.9729
 1961TIP3   OH2 5825   6.623   4.294   6.192 -0.1703  0.2035 -0.1391
 1961TIP3    H1 5826   6.635   4.240   6.114  0.2575 -2.4610  1.6541
 1961TIP3    H2 5827   6.539   4.338   6.178 -0.3905 -0.6603 -1.8166
 1962TIP3   OH2 5828   4.256   4.916   0.644  0.1624 -0.5902  0.5826
 1962TIP3    H1 5829   4.241   4.931   0.551  1.5976  0.1366  0.4363
 1962TIP3    H2 5830   4.229   4.998   0.687  0.1425 -0.6710  0.7268
 1963TIP3   OH2 5831   4.183   2.072   3.707 -0.3122  0.4433 -0.2363
 1963TIP3    H1 5832   4.254   2.011   3.688 -0.0760  0.7020 -0.1941
 1963TIP3    H2 5833   4.108   2.037   3.659 -0.3114 -0.1498  0.1799
 1964TIP3   OH2 5834   1.860   0.766   5.318  0.0520  0.2648 -0.2785
 1964TIP3    H1 5835   1.909   0.847   5.300 -0.6878  1.1047  1.2692
 1964TIP3    H2 5836   1.917   0.717   5.377  0.1024  0.0750 -0.4839
 1965TIP3   OH2 5837   6.577   1.781   4.646 -0.0678 -0.1565  0.0801
 1965TIP3    H1 5838   6.584   1.686   4.630  0.0581  0.0977 -1.5121
 1965TIP3    H2 5839   6.527   1.814   4.573  0.3749  1.1023  0.3263
 1966TIP3   OH2 5840   1.574   0.111   0.289  0.0743  0.7083  0.4716
 1966TIP3    H1 5841   1.544   0.028   0.252 -1.0764  0.1234  2.6062
 1966TIP3    H2 5842   1.556   0.175   0.220 -0.3662 -0.5654 -0.6555
 1967TIP3   OH2 5843   5.839   1.354   5.333 -0.1329  0.0976 -0.1943
 1967TIP3    H1 5844   5.920   1.314   5.303 -1.1030 -2.0722 -0.1002
 1967TIP3    H2 5845   5.834   1.437   5.284  0.9922 -0.7951 -1.9423
 1968TIP3   OH2 5846   6.019   3.231   5.613  0.3296  0.3665  0.3519
 1968TIP3    H1 5847   5.984   3.168   5.676 -0.2534  1.6483  1.3606
 1968TIP3    H2 5848   6.022   3.314   5.661 -3.2520  2.2046 -2.1204
 1969TIP3   OH2 5849   4.365   3.384   1.742 -0.3482 -0.4805 -0.0414
 1969TIP3    H1 5850   4.356   3.341   1.657 -0.3216  0.6498 -0.6395
 1969TIP3    H2 5851   4.290   3.444   1.746 -0.5871 -0.8293  0.9258
 1970TIP3   OH2 5852   4.516   5.973   5.641 -0.1543 -0.1166  0.2697
 1970TIP3    H1 5853   4.506   5.964   5.546 -0.5858 -2.1883  0.4573
 1970TIP3    H2 5854   4.599   6.019   5.652 -0.0333  0.0562 -1.1093
 1971TIP3   OH2 5855   2.005   7.364   2.717 -0.5862 -0.1447 -0.1080
 1971TIP3    H1 5856   2.053   7.338   2.796 -2.8215 -0.6194  1.1672
 1971TIP3    H2 5857   2.063   7.339   2.645  1.7942  0.8572  1.3371
 1972TIP3   OH2 5858   2.996   4.755   0.934  0.5007  0.0048 -0.1660
 1972TIP3    H1 5859   2.904   4.750   0.960  0.5889 -0.2462  0.1014
 1972TIP3    H2 5860   3.012   4.849   0.922  0.1101  0.0200 -0.5812
 1973TIP3   OH2 5861   4.466   1.744   1.300  0.5808 -0.3404 -0.4335
 1973TIP3    H1 5862   4.471   1.657   1.340 -3.8301 -1.0175 -0.8308
 1973TIP3    H2 5863   4.498   1.804   1.367 -0.2851 -1.9820  1.5515
 1974TIP3   OH2 5864   6.817   6.893   2.356  0.2729  0.1151 -0.5398
 1974TIP3    H1 5865   6.904   6.859   2.336  0.8875  1.1985  0.2301
 1974TIP3    H2 5866   6.829   6.945   2.435 -0.1831  3.8520 -2.6871
 1975TIP3   OH2 5867   6.158   3.774   6.164 -0.6408  0.0786  0.0586
 1975TIP3    H1 5868   6.204   3.727   6.234 -0.3996 -0.3928 -0.4056
 1975TIP3    H2 5869   6.070   3.787   6.198 -0.0448  1.4144  1.1525
 1976TIP3   OH2 5870   8.094   5.681   2.332 -0.9548 -0.1107  0.5546
 1976TIP3    H1 5871   8.134   5.594   2.339  1.1730  0.7729  0.2068
 1976TIP3    H2 5872   8.095   5.715   2.421  0.0666  0.2997  0.3997
 1977TIP3   OH2 5873   5.125   6.270   0.704 -0.0223 -0.4222 -0.5334
 1977TIP3    H1 5874   5.106   6.250   0.795  0.2599  0.6419 -0.2260
 1977TIP3    H2 5875   5.052   6.231   0.655 -0.5371 -0.4125  0.2121
 1978TIP3   OH2 5876   4.104   2.459   5.895  0.6752 -0.1889  0.0032
 1978TIP3    H1 5877   4.169   2.397   5.929  1.0974  0.2256 -0.0360
 1978TIP3    H2 5878   4.047   2.476   5.970  1.5054  0.5928  0.4765
 1979TIP3   OH2 5879   7.926   1.663   6.786 -0.0831 -0.4548 -0.2043
 1979TIP3    H1 5880   7.996   1.694   6.729  0.9352 -1.0824  0.6799
 1979TIP3    H2 5881   7.884   1.593   6.736 -0.1398 -0.0281 -0.7651
 1980TIP3   OH2 5882   4.479   5.989   4.934 -0.0743  0.0221 -0.0653
 1980TIP3    H1 5883   4.501   6.034   4.852  0.2178 -0.0825 -0.0462
 1980TIP3    H2 5884   4.391   5.955   4.920  0.0955 -0.2648 -0.4555
 1981TIP3   OH2 5885   2.659   7.618   3.302  0.1157 -0.7540  0.0428
 1981TIP3    H1 5886   2.737   7.608   3.357  0.8390  0.6015 -0.6825
 1981TIP3    H2 5887   2.694   7.626   3.213 -0.8494 -0.0752 -0.2894
 1982TIP3   OH2 5888   1.922   5.947   1.077 -0.1849 -0.1412  0.3493
 1982TIP3    H1 5889   1.875   6.010   1.024 -1.3530 -0.2015  1.2822
 1982TIP3    H2 5890   1.879   5.864   1.061  0.2561 -0.3938  0.4378
 1983TIP3   OH2 5891   4.812   0.960   5.595  0.2047 -0.3421  0.2506
 1983TIP3    H1 5892   4.722   0.992   5.594  0.2104 -0.2169 -2.4158
 1983TIP3    H2 5893   4.804   0.867   5.616 -0.5377 -0.3503 -0.0488
 1984TIP3   OH2 5894   5.250   7.421   6.304 -0.0569  0.0850 -0.1341
 1984TIP3    H1 5895   5.284   7.460   6.224  0.7588 -0.4208 -0.0493
 1984TIP3    H2 5896   5.244   7.327   6.284 -0.8097  0.0790  0.0728
 1985TIP3   OH2 5897   6.023   0.844   2.150 -0.0726  0.0335 -0.0957
 1985TIP3    H1 5898   5.993   0.934   2.140 -0.0959 -0.0017 -0.3573
 1985TIP3    H2 5899   6.041   0.815   2.060 -2.0740 -0.9275 -0.2393
 1986TIP3   OH2 5900   1.770   5.907   0.673 -0.6183  0.1704  0.1335
 1986TIP3    H1 5901   1.778   5.828   0.619 -0.9956  0.0111  0.3040
 1986TIP3    H2 5902   1.859   5.925   0.704 -0.3775  0.3294 -0.6325
 1987TIP3   OH2 5903   2.872   1.903   1.279  0.3703 -0.4914 -0.3099
 1987TIP3    H1 5904   2.957   1.923   1.239  0.7107 -0.2262  0.5209
 1987TIP3    H2 5905   2.819   1.868   1.207  1.0596 -0.3065 -0.9189
 1988TIP3   OH2 5906   7.635   3.469   0.676  0.3827  0.3340 -0.3760
 1988TIP3    H1 5907   7.541   3.480   0.667  0.2895 -0.9782 -1.2151
 1988TIP3    H2 5908   7.669   3.483   0.587  0.8178 -0.6151 -0.3648
 1989TIP3   OH2 5909   5.399   1.026   0.582 -0.5108  0.1963 -0.0173
 1989TIP3    H1 5910   5.396   0.930   0.581 -2.5924  0.1861  0.6461
 1989TIP3    H2 5911   5.436   1.050   0.497  0.8090 -1.1936  0.1332
 1990TIP3   OH2 5912   1.981   3.042   6.200  0.2009 -0.0999 -0.2317
 1990TIP3    H1 5913   1.928   3.092   6.261  0.1967 -0.8127  0.3631
 1990TIP3    H2 5914   2.036   3.107   6.157 -0.3368  0.5021 -0.0193
 1991TIP3   OH2 5915   3.430   4.330   3.077 -0.7914 -0.1315  0.2495
 1991TIP3    H1 5916   3.340   4.336   3.044 -0.9142  0.2272  0.6375
 1991TIP3    H2 5917   3.446   4.415   3.118 -0.4956 -0.4227  0.7455
 1992TIP3   OH2 5918   7.986   4.241   6.233 -0.0201 -0.1123  0.0482
 1992TIP3    H1 5919   7.937   4.315   6.197 -0.5294 -0.0940  0.7474
 1992TIP3    H2 5920   7.988   4.258   6.328 -2.5702 -2.3553  0.6219
 1993TIP3   OH2 5921   2.716   0.963   4.587  0.7479  0.0186  0.0193
 1993TIP3    H1 5922   2.689   0.893   4.528 -0.6197 -0.7506  1.4768
 1993TIP3    H2 5923   2.671   1.041   4.553  0.3354 -0.3153 -0.2092
 1994TIP3   OH2 5924   3.256   2.907   5.219  0.2699 -0.2029 -0.0900
 1994TIP3    H1 5925   3.236   2.994   5.184  0.6339  0.0781  0.3947
 1994TIP3    H2 5926   3.179   2.854   5.197 -0.5797  0.5962  0.8518
 1995TIP3   OH2 5927   1.135   4.606   1.779  0.1465  0.6537  0.1949
 1995TIP3    H1 5928   1.073   4.633   1.710 -0.4938  0.4780  0.6922
 1995TIP3    H2 5929   1.143   4.682   1.835  0.3403  0.6557  0.1654
 1996TIP3   OH2 5930   1.377   4.718   5.177 -0.4812  0.2094 -0.2099
 1996TIP3    H1 5931   1.424   4.655   5.123  0.8472 -0.0951  1.2059
 1996TIP3    H2 5932   1.422   4.801   5.161 -1.3593  0.5363 -1.0459
 1997TIP3   OH2 5933   0.429   7.278   2.282  0.2867  1.0670  0.2897
 1997TIP3    H1 5934   0.516   7.313   2.302 -0.5705  4.0473 -0.6906
 1997TIP3    H2 5935   0.410   7.309   2.194 -0.7372 -1.8547 -0.6213
 1998TIP3   OH2 5936   6.733   2.602   3.057  0.2538  0.2497  0.2743
 1998TIP3    H1 5937   6.685   2.673   3.013 -0.1171 -0.0092  0.2594
 1998TIP3    H2 5938   6.825   2.625   3.044  0.1382  0.7854  0.3575
 1999TIP3   OH2 5939   0.905   3.752   0.094 -1.1034 -0.2488 -0.3587
 1999TIP3    H1 5940   0.984   3.729   0.046  0.8788 -0.3066  2.6812
 1999TIP3    H2 5941   0.887   3.676   0.148 -4.2610 -0.8670 -2.0122
 2000TIP3   OH2 5942   5.409   0.904   5.667  0.5296  0.3704 -0.5941
 2000TIP3    H1 5943   5.439   0.986   5.628 -1.3697  1.9063  0.9945
 2000TIP3    H2 5944   5.322   0.889   5.629  1.1805 -1.4454 -1.5274
 2001TIP3   OH2 5945   2.246   7.681   3.357  0.1845 -0.0377 -0.2945
 2001TIP3    H1 5946   2.157   7.662   3.326  0.5336  1.9401 -2.9578
 2001TIP3    H2 5947   2.285   7.596   3.374 -2.0859 -0.9634  0.5996
 2002TIP3   OH2 5948   3.641   2.768   4.272  0.0350  0.1096  0.2161
 2002TIP3    H1 5949   3.621   2.775   4.365  2.9011 -2.0688  1.1326
 2002TIP3    H2 5950   3.578   2.705   4.238 -0.3044  0.0445  0.9482
 2003TIP3   OH2 5951   5.523   6.931   5.949  0.0675 -0.4572 -0.1049
 2003TIP3    H1 5952   5.482   6.992   5.887  0.7422  0.9732  0.8141
 2003TIP3    H2 5953   5.564   6.865   5.894  0.1254  0.4394 -1.1739
 2004TIP3   OH2 5954   3.933   2.692   0.749  0.0598  0.1618  0.7761
 2004TIP3    H1 5955   3.851   2.656   0.784  0.0568 -0.4693  0.1372
 2004TIP3    H2 5956   4.002   2.637   0.787  0.1120 -0.0185  0.4186
 2005TIP3   OH2 5957   2.802   3.604   3.150 -0.1744  0.0978 -0.1290
 2005TIP3    H1 5958   2.855   3.603   3.071  0.8369 -1.6438  0.5137
 2005TIP3    H2 5959   2.720   3.645   3.123  0.0554 -0.6425 -2.1392
 2006TIP3   OH2 5960   6.259   0.457   2.365 -0.2993 -0.2444 -0.3951
 2006TIP3    H1 5961   6.233   0.372   2.330 -1.4539 -0.4941  0.9650
 2006TIP3    H2 5962   6.188   0.516   2.338 -1.8045 -0.6626  2.2572
 2007TIP3   OH2 5963   7.180   6.972   1.557  0.0594  0.2289 -0.1879
 2007TIP3    H1 5964   7.253   6.964   1.618  1.4675 -1.9863 -1.9895
 2007TIP3    H2 5965   7.215   6.938   1.474 -2.5583  0.6053 -1.5347
 2008TIP3   OH2 5966   0.876   7.489   6.625  0.1412  0.1282 -0.0639
 2008TIP3    H1 5967   0.788   7.457   6.643  0.1003 -0.8168 -1.7402
 2008TIP3    H2 5968   0.867   7.542   6.546  1.1889 -0.6617 -0.7384
 2009TIP3   OH2 5969   2.226   0.577   0.181 -0.0490 -0.1917  0.2037
 2009TIP3    H1 5970   2.282   0.653   0.168  1.6092 -1.3213  0.4736
 2009TIP3    H2 5971   2.191   0.559   0.093  0.6912  0.0300 -0.1502
 2010TIP3   OH2 5972   1.731   1.123   4.571 -0.1990  0.3265 -0.5810
 2010TIP3    H1 5973   1.796   1.054   4.567 -1.2364 -0.7042 -0.1640
 2010TIP3    H2 5974   1.717   1.148   4.480  0.3460  0.1422 -0.7158
 2011TIP3   OH2 5975   5.048   7.227   0.896  0.3044 -0.8801 -0.0218
 2011TIP3    H1 5976   5.034   7.280   0.974  0.6698  0.3626 -0.7702
 2011TIP3    H2 5977   4.960   7.205   0.865  0.1075  0.4075 -0.4257
 2012TIP3   OH2 5978   5.681   0.521   2.093 -0.5179  0.6451 -0.2104
 2012TIP3    H1 5979   5.681   0.438   2.140  3.3664 -0.6724 -2.1685
 2012TIP3    H2 5980   5.653   0.500   2.004  0.1563  1.4650 -0.6404
 2013TIP3   OH2 5981   3.820   4.552   1.925 -0.7243 -0.3210  0.1795
 2013TIP3    H1 5982   3.832   4.481   1.989  0.8309 -0.4932 -0.2796
 2013TIP3    H2 5983   3.759   4.515   1.861 -1.4537 -0.5282  0.9644
 2014TIP3   OH2 5984   0.350   6.453   0.677 -0.1674 -0.3127  0.5939
 2014TIP3    H1 5985   0.418   6.429   0.615 -1.5490 -1.1194 -0.6724
 2014TIP3    H2 5986   0.397   6.495   0.749  1.5812 -0.2697 -0.5136
 2015TIP3   OH2 5987   5.724   4.917   0.214 -0.2236 -0.2887 -0.1159
 2015TIP3    H1 5988   5.712   5.004   0.178 -0.0981 -0.0156  0.4885
 2015TIP3    H2 5989   5.766   4.867   0.144  1.1944  0.5839  0.0802
 2016TIP3   OH2 5990   6.588   2.305   4.449  0.2721 -0.0563 -0.0980
 2016TIP3    H1 5991   6.604   2.282   4.540 -0.4825  0.6070  0.2128
 2016TIP3    H2 5992   6.661   2.361   4.425  0.8950 -0.8755 -0.1561
 2017TIP3   OH2 5993   1.402   3.670   6.207  0.6012 -0.5124 -0.2180
 2017TIP3    H1 5994   1.462   3.651   6.280 -0.3887  2.9130  1.6721
 2017TIP3    H2 5995   1.331   3.606   6.217  1.0571 -0.8423  1.0858
 2018TIP3   OH2 5996   2.741   6.303   4.449  0.6647 -0.6731  0.6788
 2018TIP3    H1 5997   2.812   6.265   4.396  0.6579  2.5147 -1.8908
 2018TIP3    H2 5998   2.786   6.348   4.520  1.1351 -0.0389 -0.0063
 2019TIP3   OH2 5999   1.414   7.773   2.628  0.3647  0.0785  0.4485
 2019TIP3    H1 6000   1.396   7.798   2.537 -1.2695  1.3421  1.0636
 2019TIP3    H2 6001   1.390   7.681   2.632 -1.7462  0.5507  0.0759
 2020TIP3   OH2 6002   8.212   4.585   0.296 -0.3404  0.2390 -0.1662
 2020TIP3    H1 6003   8.193   4.522   0.226  0.6337 -0.9538  0.6181
 2020TIP3    H2 6004   8.259   4.656   0.252 -1.6280  0.5713 -1.0944
 2021TIP3   OH2 6005   0.221   6.768   6.764 -0.4992  0.4841  0.3979
 2021TIP3    H1 6006   0.144   6.822   6.781 -0.1412  1.5669 -1.1538
 2021TIP3    H2 6007   0.235   6.776   6.669  2.3856  1.5487  0.8113
 2022TIP3   OH2 6008   6.670   6.871   2.746 -0.4288 -0.4453  0.5583
 2022TIP3    H1 6009   6.577   6.875   2.726  0.1047  0.9051 -2.0007
 2022TIP3    H2 6010   6.700   6.790   2.705 -0.1375  0.1082 -0.3401
 2023TIP3   OH2 6011   0.405   5.238   1.368  0.9519  0.6933 -0.0848
 2023TIP3    H1 6012   0.322   5.207   1.403  0.7505 -0.1401 -1.2253
 2023TIP3    H2 6013   0.437   5.301   1.433 -0.1261  0.3590  0.7998
 2024TIP3   OH2 6014   4.046   6.190   5.992 -0.0757 -0.1573 -0.3896
 2024TIP3    H1 6015   4.057   6.180   6.087  0.7312  0.5727 -0.3948
 2024TIP3    H2 6016   4.022   6.102   5.962  2.2657 -1.0835  0.1576
 2025TIP3   OH2 6017   1.341   1.782   5.165 -0.1169 -0.2547 -0.7278
 2025TIP3    H1 6018   1.397   1.788   5.242 -0.1421  2.1214 -0.8259
 2025TIP3    H2 6019   1.396   1.743   5.097  0.8501  0.3868 -0.3243
 2026TIP3   OH2 6020   5.262   3.056   5.174 -0.2514 -0.0124  0.4975
 2026TIP3    H1 6021   5.326   3.104   5.120  1.0377 -0.6742  1.3679
 2026TIP3    H2 6022   5.189   3.040   5.115 -0.5891  2.6470  0.0600
 2027TIP3   OH2 6023   3.086   1.604   4.138  0.1636 -0.5258  0.5250
 2027TIP3    H1 6024   3.048   1.678   4.186  0.3854  0.0192 -0.1326
 2027TIP3    H2 6025   3.023   1.533   4.150 -0.8689  0.2453 -0.2104
 2028TIP3   OH2 6026   8.038   3.594   0.195 -0.1094 -0.4490 -0.1601
 2028TIP3    H1 6027   8.030   3.590   0.100  0.2779 -1.7256 -0.1547
 2028TIP3    H2 6028   8.023   3.504   0.225  1.6162 -0.4571  0.8311
 2029TIP3   OH2 6029   3.223   4.589   3.011  0.0846  0.5352  0.0648
 2029TIP3    H1 6030   3.284   4.597   2.937 -1.0387  1.8038 -0.7637
 2029TIP3    H2 6031   3.154   4.531   2.978 -0.8200  1.7273 -0.1741
 2030TIP3   OH2 6032   6.736   0.776   0.286 -0.7491  0.1847 -0.5072
 2030TIP3    H1 6033   6.759   0.852   0.339  0.7749 -0.5103 -0.1203
 2030TIP3    H2 6034   6.665   0.733   0.335 -0.9699  0.8261 -0.2494
 2031TIP3   OH2 6035   3.050   5.685   2.913  0.1150 -0.2325 -0.0351
 2031TIP3    H1 6036   3.044   5.696   2.818  0.5989 -0.2076 -0.0632
 2031TIP3    H2 6037   2.979   5.740   2.947 -0.4919 -0.7657 -0.4114
 2032TIP3   OH2 6038   5.105   7.439   4.155  0.4716  0.2892 -0.8438
 2032TIP3    H1 6039   5.025   7.491   4.160  0.6393  0.5645 -1.0403
 2032TIP3    H2 6040   5.076   7.349   4.173  0.6292  0.8225  2.7826
 2033TIP3   OH2 6041   7.564   1.688   2.122  0.2048  0.2407  0.1399
 2033TIP3    H1 6042   7.557   1.745   2.199  0.3226  1.2471 -0.5730
 2033TIP3    H2 6043   7.478   1.692   2.081 -0.0291 -0.7427  0.5195
 2034TIP3   OH2 6044   3.635   4.794   5.840 -0.7673  0.0066  0.0889
 2034TIP3    H1 6045   3.585   4.770   5.762 -0.5631 -1.3042  0.3357
 2034TIP3    H2 6046   3.627   4.718   5.897 -0.8497  0.9151  1.3268
 2035TIP3   OH2 6047   8.047   3.096   4.921  0.4589  0.0806 -0.2321
 2035TIP3    H1 6048   8.096   3.023   4.960  0.6999  1.9625  3.3713
 2035TIP3    H2 6049   7.957   3.084   4.953  0.0955  0.4018 -1.1067
 2036TIP3   OH2 6050   1.137   0.292   0.332 -0.0051  0.3521 -0.4616
 2036TIP3    H1 6051   1.163   0.286   0.240 -2.5268  1.6191 -1.3472
 2036TIP3    H2 6052   1.119   0.385   0.346 -0.3505  0.0711  1.1167
 2037TIP3   OH2 6053   7.024   3.060   1.054  0.4144 -0.0815 -0.1350
 2037TIP3    H1 6054   7.045   3.004   0.980 -1.8334 -0.1111 -0.8231
 2037TIP3    H2 6055   6.979   3.136   1.015  0.2631  0.4843  1.0791
 2038TIP3   OH2 6056   5.045   6.284   5.439 -0.3386  0.2337 -0.4093
 2038TIP3    H1 6057   4.961   6.271   5.396  0.1764 -1.0864 -1.0677
 2038TIP3    H2 6058   5.109   6.240   5.383  0.4916 -0.7257  1.1805
 2039TIP3   OH2 6059   3.250   7.574   2.870  0.3262 -0.5038 -0.3142
 2039TIP3    H1 6060   3.198   7.644   2.831 -0.8671 -1.2159 -0.0355
 2039TIP3    H2 6061   3.316   7.619   2.922 -1.2932  0.4295  1.0047
 2040TIP3   OH2 6062   2.988   3.129   3.271  0.3210  0.5361  0.7791
 2040TIP3    H1 6063   2.948   3.055   3.226  0.0294  0.2601  1.4716
 2040TIP3    H2 6064   3.019   3.093   3.354  0.7980  1.0448  0.8299
 2041TIP3   OH2 6065   7.707   5.123   3.744 -0.0699 -0.4337 -0.3951
 2041TIP3    H1 6066   7.799   5.095   3.737 -0.1319 -1.4224  1.8379
 2041TIP3    H2 6067   7.657   5.049   3.708 -0.0314 -0.7488  0.1795
 2042TIP3   OH2 6068   2.940   5.467   3.254 -0.1693 -0.0751  0.3564
 2042TIP3    H1 6069   2.975   5.382   3.227 -1.4435 -0.0535 -1.5056
 2042TIP3    H2 6070   2.862   5.479   3.200 -0.4259  1.9657  1.1127
 2043TIP3   OH2 6071   5.523   0.563   1.035  0.4596  0.4405  0.4551
 2043TIP3    H1 6072   5.572   0.620   1.095 -0.3596  0.9576  0.6460
 2043TIP3    H2 6073   5.467   0.623   0.986 -1.9769 -0.3407  2.1065
 2044TIP3   OH2 6074   4.238   5.326   2.170  0.2863  0.1921 -0.5693
 2044TIP3    H1 6075   4.194   5.339   2.086 -1.7389 -1.1955  0.1891
 2044TIP3    H2 6076   4.323   5.290   2.147  0.6593  1.8888 -2.0739
 2045TIP3   OH2 6077   5.732   7.764   5.419 -0.0072 -0.5927  0.1564
 2045TIP3    H1 6078   5.751   7.841   5.366  0.2499  0.0089  1.0906
 2045TIP3    H2 6079   5.784   7.776   5.498 -0.0672 -1.6697  0.3752
 2046TIP3   OH2 6080   0.836   7.603   1.279 -0.2072  0.1941 -0.0929
 2046TIP3    H1 6081   0.859   7.607   1.371  0.2227  0.3228 -0.2047
 2046TIP3    H2 6082   0.740   7.603   1.278 -0.2109  0.2084  0.3502
 2047TIP3   OH2 6083   3.766   2.930   5.069 -0.5708 -0.4009 -0.4915
 2047TIP3    H1 6084   3.708   2.943   5.144 -0.1535  0.0249 -0.2366
 2047TIP3    H2 6085   3.831   3.000   5.077  0.8275 -1.6967  0.0401
 2048TIP3   OH2 6086   2.407   4.841   3.566 -0.0552  0.2066  0.4080
 2048TIP3    H1 6087   2.494   4.831   3.527  0.0566  0.8726  0.4830
 2048TIP3    H2 6088   2.348   4.846   3.491 -0.1989 -1.5891  0.3598
 2049TIP3   OH2 6089   3.445   0.059   0.075 -0.1587  0.2633 -0.1393
 2049TIP3    H1 6090   3.498   0.002   0.130  0.0042 -0.3376 -0.8963
 2049TIP3    H2 6091   3.362   0.011   0.065 -0.5098  0.7698  0.2843
 2050TIP3   OH2 6092   6.884   0.160   1.791 -0.4554  0.3894  0.0646
 2050TIP3    H1 6093   6.950   0.227   1.807 -1.0754  1.0146  0.0709
 2050TIP3    H2 6094   6.810   0.186   1.847 -0.7770 -0.1776 -0.0942
 2051TIP3   OH2 6095   4.509   2.221   5.685  0.4401  0.2804 -0.2994
 2051TIP3    H1 6096   4.488   2.142   5.734  1.2341  0.0199 -0.3567
 2051TIP3    H2 6097   4.459   2.212   5.603  0.8274 -0.3679 -0.4778
 2052TIP3   OH2 6098   6.395   7.151   1.364 -0.7961 -0.2866 -0.0021
 2052TIP3    H1 6099   6.436   7.065   1.360  0.2097  0.0908  1.4013
 2052TIP3    H2 6100   6.466   7.213   1.343 -1.7560  0.2008 -2.1166
 2053TIP3   OH2 6101   4.906   4.952   0.710 -0.0895 -0.6362  0.3583
 2053TIP3    H1 6102   4.916   4.929   0.618 -0.4261  1.2327 -0.1880
 2053TIP3    H2 6103   4.868   5.039   0.709  1.8594  0.3475  2.2298
 2054TIP3   OH2 6104   3.745   4.823   3.278 -0.1204 -0.0539  0.7397
 2054TIP3    H1 6105   3.776   4.762   3.345  1.6548  2.3453  2.2669
 2054TIP3    H2 6106   3.821   4.879   3.260 -1.3774  1.1229 -1.2980
 2055TIP3   OH2 6107   8.010   7.773   2.370  0.1409 -0.5542 -0.0259
 2055TIP3    H1 6108   8.004   7.751   2.277 -0.5626 -1.0773  0.1334
 2055TIP3    H2 6109   8.091   7.823   2.378 -0.7716  1.2114 -1.2460
 2056TIP3   OH2 6110   1.947   6.842   1.803 -0.1946 -0.2034 -0.7463
 2056TIP3    H1 6111   1.942   6.825   1.709  1.4108 -0.3214 -0.8405
 2056TIP3    H2 6112   1.907   6.928   1.814 -0.2298 -0.1103 -1.5635
 2057TIP3   OH2 6113   0.273   4.410   3.624 -0.0510  0.0268  0.2855
 2057TIP3    H1 6114   0.329   4.371   3.691 -0.4094 -0.2313  0.4426
 2057TIP3    H2 6115   0.199   4.350   3.617 -0.8446  0.8981  0.8562
 2058TIP3   OH2 6116   4.135   0.378   3.297  0.2877  0.0355  0.2454
 2058TIP3    H1 6117   4.141   0.358   3.390  0.4740 -1.1742 -0.0075
 2058TIP3    H2 6118   4.139   0.293   3.254  0.8627  0.6235 -0.9063
 2059TIP3   OH2 6119   6.092   0.576   3.701  0.4513  1.1073  0.4804
 2059TIP3    H1 6120   6.090   0.571   3.606  1.2743 -1.0029  0.5118
 2059TIP3    H2 6121   6.185   0.582   3.723  0.3672  0.1175  1.1702
 2060TIP3   OH2 6122   1.658   4.780   1.984 -0.1893 -0.2399 -0.1394
 2060TIP3    H1 6123   1.630   4.847   1.922  0.4220  1.6399  1.5028
 2060TIP3    H2 6124   1.644   4.698   1.938 -0.1748  1.0222 -2.5696
 2061TIP3   OH2 6125   4.023   4.780   1.875  0.2182  0.1738 -0.4754
 2061TIP3    H1 6126   4.041   4.859   1.926  1.9523 -0.1374 -0.5640
 2061TIP3    H2 6127   3.940   4.748   1.910 -0.1856  1.6688  0.0011
 2062TIP3   OH2 6128   1.141   7.102   2.941  0.6133 -0.0315 -0.0406
 2062TIP3    H1 6129   1.200   7.172   2.968  1.9167 -0.7716 -0.8638
 2062TIP3    H2 6130   1.177   7.070   2.858 -1.4650  0.0698 -1.0565
 2063TIP3   OH2 6131   7.654   6.342   3.228  0.2597  0.7146 -0.0806
 2063TIP3    H1 6132   7.681   6.433   3.229  0.5011  0.6396  0.5312
 2063TIP3    H2 6133   7.730   6.294   3.196  0.0473  0.7461 -0.6543
 2064TIP3   OH2 6134   0.611   3.667   1.818 -0.7292 -0.0677  0.2002
 2064TIP3    H1 6135   0.518   3.654   1.837 -1.1731  0.5247 -1.4019
 2064TIP3    H2 6136   0.638   3.586   1.775 -0.2361 -0.6194  1.5033
 2065TIP3   OH2 6137   5.981   5.655   5.346  0.1319 -1.2753 -0.4155
 2065TIP3    H1 6138   6.027   5.734   5.374 -0.9488 -1.0567  0.8106
 2065TIP3    H2 6139   6.003   5.646   5.253  1.5981 -0.4750 -0.1778
 2066TIP3   OH2 6140   1.049   1.156   0.298  0.2233 -0.3724 -0.4600
 2066TIP3    H1 6141   1.027   1.220   0.365 -2.2818 -0.4327 -1.1457
 2066TIP3    H2 6142   1.095   1.086   0.345  1.3450  1.0149  0.6021
 2067TIP3   OH2 6143   7.438   2.919   5.812  0.3350  0.4491  0.2308
 2067TIP3    H1 6144   7.373   2.989   5.807  0.6747  0.8402  1.1325
 2067TIP3    H2 6145   7.407   2.853   5.750 -0.5003  0.9729  0.0784
 2068TIP3   OH2 6146   6.879   7.424   2.279  0.2750  0.1021  0.1156
 2068TIP3    H1 6147   6.953   7.412   2.338  1.6707 -0.9292 -1.7577
 2068TIP3    H2 6148   6.844   7.336   2.266  0.1297  0.2737 -0.7456
 2069TIP3   OH2 6149   2.728   0.588   5.120 -0.2207 -0.0990  0.5624
 2069TIP3    H1 6150   2.709   0.500   5.088 -1.5362  0.4587 -0.2976
 2069TIP3    H2 6151   2.692   0.589   5.209 -1.7393  0.0385 -0.0111
 2070TIP3   OH2 6152   6.320   2.502   2.081 -0.5386  0.4490 -0.1036
 2070TIP3    H1 6153   6.357   2.469   2.163 -0.8567  0.5824  0.0999
 2070TIP3    H2 6154   6.391   2.550   2.040 -0.3177  0.2137  0.0017
 2071TIP3   OH2 6155   4.586   2.144   4.378 -0.2310 -0.1697 -0.2090
 2071TIP3    H1 6156   4.594   2.156   4.283  0.7064 -2.5055 -0.4746
 2071TIP3    H2 6157   4.662   2.189   4.414  0.2867 -0.6357 -0.7043
 2072TIP3   OH2 6158   5.149   6.252   3.779  0.0591  0.2903 -0.5956
 2072TIP3    H1 6159   5.206   6.232   3.853 -0.3630 -0.5417 -0.4787
 2072TIP3    H2 6160   5.060   6.241   3.814 -0.1515  0.3266 -1.1099
 2073TIP3   OH2 6161   6.079   0.205   3.735  0.3804  0.0277 -0.0337
 2073TIP3    H1 6162   6.085   0.158   3.818  1.3424 -0.4247 -0.3473
 2073TIP3    H2 6163   5.985   0.215   3.720  0.1583 -1.4529  0.2383
 2074TIP3   OH2 6164   3.078   1.963   0.925 -0.0198  0.0125  0.1734
 2074TIP3    H1 6165   3.147   2.026   0.948  0.0999  0.0497 -0.2804
 2074TIP3    H2 6166   3.000   1.996   0.970 -0.0182  0.6317 -0.2659
 2075TIP3   OH2 6167   2.391   3.286   3.774 -0.3636  0.6273 -0.5152
 2075TIP3    H1 6168   2.455   3.218   3.752 -0.7579  0.4806 -1.2340
 2075TIP3    H2 6169   2.413   3.311   3.863 -0.8137 -1.1532  0.1458
 2076TIP3   OH2 6170   5.161   6.257   1.404  0.0199  0.4181  0.4092
 2076TIP3    H1 6171   5.153   6.313   1.327 -1.0406 -1.5387 -0.9874
 2076TIP3    H2 6172   5.234   6.198   1.383  0.8470  0.9511  1.6714
 2077TIP3   OH2 6173   8.073   5.682   4.302  0.9847  0.2693 -0.1469
 2077TIP3    H1 6174   7.985   5.719   4.318  0.7516 -0.1510 -0.4513
 2077TIP3    H2 6175   8.087   5.694   4.208  0.4914 -1.2947 -0.4476
 2078TIP3   OH2 6176   3.014   3.857   1.317 -0.1451  0.0887 -0.4126
 2078TIP3    H1 6177   2.963   3.807   1.254 -0.0800 -0.9132  0.3090
 2078TIP3    H2 6178   3.034   3.939   1.273 -0.7750 -0.2814 -1.3928
 2079TIP3   OH2 6179   3.664   6.955   6.063 -0.4008 -0.3206  0.2662
 2079TIP3    H1 6180   3.722   6.896   6.112  2.2280  3.2652  1.8939
 2079TIP3    H2 6181   3.583   6.956   6.114 -0.2739 -1.9545  0.5573
 2080TIP3   OH2 6182   4.495   3.684   5.150 -0.3137  0.0500  0.3202
 2080TIP3    H1 6183   4.566   3.712   5.207 -0.7541  1.3532  0.2668
 2080TIP3    H2 6184   4.532   3.687   5.062  0.0335 -0.8512  0.4338
 2081TIP3   OH2 6185   2.581   1.308   5.737 -0.1694  0.3764  0.4199
 2081TIP3    H1 6186   2.532   1.230   5.764 -2.4221  1.7760  0.7148
 2081TIP3    H2 6187   2.636   1.329   5.812  0.3129 -0.8086  0.4083
 2082TIP3   OH2 6188   5.309   6.382   0.545  0.6539  0.3847 -0.0617
 2082TIP3    H1 6189   5.354   6.311   0.499 -0.0175  0.2033 -0.4609
 2082TIP3    H2 6190   5.257   6.338   0.612 -0.7597  0.3572 -1.1310
 2083TIP3   OH2 6191   5.283   3.091   5.457  0.3196  0.4689 -0.0901
 2083TIP3    H1 6192   5.201   3.048   5.435  0.0997  0.2324  1.1501
 2083TIP3    H2 6193   5.321   3.113   5.372 -1.1346  0.8120 -0.6909
 2084TIP3   OH2 6194   1.339   6.372   3.826 -0.0277  0.0102  0.3581
 2084TIP3    H1 6195   1.281   6.378   3.750 -0.4066  0.2278  0.6585
 2084TIP3    H2 6196   1.279   6.361   3.900  0.3820 -1.5823  0.4815
 2085TIP3   OH2 6197   1.203   2.335   0.860  0.1846  0.2587 -0.0575
 2085TIP3    H1 6198   1.228   2.398   0.928 -2.1787  0.3034  0.8766
 2085TIP3    H2 6199   1.171   2.390   0.788  0.8910  0.1760 -0.4352
 2086TIP3   OH2 6200   7.543   1.261   6.247 -0.0375  0.0752 -0.0209
 2086TIP3    H1 6201   7.634   1.288   6.235  0.0194 -0.0604  0.1043
 2086TIP3    H2 6202   7.498   1.294   6.169  0.3132 -0.7127 -0.5717
 2087TIP3   OH2 6203   0.876   5.403   4.379  0.0203  0.3067  0.0458
 2087TIP3    H1 6204   0.805   5.457   4.412 -1.6718 -0.2508 -2.4106
 2087TIP3    H2 6205   0.856   5.315   4.409 -1.5357 -0.2061 -2.2558
 2088TIP3   OH2 6206   3.183   5.576   3.177  0.1095 -0.3075  0.4394
 2088TIP3    H1 6207   3.106   5.553   3.230  0.0028 -0.9244  0.0304
 2088TIP3    H2 6208   3.247   5.508   3.198  0.8938  0.7152  1.4743
 2089TIP3   OH2 6209   3.241   2.598   4.883 -0.4704 -0.3541  0.4527
 2089TIP3    H1 6210   3.305   2.667   4.901  0.6361 -0.9561 -1.0201
 2089TIP3    H2 6211   3.156   2.643   4.890  0.0846  0.5280  2.0948
 2090TIP3   OH2 6212   4.648   6.950   1.197  0.2401  0.4946 -0.1675
 2090TIP3    H1 6213   4.647   6.882   1.130  0.5079 -0.7395  1.0395
 2090TIP3    H2 6214   4.740   6.972   1.208  0.1305  1.3079 -0.7780
 2091TIP3   OH2 6215   5.562   5.914   5.569 -0.7213 -0.3949 -0.4211
 2091TIP3    H1 6216   5.627   5.848   5.590  0.5371  1.3319  1.4301
 2091TIP3    H2 6217   5.600   5.962   5.495 -1.6224 -1.6041 -1.7470
 2092TIP3   OH2 6218   0.315   3.607   2.225  0.7886 -0.7303  0.0589
 2092TIP3    H1 6219   0.224   3.589   2.247  0.6510 -1.4472 -1.0518
 2092TIP3    H2 6220   0.364   3.540   2.272  0.5236 -2.0102 -1.4221
 2093TIP3   OH2 6221   4.267   6.530   1.576 -0.0259  0.5346  0.0913
 2093TIP3    H1 6222   4.212   6.461   1.540 -1.6193  0.8932  1.6953
 2093TIP3    H2 6223   4.325   6.485   1.638  0.7006  0.3133 -0.7390
 2094TIP3   OH2 6224   2.636   2.333   6.523 -0.6377 -0.0042 -0.4443
 2094TIP3    H1 6225   2.580   2.332   6.601  1.0225  1.6038  0.8824
 2094TIP3    H2 6226   2.578   2.360   6.452 -1.4384  2.6055  1.0546
 2095TIP3   OH2 6227   4.851   5.603   1.381 -0.1097 -0.4867 -0.3008
 2095TIP3    H1 6228   4.794   5.587   1.306 -0.2326 -0.4193 -0.2207
 2095TIP3    H2 6229   4.863   5.698   1.383  3.4824 -0.6361 -2.9400
 2096TIP3   OH2 6230   0.868   2.104   3.003  0.0206  0.4729 -0.1762
 2096TIP3    H1 6231   0.938   2.136   2.946 -0.4544  1.3097 -0.3200
 2096TIP3    H2 6232   0.799   2.077   2.942 -0.8650  2.2343 -0.0449
 2097TIP3   OH2 6233   0.963   6.532   4.645  0.3876  0.6882 -0.7734
 2097TIP3    H1 6234   0.945   6.450   4.689  1.0344  1.0048  0.1226
 2097TIP3    H2 6235   0.993   6.506   4.557  1.4592 -0.0876 -0.2030
 2098TIP3   OH2 6236   5.225   3.412   2.575  0.3498 -0.7529  0.5566
 2098TIP3    H1 6237   5.193   3.419   2.665  0.9885 -2.4955  0.9710
 2098TIP3    H2 6238   5.180   3.335   2.540 -1.0772  0.7975 -1.1892
 2099TIP3   OH2 6239   2.725   2.779   4.733  0.4929  0.9912  0.2112
 2099TIP3    H1 6240   2.700   2.870   4.747 -1.1389  0.4433  1.1353
 2099TIP3    H2 6241   2.741   2.773   4.639  0.5144  2.1899  0.1159
 2100TIP3   OH2 6242   7.635   0.713   6.190  0.3063 -0.0216 -0.8487
 2100TIP3    H1 6243   7.686   0.686   6.114 -0.1408 -0.8566 -0.8585
 2100TIP3    H2 6244   7.701   0.730   6.258  0.5878 -2.4588 -0.4229
 2101TIP3   OH2 6245   7.098   2.642   5.949 -0.3641 -0.0986 -0.1666
 2101TIP3    H1 6246   7.148   2.683   5.878  1.0605 -1.1710  0.1793
 2101TIP3    H2 6247   7.059   2.716   5.996  0.5589  0.7583 -0.6974
 2102TIP3   OH2 6248   0.539   7.485   3.862  0.2913  0.4556  0.0485
 2102TIP3    H1 6249   0.613   7.489   3.801 -0.7738  1.1866 -1.2470
 2102TIP3    H2 6250   0.537   7.395   3.892  2.0122  0.5389  0.5032
 2103TIP3   OH2 6251   2.946   5.172   3.466 -0.3187  0.2479 -0.0233
 2103TIP3    H1 6252   2.888   5.235   3.507 -0.0490  1.8951 -1.9939
 2103TIP3    H2 6253   2.964   5.209   3.379  2.2759 -1.0513 -0.1417
 2104TIP3   OH2 6254   3.883   6.835   4.400 -0.0591 -0.4473 -0.5533
 2104TIP3    H1 6255   3.826   6.897   4.446  1.6025 -0.1095  1.1950
 2104TIP3    H2 6256   3.823   6.773   4.359 -1.7052  0.2157  0.7405
 2105TIP3   OH2 6257   3.895   2.877   2.546 -0.1264 -0.3300  0.0933
 2105TIP3    H1 6258   3.925   2.786   2.551  1.0844  0.0847  0.6699
 2105TIP3    H2 6259   3.974   2.927   2.527 -0.7017  0.6639  0.2727
 2106TIP3   OH2 6260   4.094   0.849   3.529  0.0372 -0.1319 -0.3134
 2106TIP3    H1 6261   4.124   0.788   3.596 -0.3667  1.5289  1.4521
 2106TIP3    H2 6262   4.063   0.792   3.458 -0.0517 -1.9733  1.1051
 2107TIP3   OH2 6263   7.503   1.007   6.461  0.3968 -0.9047  0.2511
 2107TIP3    H1 6264   7.577   0.947   6.453  0.2565 -1.2348  1.2431
 2107TIP3    H2 6265   7.482   1.006   6.555 -1.2933 -1.3426 -0.1024
 2108TIP3   OH2 6266   0.642   3.436   0.524 -0.3201 -0.2937 -0.2307
 2108TIP3    H1 6267   0.711   3.494   0.556 -0.4755  0.8135 -1.7971
 2108TIP3    H2 6268   0.567   3.494   0.507 -1.0217 -1.1948 -0.3101
 2109TIP3   OH2 6269   0.216   6.889   2.546  0.1605  0.4254  0.1997
 2109TIP3    H1 6270   0.297   6.911   2.591 -0.7707 -0.1276  2.2913
 2109TIP3    H2 6271   0.148   6.903   2.612 -1.3307 -0.1933 -1.1460
 2110TIP3   OH2 6272   2.202   1.628   0.372 -0.7924  0.0067 -0.3668
 2110TIP3    H1 6273   2.275   1.621   0.309  0.2211 -0.5138  0.8271
 2110TIP3    H2 6274   2.245   1.631   0.457 -2.2404 -3.4879  0.6474
 2111TIP3   OH2 6275   4.122   6.687   1.047 -0.2174 -0.4466  0.1107
 2111TIP3    H1 6276   4.057   6.752   1.020 -1.2474 -1.7056 -0.5558
 2111TIP3    H2 6277   4.196   6.700   0.987 -0.3075  0.2598  0.1450
 2112TIP3   OH2 6278   1.030   1.285   6.026  0.5563  0.0624 -0.4468
 2112TIP3    H1 6279   1.012   1.378   6.039  1.1466  0.6007 -3.0036
 2112TIP3    H2 6280   0.944   1.243   6.028  0.2837  0.6266  0.6852
 2113TIP3   OH2 6281   0.316   5.644   0.004  0.0926  0.0160 -0.0730
 2113TIP3    H1 6282   0.323   5.649   0.100 -0.1755 -0.8189  0.0039
 2113TIP3    H2 6283   0.277   5.558  -0.012  0.9050 -0.1981 -0.9732
 2114TIP3   OH2 6284   2.012   4.564   4.895  0.0684  0.1182 -0.0007
 2114TIP3    H1 6285   2.008   4.527   4.806  2.5518  0.4475 -0.3177
 2114TIP3    H2 6286   2.013   4.659   4.881  1.2839  0.1650  0.2771
 2115TIP3   OH2 6287   2.718   4.679   4.989  0.0451 -0.2127  0.5539
 2115TIP3    H1 6288   2.807   4.678   4.954  0.3216 -2.1085  1.1795
 2115TIP3    H2 6289   2.662   4.684   4.911  0.6724  0.6121  0.1379
 2116TIP3   OH2 6290   5.114   2.449   6.215  0.4472  0.4373 -0.3953
 2116TIP3    H1 6291   5.111   2.381   6.148  0.6872  1.5884 -1.6237
 2116TIP3    H2 6292   5.025   2.486   6.216  0.5328  0.6447 -0.3201
 2117TIP3   OH2 6293   1.032   7.704   3.746  0.0504  0.0687 -0.4097
 2117TIP3    H1 6294   1.090   7.662   3.682 -0.0883 -0.0946 -0.4289
 2117TIP3    H2 6295   1.091   7.750   3.804  0.1813  0.1775 -0.6277
 2118TIP3   OH2 6296   5.837   4.562   3.401  0.3615 -0.4195  0.2089
 2118TIP3    H1 6297   5.877   4.530   3.321 -0.6264  2.0594 -1.4055
 2118TIP3    H2 6298   5.756   4.511   3.410  0.4543 -0.6744 -0.4050
 2119TIP3   OH2 6299   1.561   0.472   5.160 -0.1132 -0.0230 -0.3612
 2119TIP3    H1 6300   1.538   0.391   5.114 -0.5654  1.1515 -2.3109
 2119TIP3    H2 6301   1.480   0.499   5.203  0.1271 -0.7488  0.5894
 2120TIP3   OH2 6302   0.033   1.763   5.247  0.2546 -0.4222  0.0788
 2120TIP3    H1 6303   0.044   1.855   5.221  0.5911 -0.3336  0.5238
 2120TIP3    H2 6304   0.095   1.751   5.319 -1.5135 -0.3189  1.6920
 2121TIP3   OH2 6305   0.890   4.911   0.333  0.2516 -0.3920 -0.4417
 2121TIP3    H1 6306   0.857   4.830   0.373  2.6243  0.3631  3.5385
 2121TIP3    H2 6307   0.813   4.967   0.326 -0.8855 -1.8752 -0.3621
 2122TIP3   OH2 6308   1.066   2.328   2.318  0.3110  0.1412  0.1534
 2122TIP3    H1 6309   0.989   2.384   2.304 -0.1085  0.2058  2.3443
 2122TIP3    H2 6310   1.138   2.376   2.276 -0.4191  1.2591  0.1143
 2123TIP3   OH2 6311   5.009   7.814   6.003 -0.0717  0.2387  0.6823
 2123TIP3    H1 6312   4.977   7.732   6.041  1.2235 -0.4706  0.2888
 2123TIP3    H2 6313   5.083   7.788   5.948  0.3610  1.6790  0.5430
 2124TIP3   OH2 6314   6.309   4.263   4.403 -0.0412  0.4311 -0.3844
 2124TIP3    H1 6315   6.308   4.173   4.435  0.8519  0.4409 -0.3080
 2124TIP3    H2 6316   6.293   4.316   4.482  1.8500  0.4414  0.0323
 2125TIP3   OH2 6317   3.551   2.544   6.617  0.8487 -0.0715  0.1651
 2125TIP3    H1 6318   3.623   2.497   6.576 -0.8445 -1.6658 -1.0883
 2125TIP3    H2 6319   3.558   2.633   6.582  1.1168 -0.6811 -1.4119
 2126TIP3   OH2 6320   2.629   5.810   5.507  0.4327  0.2835  0.5130
 2126TIP3    H1 6321   2.543   5.808   5.467  0.6195  0.4830  0.1020
 2126TIP3    H2 6322   2.670   5.890   5.474  1.1473 -0.3107 -0.0825
 2127TIP3   OH2 6323   0.703   1.429   2.636 -0.5300  0.0822  0.5355
 2127TIP3    H1 6324   0.689   1.462   2.724 -0.8027 -1.7195  1.1925
 2127TIP3    H2 6325   0.778   1.371   2.643  0.5015  1.1929 -0.7791
 2128TIP3   OH2 6326   1.858   7.836   0.965  0.4252 -0.9556  0.0337
 2128TIP3    H1 6327   1.848   7.822   1.059  0.8534 -0.9769  0.0768
 2128TIP3    H2 6328   1.867   7.748   0.928 -0.3408 -0.9841 -0.1011
 2129TIP3   OH2 6329   3.625   0.106   3.743 -0.0689 -0.3763 -0.3137
 2129TIP3    H1 6330   3.678   0.185   3.753 -1.4729  0.5713  0.0005
 2129TIP3    H2 6331   3.688   0.034   3.749  1.1777  0.6882 -0.0486
 2130TIP3   OH2 6332   6.791   2.739   4.461  0.2718  0.3781 -0.9658
 2130TIP3    H1 6333   6.784   2.720   4.554  1.8946 -1.1340 -1.1026
 2130TIP3    H2 6334   6.742   2.670   4.418  0.5803  0.3429 -1.2698
 2131TIP3   OH2 6335   0.173   2.471   5.385  0.3809 -0.2961 -0.3715
 2131TIP3    H1 6336   0.156   2.411   5.312  2.0091 -1.2661 -0.0046
 2131TIP3    H2 6337   0.236   2.533   5.350 -0.2995  0.4243 -0.3457
 2132TIP3   OH2 6338   2.565   7.074   1.947  0.3845 -0.0323 -0.3523
 2132TIP3    H1 6339   2.510   7.152   1.950  0.2790 -0.1202  2.0126
 2132TIP3    H2 6340   2.531   7.018   2.016  2.1059 -1.0224 -0.2354
 2133TIP3   OH2 6341   3.243   1.452   0.162 -0.1268 -0.6723 -0.1860
 2133TIP3    H1 6342   3.217   1.370   0.204 -0.0231 -0.3254  0.5811
 2133TIP3    H2 6343   3.325   1.475   0.205 -1.1398  0.8477  1.0719
 2134TIP3   OH2 6344   0.133   2.217   5.012  0.3159 -0.1517  0.5538
 2134TIP3    H1 6345   0.174   2.131   5.011  1.8867  0.5512  1.3811
 2134TIP3    H2 6346   0.096   2.227   4.924  1.3444 -1.0987 -0.0133
 2135TIP3   OH2 6347   8.135   1.787   2.562  0.3659 -0.1530  0.2846
 2135TIP3    H1 6348   8.088   1.736   2.627 -0.0894 -0.9849 -0.6687
 2135TIP3    H2 6349   8.180   1.721   2.508 -0.0399  0.4529 -0.8186
 2136TIP3   OH2 6350   6.662   6.933   4.986  0.2127 -0.5732  0.4580
 2136TIP3    H1 6351   6.686   7.001   4.923 -0.2238 -0.9383 -0.1051
 2136TIP3    H2 6352   6.672   6.976   5.071 -1.1470  0.5797  0.0889
 2137TIP3   OH2 6353   7.460   1.041   3.290  0.3866 -0.0666  0.0197
 2137TIP3    H1 6354   7.417   1.081   3.366 -0.8801  2.2440 -1.7832
 2137TIP3    H2 6355   7.450   0.947   3.304 -2.4561  0.3116  1.3057
 2138TIP3   OH2 6356   3.408   7.085   6.127 -0.2616  0.2205 -0.7582
 2138TIP3    H1 6357   3.383   7.106   6.037 -1.2551 -0.7585 -0.7309
 2138TIP3    H2 6358   3.479   7.147   6.147 -1.0206  1.4523 -1.6982
 2139TIP3   OH2 6359   2.190   6.972   1.982 -0.3212  0.9068  0.0156
 2139TIP3    H1 6360   2.143   6.949   1.901 -1.7740  0.3266  0.9873
 2139TIP3    H2 6361   2.188   7.068   1.984  1.5828  1.0362 -1.6682
 2140TIP3   OH2 6362   6.703   6.529   2.824 -0.1165  0.1921  0.4567
 2140TIP3    H1 6363   6.618   6.486   2.814 -1.0173  1.7769  1.0079
 2140TIP3    H2 6364   6.724   6.563   2.737 -0.6700  0.8917  0.5899
 2141TIP3   OH2 6365   4.400   2.543   2.106 -0.8405 -0.3393 -0.4810
 2141TIP3    H1 6366   4.409   2.567   2.014  1.5270  0.0079 -0.2102
 2141TIP3    H2 6367   4.348   2.613   2.144 -0.6082  0.2811 -1.2738
 2142TIP3   OH2 6368   6.807   2.247   5.341  0.0959 -0.4563 -0.4330
 2142TIP3    H1 6369   6.802   2.152   5.344 -0.9761 -0.4397 -1.3756
 2142TIP3    H2 6370   6.886   2.268   5.392  0.3286 -1.8311 -0.1917
 2143TIP3   OH2 6371   0.309   1.466   4.109 -0.3687  0.1482 -0.2633
 2143TIP3    H1 6372   0.331   1.555   4.079  2.3221 -0.3013  0.1341
 2143TIP3    H2 6373   0.283   1.478   4.200  1.1289  0.4761  0.1611
 2144TIP3   OH2 6374   7.124   4.558   2.830 -0.1123 -0.1653 -0.0019
 2144TIP3    H1 6375   7.129   4.470   2.867  0.3133 -0.5828 -1.0356
 2144TIP3    H2 6376   7.163   4.614   2.897 -1.2000 -0.6160  1.0604
 2145TIP3   OH2 6377   7.462   7.260   2.193 -0.5284 -0.0216 -0.4125
 2145TIP3    H1 6378   7.414   7.311   2.258 -1.9188 -0.8917 -0.7251
 2145TIP3    H2 6379   7.396   7.233   2.129  0.5030 -0.6446 -1.2521
 2146TIP3   OH2 6380   1.188   7.091   1.426  0.4259  0.4077  0.0777
 2146TIP3    H1 6381   1.194   7.146   1.505 -3.1266 -1.5626  1.9973
 2146TIP3    H2 6382   1.263   7.033   1.432 -0.3406 -0.4844  2.8417
 2147TIP3   OH2 6383   0.794   1.588   5.217 -0.3489 -0.3966 -0.2891
 2147TIP3    H1 6384   0.743   1.619   5.143  0.0243 -0.0975 -0.4249
 2147TIP3    H2 6385   0.883   1.620   5.200  0.0191 -1.4030 -0.3599
 2148TIP3   OH2 6386   3.460   1.446   4.418 -0.3234 -0.2198 -0.2893
 2148TIP3    H1 6387   3.546   1.434   4.378  0.1179  1.1873  0.1799
 2148TIP3    H2 6388   3.423   1.523   4.373 -0.3487  0.6053  1.0997
 2149TIP3   OH2 6389   7.309   4.192   1.957  0.4083 -0.2138  0.2036
 2149TIP3    H1 6390   7.235   4.216   1.901 -0.2810 -1.0356  0.7555
 2149TIP3    H2 6391   7.276   4.199   2.046  0.8306 -1.1284  0.4422
 2150TIP3   OH2 6392   5.312   3.928   1.551  0.1473  0.1936 -0.3726
 2150TIP3    H1 6393   5.375   3.865   1.587 -1.0065 -1.6826 -1.4608
 2150TIP3    H2 6394   5.286   3.981   1.626 -0.0785 -1.7582  1.0192
 2151TIP3   OH2 6395   4.275   4.297   4.426  0.1730  0.1473  0.3304
 2151TIP3    H1 6396   4.273   4.273   4.333  1.7451 -1.9805  0.7770
 2151TIP3    H2 6397   4.368   4.295   4.449 -0.0456  2.3423  1.5782
 2152TIP3   OH2 6398   5.025   7.330   0.299  0.0434 -0.1638  0.2289
 2152TIP3    H1 6399   5.088   7.258   0.305 -0.6206 -0.8672 -0.8916
 2152TIP3    H2 6400   4.980   7.315   0.217 -3.1831 -1.0138  2.0024
 2153TIP3   OH2 6401   7.349   4.304   5.637 -0.0902  0.3177  0.0956
 2153TIP3    H1 6402   7.298   4.246   5.694  1.6914  0.3595  1.7994
 2153TIP3    H2 6403   7.379   4.246   5.567 -1.6007  0.0886 -0.4106
 2154TIP3   OH2 6404   6.303   1.898   1.186 -0.2754  0.3424 -0.5881
 2154TIP3    H1 6405   6.341   1.857   1.264 -1.3997  1.1092  0.4026
 2154TIP3    H2 6406   6.376   1.906   1.125  0.8492  0.5590  0.7425
 2155TIP3   OH2 6407   5.438   4.326   0.903  0.5266  0.2038  0.4700
 2155TIP3    H1 6408   5.379   4.287   0.968 -0.1159  2.1061  1.1181
 2155TIP3    H2 6409   5.379   4.369   0.841  1.1384 -1.4402 -1.3290
 2156TIP3   OH2 6410   6.524   5.627   4.556 -0.5775  0.0904  0.8176
 2156TIP3    H1 6411   6.528   5.589   4.644  0.1415 -0.5472  0.5263
 2156TIP3    H2 6412   6.615   5.651   4.537 -0.6313 -0.3082  0.0272
 2157TIP3   OH2 6413   1.879   0.452   6.190  0.1985  0.1337 -0.8094
 2157TIP3    H1 6414   1.806   0.468   6.130 -0.7092  2.2321  0.7230
 2157TIP3    H2 6415   1.927   0.535   6.192  1.1521 -0.4117  0.1376
 2158TIP3   OH2 6416   1.751   5.858   1.656  0.0411  0.0489 -0.3952
 2158TIP3    H1 6417   1.834   5.890   1.693  0.8573 -0.2536 -1.8665
 2158TIP3    H2 6418   1.750   5.894   1.567 -1.4776  0.1296 -0.3707
 2159TIP3   OH2 6419   1.834   7.129   2.846 -0.0492 -0.0780 -0.7008
 2159TIP3    H1 6420   1.892   7.155   2.775  1.1774  1.2281  0.7163
 2159TIP3    H2 6421   1.794   7.211   2.877  0.1192 -0.4795  0.6686
 2160TIP3   OH2 6422   7.034   7.487   0.578 -0.0244  0.0270  0.4460
 2160TIP3    H1 6423   7.100   7.418   0.574  1.3739  1.2401  1.5289
 2160TIP3    H2 6424   7.054   7.534   0.659 -1.4082  1.2406  0.1176
 2161TIP3   OH2 6425   7.300   0.953   2.429  0.1692 -0.3140  0.1459
 2161TIP3    H1 6426   7.219   0.984   2.468  0.8083 -0.8921  2.0555
 2161TIP3    H2 6427   7.330   1.026   2.375 -2.2037 -0.5476 -1.6504
 2162TIP3   OH2 6428   7.967   0.944   6.376  0.0456 -0.0849  0.4260
 2162TIP3    H1 6429   8.044   0.932   6.432  0.2495  2.8053  0.8798
 2162TIP3    H2 6430   8.003   0.951   6.288  0.1715 -0.0029  0.4842
 2163TIP3   OH2 6431   6.447   0.468   4.588 -0.0474  0.1622 -0.1327
 2163TIP3    H1 6432   6.402   0.539   4.541 -1.7930 -0.5937  0.3453
 2163TIP3    H2 6433   6.527   0.509   4.623 -1.1662  1.9761  0.3979
 2164TIP3   OH2 6434   1.078   5.425   4.574 -0.5061 -0.0367 -0.3388
 2164TIP3    H1 6435   1.012   5.460   4.633 -0.1473  0.4193 -0.2055
 2164TIP3    H2 6436   1.114   5.349   4.620  0.1806  0.6587  0.2932
 2165TIP3   OH2 6437   5.388   5.580   4.825 -0.5028  0.1162  0.1602
 2165TIP3    H1 6438   5.320   5.562   4.889 -2.4866  0.6893 -1.6756
 2165TIP3    H2 6439   5.412   5.672   4.840  0.7413 -0.4002  1.5372
 2166TIP3   OH2 6440   7.874   5.620   0.377  0.6255 -0.1080  0.0158
 2166TIP3    H1 6441   7.918   5.535   0.366  0.2442 -0.2446 -0.5249
 2166TIP3    H2 6442   7.900   5.670   0.299 -0.7494 -0.4620 -0.7109
 2167TIP3   OH2 6443   5.238   7.148   6.221 -0.4217 -0.1198 -0.4236
 2167TIP3    H1 6444   5.333   7.145   6.232 -0.5294  1.3105  1.3852
 2167TIP3    H2 6445   5.205   7.079   6.278 -0.5096 -0.1259 -0.4810
 2168TIP3   OH2 6446   1.040   7.260   4.563  0.4606  0.3035 -0.7502
 2168TIP3    H1 6447   1.053   7.354   4.558  0.0102  0.5202  1.3163
 2168TIP3    H2 6448   0.958   7.249   4.611  2.0263 -1.0640  1.8991
 2169TIP3   OH2 6449   0.418   6.020   2.665  0.6049  0.2370 -0.4412
 2169TIP3    H1 6450   0.343   5.960   2.666  0.3365  0.5449 -1.4702
 2169TIP3    H2 6451   0.428   6.046   2.757  1.3964 -2.1580  0.2063
 2170TIP3   OH2 6452   5.461   6.869   6.197 -0.7212 -0.4444 -0.0921
 2170TIP3    H1 6453   5.473   6.891   6.104 -1.2832 -0.2720 -0.1268
 2170TIP3    H2 6454   5.458   6.954   6.241 -0.3747 -0.5287  0.0966
 2171TIP3   OH2 6455   5.531   4.873   1.634  0.1030  0.0264  0.3318
 2171TIP3    H1 6456   5.448   4.828   1.651 -0.2585  0.1493 -0.9600
 2171TIP3    H2 6457   5.556   4.843   1.547  0.3521  1.5726 -0.1507
 2172TIP3   OH2 6458   0.786   4.427   3.190 -0.2139  0.5741  0.0872
 2172TIP3    H1 6459   0.845   4.361   3.226  0.3782  0.5012 -0.9668
 2172TIP3    H2 6460   0.698   4.388   3.199  0.1453 -0.4657 -0.7183
 2173TIP3   OH2 6461   4.731   6.620   0.298 -0.2632 -0.4762 -0.7956
 2173TIP3    H1 6462   4.718   6.633   0.392 -0.5616 -2.5755 -0.5001
 2173TIP3    H2 6463   4.653   6.656   0.257 -1.0796 -1.3584 -0.0503
 2174TIP3   OH2 6464   6.381   0.773   3.164  0.0007  0.4958 -0.2450
 2174TIP3    H1 6465   6.408   0.862   3.145  0.2948  0.2707 -0.8960
 2174TIP3    H2 6466   6.285   0.776   3.161  0.0122  0.7691 -0.3563
 2175TIP3   OH2 6467   2.727   7.792   1.314 -0.3731  0.5513 -0.0005
 2175TIP3    H1 6468   2.670   7.732   1.266 -0.1598  0.8833 -0.6874
 2175TIP3    H2 6469   2.770   7.843   1.245 -0.1291  1.0981  0.5531
 2176TIP3   OH2 6470   5.947   2.591   5.408 -0.5178  0.1977 -0.0802
 2176TIP3    H1 6471   5.905   2.665   5.451 -0.7561  0.6191 -1.0062
 2176TIP3    H2 6472   5.955   2.618   5.317 -0.8196 -1.0139 -0.4863
 2177TIP3   OH2 6473   2.988   0.322   2.302 -0.2809  0.4647  0.6119
 2177TIP3    H1 6474   3.052   0.349   2.236  0.0555 -0.4459  0.5543
 2177TIP3    H2 6475   3.014   0.233   2.325 -2.9683 -0.9195 -1.2375
 2178TIP3   OH2 6476   2.082   5.067   0.835 -0.5089 -0.3087  0.3816
 2178TIP3    H1 6477   1.993   5.087   0.805 -1.0792  0.0087  2.1988
 2178TIP3    H2 6478   2.088   4.972   0.831 -0.7539 -0.3014 -0.2070
 2179TIP3   OH2 6479   3.486   0.442   6.079 -0.2670 -0.0330  0.4823
 2179TIP3    H1 6480   3.500   0.418   6.171 -0.3764 -0.3591  0.4177
 2179TIP3    H2 6481   3.574   0.460   6.045 -0.2814  0.6943  0.8084
 2180TIP3   OH2 6482   5.854   4.725   3.841  0.3487 -0.6224 -0.3291
 2180TIP3    H1 6483   5.818   4.638   3.859  0.6928 -0.7210 -0.1161
 2180TIP3    H2 6484   5.913   4.743   3.914 -1.0569  0.5509  0.5840
 2181TIP3   OH2 6485   1.957   0.896   6.762  0.1475  0.4506 -0.1836
 2181TIP3    H1 6486   2.029   0.896   6.825  1.1566 -0.6020 -1.2873
 2181TIP3    H2 6487   1.996   0.861   6.681 -1.2946  1.0404 -1.1708
 2182TIP3   OH2 6488   1.170   1.984   2.947  0.2970  0.2059 -0.2011
 2182TIP3    H1 6489   1.197   1.909   2.895  1.1250  0.4845 -0.1823
 2182TIP3    H2 6490   1.154   2.053   2.883 -1.1043 -0.1581 -0.2740
 2183TIP3   OH2 6491   5.180   7.820   2.389 -0.3731 -0.2798 -0.2133
 2183TIP3    H1 6492   5.240   7.828   2.464  1.5843 -0.5863 -1.6627
 2183TIP3    H2 6493   5.114   7.758   2.419 -0.4143  0.5959  1.7002
 2184TIP3   OH2 6494   6.452   0.060   6.054 -0.2320 -0.2574  0.1394
 2184TIP3    H1 6495   6.493   0.036   6.138 -1.7692  0.0122  1.0066
 2184TIP3    H2 6496   6.517   0.114   6.010  0.3509  0.1617  1.4704
 2185TIP3   OH2 6497   2.911   1.508   1.262  0.0475  0.2189 -0.5732
 2185TIP3    H1 6498   2.935   1.581   1.205  0.2625  1.7235  1.3207
 2185TIP3    H2 6499   2.991   1.487   1.310 -0.5623  0.3350  0.5499
 2186TIP3   OH2 6500   5.833   3.886   2.442  0.1519  0.3686 -0.4260
 2186TIP3    H1 6501   5.877   3.865   2.360 -0.5659  2.8107 -1.5068
 2186TIP3    H2 6502   5.869   3.970   2.469 -1.0660  0.5707  0.6997
 2187TIP3   OH2 6503   2.200   6.234   6.357 -0.2242 -0.5134  0.2117
 2187TIP3    H1 6504   2.139   6.281   6.413 -1.7039  0.6914 -2.2371
 2187TIP3    H2 6505   2.146   6.171   6.309  0.8879 -1.1383 -0.2712
 2188TIP3   OH2 6506   6.452   5.264   5.357  0.1099 -0.0718  0.4294
 2188TIP3    H1 6507   6.534   5.250   5.405 -1.4311 -1.1423  2.9782
 2188TIP3    H2 6508   6.443   5.187   5.301  1.1311  0.3896 -0.4052
 2189TIP3   OH2 6509   4.834   5.986   5.132  0.0015 -0.0525  0.2759
 2189TIP3    H1 6510   4.782   5.957   5.056 -0.8743  1.2543  0.3561
 2189TIP3    H2 6511   4.855   5.905   5.178  0.0824 -0.8288 -1.0626
 2190TIP3   OH2 6512   0.018   7.584   0.587 -0.5028  0.5487  0.2503
 2190TIP3    H1 6513   0.072   7.616   0.514  0.6240  0.4868  1.0266
 2190TIP3    H2 6514  -0.039   7.517   0.547  3.0046 -2.6678  0.0799
 2191TIP3   OH2 6515   6.119   3.109   0.668  0.3758 -0.3240  0.5561
 2191TIP3    H1 6516   6.184   3.142   0.606 -0.1640  0.6011  0.4734
 2191TIP3    H2 6517   6.053   3.067   0.613 -0.6540  1.4275  0.3762
 2192TIP3   OH2 6518   7.247   1.986   0.047  0.3102 -0.4874 -0.3707
 2192TIP3    H1 6519   7.179   1.928   0.081 -1.4557  1.4222 -0.4423
 2192TIP3    H2 6520   7.299   2.009   0.124 -0.7223  0.0372  0.1898
 2193TIP3   OH2 6521   4.981   5.428   3.373 -0.2980 -0.6757 -0.1052
 2193TIP3    H1 6522   5.073   5.403   3.361  0.3495  0.9939  0.9806
 2193TIP3    H2 6523   4.960   5.399   3.462 -0.0260  1.0623  0.5695
 2194TIP3   OH2 6524   4.907   1.046   0.853  0.3214  0.2925 -0.3499
 2194TIP3    H1 6525   4.839   1.003   0.802  0.4417 -0.3331  0.0020
 2194TIP3    H2 6526   4.975   1.066   0.790  1.9859 -3.4791 -0.0371
 2195TIP3   OH2 6527   6.263   5.264   1.485 -0.5783 -0.6296 -0.7701
 2195TIP3    H1 6528   6.320   5.246   1.411 -0.1853  0.3508 -0.7253
 2195TIP3    H2 6529   6.183   5.300   1.446  0.1286  1.1235 -0.6821
 2196TIP3   OH2 6530   7.212   4.980   6.080 -0.4697  0.5444  0.2406
 2196TIP3    H1 6531   7.224   5.014   5.992  2.2358  1.1270  0.7313
 2196TIP3    H2 6532   7.159   5.046   6.125  1.9602  2.6262  0.2578
 2197TIP3   OH2 6533   4.490   1.117   2.361 -0.2743 -0.3393  0.3427
 2197TIP3    H1 6534   4.471   1.099   2.453 -0.4578  1.5126  0.7213
 2197TIP3    H2 6535   4.415   1.169   2.332  1.1683  1.7128  0.0611
 2198TIP3   OH2 6536   8.076   4.534   5.452 -0.0677 -0.2802  0.1070
 2198TIP3    H1 6537   8.115   4.604   5.400  0.1536 -1.7276 -1.7608
 2198TIP3    H2 6538   8.150   4.483   5.484 -0.2521 -0.0128  1.0030
 2199TIP3   OH2 6539   5.673   2.149   0.902  0.5169 -0.1269  0.0217
 2199TIP3    H1 6540   5.705   2.229   0.943  2.0576 -0.1493 -1.0595
 2199TIP3    H2 6541   5.741   2.125   0.839  0.0193 -2.1834  0.1854
 2200TIP3   OH2 6542   3.048   0.560   4.964 -0.6074 -0.3681  0.2090
 2200TIP3    H1 6543   3.114   0.581   5.030  0.6964 -3.7600  0.2033
 2200TIP3    H2 6544   2.982   0.509   5.010 -1.4744  0.1230 -0.4598
 2201TIP3   OH2 6545   3.097   5.285   4.491  0.0904 -0.1309  0.0781
 2201TIP3    H1 6546   3.098   5.356   4.427  0.5216  0.7152  0.9850
 2201TIP3    H2 6547   3.092   5.205   4.439  3.9677  0.2815 -1.1950
 2202TIP3   OH2 6548   7.478   1.722   6.030  0.2205  0.2069  0.8464
 2202TIP3    H1 6549   7.398   1.746   5.984  1.4081  1.9430 -0.4198
 2202TIP3    H2 6550   7.448   1.681   6.111 -1.9262 -0.5767 -0.2676
 2203TIP3   OH2 6551   3.059   7.098   0.569 -0.1559 -0.0678  0.0820
 2203TIP3    H1 6552   2.971   7.112   0.604  0.3598  0.8622  1.0788
 2203TIP3    H2 6553   3.093   7.024   0.618  0.1947  0.5997  0.8769
 2204TIP3   OH2 6554   3.695   3.237   2.580 -0.0719  0.1337 -0.0474
 2204TIP3    H1 6555   3.664   3.327   2.572  1.0834  0.5601  0.1107
 2204TIP3    H2 6556   3.692   3.219   2.674 -0.2495  0.0282 -0.0735
 2205TIP3   OH2 6557   4.396   3.525   0.142  1.0137  0.5032 -0.3690
 2205TIP3    H1 6558   4.315   3.524   0.192  0.7311  1.2693 -0.8040
 2205TIP3    H2 6559   4.385   3.455   0.078  1.2507 -0.2772  0.4204
 2206TIP3   OH2 6560   5.870   0.789   3.722 -0.4943  0.4766  0.1124
 2206TIP3    H1 6561   5.895   0.707   3.680 -1.0957 -0.4622  1.4866
 2206TIP3    H2 6562   5.939   0.805   3.787 -1.7183 -0.4287  1.7113
 2207TIP3   OH2 6563   0.390   1.758   2.084  0.1470  0.1291 -0.1854
 2207TIP3    H1 6564   0.391   1.851   2.062  1.0368  0.2579  0.3476
 2207TIP3    H2 6565   0.462   1.720   2.034  0.7764  0.0259  0.7579
 2208TIP3   OH2 6566   5.716   6.735   6.223 -0.3119  0.2204  0.1803
 2208TIP3    H1 6567   5.746   6.805   6.281 -1.9778  1.3651 -0.2704
 2208TIP3    H2 6568   5.621   6.738   6.228 -0.4672 -0.6419 -1.4557
 2209TIP3   OH2 6569   6.741   2.933   6.187 -0.3609  0.2573  0.5682
 2209TIP3    H1 6570   6.762   2.841   6.202 -0.5941  0.5651  3.2992
 2209TIP3    H2 6571   6.817   2.980   6.222 -0.4769  1.1131 -0.3202
 2210TIP3   OH2 6572   6.305   0.762   0.863 -0.3379 -0.0183 -0.1069
 2210TIP3    H1 6573   6.353   0.685   0.892  1.5328  0.5490 -1.4636
 2210TIP3    H2 6574   6.287   0.811   0.943 -0.8104 -1.4352  0.6771
 2211TIP3   OH2 6575   2.007   5.388   5.257 -0.1960  0.6404  0.6979
 2211TIP3    H1 6576   2.070   5.416   5.324  0.8593 -0.4705  0.2029
 2211TIP3    H2 6577   1.988   5.297   5.279 -0.6856  0.5966  0.1087
 2212TIP3   OH2 6578   0.750   5.614   0.053 -0.2120  0.5818  0.7371
 2212TIP3    H1 6579   0.710   5.629  -0.033  1.1787 -1.2803 -0.3169
 2212TIP3    H2 6580   0.771   5.702   0.085 -1.7242  1.3736 -0.3195
 2213TIP3   OH2 6581   6.536   5.149   0.401 -0.1419  0.1562 -0.0968
 2213TIP3    H1 6582   6.445   5.120   0.407  0.1998 -0.7534  0.9655
 2213TIP3    H2 6583   6.582   5.077   0.358 -0.0819  1.0414 -1.5820
 2214TIP3   OH2 6584   2.110   7.262   2.965 -0.2212 -0.4051 -0.5490
 2214TIP3    H1 6585   2.086   7.189   3.022 -1.3331  0.5262  0.2067
 2214TIP3    H2 6586   2.118   7.337   3.023 -0.4947  0.3801 -1.4923
 2215TIP3   OH2 6587   4.664   6.812   1.460  0.1234 -0.2300  0.0691
 2215TIP3    H1 6588   4.583   6.782   1.501  0.0245 -0.1591 -0.0694
 2215TIP3    H2 6589   4.634   6.867   1.387  0.2873  1.5380  1.2812
 2216TIP3   OH2 6590   6.761   0.349   5.011  0.0772  0.1140 -0.2233
 2216TIP3    H1 6591   6.693   0.311   4.955 -0.7805 -0.0356  0.9050
 2216TIP3    H2 6592   6.715   0.376   5.090  1.5964 -1.7307  1.3952
 2217TIP3   OH2 6593   0.714   3.263   5.150 -0.2741  0.0467  0.0154
 2217TIP3    H1 6594   0.726   3.202   5.078  0.4407 -0.9180  0.9096
 2217TIP3    H2 6595   0.620   3.278   5.154 -0.2385  1.0428 -1.8238
 2218TIP3   OH2 6596   2.721   1.222   3.134 -0.1143 -0.5381  0.0264
 2218TIP3    H1 6597   2.705   1.218   3.039  0.2514  0.7312 -0.1017
 2218TIP3    H2 6598   2.656   1.284   3.166  0.6797  0.1195  0.3856
 2219TIP3   OH2 6599   5.925   5.388   6.678  0.4220 -0.6388  0.0523
 2219TIP3    H1 6600   5.936   5.367   6.771  0.3839 -0.4006  0.1128
 2219TIP3    H2 6601   6.003   5.352   6.636  2.1015  2.0129  0.6386
 2220TIP3   OH2 6602   3.752   0.265   1.902  0.0340  0.1797  0.5339
 2220TIP3    H1 6603   3.729   0.275   1.995  3.1211  0.1936  1.4150
 2220TIP3    H2 6604   3.845   0.287   1.898 -0.2815  1.3829 -2.8396
 2221TIP3   OH2 6605   2.946   5.421   3.908  0.1494 -0.4605  0.1349
 2221TIP3    H1 6606   2.952   5.352   3.975  1.3844  0.4496  0.9989
 2221TIP3    H2 6607   2.997   5.386   3.834 -0.8716 -1.2893 -0.2054
 2222TIP3   OH2 6608   5.567   3.325   3.353 -0.2839 -0.3813  0.3826
 2222TIP3    H1 6609   5.660   3.331   3.334 -0.3126  0.8684  0.5758
 2222TIP3    H2 6610   5.553   3.233   3.377  0.1855 -1.5766 -3.2230
 2223TIP3   OH2 6611   6.288   2.655   5.728  0.3293 -0.2291  0.1647
 2223TIP3    H1 6612   6.224   2.670   5.798  0.6208 -0.4982  0.4873
 2223TIP3    H2 6613   6.234   2.639   5.650  0.0050  0.2550  0.2863
 2224TIP3   OH2 6614   2.104   3.938   5.004 -0.0005 -0.2600  0.3447
 2224TIP3    H1 6615   2.082   3.983   4.922  1.1002 -0.9544 -0.3694
 2224TIP3    H2 6616   2.126   4.008   5.065  1.7423  0.2315 -0.7615
 2225TIP3   OH2 6617   7.415   6.647   0.505 -0.3311 -0.4086 -0.2774
 2225TIP3    H1 6618   7.388   6.660   0.415 -0.1594  2.2680 -0.0100
 2225TIP3    H2 6619   7.358   6.576   0.537 -1.0048 -0.7878 -2.1877
 2226TIP3   OH2 6620   1.627   6.277   1.726  0.4449 -0.3734  0.0676
 2226TIP3    H1 6621   1.569   6.211   1.763  1.4271  0.2718  3.0531
 2226TIP3    H2 6622   1.604   6.358   1.772  1.8104  0.5081 -0.7134
 2227TIP3   OH2 6623   6.238   5.645   5.510  0.1309 -0.5173 -0.0606
 2227TIP3    H1 6624   6.191   5.615   5.588  0.1475 -1.0884 -0.2683
 2227TIP3    H2 6625   6.283   5.567   5.478  0.6682 -0.1335 -0.2574
 2228TIP3   OH2 6626   3.644   3.270   6.006  0.4736  0.1882  0.1202
 2228TIP3    H1 6627   3.666   3.348   6.057  0.7892  1.4685 -1.8164
 2228TIP3    H2 6628   3.657   3.298   5.915 -1.6950 -1.4073 -0.7644
 2229TIP3   OH2 6629   8.009   7.379   1.796  0.6975 -0.4606 -0.2153
 2229TIP3    H1 6630   8.010   7.421   1.882  0.2329 -0.6063 -0.1394
 2229TIP3    H2 6631   7.932   7.414   1.752  0.0008 -1.6142  0.0471
 2230TIP3   OH2 6632   6.969   5.469   0.770 -0.3445  0.2659  0.1246
 2230TIP3    H1 6633   6.944   5.378   0.751  0.7082  0.2267 -1.2587
 2230TIP3    H2 6634   6.900   5.521   0.729  0.5813  0.1111 -1.7682
 2231TIP3   OH2 6635   3.680   6.151   0.437  0.0457  0.0830  0.0956
 2231TIP3    H1 6636   3.717   6.168   0.524  0.7253  0.0226 -0.1775
 2231TIP3    H2 6637   3.689   6.235   0.391  0.8789 -0.2292 -0.3384
 2232TIP3   OH2 6638   3.302   6.002   1.484  0.6602  0.0325  0.1048
 2232TIP3    H1 6639   3.245   6.079   1.482  0.7459  0.1239  0.7694
 2232TIP3    H2 6640   3.270   5.950   1.558  1.1212 -0.1621  0.1745
 2233TIP3   OH2 6641   5.171   2.783   2.638 -0.3830  0.1393 -0.0718
 2233TIP3    H1 6642   5.125   2.838   2.574  1.2329  0.0743 -1.3550
 2233TIP3    H2 6643   5.235   2.735   2.586 -0.1077 -1.1426  1.3929
 2234TIP3   OH2 6644   1.259   5.707   1.304 -0.2007  0.3411 -0.3897
 2234TIP3    H1 6645   1.321   5.666   1.243 -0.2766  1.3581 -1.1946
 2234TIP3    H2 6646   1.299   5.697   1.390 -0.2753 -1.4862 -0.5288
 2235TIP3   OH2 6647   7.135   7.264   1.723  0.1564 -0.0626  0.1361
 2235TIP3    H1 6648   7.185   7.201   1.671  0.7053  1.0886 -0.7764
 2235TIP3    H2 6649   7.177   7.263   1.809  1.7320  0.8380 -0.5894
 2236TIP3   OH2 6650   1.973   0.224   2.393 -0.3238  0.2679 -0.3414
 2236TIP3    H1 6651   1.973   0.132   2.420 -0.1958 -0.0790 -1.4567
 2236TIP3    H2 6652   1.880   0.245   2.381 -0.3070 -0.2401 -1.6678
 2237TIP3   OH2 6653   1.831   1.679   3.710  0.1373 -0.1856 -1.0810
 2237TIP3    H1 6654   1.913   1.698   3.754 -0.0156 -1.9049 -0.0076
 2237TIP3    H2 6655   1.763   1.699   3.775 -0.1441 -1.4781 -0.9471
 2238TIP3   OH2 6656   4.202   3.973   4.246  0.0810 -0.1534  0.7198
 2238TIP3    H1 6657   4.275   3.962   4.185 -0.7767 -1.8798 -0.0694
 2238TIP3    H2 6658   4.166   4.059   4.225  1.5106  0.4774  0.7376
 2239TIP3   OH2 6659   3.003   2.738   6.008  0.2664  0.1641 -0.4991
 2239TIP3    H1 6660   3.048   2.822   5.999  1.4598 -0.2699  1.0445
 2239TIP3    H2 6661   3.003   2.721   6.102 -1.3261 -0.8590 -0.6375
 2240TIP3   OH2 6662   7.031   1.186   6.650 -0.1566  0.0156  0.4339
 2240TIP3    H1 6663   6.991   1.262   6.693  2.0945  1.4468  0.1524
 2240TIP3    H2 6664   7.053   1.216   6.562  1.6734 -0.6107  0.6307
 2241TIP3   OH2 6665   3.282   1.615   1.156  0.4257  0.1392  0.3812
 2241TIP3    H1 6666   3.206   1.648   1.109 -1.1875  0.0548  2.7255
 2241TIP3    H2 6667   3.269   1.520   1.159  0.6737  0.1114  0.7072
 2242TIP3   OH2 6668   2.880   3.305   1.178  0.4688  0.0024  0.4295
 2242TIP3    H1 6669   2.854   3.309   1.270  0.1741 -1.0232  0.4007
 2242TIP3    H2 6670   2.824   3.369   1.134  0.8207  0.7172  1.0041
 2243TIP3   OH2 6671   4.403   2.072   3.917 -0.3069 -0.1625  0.7369
 2243TIP3    H1 6672   4.326   2.119   3.885 -1.0263 -1.9978 -0.3545
 2243TIP3    H2 6673   4.369   2.019   3.990  0.2443  0.0882  1.1846
 2244TIP3   OH2 6674   1.958   6.382   4.416  0.1408 -0.0549 -0.1871
 2244TIP3    H1 6675   1.915   6.306   4.454  1.3674 -1.3690 -1.3197
 2244TIP3    H2 6676   1.969   6.360   4.323  3.2927  0.1346  0.0223
 2245TIP3   OH2 6677   5.749   6.362   6.368  0.4672 -0.0241  0.5193
 2245TIP3    H1 6678   5.734   6.393   6.279 -1.3123 -0.6370  0.5764
 2245TIP3    H2 6679   5.725   6.436   6.424 -2.2516 -0.8730  0.5944
 2246TIP3   OH2 6680   6.070   3.592   4.072 -0.2114 -0.1549 -0.0074
 2246TIP3    H1 6681   6.129   3.517   4.059  0.7237  0.5178  0.2679
 2246TIP3    H2 6682   6.071   3.608   4.166 -0.9406 -0.2068  0.0168
 2247TIP3   OH2 6683   0.563   0.648   5.816 -0.1197 -0.3534  0.0593
 2247TIP3    H1 6684   0.632   0.597   5.775 -0.2320 -0.7748  0.3837
 2247TIP3    H2 6685   0.488   0.589   5.818 -0.3204 -0.0921  0.2155
 2248TIP3   OH2 6686   0.837   0.404   5.817  0.1076  0.3677  0.0282
 2248TIP3    H1 6687   0.922   0.361   5.811 -0.3783 -0.5214 -0.7009
 2248TIP3    H2 6688   0.857   0.495   5.840  1.2678  0.2417 -0.4577
 2249TIP3   OH2 6689   1.292   4.026   6.401 -0.3852 -0.0028 -0.6180
 2249TIP3    H1 6690   1.347   3.976   6.462 -1.3246 -0.8846 -0.4562
 2249TIP3    H2 6691   1.271   3.963   6.332 -1.6258  0.1486 -0.3961
 2250TIP3   OH2 6692   1.645   1.074   3.883  0.1142 -0.6512 -0.0139
 2250TIP3    H1 6693   1.567   1.084   3.828 -0.3280 -2.1047  0.3094
 2250TIP3    H2 6694   1.623   1.003   3.943  1.3703 -0.4901  0.6637
 2251TIP3   OH2 6695   0.234   4.623   0.635  0.2945 -0.1387  0.0732
 2251TIP3    H1 6696   0.296   4.599   0.566  0.8935  1.3745  0.0596
 2251TIP3    H2 6697   0.150   4.631   0.590  0.0673 -2.0093  0.0584
 2252TIP3   OH2 6698   0.437   2.789   2.724  0.2261 -0.9010  0.5018
 2252TIP3    H1 6699   0.423   2.697   2.746 -2.1937 -0.4598  1.0046
 2252TIP3    H2 6700   0.406   2.797   2.634 -4.9352  0.3957  2.0970
 2253TIP3   OH2 6701   4.813   0.023   6.524  0.3375 -0.0770  0.0112
 2253TIP3    H1 6702   4.880   0.086   6.498  0.1872 -0.2179 -0.7631
 2253TIP3    H2 6703   4.730   0.069   6.510  0.2397 -0.3099 -0.1864
 2254TIP3   OH2 6704   6.637   5.574   0.028  0.3806  0.2941 -0.2164
 2254TIP3    H1 6705   6.720   5.573   0.075  0.4301 -0.3843 -0.3075
 2254TIP3    H2 6706   6.620   5.482   0.007 -0.0894  0.4927 -0.7355
 2255TIP3   OH2 6707   6.581   7.564   4.152  0.3485  0.1631 -0.1415
 2255TIP3    H1 6708   6.502   7.567   4.206  0.5749 -0.4871  0.2354
 2255TIP3    H2 6709   6.557   7.509   4.077  0.0548  1.0115 -0.6809
 2256TIP3   OH2 6710   2.678   0.434   0.619  0.4312 -0.2741 -0.1315
 2256TIP3    H1 6711   2.677   0.340   0.600 -0.7132  0.1184 -2.2835
 2256TIP3    H2 6712   2.586   0.460   0.619  0.7904  1.3757 -2.7817
 2257TIP3   OH2 6713   7.307   4.821   4.523  0.3242  0.5589 -0.3901
 2257TIP3    H1 6714   7.228   4.842   4.573  0.8504  1.6808  0.0019
 2257TIP3    H2 6715   7.305   4.726   4.514 -0.0314  0.3648  1.3857
 2258TIP3   OH2 6716   7.763   1.297   0.989  0.0667  0.1082 -0.3187
 2258TIP3    H1 6717   7.809   1.356   1.049 -0.9204  1.6386 -1.0153
 2258TIP3    H2 6718   7.711   1.241   1.047  0.8986  0.0005  0.3485
 2259TIP3   OH2 6719   7.654   0.754   3.072  0.0020  0.2784  0.1705
 2259TIP3    H1 6720   7.748   0.746   3.089 -0.1237  1.8639  1.9012
 2259TIP3    H2 6721   7.648   0.821   3.004  0.1359 -0.3529 -0.4761
 2260TIP3   OH2 6722   0.444   6.267   2.559  0.0172  0.2248 -0.3065
 2260TIP3    H1 6723   0.472   6.312   2.639 -0.1457 -0.4889  0.1569
 2260TIP3    H2 6724   0.410   6.183   2.589 -1.4557  0.5505 -0.9675
 2261TIP3   OH2 6725   0.461   0.053   2.022  0.0235  0.4489 -0.0105
 2261TIP3    H1 6726   0.415   0.014   1.948 -0.8755  1.2325  0.1135
 2261TIP3    H2 6727   0.523  -0.014   2.050 -1.8616 -1.1516  0.5640
 2262TIP3   OH2 6728   6.202   1.554   6.259  0.2574 -0.6221  0.1866
 2262TIP3    H1 6729   6.149   1.551   6.339  1.6530  1.0986  1.2412
 2262TIP3    H2 6730   6.284   1.512   6.283  0.1516 -1.4481 -0.8332
 2263TIP3   OH2 6731   7.472   1.953   0.501  0.6303  0.1445  0.0365
 2263TIP3    H1 6732   7.529   2.018   0.460  0.7891 -0.4226 -0.6419
 2263TIP3    H2 6733   7.432   1.906   0.428 -0.5849  0.4109  0.4922
 2264TIP3   OH2 6734   6.896   2.100   4.392 -0.0460  0.4199 -0.4678
 2264TIP3    H1 6735   6.828   2.133   4.450  2.0625  1.8544  1.4005
 2264TIP3    H2 6736   6.976   2.105   4.444  1.3286 -2.4597 -2.0716
 2265TIP3   OH2 6737   3.674   2.452   6.160  0.0449  0.4858 -0.4043
 2265TIP3    H1 6738   3.634   2.371   6.192 -0.3990  0.5416 -0.8079
 2265TIP3    H2 6739   3.607   2.491   6.104  0.4840  0.8336 -0.6920
 2266TIP3   OH2 6740   3.865   1.680   5.094 -0.2531 -0.0236  0.3515
 2266TIP3    H1 6741   3.830   1.601   5.054  2.4252 -0.3292 -1.6916
 2266TIP3    H2 6742   3.836   1.751   5.038  2.4792 -0.3318 -1.6966
 2267TIP3   OH2 6743   4.949   0.500   2.475  0.1720 -0.6459 -0.0117
 2267TIP3    H1 6744   4.869   0.547   2.500 -0.3653 -1.1735 -0.7031
 2267TIP3    H2 6745   5.008   0.569   2.444  0.0108 -0.2410  0.5566
 2268TIP3   OH2 6746   3.849   6.327   3.265 -0.0872 -0.4931  0.2509
 2268TIP3    H1 6747   3.887   6.361   3.346 -0.6173 -0.5950  0.5455
 2268TIP3    H2 6748   3.759   6.305   3.288  0.0769 -1.5593 -0.0836
 2269TIP3   OH2 6749   5.733   4.488   6.426 -0.5492  0.5163 -0.2145
 2269TIP3    H1 6750   5.731   4.428   6.500 -0.3394  0.6398 -0.1072
 2269TIP3    H2 6751   5.726   4.575   6.465  0.2671  0.6205 -0.2844
 2270TIP3   OH2 6752   3.622   3.776   5.406 -0.0512  0.1124 -0.0857
 2270TIP3    H1 6753   3.677   3.737   5.474  0.8374  0.5303 -0.5534
 2270TIP3    H2 6754   3.533   3.773   5.442  0.5870  1.8012  1.8075
 2271TIP3   OH2 6755   6.336   6.996   0.785 -0.5041 -0.6067 -0.1217
 2271TIP3    H1 6756   6.428   6.995   0.759 -0.4266 -1.3808  0.1676
 2271TIP3    H2 6757   6.319   6.908   0.818 -1.1319 -0.2309  0.5891
 2272TIP3   OH2 6758   0.557   0.102   3.798 -0.7074 -0.1869 -0.0683
 2272TIP3    H1 6759   0.536   0.124   3.889  0.0891 -1.2462  0.3901
 2272TIP3    H2 6760   0.651   0.119   3.791 -0.7093 -0.4013 -0.6121
 2273TIP3   OH2 6761   6.607   4.548   4.576  0.1927 -0.2395 -0.0511
 2273TIP3    H1 6762   6.649   4.462   4.572  0.2152 -0.2723  0.7674
 2273TIP3    H2 6763   6.674   4.606   4.612  0.1127  0.0883 -0.4169
 2274TIP3   OH2 6764   2.366   6.648   5.246 -0.2962  0.5279  0.0059
 2274TIP3    H1 6765   2.403   6.560   5.238  2.7902  1.7353 -0.2529
 2274TIP3    H2 6766   2.273   6.633   5.263  0.0955 -2.7619 -0.0790
 2275TIP3   OH2 6767   3.020   1.849   6.718  0.0619 -0.4685  0.5036
 2275TIP3    H1 6768   3.046   1.893   6.637 -0.0150 -0.1228  0.6691
 2275TIP3    H2 6769   3.051   1.759   6.707 -0.2789 -0.5216 -0.0756
 2276TIP3   OH2 6770   3.881   5.580   4.913 -0.0928  0.3860 -0.2693
 2276TIP3    H1 6771   3.949   5.563   4.978 -0.0378 -0.9679 -0.6414
 2276TIP3    H2 6772   3.897   5.514   4.845 -1.6436  0.1815 -0.4659
 2277TIP3   OH2 6773   0.713   3.588   4.911 -0.2995  0.2434 -0.0819
 2277TIP3    H1 6774   0.734   3.673   4.872  0.1509  1.4443  2.5778
 2277TIP3    H2 6775   0.626   3.567   4.877  0.4645  0.6718 -2.4745
 2278TIP3   OH2 6776   4.339   1.255   3.821 -0.0742 -0.3211 -0.2397
 2278TIP3    H1 6777   4.368   1.164   3.823 -0.2433 -0.3852 -0.5716
 2278TIP3    H2 6778   4.276   1.262   3.893 -0.7683 -0.7154 -0.7873
 2279TIP3   OH2 6779   4.658   2.304   0.973  0.0417 -0.5199  0.4928
 2279TIP3    H1 6780   4.565   2.280   0.976 -0.4328  1.0904 -0.3926
 2279TIP3    H2 6781   4.661   2.392   1.011  1.0822 -0.2073 -0.2783
 2280TIP3   OH2 6782   6.146   4.861   0.135 -0.0322  0.3473 -0.0961
 2280TIP3    H1 6783   6.123   4.954   0.134 -0.1253  0.3227 -0.2738
 2280TIP3    H2 6784   6.065   4.816   0.160  0.2275  0.3706  0.8203
 2281TIP3   OH2 6785   6.737   7.206   2.250  0.2116 -0.4085 -0.1404
 2281TIP3    H1 6786   6.796   7.148   2.299  1.2918  0.6738 -0.0925
 2281TIP3    H2 6787   6.661   7.217   2.306  0.3419 -1.1523  0.1907
 2282TIP3   OH2 6788   5.451   6.132   3.733 -0.1312  0.2495  0.4508
 2282TIP3    H1 6789   5.384   6.089   3.786  1.7218 -1.1986  1.7592
 2282TIP3    H2 6790   5.460   6.076   3.656 -0.7625  0.7349  0.0147
 2283TIP3   OH2 6791   5.961   2.863   4.581 -0.2350  0.2090  0.0668
 2283TIP3    H1 6792   5.897   2.793   4.597  0.7420 -0.3632  1.6548
 2283TIP3    H2 6793   6.033   2.844   4.641  1.4517  0.8422 -1.6615
 2284TIP3   OH2 6794   6.052   4.031   2.937  0.0834 -0.0625  0.0634
 2284TIP3    H1 6795   5.990   3.959   2.919 -0.3450  0.0399  1.0463
 2284TIP3    H2 6796   6.021   4.103   2.883  0.4875 -0.5951 -0.8993
 2285TIP3   OH2 6797   3.320   4.120   3.411 -0.1591 -0.1865 -0.0112
 2285TIP3    H1 6798   3.280   4.055   3.468 -1.3089 -1.0345 -1.7237
 2285TIP3    H2 6799   3.310   4.085   3.323 -1.8838  2.8015 -1.1431
 2286TIP3   OH2 6800   4.613   1.004   6.417  0.0384 -0.1432 -0.3314
 2286TIP3    H1 6801   4.578   0.999   6.328 -2.5061  0.5136  0.5412
 2286TIP3    H2 6802   4.536   0.999   6.473  1.3957  1.2097  1.7933
 2287TIP3   OH2 6803   0.347   3.231   6.098  0.0692 -0.6461 -0.6847
 2287TIP3    H1 6804   0.334   3.306   6.156 -1.7790 -1.4868  0.0800
 2287TIP3    H2 6805   0.338   3.266   6.010 -0.7255  0.0425 -0.3349
 2288TIP3   OH2 6806   1.061   5.950   0.897  0.4445 -0.0731 -0.0527
 2288TIP3    H1 6807   1.086   6.006   0.824 -0.4006 -1.0035 -1.0857
 2288TIP3    H2 6808   1.076   5.861   0.867  0.1610 -0.4749  0.9345
 2289TIP3   OH2 6809   3.214   5.070   3.461 -0.2231  0.1041  0.8762
 2289TIP3    H1 6810   3.189   4.986   3.500 -0.9063  0.7981  1.9873
 2289TIP3    H2 6811   3.139   5.096   3.409  0.7049 -0.8418 -1.0677
 2290TIP3   OH2 6812   5.074   3.192   0.177 -0.0373  0.2066 -0.2365
 2290TIP3    H1 6813   5.010   3.257   0.204  0.7854  0.7171  0.5249
 2290TIP3    H2 6814   5.145   3.243   0.137  0.5327 -0.2335  0.2008
 2291TIP3   OH2 6815   5.389   3.721   3.895  0.3887  0.3146 -0.4276
 2291TIP3    H1 6816   5.364   3.716   3.802 -0.7261  2.2476 -0.2799
 2291TIP3    H2 6817   5.450   3.794   3.899  0.1478  0.4682  0.4367
 2292TIP3   OH2 6818   0.851   1.852   3.382 -0.1901 -0.0912  0.0630
 2292TIP3    H1 6819   0.876   1.776   3.329 -0.8323  0.0896 -0.5063
 2292TIP3    H2 6820   0.896   1.926   3.342  1.7987 -0.3520  1.5951
 2293TIP3   OH2 6821   5.226   3.742   6.502  0.0673 -0.1491 -0.2463
 2293TIP3    H1 6822   5.171   3.712   6.429  1.0138  2.0847 -1.9815
 2293TIP3    H2 6823   5.303   3.684   6.499 -0.6353 -1.1225  0.0635
 2294TIP3   OH2 6824   5.899   3.331   5.376 -0.2069  0.0008 -0.7266
 2294TIP3    H1 6825   5.917   3.424   5.383  0.5559 -0.0984 -1.2760
 2294TIP3    H2 6826   5.951   3.291   5.446  0.9412 -0.1817 -1.6527
 2295TIP3   OH2 6827   4.198   6.396   6.339  0.0634 -0.4023  0.2011
 2295TIP3    H1 6828   4.247   6.442   6.272 -0.8252  1.1171  0.5558
 2295TIP3    H2 6829   4.186   6.460   6.409  0.2925 -1.7070  1.4861
 2296TIP3   OH2 6830   5.757   7.486   5.301  0.1174  0.3318 -0.3078
 2296TIP3    H1 6831   5.727   7.406   5.258 -0.4491  0.0288  0.6206
 2296TIP3    H2 6832   5.835   7.512   5.252 -0.8686  0.3761 -1.9211
 2297TIP3   OH2 6833   6.267   6.841   2.908  0.3473 -0.4600  0.6594
 2297TIP3    H1 6834   6.336   6.887   2.859  0.1018  1.2834  1.8654
 2297TIP3    H2 6835   6.310   6.811   2.988 -0.2305  0.4941  1.3451
 2298TIP3   OH2 6836   2.490   6.718   1.069 -0.6150  0.3041  0.9287
 2298TIP3    H1 6837   2.567   6.681   1.025 -0.0635  2.3303  0.0665
 2298TIP3    H2 6838   2.416   6.686   1.018 -0.4644 -2.2358  2.1715
 2299TIP3   OH2 6839   5.531   4.439   1.313  0.3509 -0.3452  0.0166
 2299TIP3    H1 6840   5.491   4.375   1.255  1.9677 -0.9944 -0.4367
 2299TIP3    H2 6841   5.457   4.486   1.352 -0.8137  0.0201 -2.4449
 2300TIP3   OH2 6842   6.670   2.273   1.378 -0.3226 -0.2205 -0.0207
 2300TIP3    H1 6843   6.620   2.228   1.446 -1.3637 -0.3359 -0.8281
 2300TIP3    H2 6844   6.605   2.326   1.333  0.7289  1.4925  0.3915
 2301TIP3   OH2 6845   7.738   1.770   1.374 -0.3104 -0.8206 -0.3499
 2301TIP3    H1 6846   7.657   1.820   1.362 -0.1684 -0.4661  0.1224
 2301TIP3    H2 6847   7.808   1.835   1.365 -0.0991 -1.0458 -0.3466
 2302TIP3   OH2 6848   2.308   4.243   6.793  0.2260 -0.8325  0.0773
 2302TIP3    H1 6849   2.324   4.169   6.735 -0.7266 -0.9473 -0.0402
 2302TIP3    H2 6850   2.383   4.301   6.778  1.7684 -2.3952  1.2093
 2303TIP3   OH2 6851   5.093   0.686   4.180  0.2901 -0.3184  0.7329
 2303TIP3    H1 6852   5.129   0.752   4.121 -2.4020  0.5328 -0.1180
 2303TIP3    H2 6853   4.998   0.700   4.175 -0.1472 -1.7406  3.5329
 2304TIP3   OH2 6854   6.568   0.888   5.968 -0.0538  0.0728 -0.2799
 2304TIP3    H1 6855   6.560   0.835   6.047  1.9836 -1.1541 -0.8409
 2304TIP3    H2 6856   6.511   0.846   5.904 -1.9175  1.2217  0.5425
 2305TIP3   OH2 6857   3.669   2.667   4.888 -0.4428 -0.1187  0.0621
 2305TIP3    H1 6858   3.659   2.576   4.917 -1.2255  0.2942  1.1732
 2305TIP3    H2 6859   3.745   2.666   4.830  1.7256 -0.9065  2.7136
 2306TIP3   OH2 6860   6.778   1.665   0.437  0.1760 -0.2811 -0.2541
 2306TIP3    H1 6861   6.774   1.714   0.519 -1.3604 -0.2225 -0.3344
 2306TIP3    H2 6862   6.860   1.616   0.442 -0.3650 -1.0955  1.7930
 2307TIP3   OH2 6863   6.662   0.790   4.684 -0.0080  0.2810 -0.4331
 2307TIP3    H1 6864   6.735   0.789   4.622 -0.6021 -3.6760 -1.3929
 2307TIP3    H2 6865   6.662   0.702   4.723 -2.8514  0.8822  1.3022
 2308TIP3   OH2 6866   0.359   1.206   2.119  0.2468  0.0292 -0.0091
 2308TIP3    H1 6867   0.421   1.220   2.191  1.1868 -1.0151 -0.5834
 2308TIP3    H2 6868   0.305   1.132   2.148  1.7430 -1.5505 -1.0155
 2309TIP3   OH2 6869   1.431   1.261   5.648 -0.2252 -0.1656 -0.9069
 2309TIP3    H1 6870   1.383   1.257   5.731  0.1856  0.0344 -0.6545
 2309TIP3    H2 6871   1.504   1.200   5.660 -1.4363 -1.9365 -1.9818
 2310TIP3   OH2 6872   1.569   4.370   6.454  0.3463  0.2209 -0.0869
 2310TIP3    H1 6873   1.493   4.408   6.409  0.3466  0.2508 -0.0624
 2310TIP3    H2 6874   1.621   4.329   6.385  0.7707  0.9846 -0.2329
 2311TIP3   OH2 6875   5.726   4.763   6.462  0.6242  0.2676  0.1763
 2311TIP3    H1 6876   5.661   4.833   6.460 -0.1677 -0.4240 -2.2741
 2311TIP3    H2 6877   5.766   4.765   6.375  2.0219 -1.0435  0.7398
 2312TIP3   OH2 6878   5.875   4.762   1.768  0.1344 -0.5897 -0.1911
 2312TIP3    H1 6879   5.815   4.821   1.721  0.0211  1.1976  2.0292
 2312TIP3    H2 6880   5.951   4.816   1.787  1.2927 -2.0430 -0.5584
 2313TIP3   OH2 6881   7.389   6.534   5.377 -0.0474  0.0774  0.0460
 2313TIP3    H1 6882   7.360   6.489   5.456 -1.4313  1.6404  0.4967
 2313TIP3    H2 6883   7.351   6.484   5.305  0.0110 -0.5285  0.4293
 2314TIP3   OH2 6884   5.510   5.419   3.086 -0.5461  0.0151  0.3414
 2314TIP3    H1 6885   5.501   5.486   3.019 -0.0063  0.8708  1.0912
 2314TIP3    H2 6886   5.525   5.338   3.038  3.7836  1.1386 -0.7052
 2315TIP3   OH2 6887   2.493   3.641   6.696  0.5802 -0.0783 -0.4328
 2315TIP3    H1 6888   2.457   3.664   6.610 -0.0909  1.1006  0.1465
 2315TIP3    H2 6889   2.555   3.570   6.677  1.6591  1.2284 -2.1257
 2316TIP3   OH2 6890   3.663   1.077   0.406 -0.5547 -0.3818  0.3948
 2316TIP3    H1 6891   3.661   0.983   0.421  1.5578 -0.4566  0.4338
 2316TIP3    H2 6892   3.661   1.115   0.494  0.9640 -0.4979  0.5078
 2317TIP3   OH2 6893   4.676   4.611   3.565 -0.6231 -0.3599 -0.6526
 2317TIP3    H1 6894   4.694   4.517   3.562  1.0550 -0.0598 -2.9562
 2317TIP3    H2 6895   4.605   4.623   3.503 -2.1825 -0.2804  1.0695
 2318TIP3   OH2 6896   0.090   2.690   5.866 -0.2713  0.1769  0.0588
 2318TIP3    H1 6897   0.168   2.691   5.921  0.4513  1.2063 -0.9119
 2318TIP3    H2 6898   0.078   2.598   5.842 -0.0494 -0.1497  1.1602
 2319TIP3   OH2 6899   0.358   3.697   6.607  0.5616 -0.3809  0.2542
 2319TIP3    H1 6900   0.293   3.765   6.620  0.7461  0.1143 -1.2296
 2319TIP3    H2 6901   0.311   3.626   6.564  0.8923 -0.1952 -0.4290
 2320TIP3   OH2 6902   2.608   2.421   3.740 -0.0101 -0.5845  0.3970
 2320TIP3    H1 6903   2.550   2.481   3.787 -1.0083 -2.8193  2.2461
 2320TIP3    H2 6904   2.550   2.376   3.678  0.0584 -1.6907  1.1125
 2321TIP3   OH2 6905   6.185   5.608   2.109  0.9598  0.2340  0.4589
 2321TIP3    H1 6906   6.196   5.515   2.089  1.2258  0.5388 -0.8958
 2321TIP3    H2 6907   6.132   5.609   2.190  0.6599 -1.0812  0.3018
 2322TIP3   OH2 6908   5.771   6.965   6.372  0.3876  0.6160 -0.0091
 2322TIP3    H1 6909   5.721   7.014   6.437 -0.3238  1.5447 -1.2050
 2322TIP3    H2 6910   5.862   6.988   6.389  0.0496  2.5586 -0.6817
 2323TIP3   OH2 6911   5.608   0.160   6.666  0.2820  0.4009 -0.2815
 2323TIP3    H1 6912   5.604   0.080   6.718 -0.4030 -0.6573 -1.8711
 2323TIP3    H2 6913   5.611   0.230   6.730  1.8379 -0.9088  1.1905
 2324TIP3   OH2 6914   3.481   1.459   0.305 -0.0121  0.2357 -0.4596
 2324TIP3    H1 6915   3.547   1.390   0.293  0.2810  0.9533 -3.9216
 2324TIP3    H2 6916   3.512   1.508   0.381  2.0020 -0.9975 -0.4056
 2325TIP3   OH2 6917   7.796   0.051   5.555 -0.9999  0.2299  0.2100
 2325TIP3    H1 6918   7.859  -0.021   5.562 -1.1209  0.1733  0.7506
 2325TIP3    H2 6919   7.793   0.071   5.461  0.4593  0.8005  0.2616
 2326TIP3   OH2 6920   1.839   5.582   4.586 -0.3427  0.3945  0.2677
 2326TIP3    H1 6921   1.901   5.580   4.660 -0.9254 -0.1612  0.7517
 2326TIP3    H2 6922   1.818   5.490   4.570 -2.2040  0.6426  1.1004
 2327TIP3   OH2 6923   5.835   2.325   1.504  0.3948  0.4791  0.1003
 2327TIP3    H1 6924   5.876   2.239   1.499  0.4407  0.4726  0.5632
 2327TIP3    H2 6925   5.851   2.354   1.594  0.7200  1.1341 -0.1594
 2328TIP3   OH2 6926   4.290   3.967   3.494  0.5098 -0.1374 -0.4256
 2328TIP3    H1 6927   4.209   4.015   3.505 -0.5271 -2.1590  1.5158
 2328TIP3    H2 6928   4.290   3.940   3.402 -0.3017  1.0252 -0.7888
 2329TIP3   OH2 6929   3.850   5.902   1.686  0.1864  0.0651  0.0754
 2329TIP3    H1 6930   3.859   5.991   1.649 -1.5509  0.1391 -0.2536
 2329TIP3    H2 6931   3.779   5.863   1.635 -1.4684 -0.2825  2.5031
 2330TIP3   OH2 6932   8.132   1.899   6.353 -0.1533  0.1144 -0.3027
 2330TIP3    H1 6933   8.213   1.853   6.333  0.2472  0.2295  0.9968
 2330TIP3    H2 6934   8.080   1.836   6.402  0.3370  0.9507  1.3614
 2331TIP3   OH2 6935   3.062   5.706   2.510  0.6283 -0.1004 -0.2262
 2331TIP3    H1 6936   3.093   5.618   2.533  1.7462  0.0484 -1.0678
 2331TIP3    H2 6937   3.072   5.757   2.590  1.8177 -0.2763 -0.2402
 2332TIP3   OH2 6938   7.005   2.632   4.669  0.0247 -0.1893  0.3269
 2332TIP3    H1 6939   7.001   2.553   4.616 -0.6394 -0.8603  1.3358
 2332TIP3    H2 6940   6.914   2.653   4.688  0.2174  0.5542  0.4616
 2333TIP3   OH2 6941   4.701   3.636   6.605 -0.6118  0.0876  0.3065
 2333TIP3    H1 6942   4.749   3.685   6.538 -0.3941 -0.1268  0.2996
 2333TIP3    H2 6943   4.639   3.698   6.642  0.1880  0.5868  0.8308
 2334TIP3   OH2 6944   6.367   6.587   5.670 -0.2002 -0.5289  0.1472
 2334TIP3    H1 6945   6.378   6.532   5.748 -0.9026  0.6545  1.1119
 2334TIP3    H2 6946   6.274   6.581   5.650 -0.3385  0.4926  0.4245
 2335TIP3   OH2 6947   1.103   5.783   2.324  0.0517  0.5585  0.4410
 2335TIP3    H1 6948   1.031   5.823   2.372 -2.0704 -0.1417 -1.9961
 2335TIP3    H2 6949   1.145   5.856   2.278 -0.9718  0.6180 -0.4300
 2336TIP3   OH2 6950   2.151   0.313   5.042 -0.6160  0.3957 -0.1664
 2336TIP3    H1 6951   2.097   0.347   5.114 -0.2009 -1.4656  1.1142
 2336TIP3    H2 6952   2.091   0.308   4.968 -1.9737 -0.5904  0.9246
 2337TIP3   OH2 6953   2.880   4.658   2.471 -0.3584 -0.1657 -0.3426
 2337TIP3    H1 6954   2.947   4.676   2.537 -0.1922  1.6261 -0.9463
 2337TIP3    H2 6955   2.828   4.738   2.467 -0.9878 -0.6074 -1.6761
 2338TIP3   OH2 6956   5.211   2.525   3.828  0.7070  0.3854  0.0911
 2338TIP3    H1 6957   5.119   2.513   3.803  0.3376  0.4004  1.3416
 2338TIP3    H2 6958   5.207   2.551   3.920  1.9282  1.4214 -0.1179
 2339TIP3   OH2 6959   4.279   4.969   2.160  0.0196 -0.0530  0.1574
 2339TIP3    H1 6960   4.306   4.880   2.137 -1.1419  0.3909 -3.4525
 2339TIP3    H2 6961   4.358   5.022   2.147  0.0537 -0.1994 -0.2546
 2340TIP3   OH2 6962   1.761   0.598   0.559 -0.8866  0.4424 -0.1939
 2340TIP3    H1 6963   1.853   0.587   0.582 -0.6111  0.6951 -1.1365
 2340TIP3    H2 6964   1.722   0.638   0.637 -0.1414  0.6140  0.1014
 2341TIP3   OH2 6965   0.943   1.735   1.702 -0.0302  0.5823 -0.1964
 2341TIP3    H1 6966   0.944   1.645   1.670  2.1672  0.6188 -0.3720
 2341TIP3    H2 6967   0.867   1.775   1.660  1.4419  0.0304 -3.7217
 2342TIP3   OH2 6968   1.672   0.802   0.266 -0.5063 -0.1664  0.2025
 2342TIP3    H1 6969   1.616   0.774   0.338  0.5067  0.3696  1.2304
 2342TIP3    H2 6970   1.685   0.896   0.281  1.8562 -0.5428  0.8761
 2343TIP3   OH2 6971   4.604   0.272   1.114  0.2186  0.1110 -0.1936
 2343TIP3    H1 6972   4.627   0.256   1.205 -4.0663  0.7864  1.2692
 2343TIP3    H2 6973   4.606   0.185   1.073 -0.7389 -0.7186  1.4272
 2344TIP3   OH2 6974   3.301   7.315   1.892  0.1010 -0.8074  0.1355
 2344TIP3    H1 6975   3.243   7.269   1.953 -0.1270 -1.9898 -0.9382
 2344TIP3    H2 6976   3.280   7.278   1.806  3.1683 -2.0574 -0.1928
 2345TIP3   OH2 6977   4.819   1.409   1.683 -0.4175  0.2391  0.2558
 2345TIP3    H1 6978   4.894   1.415   1.624 -0.2084 -0.9771  0.3848
 2345TIP3    H2 6979   4.854   1.370   1.763 -0.4409  2.9129  1.6774
 2346TIP3   OH2 6980   1.105   4.422   6.015 -0.0209 -0.6760  0.0990
 2346TIP3    H1 6981   1.040   4.362   5.977 -2.2538  1.1332  0.8569
 2346TIP3    H2 6982   1.146   4.371   6.085 -2.1057 -1.2958  0.9704
 2347TIP3   OH2 6983   1.250   7.537   3.702 -0.2951  0.2293 -0.3881
 2347TIP3    H1 6984   1.268   7.452   3.742  0.0162 -0.4680 -1.9491
 2347TIP3    H2 6985   1.334   7.582   3.702 -0.6113  0.8806  1.1397
 2348TIP3   OH2 6986   5.471   0.459   2.311 -0.0534 -0.4409  0.0476
 2348TIP3    H1 6987   5.561   0.427   2.322  0.9560  1.1772 -2.5957
 2348TIP3    H2 6988   5.428   0.391   2.259 -0.2239 -0.9105  0.7726
 2349TIP3   OH2 6989   1.023   2.932   5.138  0.2227 -0.0595  0.2089
 2349TIP3    H1 6990   1.071   2.851   5.155  0.7294  0.2797  0.4404
 2349TIP3    H2 6991   1.092   2.999   5.129 -0.1426  0.1780 -0.9533
 2350TIP3   OH2 6992   3.532   1.560   3.656 -0.0521 -0.3912  0.2851
 2350TIP3    H1 6993   3.450   1.586   3.613 -0.6505 -0.5051  1.3188
 2350TIP3    H2 6994   3.587   1.639   3.653  0.2491 -0.6244 -1.3769
 2351TIP3   OH2 6995   8.038   0.773   1.168  0.0770 -0.0247  0.0150
 2351TIP3    H1 6996   8.114   0.715   1.176 -0.3878 -0.6649 -0.1352
 2351TIP3    H2 6997   8.060   0.849   1.223  0.5461 -0.4983  0.4917
 2352TIP3   OH2 6998   1.451   0.308   2.256 -0.1428 -0.0954 -0.5971
 2352TIP3    H1 6999   1.421   0.389   2.214 -0.6218  1.1851  2.0229
 2352TIP3    H2 7000   1.372   0.271   2.296  0.4395 -0.8108 -0.0933
 2353TIP3   OH2 7001   5.762   4.712   3.011 -0.3845  0.5393  0.1242
 2353TIP3    H1 7002   5.809   4.718   3.094  1.2574 -0.0220 -0.7274
 2353TIP3    H2 7003   5.761   4.802   2.978  1.0051  0.4184 -0.3066
 2354TIP3   OH2 7004   5.392   0.626   0.224 -0.2251 -0.1460 -0.1679
 2354TIP3    H1 7005   5.379   0.689   0.153 -0.3767 -0.1385 -0.1330
 2354TIP3    H2 7006   5.388   0.541   0.181  1.6310 -0.1113 -0.5005
 2355TIP3   OH2 7007   0.705   5.539   5.696  0.3596  1.0078 -0.2190
 2355TIP3    H1 7008   0.686   5.524   5.788  0.8072  0.0636 -0.2686
 2355TIP3    H2 7009   0.631   5.591   5.664 -0.8399 -0.4130  0.1768
 2356TIP3   OH2 7010   0.363   1.531   5.164 -0.1563 -0.0974  0.5209
 2356TIP3    H1 7011   0.394   1.562   5.249  0.3180  0.9292 -0.0138
 2356TIP3    H2 7012   0.267   1.536   5.170 -0.0983  0.8929  0.6512
 2357TIP3   OH2 7013   0.679   6.531   1.691 -0.2711  0.4735 -0.3357
 2357TIP3    H1 7014   0.729   6.510   1.612  0.1756 -0.0477  0.0736
 2357TIP3    H2 7015   0.610   6.591   1.661 -0.8940 -0.6891 -1.3663
 2358TIP3   OH2 7016   1.025   7.161   1.228 -0.5152 -0.4047 -0.4427
 2358TIP3    H1 7017   1.077   7.127   1.301 -1.0650 -1.0812 -0.3579
 2358TIP3    H2 7018   1.090   7.186   1.162  0.0465  1.1664  0.6560
 2359TIP3   OH2 7019   5.181   6.918   3.083  0.0852 -0.2662  0.6426
 2359TIP3    H1 7020   5.270   6.922   3.118  0.2368 -1.6335  0.4858
 2359TIP3    H2 7021   5.192   6.925   2.988 -0.1317  1.1343  0.6944
 2360TIP3   OH2 7022   0.472   2.252   4.551  0.0106  0.5892 -0.2935
 2360TIP3    H1 7023   0.415   2.193   4.601  0.4437  0.6434  0.2767
 2360TIP3    H2 7024   0.552   2.202   4.537 -0.1544  0.5273 -1.0602
 2361TIP3   OH2 7025   8.238   1.241   2.473  0.4595  0.6015  0.1248
 2361TIP3    H1 7026   8.271   1.151   2.464 -1.2770 -0.1884  1.0240
 2361TIP3    H2 7027   8.189   1.240   2.555 -2.8999  1.2343 -1.6586
 2362TIP3   OH2 7028   1.920   2.113   1.285 -0.5475  0.1504 -0.4414
 2362TIP3    H1 7029   1.952   2.100   1.196 -0.6228  0.5762 -0.5314
 2362TIP3    H2 7030   1.946   2.033   1.332  0.4699  0.3997 -0.5643
 2363TIP3   OH2 7031   2.718   4.536   5.229  0.0306  0.0982 -0.1313
 2363TIP3    H1 7032   2.812   4.544   5.245  0.0813  0.2228 -0.4867
 2363TIP3    H2 7033   2.701   4.591   5.152 -0.3408  0.1139 -0.0419
 2364TIP3   OH2 7034   7.382   2.630   0.542 -0.1085  0.1465  0.0489
 2364TIP3    H1 7035   7.287   2.626   0.554 -0.0888 -0.5236  0.0393
 2364TIP3    H2 7036   7.417   2.610   0.629  0.0214  0.0156 -0.0334
 2365TIP3   OH2 7037   1.405   3.380   6.113  0.1808  0.3921  0.0271
 2365TIP3    H1 7038   1.456   3.441   6.167 -0.3592  0.2012  0.7779
 2365TIP3    H2 7039   1.391   3.304   6.170 -0.7945  0.3739 -0.2094
 2366TIP3   OH2 7040   4.382   5.322   4.039 -0.0897 -0.0592  0.1600
 2366TIP3    H1 7041   4.288   5.343   4.033 -0.6293 -2.4563 -0.8988
 2366TIP3    H2 7042   4.426   5.406   4.027 -2.0827  0.8984 -0.9682
 2367TIP3   OH2 7043   1.675   7.715   1.431 -0.7118 -0.2303 -0.7442
 2367TIP3    H1 7044   1.581   7.729   1.432 -0.5818  0.7325  0.0259
 2367TIP3    H2 7045   1.696   7.687   1.520 -0.1468  0.5618 -0.6165
 2368TIP3   OH2 7046   6.339   4.496   1.259  0.0007  0.4780  0.0509
 2368TIP3    H1 7047   6.246   4.520   1.267 -0.2020 -0.0336 -0.6444
 2368TIP3    H2 7048   6.352   4.430   1.327 -0.3050  0.1010 -0.2522
 2369TIP3   OH2 7049   7.091   6.587   6.528  0.2429 -0.0977 -0.4176
 2369TIP3    H1 7050   7.031   6.661   6.524 -0.5115 -0.6484  0.4330
 2369TIP3    H2 7051   7.157   6.614   6.592  0.3369  0.0876 -0.5885
 2370TIP3   OH2 7052   3.088   6.986   4.995 -0.0137 -0.3695 -0.1284
 2370TIP3    H1 7053   3.091   6.990   5.091  1.8359  0.2563 -0.1556
 2370TIP3    H2 7054   3.027   6.916   4.975 -2.5597  1.2215  1.4469
 2371TIP3   OH2 7055   5.376   4.468   0.524 -0.2001  0.2527  0.3898
 2371TIP3    H1 7056   5.318   4.523   0.576  0.5418  0.3396  1.1494
 2371TIP3    H2 7057   5.432   4.530   0.477  0.0345  0.1647  0.5496
 2372TIP3   OH2 7058   0.476   4.847   1.508 -0.2996 -0.1382 -0.3223
 2372TIP3    H1 7059   0.387   4.814   1.497 -1.1010  1.6522  0.4031
 2372TIP3    H2 7060   0.523   4.815   1.431 -1.0513 -2.5847  0.1419
 2373TIP3   OH2 7061   0.844   3.138   1.776  0.3027 -0.3438  0.0656
 2373TIP3    H1 7062   0.810   3.053   1.804  0.0161 -1.0921 -2.3420
 2373TIP3    H2 7063   0.933   3.120   1.747  0.3848  0.2637 -0.0809
 2374TIP3   OH2 7064   5.141   5.721   0.437  0.3546 -0.3432 -0.1802
 2374TIP3    H1 7065   5.173   5.633   0.414  0.6526  0.2066 -2.0298
 2374TIP3    H2 7066   5.070   5.737   0.375 -0.2234  0.4116  0.6664
 2375TIP3   OH2 7067   6.402   6.137   2.519 -0.5439 -0.8460  0.4755
 2375TIP3    H1 7068   6.449   6.075   2.463 -0.1255  0.0618 -0.1906
 2375TIP3    H2 7069   6.470   6.195   2.552 -0.8404 -1.1397  1.6457
 2376TIP3   OH2 7070   1.083   5.491   1.808  0.1232  0.1463  0.0521
 2376TIP3    H1 7071   1.167   5.514   1.846  0.4903 -1.2457  0.1286
 2376TIP3    H2 7072   1.039   5.439   1.875 -0.0391 -0.6699 -0.6725
 2377TIP3   OH2 7073   1.024   4.745   4.536 -0.3131 -0.4536  0.0761
 2377TIP3    H1 7074   0.998   4.655   4.516 -0.8110 -0.4994  0.8991
 2377TIP3    H2 7075   1.023   4.750   4.631  2.1836 -0.2923  0.1611
 2378TIP3   OH2 7076   2.579   3.755   2.472 -0.2438  0.3532 -0.1767
 2378TIP3    H1 7077   2.541   3.687   2.528 -0.8335  1.7826  1.2771
 2378TIP3    H2 7078   2.544   3.737   2.385 -1.0959 -0.6811  0.3506
 2379TIP3   OH2 7079   0.154   3.083   1.225  0.0220  0.0616 -0.2325
 2379TIP3    H1 7080   0.247   3.063   1.236 -0.4342 -2.0458  0.1584
 2379TIP3    H2 7081   0.133   3.053   1.137 -0.5265 -0.5560  0.1023
 2380TIP3   OH2 7082   7.125   2.756   6.224  0.0664  0.6985  0.4547
 2380TIP3    H1 7083   7.214   2.723   6.211  0.4845  1.6249  0.9108
 2380TIP3    H2 7084   7.133   2.851   6.217 -0.6052  0.9065  2.0751
 2381TIP3   OH2 7085   1.178   3.496   4.868  0.3590 -0.2808  0.0464
 2381TIP3    H1 7086   1.251   3.548   4.836 -0.2826 -0.8299 -2.4720
 2381TIP3    H2 7087   1.218   3.429   4.923  1.4350  1.0963  1.0271
 2382TIP3   OH2 7088   7.195   3.900   4.008  0.2922  0.0467  0.2528
 2382TIP3    H1 7089   7.237   3.950   4.078  0.1348 -0.2278  0.5426
 2382TIP3    H2 7090   7.247   3.820   4.002 -1.0003 -0.9183  1.5478
 2383TIP3   OH2 7091   8.009   4.186   3.829  0.3517  0.4031 -0.2289
 2383TIP3    H1 7092   8.080   4.136   3.869 -0.4006  0.1448  0.8219
 2383TIP3    H2 7093   7.951   4.207   3.901 -0.0891  1.5647 -0.9018
 2384TIP3   OH2 7094   7.852   2.339   2.520  0.3738  0.6411 -0.4745
 2384TIP3    H1 7095   7.847   2.319   2.614 -0.0113 -0.5820 -0.7342
 2384TIP3    H2 7096   7.885   2.429   2.517  1.4942  0.3165  0.8052
 2385TIP3   OH2 7097   2.985   4.385   1.815  0.4804 -0.0399  0.3174
 2385TIP3    H1 7098   3.049   4.320   1.843  1.1166  0.6713  0.5667
 2385TIP3    H2 7099   2.974   4.369   1.721  0.2056 -0.8591  0.4872
 2386TIP3   OH2 7100   3.713   7.171   3.087 -0.3664 -0.0363  0.0160
 2386TIP3    H1 7101   3.789   7.223   3.113 -0.3711  0.3425 -0.7030
 2386TIP3    H2 7102   3.713   7.175   2.991 -0.8814 -0.6281 -0.0128
 2387TIP3   OH2 7103   4.480   0.673   0.264 -0.2163 -0.0639  0.6225
 2387TIP3    H1 7104   4.496   0.737   0.333 -1.7148  0.1508  0.7878
 2387TIP3    H2 7105   4.484   0.588   0.309  2.1032 -0.1669  0.3431
 2388TIP3   OH2 7106   5.161   7.235   3.625 -0.8136  0.3569 -0.1591
 2388TIP3    H1 7107   5.168   7.161   3.565 -0.6189  1.6081 -1.7360
 2388TIP3    H2 7108   5.120   7.198   3.704 -3.6902 -0.8046 -2.0411
 2389TIP3   OH2 7109   6.141   2.951   5.659  0.2054 -0.6763 -0.0870
 2389TIP3    H1 7110   6.229   2.970   5.692 -0.4820  2.1817  0.3650
 2389TIP3    H2 7111   6.124   3.019   5.593 -2.8134  1.0573  2.1883
 2390TIP3   OH2 7112   2.884   7.096   0.003  0.5636  0.4141 -0.6429
 2390TIP3    H1 7113   2.819   7.040   0.045  0.0929  1.1557 -0.3657
 2390TIP3    H2 7114   2.836   7.174  -0.023  1.6922  1.8924  1.4222
 2391TIP3   OH2 7115   7.479   0.564   4.680  0.4755 -0.4129  0.0541
 2391TIP3    H1 7116   7.521   0.604   4.756  0.6538  0.3126 -0.4253
 2391TIP3    H2 7117   7.481   0.631   4.612 -0.7020 -0.6612 -0.2471
 2392TIP3   OH2 7118   3.307   2.208   6.159  0.2892  0.1684  0.1665
 2392TIP3    H1 7119   3.389   2.207   6.209  1.1690  1.5761 -1.1389
 2392TIP3    H2 7120   3.283   2.300   6.155 -0.2089  0.0077 -1.2305
 2393TIP3   OH2 7121   7.482   2.343   3.496 -0.1492 -0.1942 -0.1195
 2393TIP3    H1 7122   7.432   2.409   3.544 -0.2477 -1.2269  1.2710
 2393TIP3    H2 7123   7.571   2.378   3.494 -0.1614 -0.0902  0.7703
 2394TIP3   OH2 7124   7.062   1.562   4.298 -0.6547 -0.2829 -0.2703
 2394TIP3    H1 7125   7.081   1.565   4.204 -0.0728 -0.9810 -0.1881
 2394TIP3    H2 7126   6.998   1.491   4.308 -1.9304  0.8278 -0.3153
 2395TIP3   OH2 7127   3.840   5.831   0.955  0.0929 -0.1465  0.2824
 2395TIP3    H1 7128   3.756   5.848   0.998 -0.5067 -2.7518  0.3485
 2395TIP3    H2 7129   3.862   5.913   0.911 -3.7281  0.0091 -1.7506
 2396TIP3   OH2 7130  -0.021   6.104   0.292 -0.5466 -0.2197  0.1568
 2396TIP3    H1 7131   0.029   6.185   0.302 -0.0054 -0.3624 -1.1874
 2396TIP3    H2 7132   0.004   6.051   0.367 -0.5270  0.6568  0.7873
 2397TIP3   OH2 7133   3.602   5.076   0.809  0.1855 -0.0566 -0.1730
 2397TIP3    H1 7134   3.586   4.982   0.801 -1.1270 -0.0762  1.8322
 2397TIP3    H2 7135   3.675   5.083   0.870  0.4132  0.2428 -0.4735
 2398TIP3   OH2 7136   3.338   6.545   0.211 -0.2291 -0.7547 -0.7056
 2398TIP3    H1 7137   3.268   6.524   0.149 -2.5013  0.8633  1.1101
 2398TIP3    H2 7138   3.324   6.484   0.283 -0.3801  0.1648  0.0634
 2399TIP3   OH2 7139   3.099   0.932   5.132  0.7559  0.1872 -0.2292
 2399TIP3    H1 7140   3.135   0.867   5.071  0.4273  0.4424 -0.7068
 2399TIP3    H2 7141   3.004   0.921   5.124  0.5076  2.8644 -2.7852
 2400TIP3   OH2 7142   6.962   0.503   6.251  0.3207 -0.1383 -0.2201
 2400TIP3    H1 7143   6.890   0.561   6.227  0.5426 -0.1255 -0.8627
 2400TIP3    H2 7144   6.993   0.537   6.335  1.3929  1.5982 -1.2416
 2401TIP3   OH2 7145   0.666   3.082   3.003 -0.0297 -0.1768  0.1319
 2401TIP3    H1 7146   0.643   3.020   2.933  1.1253  1.0459 -1.4193
 2401TIP3    H2 7147   0.760   3.095   2.994 -0.4511  3.3180 -1.0508
 2402TIP3   OH2 7148   3.010   0.397   2.727 -0.1299 -0.2408  0.8495
 2402TIP3    H1 7149   3.029   0.441   2.644  0.3042 -2.2542 -0.1788
 2402TIP3    H2 7150   2.993   0.469   2.789 -0.3386  1.3141 -0.9259
 2403TIP3   OH2 7151   4.217   6.894   1.316  0.1095 -0.1214 -0.4228
 2403TIP3    H1 7152   4.207   6.939   1.232  0.7268 -1.6158 -1.3358
 2403TIP3    H2 7153   4.155   6.821   1.312 -2.0027  1.3860  1.6578
 2404TIP3   OH2 7154   0.519   2.814   0.244 -0.2946 -0.3101  0.2937
 2404TIP3    H1 7155   0.553   2.749   0.183 -1.0275 -2.1846  1.7835
 2404TIP3    H2 7156   0.454   2.863   0.194 -0.0815 -1.0462 -0.7306
 2405TIP3   OH2 7157   1.875   3.388   1.406  0.0796  0.0269  0.3937
 2405TIP3    H1 7158   1.915   3.339   1.335  0.4171 -2.3246  2.0770
 2405TIP3    H2 7159   1.816   3.450   1.363 -0.0310 -1.5508 -1.8754
 2406TIP3   OH2 7160   3.707   0.591   6.690  0.3545 -0.8204  0.1183
 2406TIP3    H1 7161   3.755   0.509   6.678  1.8640 -0.3657  2.4223
 2406TIP3    H2 7162   3.646   0.573   6.761  1.6517  0.3298  1.6138
 2407TIP3   OH2 7163   0.472   5.357   6.014 -0.0145 -0.5654 -0.3168
 2407TIP3    H1 7164   0.530   5.295   5.970  0.9127  0.2197 -0.2288
 2407TIP3    H2 7165   0.485   5.339   6.107 -0.3580 -0.7848 -0.3112
 2408TIP3   OH2 7166   1.242   5.845   3.701 -0.2358  0.4759 -0.7187
 2408TIP3    H1 7167   1.265   5.782   3.769  0.3204  1.1694 -0.2455
 2408TIP3    H2 7168   1.278   5.809   3.620 -0.5598 -0.1648 -0.5804
 2409TIP3   OH2 7169   6.294   4.452   4.634  0.0289 -0.2273  0.2786
 2409TIP3    H1 7170   6.270   4.447   4.726  0.5337  1.7562  0.5743
 2409TIP3    H2 7171   6.388   4.473   4.635  0.0545 -0.2394 -0.6758
 2410TIP3   OH2 7172   1.801   0.290   0.896  0.2156  0.3899  0.4119
 2410TIP3    H1 7173   1.886   0.283   0.940 -0.2207 -0.3513  1.1576
 2410TIP3    H2 7174   1.818   0.266   0.805  0.7311 -0.1598  0.6515
 2411TIP3   OH2 7175   1.054   5.999   5.180  0.4730 -0.4221 -0.3459
 2411TIP3    H1 7176   1.064   5.949   5.099  1.6969 -0.1739 -0.3693
 2411TIP3    H2 7177   0.960   6.003   5.194  0.1760  0.4395 -2.3154
 2412TIP3   OH2 7178   1.938   0.986   2.547 -0.0903  0.2905  0.4159
 2412TIP3    H1 7179   1.906   1.026   2.466 -0.4672 -1.6894 -0.4893
 2412TIP3    H2 7180   2.033   0.981   2.536 -0.0773  0.6059  0.3837
 2413TIP3   OH2 7181   6.260   2.785   3.065  0.1258 -0.2781  0.1348
 2413TIP3    H1 7182   6.215   2.862   3.100  0.2098  0.9429 -2.2237
 2413TIP3    H2 7183   6.265   2.724   3.138  0.3060  2.0720  2.1938
 2414TIP3   OH2 7184   1.478   6.819   5.961  0.7809  0.1601  0.2191
 2414TIP3    H1 7185   1.419   6.882   6.003 -0.0663 -0.0837 -0.5719
 2414TIP3    H2 7186   1.489   6.749   6.026 -2.0487 -1.1607 -0.5632
 2415TIP3   OH2 7187   0.601   7.011   3.196  0.7353  0.3129 -0.0987
 2415TIP3    H1 7188   0.631   7.030   3.285  0.6571  0.2977 -0.0681
 2415TIP3    H2 7189   0.676   7.029   3.140  1.0579 -0.4817  0.0559
 2416TIP3   OH2 7190   4.682   4.874   6.607  0.1207  0.0631  0.4368
 2416TIP3    H1 7191   4.748   4.882   6.677  0.6076 -2.5983  0.4211
 2416TIP3    H2 7192   4.599   4.864   6.654  0.3892 -1.2803  0.6647
 2417TIP3   OH2 7193   6.145   5.558   5.798 -0.3562  0.1474  0.2162
 2417TIP3    H1 7194   6.216   5.494   5.794  0.5116  1.1241 -0.1814
 2417TIP3    H2 7195   6.070   5.507   5.828  0.7669 -0.6737  1.7718
 2418TIP3   OH2 7196   0.290   4.184   2.007 -0.3807  0.1380  0.1022
 2418TIP3    H1 7197   0.342   4.112   2.042  1.8670  1.7216  0.2814
 2418TIP3    H2 7198   0.287   4.248   2.078 -1.9153  0.4594 -0.2179
 2419TIP3   OH2 7199   7.735   4.226   2.176 -0.5719 -0.1016  0.1034
 2419TIP3    H1 7200   7.692   4.147   2.145 -2.9730  1.5514 -1.0721
 2419TIP3    H2 7201   7.727   4.223   2.271 -1.5505 -0.8006  0.0124
 2420TIP3   OH2 7202   2.524   5.967   2.498 -0.2066  0.6007  0.2304
 2420TIP3    H1 7203   2.467   6.041   2.473  0.0888  1.2683  1.4544
 2420TIP3    H2 7204   2.467   5.911   2.552 -0.0722  0.6093  0.3819
 2421TIP3   OH2 7205   4.890   4.032   2.678  0.1134 -0.1023  0.4362
 2421TIP3    H1 7206   4.827   4.103   2.692  0.7922  0.8290 -0.9284
 2421TIP3    H2 7207   4.953   4.042   2.749  0.2676  0.7577  0.1923
 2422TIP3   OH2 7208   4.409   4.441   6.227 -0.6127 -0.2523 -0.1334
 2422TIP3    H1 7209   4.442   4.366   6.275 -1.1252 -0.1719  0.3621
 2422TIP3    H2 7210   4.414   4.415   6.135 -0.3253 -0.7002  0.0055
 2423TIP3   OH2 7211   2.067   1.975   2.027  0.0497  0.0193  0.2478
 2423TIP3    H1 7212   1.982   2.013   2.047 -0.2448 -0.7575  0.5009
 2423TIP3    H2 7213   2.125   2.050   2.017 -0.9985  0.6350 -1.5219
 2424TIP3   OH2 7214   4.470   0.205   4.627 -0.9011 -0.1346 -0.0257
 2424TIP3    H1 7215   4.468   0.296   4.656 -1.7078  0.1302 -0.8637
 2424TIP3    H2 7216   4.380   0.174   4.638 -0.7550 -0.6641 -0.2732
 2425TIP3   OH2 7217   0.916   2.188   5.263  0.3277 -0.5801 -0.3594
 2425TIP3    H1 7218   0.883   2.242   5.334  2.0209  0.0734 -0.0449
 2425TIP3    H2 7219   0.854   2.115   5.259 -0.6808  0.1634  0.7271
 2426TIP3   OH2 7220   4.038   6.176   6.290  0.5546  0.0302  0.5196
 2426TIP3    H1 7221   3.967   6.207   6.346 -0.2492  0.4552 -0.6942
 2426TIP3    H2 7222   4.111   6.234   6.309  0.1120  0.5279  0.7209
 2427TIP3   OH2 7223   4.399   0.901   0.114 -0.2587 -0.1512 -0.5614
 2427TIP3    H1 7224   4.319   0.901   0.166 -0.6893  1.2301 -1.1570
 2427TIP3    H2 7225   4.469   0.918   0.177 -0.4896 -0.8302 -0.1150
 2428TIP3   OH2 7226   5.747   6.598   1.867 -0.4096  0.3813 -0.5524
 2428TIP3    H1 7227   5.771   6.613   1.959 -0.2569 -0.9307 -0.3642
 2428TIP3    H2 7228   5.799   6.663   1.818  3.1580 -1.8721 -0.1184
 2429TIP3   OH2 7229   5.398   2.640   5.060  0.5465  0.2018 -0.4946
 2429TIP3    H1 7230   5.328   2.582   5.033  0.4582 -0.1804  0.5091
 2429TIP3    H2 7231   5.380   2.659   5.152  1.2308  0.8584 -0.4822
 2430TIP3   OH2 7232   7.019   3.033   0.667  0.3958 -0.2315  0.5647
 2430TIP3    H1 7233   6.949   3.024   0.602 -0.8919  1.4946  1.6218
 2430TIP3    H2 7234   7.010   2.956   0.723  1.0931 -1.3878 -0.8521
 2431TIP3   OH2 7235   7.020   5.200   4.168 -0.1081  0.1207  0.2277
 2431TIP3    H1 7236   6.950   5.244   4.120 -0.8622  0.5011  1.6270
 2431TIP3    H2 7237   7.085   5.269   4.184 -0.9180  0.5800  1.7141
 2432TIP3   OH2 7238   3.484   1.694   5.241 -0.1531  0.2785  0.1347
 2432TIP3    H1 7239   3.537   1.753   5.187  2.4503 -0.4160  1.7384
 2432TIP3    H2 7240   3.480   1.738   5.326 -1.7890  0.0574  0.1989
 2433TIP3   OH2 7241   2.027   0.998   3.835 -0.5841  0.0834  0.2491
 2433TIP3    H1 7242   2.002   1.045   3.915  0.9542  1.7115 -0.1552
 2433TIP3    H2 7243   2.122   1.003   3.833 -0.5772  0.1997 -1.7349
 2434TIP3   OH2 7244   6.559   7.247   5.444 -0.3474 -0.5840  0.7830
 2434TIP3    H1 7245   6.490   7.260   5.509 -1.1186 -0.9774  0.0698
 2434TIP3    H2 7246   6.640   7.242   5.494 -0.6224  1.4640  1.5413
 2435TIP3   OH2 7247   0.655   5.163   0.916 -0.4158  0.1471  0.8781
 2435TIP3    H1 7248   0.600   5.170   0.995  0.2135  2.2208  1.1860
 2435TIP3    H2 7249   0.736   5.208   0.940  0.5482 -0.8840 -0.3381
 2436TIP3   OH2 7250   4.786   6.031   3.206  0.1554 -0.6159  0.1848
 2436TIP3    H1 7251   4.818   6.035   3.116  1.1374  0.5971  0.5547
 2436TIP3    H2 7252   4.713   5.970   3.203 -0.7205  0.4344 -1.7135
 2437TIP3   OH2 7253   1.309   2.414   2.190 -0.2281 -0.0243  0.4999
 2437TIP3    H1 7254   1.361   2.367   2.125 -0.4651 -0.5111  0.6619
 2437TIP3    H2 7255   1.262   2.481   2.139 -1.1763 -1.0328  0.0071
 2438TIP3   OH2 7256   0.215   3.902   1.936  1.0791  0.3676  0.1089
 2438TIP3    H1 7257   0.229   3.991   1.967 -0.0585  0.4050  0.5435
 2438TIP3    H2 7258   0.120   3.894   1.925  1.2894 -0.2480 -1.5660
 2439TIP3   OH2 7259   3.897   7.460   4.683  0.0692 -0.0544 -0.3539
 2439TIP3    H1 7260   3.933   7.548   4.697  1.2119 -0.5347 -0.1493
 2439TIP3    H2 7261   3.930   7.434   4.597  2.1400 -1.3730  0.7493
 2440TIP3   OH2 7262   5.736   1.530   6.668 -0.8184  0.7192  0.1880
 2440TIP3    H1 7263   5.728   1.436   6.682  0.2581  0.5371 -0.3284
 2440TIP3    H2 7264   5.651   1.566   6.695 -1.3466 -0.4291  0.0925
 2441TIP3   OH2 7265   4.898   1.778   2.490 -0.2722 -0.3421 -0.2883
 2441TIP3    H1 7266   4.974   1.732   2.457 -0.0672  1.2389 -2.2440
 2441TIP3    H2 7267   4.823   1.736   2.447 -0.3313 -0.6115  0.0751
 2442TIP3   OH2 7268   2.420   3.248   4.256  0.6104  0.2181 -0.7279
 2442TIP3    H1 7269   2.391   3.276   4.170  1.3931 -0.5106 -1.2407
 2442TIP3    H2 7270   2.479   3.317   4.286 -2.2473  2.2147  0.7429
 2443TIP3   OH2 7271   5.988   7.363   1.448 -0.3184 -0.4236  0.0415
 2443TIP3    H1 7272   6.030   7.347   1.364  2.0966 -2.6773  1.5266
 2443TIP3    H2 7273   6.040   7.313   1.511 -3.1805 -0.4782  2.6179
 2444TIP3   OH2 7274   3.402   1.099   3.725 -0.2225 -0.3102 -0.4620
 2444TIP3    H1 7275   3.486   1.082   3.682 -0.5278 -0.3378 -1.0556
 2444TIP3    H2 7276   3.421   1.168   3.789  0.1179  0.1540 -1.0545
 2445TIP3   OH2 7277   0.677   3.066   2.090 -0.1634  0.3477  0.5006
 2445TIP3    H1 7278   0.625   3.003   2.139  0.0848  0.1800  0.5495
 2445TIP3    H2 7279   0.615   3.103   2.026 -0.5275  0.6868  1.0393
 2446TIP3   OH2 7280   2.436   5.208   1.041  0.3367  0.5668  0.0921
 2446TIP3    H1 7281   2.392   5.128   1.071  2.2814 -0.5098  0.2192
 2446TIP3    H2 7282   2.409   5.217   0.950  0.8265 -0.8102 -0.2193
 2447TIP3   OH2 7283   6.073   4.974   3.870 -0.3647  0.7372 -0.0030
 2447TIP3    H1 7284   6.043   4.982   3.960  0.1981  1.0316  0.1655
 2447TIP3    H2 7285   6.108   4.885   3.864 -2.4135 -0.0780 -0.5674
 2448TIP3   OH2 7286   1.208   6.751   0.336 -0.7565 -0.0638 -0.5294
 2448TIP3    H1 7287   1.122   6.758   0.379 -0.1199 -1.0942  0.9782
 2448TIP3    H2 7288   1.226   6.657   0.333 -0.6612 -0.0427 -2.9483
 2449TIP3   OH2 7289   8.273   4.218   0.095 -0.3226  0.2432 -0.1264
 2449TIP3    H1 7290   8.178   4.228   0.082 -0.5076 -0.6155  0.4755
 2449TIP3    H2 7291   8.280   4.167   0.175  0.6351 -0.8654 -0.8984
 2450TIP3   OH2 7292   0.093   6.205   1.130  0.4074 -0.0455 -0.7786
 2450TIP3    H1 7293   0.066   6.235   1.217  0.9581  1.3085 -1.0551
 2450TIP3    H2 7294   0.011   6.182   1.086 -0.0051  0.7586 -0.4449
 2451TIP3   OH2 7295   7.276   3.729   1.364  0.1757 -0.1251 -0.0768
 2451TIP3    H1 7296   7.366   3.710   1.338 -0.1412 -0.2440 -1.1048
 2451TIP3    H2 7297   7.246   3.649   1.407 -0.0447 -0.7678 -1.3987
 2452TIP3   OH2 7298   5.608   7.129   4.450  0.0070 -0.1277  0.0924
 2452TIP3    H1 7299   5.545   7.066   4.415 -0.4544  0.2800  0.1773
 2452TIP3    H2 7300   5.571   7.214   4.429  1.2138  0.1496 -1.1120
 2453TIP3   OH2 7301   6.431   6.418   0.598 -0.4695 -0.3625 -0.3049
 2453TIP3    H1 7302   6.360   6.483   0.596 -1.0929 -1.0457 -1.6928
 2453TIP3    H2 7303   6.494   6.454   0.661 -0.4127  1.9784 -1.5623
 2454TIP3   OH2 7304   4.175   7.594   1.322 -0.2288 -0.4945  0.6245
 2454TIP3    H1 7305   4.128   7.675   1.341 -1.4907 -0.9969 -0.2397
 2454TIP3    H2 7306   4.255   7.600   1.374  0.3410  1.8934 -0.4070
 2455TIP3   OH2 7307   7.560   6.553   3.485 -0.6638 -0.1969  0.2429
 2455TIP3    H1 7308   7.508   6.566   3.406 -0.1546 -0.5273 -0.1584
 2455TIP3    H2 7309   7.618   6.629   3.488 -0.8328 -0.0765  0.4136
 2456TIP3   OH2 7310   5.698   2.268   5.369 -0.3268  0.8436 -0.5707
 2456TIP3    H1 7311   5.690   2.281   5.463  1.7518 -1.1701 -0.0189
 2456TIP3    H2 7312   5.691   2.357   5.332 -0.1496  1.8047  1.5627
 2457TIP3   OH2 7313   4.774   0.348   2.173 -0.5441  0.5702  0.1114
 2457TIP3    H1 7314   4.868   0.342   2.151 -0.9724  0.2965 -1.8859
 2457TIP3    H2 7315   4.762   0.284   2.242  1.0100  1.6865  1.5052
 2458TIP3   OH2 7316   1.391   6.155   5.860  0.2182 -0.0159 -0.5534
 2458TIP3    H1 7317   1.450   6.089   5.895  1.2321  0.8784 -0.5441
 2458TIP3    H2 7318   1.429   6.180   5.776  0.1647  0.9576 -0.3060
 2459TIP3   OH2 7319   4.543   5.861   3.231 -0.5941 -0.3781 -0.4030
 2459TIP3    H1 7320   4.478   5.913   3.183 -1.7327 -0.2190  1.2054
 2459TIP3    H2 7321   4.494   5.786   3.264  0.0718 -0.3693  0.6690
 2460TIP3   OH2 7322   3.702   3.956   4.339  0.2389 -0.0949 -0.0980
 2460TIP3    H1 7323   3.760   4.015   4.387  1.1880 -0.1363 -1.1200
 2460TIP3    H2 7324   3.759   3.917   4.272 -0.5843 -1.4618 -0.0401
 2461TIP3   OH2 7325   5.051   5.082   0.250  0.1546  0.6172 -0.7374
 2461TIP3    H1 7326   5.105   5.111   0.176  2.0930 -0.8260  0.0302
 2461TIP3    H2 7327   4.984   5.026   0.211  1.0481  0.0169 -1.4357
 2462TIP3   OH2 7328   5.759   4.317   2.490  0.2340  0.0617 -0.3312
 2462TIP3    H1 7329   5.769   4.266   2.410 -1.2769 -0.1072 -0.4419
 2462TIP3    H2 7330   5.708   4.261   2.549  1.7637 -0.0303  0.9827
 2463TIP3   OH2 7331   2.254   0.990   2.050 -0.4840  0.3498  0.6801
 2463TIP3    H1 7332   2.215   1.022   2.131 -1.0261 -2.0778  1.4755
 2463TIP3    H2 7333   2.253   0.894   2.059  1.2069  0.0550 -1.3814
 2464TIP3   OH2 7334   0.875   3.318   3.113  0.3689 -0.0413 -0.3279
 2464TIP3    H1 7335   0.823   3.394   3.139 -2.3082 -2.0896  0.7451
 2464TIP3    H2 7336   0.928   3.298   3.190 -0.7320 -0.6636  0.2875
 2465TIP3   OH2 7337   7.059   5.534   3.397  0.8831  0.2028 -0.6753
 2465TIP3    H1 7338   7.030   5.487   3.475  0.7729 -2.3838 -2.1436
 2465TIP3    H2 7339   7.036   5.625   3.413 -1.4833 -0.6329  1.2266
 2466TIP3   OH2 7340   2.286   3.360   5.126  0.0367 -0.0660 -1.3082
 2466TIP3    H1 7341   2.293   3.275   5.081 -0.9626 -0.8751 -0.0086
 2466TIP3    H2 7342   2.355   3.413   5.087  0.5360 -1.3982 -2.3330
 2467TIP3   OH2 7343   1.582   0.676   6.199 -0.1668 -0.5592 -0.2870
 2467TIP3    H1 7344   1.620   0.761   6.221  1.7816 -1.1896 -0.9368
 2467TIP3    H2 7345   1.539   0.646   6.279 -2.3979  1.7361 -0.5132
 2468TIP3   OH2 7346   5.942   3.987   6.343 -0.2516  0.6632 -0.0081
 2468TIP3    H1 7347   5.965   4.071   6.302 -1.2680  0.2226 -1.5603
 2468TIP3    H2 7348   5.950   4.004   6.437  0.6676  2.1603 -0.3090
 2469TIP3   OH2 7349   6.179   3.711   0.619  0.7948 -0.3423  0.0903
 2469TIP3    H1 7350   6.225   3.793   0.605 -0.4717  0.3917  0.1036
 2469TIP3    H2 7351   6.229   3.646   0.569  3.3841 -0.1480  2.2308
 2470TIP3   OH2 7352   2.634   1.904   1.769  0.0770  0.2546 -0.2429
 2470TIP3    H1 7353   2.623   1.813   1.741  0.0549 -0.1365  0.9578
 2470TIP3    H2 7354   2.715   1.932   1.728  1.0742 -0.9242  0.8475
 2471TIP3   OH2 7355   3.331   4.608   6.650  0.2579  0.2184 -0.2217
 2471TIP3    H1 7356   3.250   4.593   6.700 -0.6236  0.7582 -1.4523
 2471TIP3    H2 7357   3.349   4.701   6.662  0.2104  0.2836 -0.6394
 2472TIP3   OH2 7358   0.726   4.397   6.664  0.3684  0.4695 -0.7272
 2472TIP3    H1 7359   0.715   4.302   6.667  0.8563  0.4110 -0.6599
 2472TIP3    H2 7360   0.638   4.432   6.671  0.2251  0.0268 -0.2700
 2473TIP3   OH2 7361   6.913   0.440   5.475  0.4357 -0.1632 -0.1688
 2473TIP3    H1 7362   6.852   0.507   5.508 -0.8422 -1.8868  1.1886
 2473TIP3    H2 7363   6.954   0.404   5.554  0.3040 -1.6675 -0.7464
 2474TIP3   OH2 7364   8.208   3.987   1.382  0.5031 -0.3526  0.1625
 2474TIP3    H1 7365   8.216   3.929   1.458 -0.6637  1.4448  1.7788
 2474TIP3    H2 7366   8.113   3.994   1.368  0.6944 -0.5232 -1.4051
 2475TIP3   OH2 7367   4.621   2.935   6.086  0.2113  0.1797 -0.8137
 2475TIP3    H1 7368   4.695   2.947   6.025  0.3775 -1.1273 -0.8862
 2475TIP3    H2 7369   4.545   2.967   6.037  0.5093  0.1918 -1.2753
 2476TIP3   OH2 7370   5.808   4.135   4.141  0.0946 -0.0198 -0.0294
 2476TIP3    H1 7371   5.863   4.169   4.070  0.0184 -0.2360 -0.1938
 2476TIP3    H2 7372   5.764   4.212   4.176  0.1227  0.0876 -0.2268
 2477TIP3   OH2 7373   0.426   6.013   5.830  0.1364 -0.1631  0.4437
 2477TIP3    H1 7374   0.350   5.955   5.820  1.0459 -1.2567 -0.3952
 2477TIP3    H2 7375   0.389   6.096   5.861 -1.3577 -0.7743  0.3753
 2478TIP3   OH2 7376   6.256   6.543   0.132  0.0955  0.4643  0.1553
 2478TIP3    H1 7377   6.261   6.498   0.048  0.2608 -0.9057  0.8749
 2478TIP3    H2 7378   6.269   6.636   0.111 -0.7138  0.2481 -1.4209
 2479TIP3   OH2 7379   7.670   2.401   6.122 -0.1632  0.4297 -0.8164
 2479TIP3    H1 7380   7.583   2.407   6.160 -0.4132 -1.2225 -1.0715
 2479TIP3    H2 7381   7.673   2.471   6.056 -1.5828 -0.0251 -1.3779
 2480TIP3   OH2 7382   6.108   2.580   6.441  0.1600  0.1773  0.4919
 2480TIP3    H1 7383   6.034   2.601   6.383  1.7477 -0.2598 -1.8204
 2480TIP3    H2 7384   6.129   2.662   6.484 -1.4734  0.3692  1.0006
 2481TIP3   OH2 7385   7.657   6.797   0.248 -0.0381 -0.7599 -0.0318
 2481TIP3    H1 7386   7.625   6.707   0.238  0.8493 -1.3668  2.0463
 2481TIP3    H2 7387   7.592   6.841   0.302  0.7667 -0.9081  1.0743
 2482TIP3   OH2 7388   7.252   1.118   6.326  0.3270 -0.5222 -0.2899
 2482TIP3    H1 7389   7.202   1.185   6.279 -0.7897 -0.9100  0.2983
 2482TIP3    H2 7390   7.194   1.042   6.327  0.6398 -0.7584  1.0376
 2483TIP3   OH2 7391   0.078   4.296   1.592 -0.5076 -0.1014 -0.4172
 2483TIP3    H1 7392   0.161   4.341   1.577 -0.1647 -0.7960 -0.6632
 2483TIP3    H2 7393   0.011   4.364   1.581  0.0221  0.4676 -0.2015
 2484TIP3   OH2 7394   6.599   7.457   6.227 -0.2319  0.4486 -0.4302
 2484TIP3    H1 7395   6.560   7.466   6.314  1.5017  0.9904  0.3220
 2484TIP3    H2 7396   6.626   7.545   6.203  0.6448  0.0703 -0.8669
 2485TIP3   OH2 7397   1.892   2.916   3.989  0.0507  0.7201  0.4624
 2485TIP3    H1 7398   1.939   2.929   3.906 -0.7563 -0.2864 -0.1775
 2485TIP3    H2 7399   1.802   2.942   3.970 -0.6757 -1.6614  0.3173
 2486TIP3   OH2 7400   3.963   1.664   4.097  0.0995 -0.6951  0.5111
 2486TIP3    H1 7401   3.980   1.757   4.083 -0.8451 -0.7846 -1.7926
 2486TIP3    H2 7402   4.032   1.635   4.156  1.0112  1.2475  0.4680
 2487TIP3   OH2 7403   4.440   5.285   6.354  0.0723  0.0274  0.0177
 2487TIP3    H1 7404   4.474   5.233   6.427  0.0920  0.1638  0.1068
 2487TIP3    H2 7405   4.379   5.227   6.310  1.6242 -0.8047 -1.1256
 2488TIP3   OH2 7406   1.003   0.958   5.051  0.1619 -0.3833 -0.3066
 2488TIP3    H1 7407   0.922   0.977   5.099  0.4068  1.9937 -0.7027
 2488TIP3    H2 7408   1.073   0.976   5.114  0.4331  0.6214 -0.8759
 2489TIP3   OH2 7409   1.196   0.209   3.027  0.7878 -0.2338 -0.5194
 2489TIP3    H1 7410   1.150   0.126   3.040  0.6907 -0.6496 -2.9577
 2489TIP3    H2 7411   1.131   0.276   3.050  1.1630 -0.7361  2.3657
 2490TIP3   OH2 7412   2.162   0.957   4.702 -0.4171  0.1003 -0.0149
 2490TIP3    H1 7413   2.152   1.050   4.683 -0.3387 -0.0345 -0.7410
 2490TIP3    H2 7414   2.185   0.954   4.795 -0.2582  0.8125 -0.0250
 2491TIP3   OH2 7415   5.826   7.387   2.430 -0.2450  0.2326  0.2950
 2491TIP3    H1 7416   5.765   7.315   2.445  1.2304 -0.9457  0.8831
 2491TIP3    H2 7417   5.829   7.396   2.335 -0.8797 -0.0758  0.2364
 2492TIP3   OH2 7418   0.585   3.658   6.446 -0.3127  0.3056 -0.5854
 2492TIP3    H1 7419   0.527   3.657   6.522 -0.0441 -0.4209 -0.3867
 2492TIP3    H2 7420   0.653   3.593   6.466 -0.0834  0.3095 -1.3187
 2493TIP3   OH2 7421   3.821   6.700   5.661 -0.1418 -0.1288  0.2314
 2493TIP3    H1 7422   3.909   6.669   5.682 -0.6288 -0.7936  1.3700
 2493TIP3    H2 7423   3.777   6.709   5.746 -1.0381  0.6249 -0.2852
 2494TIP3   OH2 7424   8.084   2.458   5.466  0.1955  0.1082 -0.0807
 2494TIP3    H1 7425   8.101   2.398   5.538  1.2985 -1.1428 -1.3281
 2494TIP3    H2 7426   8.119   2.414   5.388  0.2591  1.9835 -1.1900
 2495TIP3   OH2 7427   2.813   0.925   2.902 -0.3090 -0.2808  0.6217
 2495TIP3    H1 7428   2.892   0.873   2.912  0.9929  0.9958 -2.0797
 2495TIP3    H2 7429   2.743   0.868   2.935  1.6306 -1.5129  2.9263
 2496TIP3   OH2 7430   5.659   7.657   2.050 -0.3580  0.2895  0.1811
 2496TIP3    H1 7431   5.572   7.628   2.022 -0.0462 -0.4921 -0.0162
 2496TIP3    H2 7432   5.662   7.638   2.144  0.2086 -1.3150 -0.1356
 2497TIP3   OH2 7433   3.096   6.807   0.597 -0.3228  0.2475 -0.0495
 2497TIP3    H1 7434   3.112   6.773   0.509 -0.3742  0.0505  0.0166
 2497TIP3    H2 7435   3.006   6.780   0.617  0.3456 -1.5043  0.8641
 2498TIP3   OH2 7436   0.895   7.688   4.948 -0.1525 -0.0286  1.6313
 2498TIP3    H1 7437   0.897   7.601   4.908 -0.8057  0.5856  0.2024
 2498TIP3    H2 7438   0.987   7.709   4.965  0.4549  0.6577 -1.8222
 2499TIP3   OH2 7439   5.977   6.242   1.156  0.0782 -0.9874  0.5725
 2499TIP3    H1 7440   5.950   6.151   1.162  1.4924 -1.5195 -0.5664
 2499TIP3    H2 7441   5.991   6.257   1.063  1.2445 -0.0453  0.8789
 2500TIP3   OH2 7442   4.359   3.399   1.439 -0.1128 -0.3252  0.1330
 2500TIP3    H1 7443   4.332   3.416   1.349 -0.8169  1.0183  0.5688
 2500TIP3    H2 7444   4.351   3.304   1.449 -2.5209 -0.2583 -0.4820
 2501TIP3   OH2 7445   1.745   3.460   0.145  0.3253 -0.0905  0.1782
 2501TIP3    H1 7446   1.775   3.510   0.070  1.0182 -1.6399 -0.6163
 2501TIP3    H2 7447   1.743   3.523   0.217 -0.2840  1.4075 -1.1000
 2502TIP3   OH2 7448   1.330   1.606   0.828  0.1673  0.0014  0.2735
 2502TIP3    H1 7449   1.403   1.592   0.889  0.5999  2.8990  0.5567
 2502TIP3    H2 7450   1.365   1.579   0.743  0.6532 -1.0752  0.7904
 2503TIP3   OH2 7451   4.813   1.531   6.745 -0.1324  0.0196  0.5371
 2503TIP3    H1 7452   4.836   1.589   6.818  1.0543  0.4902 -0.1915
 2503TIP3    H2 7453   4.852   1.573   6.668 -1.2597 -0.5313 -0.3626
 2504TIP3   OH2 7454   6.648   4.996   2.698  0.2032  0.3913  0.1573
 2504TIP3    H1 7455   6.637   4.939   2.622  0.5857  2.2111 -1.3450
 2504TIP3    H2 7456   6.738   4.981   2.727  0.1779 -0.0391  0.0167
 2505TIP3   OH2 7457   8.249   4.395   0.729  0.0366 -0.1873 -0.7813
 2505TIP3    H1 7458   8.175   4.350   0.688 -2.1075  2.6050 -0.2455
 2505TIP3    H2 7459   8.274   4.463   0.666  0.9500  0.0691 -0.1646
 2506TIP3   OH2 7460   8.067   7.124   1.455  0.2830  0.1988 -0.4122
 2506TIP3    H1 7461   8.102   7.213   1.445  1.0970  0.1313  1.3539
 2506TIP3    H2 7462   8.129   7.069   1.408 -0.2406  0.5341 -1.5432
 2507TIP3   OH2 7463   4.386   5.726   0.346  0.0162 -0.0791 -0.1653
 2507TIP3    H1 7464   4.296   5.716   0.375 -0.2760 -0.4622 -1.1651
 2507TIP3    H2 7465   4.416   5.807   0.386 -0.7777  0.0614  0.1476
 2508TIP3   OH2 7466   6.025   2.244   4.146  0.0780 -0.6593 -0.5611
 2508TIP3    H1 7467   5.978   2.178   4.197  1.2385 -1.4912 -0.5117
 2508TIP3    H2 7468   5.958   2.306   4.118 -0.8689 -1.2392  0.3594
 2509TIP3   OH2 7469   8.255   6.539   1.560 -0.2630  0.0669 -0.8166
 2509TIP3    H1 7470   8.315   6.475   1.598 -1.5035 -0.7161 -0.1096
 2509TIP3    H2 7471   8.169   6.512   1.590 -0.9340  1.4626 -1.3905
 2510TIP3   OH2 7472   8.109   5.277   6.089  0.0976 -0.2517 -0.2420
 2510TIP3    H1 7473   8.040   5.211   6.083  0.0266 -0.3474  1.2613
 2510TIP3    H2 7474   8.189   5.231   6.065  0.0797 -0.9651  1.0046
 2511TIP3   OH2 7475   6.903   1.805   4.369 -0.4963 -0.5129 -0.0555
 2511TIP3    H1 7476   6.917   1.790   4.462  1.9129 -0.2953 -0.3042
 2511TIP3    H2 7477   6.884   1.899   4.363  1.0470 -0.1568  0.1218
 2512TIP3   OH2 7478   7.412   2.078   6.477  0.5771  0.1682 -0.0138
 2512TIP3    H1 7479   7.431   2.100   6.386 -1.5614  0.8953 -0.3295
 2512TIP3    H2 7480   7.472   2.135   6.528  0.6291  0.9682 -0.9419
 2513TIP3   OH2 7481   6.879   6.668   3.898  0.5873  0.1712 -0.0359
 2513TIP3    H1 7482   6.826   6.747   3.897 -0.7825 -0.6801  1.0694
 2513TIP3    H2 7483   6.966   6.697   3.925  0.0912  1.2772  0.4323
 2514TIP3   OH2 7484   1.190   2.358   3.670  0.8404  0.3570 -0.2431
 2514TIP3    H1 7485   1.204   2.283   3.612  0.1474  0.4588 -0.5521
 2514TIP3    H2 7486   1.113   2.402   3.634  1.1749  1.1579 -0.0000
 2515TIP3   OH2 7487   0.866   5.670   1.120 -0.3332 -0.0553 -0.1227
 2515TIP3    H1 7488   0.822   5.594   1.158 -1.8548  1.7490  1.9826
 2515TIP3    H2 7489   0.939   5.633   1.070 -0.8846 -2.8593  0.9633
 2516TIP3   OH2 7490   5.889   3.842   2.845 -0.0757 -0.3886  0.5309
 2516TIP3    H1 7491   5.841   3.819   2.765 -1.8247  0.2961  1.3222
 2516TIP3    H2 7492   5.911   3.758   2.885 -1.2691 -0.7340  0.4980
 2517TIP3   OH2 7493   3.467   4.816   6.284  0.1302 -0.2509 -0.4717
 2517TIP3    H1 7494   3.409   4.891   6.267 -0.1376 -0.4765 -0.5512
 2517TIP3    H2 7495   3.408   4.741   6.288  0.4458 -0.5209 -0.8338
 2518TIP3   OH2 7496   0.977   6.598   2.443  0.1121  0.2602  0.2940
 2518TIP3    H1 7497   0.951   6.523   2.389  1.7563 -0.4854  0.4860
 2518TIP3    H2 7498   0.941   6.579   2.530 -0.2026  0.1214  0.1372
 2519TIP3   OH2 7499   5.308   2.551   1.255  0.1094 -0.3241  0.6354
 2519TIP3    H1 7500   5.321   2.566   1.161  0.7210 -3.1630  0.1874
 2519TIP3    H2 7501   5.395   2.566   1.294 -0.1931  1.0735  0.8336
 2520TIP3   OH2 7502   6.892   1.406   1.090 -0.5315  0.0888  0.2414
 2520TIP3    H1 7503   6.870   1.489   1.048  1.0881  0.5264  0.2041
 2520TIP3    H2 7504   6.866   1.418   1.181  0.7934  1.1201  0.5146
 2521TIP3   OH2 7505   3.449   7.769   6.177  0.6872  0.4378 -0.3505
 2521TIP3    H1 7506   3.382   7.808   6.121  0.7924  1.1409  0.0039
 2521TIP3    H2 7507   3.531   7.809   6.148  0.7982  0.4677  0.0069
 2522TIP3   OH2 7508   3.533   0.006   0.585 -0.4925  0.4651 -0.1687
 2522TIP3    H1 7509   3.570  -0.042   0.511  2.0935 -3.9529  3.5282
 2522TIP3    H2 7510   3.591   0.082   0.596  0.2658  0.0991 -1.4557
 2523TIP3   OH2 7511   5.427   0.346   0.885  0.1367 -0.7904  0.1548
 2523TIP3    H1 7512   5.475   0.411   0.936  1.4138 -1.3144 -0.3225
 2523TIP3    H2 7513   5.448   0.263   0.927 -0.9767 -0.9633  0.3824
 2524TIP3   OH2 7514   2.579   5.133   5.021  0.7697 -0.7003  0.0540
 2524TIP3    H1 7515   2.645   5.187   4.977 -1.4531  3.2580  1.0537
 2524TIP3    H2 7516   2.629   5.081   5.084  3.2478 -1.0380 -2.0316
 2525TIP3   OH2 7517   2.217   2.233   0.043  0.3016 -0.1623  0.2708
 2525TIP3    H1 7518   2.143   2.287   0.070 -0.7681 -1.2506 -0.4157
 2525TIP3    H2 7519   2.226   2.168   0.112  0.0912 -0.5280 -0.0431
 2526TIP3   OH2 7520   3.821   4.443   3.243 -0.3695  0.3830  0.6295
 2526TIP3    H1 7521   3.790   4.496   3.170  1.1917  0.3706 -0.0812
 2526TIP3    H2 7522   3.828   4.504   3.316  1.0438  1.1069 -0.0790
 2527TIP3   OH2 7523   2.846   0.944   5.886  0.2972 -0.3172 -0.0147
 2527TIP3    H1 7524   2.897   0.876   5.842  1.0699 -0.0656  0.4642
 2527TIP3    H2 7525   2.870   1.025   5.840 -0.1072 -0.2690 -0.1471
 2528TIP3   OH2 7526   6.962   4.541   4.493  0.5405 -0.3837  0.0159
 2528TIP3    H1 7527   7.010   4.611   4.537 -1.3818 -1.0495  3.4613
 2528TIP3    H2 7528   6.884   4.583   4.458  0.4863 -0.4324  0.0791
 2529TIP3   OH2 7529   6.729   5.013   4.937  0.3183 -0.5092 -0.1157
 2529TIP3    H1 7530   6.653   5.061   4.907  1.6315  2.1595  0.5460
 2529TIP3    H2 7531   6.721   5.013   5.033  1.4778  0.5017  0.0120
 2530TIP3   OH2 7532   3.957   0.653   3.386 -0.1950 -0.1983 -0.0817
 2530TIP3    H1 7533   3.960   0.627   3.293 -1.1102 -0.3576 -0.0818
 2530TIP3    H2 7534   3.888   0.719   3.390  0.2362  0.2303  0.3976
 2531TIP3   OH2 7535   6.510   6.958   3.755  0.0246 -0.1702 -0.1295
 2531TIP3    H1 7536   6.566   6.903   3.700  0.1181 -0.6639  0.4523
 2531TIP3    H2 7537   6.543   7.046   3.742  1.7390 -0.5747  1.1147
 2532TIP3   OH2 7538   0.648   0.429   3.028 -0.0109 -0.0643  0.2598
 2532TIP3    H1 7539   0.588   0.418   3.101 -0.6045 -0.8321 -0.3384
 2532TIP3    H2 7540   0.597   0.409   2.950  1.0818 -1.0132 -0.2478
 2533TIP3   OH2 7541   3.068   4.088   3.650 -0.5478 -0.1417 -0.4860
 2533TIP3    H1 7542   3.142   4.136   3.687 -0.2352  0.1465 -1.4463
 2533TIP3    H2 7543   3.102   4.001   3.631  0.2985  0.6535 -3.1128
 2534TIP3   OH2 7544   6.439   6.825   3.125 -0.1193 -0.2070 -0.3524
 2534TIP3    H1 7545   6.532   6.803   3.129  0.0040  0.4893  1.1033
 2534TIP3    H2 7546   6.399   6.777   3.197 -0.1988  2.3997  1.4919
 2535TIP3   OH2 7547   2.683   0.145   6.667  0.0289  0.1680 -0.0115
 2535TIP3    H1 7548   2.647   0.227   6.633  0.7447  1.1852  1.5596
 2535TIP3    H2 7549   2.777   0.152   6.649 -0.0003 -0.6607 -0.5238
 2536TIP3   OH2 7550   6.991   3.474   3.889 -0.3438  0.6824 -0.4600
 2536TIP3    H1 7551   7.014   3.567   3.889  0.4698  0.4955 -1.0816
 2536TIP3    H2 7552   6.943   3.460   3.808 -1.5109  0.7875  0.1925
 2537TIP3   OH2 7553   7.428   4.248   2.454  0.2206  0.3775 -0.1165
 2537TIP3    H1 7554   7.432   4.286   2.542  0.6545 -1.7646  0.8438
 2537TIP3    H2 7555   7.519   4.249   2.424  0.0554  1.2215 -0.6252
 2538TIP3   OH2 7556   7.651   4.863   5.587  0.2553 -0.4316 -0.3626
 2538TIP3    H1 7557   7.562   4.883   5.616  0.2571  1.6318 -1.6141
 2538TIP3    H2 7558   7.703   4.863   5.667 -0.2445  2.1864  0.0458
 2539TIP3   OH2 7559   2.893   7.142   2.260  0.5067 -0.3469  0.1605
 2539TIP3    H1 7560   2.891   7.131   2.355 -3.8029  2.4248  0.6954
 2539TIP3    H2 7561   2.857   7.061   2.225  1.4915 -1.1186  0.8681
 2540TIP3   OH2 7562   4.713   6.550   1.829  0.4282 -0.1026 -0.2266
 2540TIP3    H1 7563   4.714   6.643   1.852 -1.3524 -0.2385  0.5286
 2540TIP3    H2 7564   4.777   6.510   1.888 -0.9860  0.2148  1.5945
 2541TIP3   OH2 7565   0.993   7.080   6.397  0.1651 -0.2039 -0.3671
 2541TIP3    H1 7566   0.976   7.144   6.328 -1.0496  0.1595  0.2345
 2541TIP3    H2 7567   1.017   7.133   6.474  2.3141 -0.6289 -0.6670
 2542TIP3   OH2 7568   4.960   4.185   0.840 -0.0688  0.3731  0.2170
 2542TIP3    H1 7569   5.021   4.229   0.780  1.1392 -0.4646  0.7687
 2542TIP3    H2 7570   4.876   4.226   0.824  0.4615  0.9550 -1.2364
 2543TIP3   OH2 7571   3.202   6.935   1.034 -0.2406  0.0210  0.6367
 2543TIP3    H1 7572   3.154   6.981   1.103 -1.4781 -1.1700  0.6185
 2543TIP3    H2 7573   3.261   6.876   1.081 -0.3349 -0.0331  0.6891
 2544TIP3   OH2 7574   6.691   3.866   1.027  0.1661 -0.2743  0.0265
 2544TIP3    H1 7575   6.624   3.819   0.977  1.8019 -1.6883 -0.9482
 2544TIP3    H2 7576   6.698   3.817   1.109  1.1268 -1.1675 -0.5577
 2545TIP3   OH2 7577   1.763   4.285   2.735  0.7983  0.3335  0.7477
 2545TIP3    H1 7578   1.715   4.366   2.718  0.2000 -0.0161  0.7083
 2545TIP3    H2 7579   1.773   4.244   2.649  1.2874  0.4726  0.7411
 2546TIP3   OH2 7580   4.807   1.752   0.267 -0.1624  0.1217 -0.0284
 2546TIP3    H1 7581   4.759   1.790   0.340 -1.0991  0.3620 -0.7576
 2546TIP3    H2 7582   4.897   1.783   0.278 -0.3868  0.4887  0.7812
 2547TIP3   OH2 7583   7.177   0.338   3.618 -0.3742  0.2572  0.3622
 2547TIP3    H1 7584   7.211   0.389   3.544  1.2679  0.8038  1.4403
 2547TIP3    H2 7585   7.134   0.262   3.577 -1.9014  1.8781 -1.2293
 2548TIP3   OH2 7586   8.255   1.222   0.736  0.2117  0.2764 -0.0849
 2548TIP3    H1 7587   8.280   1.284   0.805  0.7824 -0.4886  0.4128
 2548TIP3    H2 7588   8.327   1.225   0.674  0.1365  0.2760 -0.1715
 2549TIP3   OH2 7589   1.297   3.158   5.476 -0.0315 -0.2520  0.5659
 2549TIP3    H1 7590   1.354   3.099   5.526  0.8005 -0.3198 -0.4390
 2549TIP3    H2 7591   1.351   3.235   5.460 -0.2828 -0.2464 -0.2711
 2550TIP3   OH2 7592   0.906   4.327   2.950  0.2089 -0.2298  0.3796
 2550TIP3    H1 7593   0.993   4.324   2.992 -0.4162 -0.1655  1.7492
 2550TIP3    H2 7594   0.851   4.372   3.014 -0.5509  0.9343 -1.0356
 2551TIP3   OH2 7595   1.663   2.368   5.772  0.0627 -0.1866 -0.3757
 2551TIP3    H1 7596   1.736   2.308   5.783  0.9586  0.5487 -1.8636
 2551TIP3    H2 7597   1.591   2.313   5.740  0.0508 -0.8522  0.7467
 2552TIP3   OH2 7598   6.530   0.459   2.423  0.0602 -0.5712  0.0074
 2552TIP3    H1 7599   6.445   0.477   2.384 -0.6763 -0.3266  1.6394
 2552TIP3    H2 7600   6.548   0.535   2.478  0.4509 -1.4637  1.1521
 2553TIP3   OH2 7601   5.070   5.591   1.739 -0.8480  0.2087  0.0506
 2553TIP3    H1 7602   5.012   5.660   1.770 -0.3979  1.0619 -0.9390
 2553TIP3    H2 7603   5.093   5.541   1.817 -0.1009  2.0083  1.0300
 2554TIP3   OH2 7604   1.262   0.295   5.983 -0.1664 -0.7457  0.1242
 2554TIP3    H1 7605   1.291   0.321   5.895  1.1871  0.0746  0.7781
 2554TIP3    H2 7606   1.167   0.299   5.979 -0.0966  1.1303 -0.7736
 2555TIP3   OH2 7607   2.812   6.151   3.582 -0.6475 -0.0869  0.4258
 2555TIP3    H1 7608   2.888   6.098   3.560 -1.4071 -0.7345 -0.7464
 2555TIP3    H2 7609   2.790   6.126   3.672  0.0531 -0.4654  0.4989
 2556TIP3   OH2 7610   4.174   2.891   5.247  0.0136  0.1617  1.0881
 2556TIP3    H1 7611   4.252   2.891   5.191 -1.1542 -0.8839 -0.6518
 2556TIP3    H2 7612   4.112   2.946   5.201 -2.1465 -3.3080 -0.5765
 2557TIP3   OH2 7613   4.545   1.721   4.107 -0.1799 -0.1899  0.4108
 2557TIP3    H1 7614   4.593   1.802   4.126 -0.4767  0.3214 -0.9073
 2557TIP3    H2 7615   4.557   1.667   4.185 -0.7371  1.4842  1.7130
 2558TIP3   OH2 7616   4.562   3.016   2.850 -0.3807 -0.0929 -0.6427
 2558TIP3    H1 7617   4.501   2.961   2.800 -0.2036  0.7054 -1.7698
 2558TIP3    H2 7618   4.573   3.094   2.796  1.0078  0.1345 -0.0590
 2559TIP3   OH2 7619   7.773   7.193   5.955 -0.2351 -0.3153 -0.3150
 2559TIP3    H1 7620   7.729   7.109   5.969  1.8903 -1.4455 -0.0931
 2559TIP3    H2 7621   7.786   7.229   6.043 -0.8575  0.1308 -0.3935
 2560TIP3   OH2 7622   4.162   4.583   4.966 -0.1386  0.4466 -0.5613
 2560TIP3    H1 7623   4.134   4.632   5.044 -1.0801  0.1728 -0.7066
 2560TIP3    H2 7624   4.182   4.495   4.999 -0.8180  0.2471 -0.6551
 2561TIP3   OH2 7625   2.471   2.795   5.046 -0.0324 -0.3258 -0.0188
 2561TIP3    H1 7626   2.511   2.867   4.998  0.3567 -0.4514  0.1051
 2561TIP3    H2 7627   2.516   2.795   5.131 -2.1582  1.2133  1.1896
 2562TIP3   OH2 7628   4.397   2.170   4.578 -0.3993  0.4591  0.2176
 2562TIP3    H1 7629   4.349   2.227   4.518 -1.3493 -1.3017 -0.7937
 2562TIP3    H2 7630   4.472   2.139   4.526  0.6348  1.4828  1.0643
 2563TIP3   OH2 7631   4.759   0.385   4.208  0.3891 -0.0135 -0.6399
 2563TIP3    H1 7632   4.798   0.351   4.288  1.4113  0.0475 -1.1037
 2563TIP3    H2 7633   4.673   0.343   4.203  0.1665  0.2495  0.6647
 2564TIP3   OH2 7634   0.217   0.395   4.424 -0.0184 -0.0160  0.0740
 2564TIP3    H1 7635   0.194   0.463   4.361  0.7019  0.4310  0.2779
 2564TIP3    H2 7636   0.133   0.364   4.457 -0.3665  0.6362 -0.1721
 2565TIP3   OH2 7637   6.985   0.474   1.862  0.4872 -0.6990 -0.5180
 2565TIP3    H1 7638   7.069   0.428   1.859 -0.9708 -3.5732 -0.6386
 2565TIP3    H2 7639   6.988   0.523   1.944  2.6339  0.1021 -0.9986
 2566TIP3   OH2 7640   7.977   0.099   6.481 -0.6008  0.4525 -0.5944
 2566TIP3    H1 7641   8.018   0.178   6.444  2.1727 -0.1692  0.8676
 2566TIP3    H2 7642   7.963   0.121   6.573 -2.0207 -0.0007 -0.6854
 2567TIP3   OH2 7643   1.589   2.037   2.065 -0.3961  0.5381 -0.6896
 2567TIP3    H1 7644   1.618   2.122   2.030  0.7737 -0.4149 -2.1325
 2567TIP3    H2 7645   1.667   2.001   2.108 -0.8391  0.1190 -0.2316
 2568TIP3   OH2 7646   7.186   3.919   5.182 -0.2731  0.0160 -0.5914
 2568TIP3    H1 7647   7.159   3.859   5.252 -0.1385  0.6917  0.0551
 2568TIP3    H2 7648   7.157   3.876   5.101  0.0314 -1.0306 -0.1695
 2569TIP3   OH2 7649   1.312   2.419   5.765 -0.2148  0.7840 -0.0127
 2569TIP3    H1 7650   1.264   2.344   5.800  1.9194 -0.7986 -0.2232
 2569TIP3    H2 7651   1.343   2.389   5.679  2.1026  1.1950  0.6042
 2570TIP3   OH2 7652   0.249   5.035   1.167 -0.2775  0.3236 -0.3854
 2570TIP3    H1 7653   0.216   5.020   1.078  0.7022 -0.3587 -0.6545
 2570TIP3    H2 7654   0.335   4.993   1.167  0.1663  1.2104  0.5804
 2571TIP3   OH2 7655   5.880   1.171   6.097 -0.1141 -0.3156  0.1947
 2571TIP3    H1 7656   5.875   1.266   6.085 -0.8613 -0.1647  1.4417
 2571TIP3    H2 7657   5.958   1.158   6.151 -1.3955 -0.0999  2.2326
 2572TIP3   OH2 7658   7.220   7.464   5.402  0.3409  0.1583 -0.0420
 2572TIP3    H1 7659   7.302   7.476   5.354  0.5017  1.6109  0.5583
 2572TIP3    H2 7660   7.159   7.527   5.363  0.2881  0.9227  1.1961
 2573TIP3   OH2 7661   2.879   1.725   5.424  0.2424 -0.2542 -0.0458
 2573TIP3    H1 7662   2.866   1.665   5.497 -0.4231 -2.2762 -1.7314
 2573TIP3    H2 7663   2.962   1.697   5.385  0.7605  1.0211  0.1036
 2574TIP3   OH2 7664   2.964   5.139   0.697  0.3221 -0.2176  0.1421
 2574TIP3    H1 7665   3.057   5.161   0.706  0.2722  0.3865 -0.7160
 2574TIP3    H2 7666   2.964   5.046   0.675  0.5759 -0.9490  2.8620
 2575TIP3   OH2 7667   0.694   3.542   2.381 -0.1159 -0.2160  0.0222
 2575TIP3    H1 7668   0.636   3.564   2.309 -0.8559  0.3693  0.7670
 2575TIP3    H2 7669   0.660   3.593   2.455 -1.5312 -3.3365  1.7248
 2576TIP3   OH2 7670   0.986   5.219   2.340  0.2335  0.3458 -0.3160
 2576TIP3    H1 7671   1.048   5.162   2.296  0.2197 -0.1147  0.2443
 2576TIP3    H2 7672   0.906   5.166   2.347  0.5713 -0.0277  1.2391
 2577TIP3   OH2 7673   1.216   4.082   5.665 -0.0331 -0.0311 -0.7713
 2577TIP3    H1 7674   1.141   4.140   5.678  0.1687 -0.2633  2.1129
 2577TIP3    H2 7675   1.274   4.131   5.607 -0.7925  1.7940 -0.0724
 2578TIP3   OH2 7676   8.043   5.073   2.283  0.2073  0.1764  0.1507
 2578TIP3    H1 7677   8.077   5.046   2.197 -0.3555 -0.5061  0.1308
 2578TIP3    H2 7678   7.950   5.051   2.280  0.4901 -1.4440  1.5348
 2579TIP3   OH2 7679   3.483   5.545   1.961  0.1363  0.1141 -0.1973
 2579TIP3    H1 7680   3.409   5.484   1.955  0.1891  0.0225  0.0952
 2579TIP3    H2 7681   3.495   5.576   1.871 -2.0286  2.2078  0.1127
 2580TIP3   OH2 7682   4.609   5.335   2.777 -0.3342 -0.2132 -0.2280
 2580TIP3    H1 7683   4.590   5.428   2.791  0.6609  0.0008 -0.2236
 2580TIP3    H2 7684   4.524   5.291   2.790 -0.9599  0.7527 -0.9075
 2581TIP3   OH2 7685   0.097   5.887   5.749 -0.2495 -0.0829  0.8592
 2581TIP3    H1 7686   0.135   5.843   5.824 -0.3802 -0.5140  0.6752
 2581TIP3    H2 7687   0.065   5.971   5.783 -1.3986 -0.7815  1.5537
 2582TIP3   OH2 7688   1.990   4.216   2.870  0.0569  0.1017  0.0518
 2582TIP3    H1 7689   2.046   4.293   2.884 -0.5756  0.6643 -0.3988
 2582TIP3    H2 7690   1.909   4.253   2.834 -0.0843 -0.8257 -0.6151
 2583TIP3   OH2 7691   2.601   6.570   0.656  0.2208 -0.3957 -0.0074
 2583TIP3    H1 7692   2.519   6.522   0.662  0.3695 -0.5102  1.3535
 2583TIP3    H2 7693   2.669   6.506   0.678  0.8062 -0.5529 -2.0223
 2584TIP3   OH2 7694   1.771   1.273   1.130 -0.1570  0.1445  0.1958
 2584TIP3    H1 7695   1.750   1.233   1.214 -0.6405  0.6930  0.3424
 2584TIP3    H2 7696   1.718   1.353   1.127  2.0719  1.6969  0.6497
 2585TIP3   OH2 7697   5.106   7.568   1.255 -0.0999  0.1146  0.4528
 2585TIP3    H1 7698   5.107   7.491   1.198  0.0363 -0.8792  1.7474
 2585TIP3    H2 7699   5.021   7.609   1.239 -0.5996 -0.8943  0.4836
 2586TIP3   OH2 7700   6.271   6.410   2.699  0.0298 -0.1987  0.5817
 2586TIP3    H1 7701   6.278   6.469   2.625  0.4627 -0.7296  0.1907
 2586TIP3    H2 7702   6.353   6.360   2.699  0.2409  0.1183  1.7041
 2587TIP3   OH2 7703   6.122   2.639   4.408 -1.0311 -0.0353  0.1609
 2587TIP3    H1 7704   6.132   2.601   4.495  0.7699  3.2482  1.5742
 2587TIP3    H2 7705   6.036   2.681   4.410 -0.2808  1.6021  1.1883
 2588TIP3   OH2 7706   0.774   6.864   6.294 -0.5654  0.6477 -0.0954
 2588TIP3    H1 7707   0.845   6.926   6.279 -0.1689  0.1208 -0.4215
 2588TIP3    H2 7708   0.808   6.781   6.262 -0.2963 -0.1915  2.2493
 2589TIP3   OH2 7709   4.024   3.328   1.099 -0.1732  0.4729 -0.0779
 2589TIP3    H1 7710   3.939   3.316   1.141 -0.0413  0.1333  0.0996
 2589TIP3    H2 7711   4.087   3.297   1.164 -0.0263 -1.2558 -0.9637
 2590TIP3   OH2 7712   1.247   4.145   1.430  0.0261  0.5514 -0.0298
 2590TIP3    H1 7713   1.187   4.135   1.356  0.4773  1.7412 -0.5848
 2590TIP3    H2 7714   1.315   4.204   1.397  0.4920  0.7129  1.1891
 2591TIP3   OH2 7715   1.921   2.747   0.726  0.0662  0.1836 -0.0046
 2591TIP3    H1 7716   2.005   2.772   0.687 -0.4429  1.2570 -0.4636
 2591TIP3    H2 7717   1.867   2.722   0.651 -0.2022  0.0564  0.2307
 2592TIP3   OH2 7718   8.192   0.114   1.445 -0.5334  0.8151  0.6562
 2592TIP3    H1 7719   8.166   0.023   1.460  0.6368  0.2041 -0.7978
 2592TIP3    H2 7720   8.155   0.162   1.519 -0.7070 -0.9256  1.7520
 2593TIP3   OH2 7721   6.021   7.675   2.283  0.4085 -0.4198  0.0921
 2593TIP3    H1 7722   6.115   7.660   2.272  0.3532 -0.5719 -0.2023
 2593TIP3    H2 7723   6.002   7.649   2.373  0.8462  0.6612  0.5057
 2594TIP3   OH2 7724   0.821   7.795   2.106 -0.2888  0.1351 -0.1210
 2594TIP3    H1 7725   0.834   7.716   2.159 -1.7231  0.2086  0.3780
 2594TIP3    H2 7726   0.727   7.801   2.094 -0.1614  1.4365 -0.6831
 2595TIP3   OH2 7727   2.335   6.080   3.580 -0.2297  0.5273  0.4646
 2595TIP3    H1 7728   2.408   6.021   3.598 -0.2617  0.7339  1.2885
 2595TIP3    H2 7729   2.329   6.081   3.484 -0.2715 -0.8533  0.4284
 2596TIP3   OH2 7730   5.462   7.071   3.959  0.0157 -0.5441  0.0050
 2596TIP3    H1 7731   5.513   7.153   3.963  0.3288 -0.7787  1.7065
 2596TIP3    H2 7732   5.411   7.079   3.878  0.2090  1.2270  0.0007
 2597TIP3   OH2 7733   0.901   2.766   2.429  0.2378 -0.0400 -1.3467
 2597TIP3    H1 7734   0.865   2.678   2.439  0.4380 -0.0359 -0.4910
 2597TIP3    H2 7735   0.841   2.822   2.478  2.1445 -0.2318  1.4615
 2598TIP3   OH2 7736   6.577   3.028   0.276  1.0043 -0.1127  0.3743
 2598TIP3    H1 7737   6.610   3.103   0.227 -0.2767  0.1091 -0.1759
 2598TIP3    H2 7738   6.577   2.956   0.213 -1.5258  0.3915 -0.2878
 2599TIP3   OH2 7739   6.441   4.233   2.513  0.5368  0.2566 -0.6039
 2599TIP3    H1 7740   6.470   4.324   2.523 -1.8198  0.9591  0.4822
 2599TIP3    H2 7741   6.348   4.239   2.494  0.0342 -1.9475  0.7833
 2600TIP3   OH2 7742   5.127   0.020   0.094 -0.2515 -0.5382  0.3381
 2600TIP3    H1 7743   5.073  -0.059   0.082  1.2918 -1.4195 -1.4675
 2600TIP3    H2 7744   5.070   0.092   0.069 -1.0438 -1.3122 -0.1612
 2601TIP3   OH2 7745   1.805   3.924   2.563 -0.2747 -0.2337  0.3203
 2601TIP3    H1 7746   1.893   3.955   2.541  0.0085 -0.0581  1.6342
 2601TIP3    H2 7747   1.746   3.975   2.508  0.3755  0.5060  0.3063
 2602TIP3   OH2 7748   3.634   6.495   4.755  0.1615  0.0701  0.5478
 2602TIP3    H1 7749   3.588   6.411   4.760 -0.2469  0.2784  0.3920
 2602TIP3    H2 7750   3.626   6.521   4.663  0.3511  0.2427  0.5799
 2603TIP3   OH2 7751  -0.017   4.768   5.956 -0.3673  0.1127 -0.2664
 2603TIP3    H1 7752   0.044   4.696   5.975 -1.3112 -0.6030  0.1468
 2603TIP3    H2 7753   0.037   4.847   5.961  0.8687 -0.6004 -1.4747
 2604TIP3   OH2 7754   1.343   4.876   1.990 -0.2327 -0.6359  0.1991
 2604TIP3    H1 7755   1.313   4.788   2.014 -0.4155 -0.6287  0.0011
 2604TIP3    H2 7756   1.395   4.905   2.065  0.7059 -1.3222 -0.1641
 2605TIP3   OH2 7757   8.241   2.903   5.060 -0.0177  0.0409  0.1271
 2605TIP3    H1 7758   8.168   2.875   5.115 -0.5895  0.8005 -0.2362
 2605TIP3    H2 7759   8.318   2.897   5.118 -0.3732 -0.6350  0.5481
 2606TIP3   OH2 7760   7.124   5.196   1.111 -0.5009  1.1473  0.4375
 2606TIP3    H1 7761   7.123   5.113   1.158  0.3105  1.9173  1.8874
 2606TIP3    H2 7762   7.042   5.198   1.062  0.3173 -1.3765 -1.2406
 2607TIP3   OH2 7763   3.862   4.911   6.160 -0.6409 -0.0405 -0.2374
 2607TIP3    H1 7764   3.921   4.852   6.113  1.7304  1.2842  0.8456
 2607TIP3    H2 7765   3.819   4.962   6.092  0.6734  0.0035 -1.0809
 2608TIP3   OH2 7766   0.622   0.040   2.656 -0.0030 -0.2680 -0.2093
 2608TIP3    H1 7767   0.668   0.047   2.740  0.0354 -0.0527 -0.2484
 2608TIP3    H2 7768   0.677   0.087   2.594  0.9792 -2.1177 -0.7808
 2609TIP3   OH2 7769   8.233   5.091   3.177 -0.0462  0.0162  0.0619
 2609TIP3    H1 7770   8.264   5.163   3.232  0.9184  1.3024 -2.0348
 2609TIP3    H2 7771   8.155   5.059   3.221  0.8119  0.7936  2.2755
 2610TIP3   OH2 7772   4.182   0.719   4.346 -0.5469  0.2886 -0.2562
 2610TIP3    H1 7773   4.090   0.723   4.371 -1.0499 -2.1165 -1.4342
 2610TIP3    H2 7774   4.224   0.789   4.397 -2.9285  1.1991  0.5838
 2611TIP3   OH2 7775   8.227   6.458   4.835  0.3031  1.0538 -0.6271
 2611TIP3    H1 7776   8.259   6.438   4.747  1.2449  1.0799 -0.2996
 2611TIP3    H2 7777   8.219   6.554   4.836  1.1503  1.1277 -0.4039
 2612TIP3   OH2 7778   1.820   3.964   3.014 -0.6205 -0.2295 -0.3459
 2612TIP3    H1 7779   1.888   3.958   2.947 -1.3009 -0.3750 -1.0357
 2612TIP3    H2 7780   1.854   3.913   3.087 -1.3949 -3.2752 -1.9302
 2613TIP3   OH2 7781   6.832   4.084   3.074 -0.0098 -0.6133  0.5832
 2613TIP3    H1 7782   6.917   4.053   3.106  0.2946 -0.9626 -0.5123
 2613TIP3    H2 7783   6.781   4.100   3.153 -0.1900 -3.8915  1.2908
 2614TIP3   OH2 7784   5.671   0.315   6.131  0.1281  0.6338 -0.0859
 2614TIP3    H1 7785   5.653   0.271   6.214 -0.6281  0.2499 -0.4493
 2614TIP3    H2 7786   5.718   0.395   6.156  1.0672 -0.1219  0.6139
 2615TIP3   OH2 7787   4.204   2.419   0.084 -0.0703  0.1216 -0.4940
 2615TIP3    H1 7788   4.227   2.340   0.034 -0.3576  0.7178 -1.6223
 2615TIP3    H2 7789   4.108   2.414   0.094 -0.0390  0.1177 -0.1938
 2616TIP3   OH2 7790   5.617   7.653   1.626  0.0283  0.4546 -0.2137
 2616TIP3    H1 7791   5.665   7.575   1.655 -1.0662  0.0963  0.7059
 2616TIP3    H2 7792   5.646   7.667   1.536  0.5868 -0.7486 -0.2371
 2617TIP3   OH2 7793   2.896   6.339   0.108  0.1046 -0.6032  0.0139
 2617TIP3    H1 7794   2.961   6.268   0.106 -0.1624 -0.8386 -1.2506
 2617TIP3    H2 7795   2.836   6.314   0.179  1.2909 -0.4526  1.1011
 2618TIP3   OH2 7796   7.727   1.623   1.150 -0.1210 -0.7230  0.4892
 2618TIP3    H1 7797   7.703   1.662   1.234  0.5534 -1.1036  0.8684
 2618TIP3    H2 7798   7.644   1.616   1.102 -0.6579 -1.3325  1.4696
 2619TIP3   OH2 7799   7.924   0.594   5.107  0.5565  0.2933  0.1588
 2619TIP3    H1 7800   7.980   0.548   5.170 -1.5005 -0.9193  1.2042
 2619TIP3    H2 7801   7.851   0.625   5.160 -0.7465  0.1022 -1.4804
 2620TIP3   OH2 7802   1.267   2.171   6.129  0.4699 -0.2132 -0.6981
 2620TIP3    H1 7803   1.205   2.227   6.176  0.8293 -0.3929 -0.0067
 2620TIP3    H2 7804   1.341   2.228   6.109 -0.0786  0.1179 -1.9055
 2621TIP3   OH2 7805   4.686   4.305   6.081  0.1771 -0.2419 -0.0022
 2621TIP3    H1 7806   4.662   4.214   6.098 -1.6998  0.4373  1.3096
 2621TIP3    H2 7807   4.686   4.346   6.167 -1.4336  1.5222 -0.7742
 2622TIP3   OH2 7808   3.397   4.309   0.171  0.3137 -0.5261  0.0792
 2622TIP3    H1 7809   3.323   4.333   0.116  1.1943 -0.4490 -1.1068
 2622TIP3    H2 7810   3.455   4.385   0.169  0.1637 -0.3337  1.5214
 2623TIP3   OH2 7811   6.648   5.977   4.661 -0.6476  0.2225 -0.3931
 2623TIP3    H1 7812   6.706   5.901   4.655  0.2991  0.9694 -0.8960
 2623TIP3    H2 7813   6.706   6.052   4.656 -1.5337  0.9961  0.5944
 2624TIP3   OH2 7814   3.843   6.551   4.330 -0.9510 -0.6555 -0.3031
 2624TIP3    H1 7815   3.866   6.493   4.258 -0.4175  1.5889 -2.0564
 2624TIP3    H2 7816   3.921   6.552   4.386 -0.0784  0.1340 -1.5007
 2625TIP3   OH2 7817   3.190   2.969   6.318  0.1290  0.1713  0.5333
 2625TIP3    H1 7818   3.174   2.990   6.226 -0.9420  0.3341  0.7539
 2625TIP3    H2 7819   3.227   3.049   6.355  1.4388 -0.1763  0.0514
 2626TIP3   OH2 7820   7.075   1.310   3.965  0.1096  0.0723  0.2931
 2626TIP3    H1 7821   6.981   1.324   3.978 -0.1683 -0.1126 -1.2796
 2626TIP3    H2 7822   7.086   1.215   3.970  0.4373  0.1688  1.7034
 2627TIP3   OH2 7823   7.037   5.548   2.124 -0.2119 -0.4652  0.0300
 2627TIP3    H1 7824   7.037   5.508   2.211 -1.0679  2.8433  1.7221
 2627TIP3    H2 7825   6.946   5.543   2.095 -0.2680 -0.0749  0.1268
 2628TIP3   OH2 7826   7.473   5.252   2.335  0.4502 -0.1856  0.3321
 2628TIP3    H1 7827   7.540   5.271   2.400 -0.1230  1.2273  0.5513
 2628TIP3    H2 7828   7.518   5.258   2.251  0.3609  2.0862  0.4029
 2629TIP3   OH2 7829   8.193   5.120   0.261  0.1149 -0.3104 -0.7377
 2629TIP3    H1 7830   8.110   5.090   0.297  0.8414  0.3605  1.6761
 2629TIP3    H2 7831   8.177   5.211   0.235  0.1136 -0.1609 -0.2113
 2630TIP3   OH2 7832   3.468   5.948   4.357  0.2091  0.0678  0.4423
 2630TIP3    H1 7833   3.467   5.945   4.262  0.1312  0.0816  0.4423
 2630TIP3    H2 7834   3.449   5.858   4.384  1.4053 -0.1990  0.4404
 2631TIP3   OH2 7835   2.745   6.309   0.352 -0.2450  0.4349 -0.0399
 2631TIP3    H1 7836   2.747   6.399   0.385 -0.5460  0.2966  0.3654
 2631TIP3    H2 7837   2.663   6.272   0.387 -0.1502  0.0205 -0.2457
 2632TIP3   OH2 7838   2.339   7.758   1.089  0.1263  0.2514 -0.1232
 2632TIP3    H1 7839   2.294   7.776   1.006  1.4680  2.2830 -0.4760
 2632TIP3    H2 7840   2.342   7.843   1.133  0.2462 -0.6162  1.6191
 2633TIP3   OH2 7841   7.405   4.626   5.794  0.3589 -0.0537  0.5450
 2633TIP3    H1 7842   7.326   4.610   5.845  0.4423 -1.7499  0.1765
 2633TIP3    H2 7843   7.468   4.560   5.823  0.5723 -0.7492 -1.3603
 2634TIP3   OH2 7844   0.425   1.249   3.776 -0.4367 -0.1969 -0.1074
 2634TIP3    H1 7845   0.409   1.259   3.869 -1.9122  0.6319 -0.4108
 2634TIP3    H2 7846   0.387   1.164   3.754  0.3811 -0.6307  0.1284
 2635TIP3   OH2 7847   6.218   3.618   3.696  0.0982 -0.1012 -0.1438
 2635TIP3    H1 7848   6.270   3.578   3.765 -0.9137 -1.3947 -0.0710
 2635TIP3    H2 7849   6.188   3.544   3.642 -0.5332  0.7123 -0.9646
 2636TIP3   OH2 7850   6.799   0.887   1.991 -0.0620  0.3503  0.6343
 2636TIP3    H1 7851   6.851   0.807   1.982 -1.9664 -0.9230  0.1566
 2636TIP3    H2 7852   6.743   0.870   2.066 -0.8656  0.9986  0.1970
 2637TIP3   OH2 7853   1.713   6.231   3.436  0.2608 -0.2209  0.9040
 2637TIP3    H1 7854   1.659   6.276   3.501 -0.4599  0.3244 -0.0512
 2637TIP3    H2 7855   1.727   6.144   3.473 -1.2983 -0.3883  1.1715
 2638TIP3   OH2 7856   5.093   2.343   5.545  0.0700  0.2678  0.3340
 2638TIP3    H1 7857   5.186   2.365   5.547  0.0520  0.5902 -1.2271
 2638TIP3    H2 7858   5.050   2.424   5.519 -0.4816 -0.2655 -0.4916
 2639TIP3   OH2 7859   5.401   1.820   0.250 -0.0027 -0.1292 -0.1362
 2639TIP3    H1 7860   5.442   1.744   0.292 -0.3965 -0.0986  0.3097
 2639TIP3    H2 7861   5.471   1.884   0.243  0.2755 -0.4462 -0.2976
 2640TIP3   OH2 7862   7.436   2.114   6.180 -0.2211  0.3664 -0.6971
 2640TIP3    H1 7863   7.501   2.112   6.110 -0.3943  0.8312 -0.8739
 2640TIP3    H2 7864   7.358   2.154   6.140 -0.5932 -0.1163 -0.4706
 2641TIP3   OH2 7865   1.615   5.780   2.670 -0.0900 -0.0925 -1.0772
 2641TIP3    H1 7866   1.693   5.750   2.718 -0.7025 -0.1967 -0.1213
 2641TIP3    H2 7867   1.542   5.757   2.727 -0.5963  3.7416  0.1271
 2642TIP3   OH2 7868   7.387   3.153   5.500 -0.3944 -0.4814  0.3140
 2642TIP3    H1 7869   7.333   3.223   5.463 -1.0205 -1.3385 -0.4419
 2642TIP3    H2 7870   7.327   3.102   5.554  0.5332  0.8336  2.7552
 2643TIP3   OH2 7871   7.795   6.579   3.232  0.0218 -0.6737  0.1088
 2643TIP3    H1 7872   7.840   6.636   3.170 -0.3021  0.0165  0.5046
 2643TIP3    H2 7873   7.746   6.638   3.289  0.9302 -1.2303  1.5366
 2644TIP3   OH2 7874   0.553   6.101   4.298  0.5080 -0.5696  0.1040
 2644TIP3    H1 7875   0.499   6.045   4.354 -4.0238  1.5995 -1.6279
 2644TIP3    H2 7876   0.581   6.172   4.357 -0.2347 -0.7227  0.6682
 2645TIP3   OH2 7877   1.528   6.503   5.826  0.4929 -0.2726  0.4447
 2645TIP3    H1 7878   1.481   6.584   5.808  0.8061 -0.2254 -0.1693
 2645TIP3    H2 7879   1.552   6.469   5.740  1.4824 -0.3438  0.7356
 2646TIP3   OH2 7880   3.287   5.078   5.551 -0.2107 -0.2383  0.4005
 2646TIP3    H1 7881   3.382   5.068   5.551 -0.3397 -1.7290 -0.1963
 2646TIP3    H2 7882   3.263   5.079   5.458 -0.9252 -1.7255  0.5494
 2647TIP3   OH2 7883   1.121   7.694   2.871  0.5205  0.0655  0.0473
 2647TIP3    H1 7884   1.107   7.622   2.809  0.0781 -2.5085  2.8825
 2647TIP3    H2 7885   1.033   7.719   2.898  0.6886  1.5506 -0.6622
 2648TIP3   OH2 7886   5.740   6.849   1.335  0.0616  0.0555 -0.2655
 2648TIP3    H1 7887   5.778   6.804   1.260  0.7831 -0.1827  0.2369
 2648TIP3    H2 7888   5.685   6.917   1.296  0.0002 -0.4100 -1.0135
 2649TIP3   OH2 7889   1.398   5.942   2.447 -0.4724 -0.2728 -0.1500
 2649TIP3    H1 7890   1.485   5.902   2.446  0.0878  0.9020  0.9294
 2649TIP3    H2 7891   1.365   5.927   2.535  0.0056  2.1444  0.4950
 2650TIP3   OH2 7892   1.139   0.547   5.830  0.6393  0.6372  0.3356
 2650TIP3    H1 7893   1.094   0.521   5.911  0.3400 -0.5553 -0.2039
 2650TIP3    H2 7894   1.123   0.641   5.824 -1.0940  0.3844  0.5905
 2651TIP3   OH2 7895   5.371   5.717   3.168  0.2394 -0.0965  0.0210
 2651TIP3    H1 7896   5.304   5.784   3.150  0.9052  1.1052  1.7378
 2651TIP3    H2 7897   5.350   5.646   3.107 -3.3537 -0.3034  1.2188
 2652TIP3   OH2 7898   1.119   2.090   4.251  0.1974 -0.2505  0.2497
 2652TIP3    H1 7899   1.046   2.151   4.257  0.3069 -0.0629 -0.2932
 2652TIP3    H2 7900   1.111   2.036   4.330  0.1835  0.5474  0.8091
 2653TIP3   OH2 7901   5.878   4.955   4.596 -0.0322 -0.2707  0.0333
 2653TIP3    H1 7902   5.965   4.966   4.558 -0.9926 -0.6964 -2.5060
 2653TIP3    H2 7903   5.842   4.878   4.552 -2.2030  0.7375 -0.0962
 2654TIP3   OH2 7904   4.298   4.841   5.878  0.4036 -0.0524  1.1556
 2654TIP3    H1 7905   4.229   4.897   5.844  2.5810  1.4992 -1.1171
 2654TIP3    H2 7906   4.278   4.754   5.843  0.2465  0.6421 -0.6146
 2655TIP3   OH2 7907   5.565   4.769   3.452  0.3074 -0.1478  0.7773
 2655TIP3    H1 7908   5.514   4.843   3.485 -1.8631 -1.2501  0.0942
 2655TIP3    H2 7909   5.594   4.724   3.531  3.1223  2.2291  1.2720
 2656TIP3   OH2 7910   8.064   1.293   3.369 -0.1478  0.0843 -0.1406
 2656TIP3    H1 7911   8.012   1.306   3.448  0.4614 -1.6219  0.5943
 2656TIP3    H2 7912   8.107   1.378   3.355  0.5972  0.1429  2.0164
 2657TIP3   OH2 7913   6.705   5.957   6.394  0.1844  0.0498 -0.1414
 2657TIP3    H1 7914   6.778   5.997   6.440 -0.4798 -0.4340  1.3947
 2657TIP3    H2 7915   6.728   5.964   6.301  2.0187  0.1831  0.2842
 2658TIP3   OH2 7916   6.191   4.864   5.885  0.2307 -0.7116  0.3859
 2658TIP3    H1 7917   6.261   4.818   5.839 -0.4618 -0.0158 -1.4338
 2658TIP3    H2 7918   6.113   4.847   5.833 -0.3303  1.2390  0.5241
 2659TIP3   OH2 7919   0.450   3.377   4.170 -0.0417  0.0646  0.0317
 2659TIP3    H1 7920   0.521   3.366   4.233 -0.3117 -3.0858 -0.0432
 2659TIP3    H2 7921   0.493   3.395   4.087  0.4309  1.5731  0.5611
 2660TIP3   OH2 7922   6.495   5.740   2.507  0.1037 -0.1846 -0.6527
 2660TIP3    H1 7923   6.415   5.689   2.521  0.5424 -1.3197 -1.9889
 2660TIP3    H2 7924   6.492   5.808   2.573 -1.6046 -0.6460 -0.2002
 2661TIP3   OH2 7925   0.884   2.227   4.282  0.6841  0.4327  0.1953
 2661TIP3    H1 7926   0.866   2.188   4.196  0.7924 -0.7574  0.6931
 2661TIP3    H2 7927   0.798   2.236   4.323  0.7140  0.1261  0.3261
 2662TIP3   OH2 7928   5.307   1.542   5.770 -0.4155 -1.2306  0.2072
 2662TIP3    H1 7929   5.335   1.451   5.776  0.1254 -1.0116  1.2531
 2662TIP3    H2 7930   5.376   1.592   5.814 -1.5286 -0.4922  1.1787
 2663TIP3   OH2 7931   1.316   3.650   6.558  0.0421  0.7511  0.2788
 2663TIP3    H1 7932   1.343   3.596   6.484  1.4891  1.9186 -0.0961
 2663TIP3    H2 7933   1.351   3.737   6.538  0.4868  1.0874  2.3265
 2664TIP3   OH2 7934   0.669   3.086   0.339  0.1425  0.1655 -0.6157
 2664TIP3    H1 7935   0.648   3.052   0.251 -2.8844 -1.9120  0.7107
 2664TIP3    H2 7936   0.611   3.162   0.349  3.2195  2.9022 -1.6414
 2665TIP3   OH2 7937   1.970   5.944   2.415 -0.1892 -0.3844  0.3107
 2665TIP3    H1 7938   2.024   5.976   2.487 -1.1962 -0.2518  1.0140
 2665TIP3    H2 7939   1.951   6.021   2.362  2.2076 -0.7626 -1.2820
 2666TIP3   OH2 7940   7.280   3.403   5.737 -0.2292 -0.2888  0.2488
 2666TIP3    H1 7941   7.224   3.479   5.723  0.2746 -0.0850 -0.6948
 2666TIP3    H2 7942   7.351   3.412   5.674 -0.4754 -1.8518 -0.3046
 2667TIP3   OH2 7943   5.121   0.408   2.815  0.6949  1.0111  0.6489
 2667TIP3    H1 7944   5.084   0.439   2.898 -0.4658  0.4047  0.3801
 2667TIP3    H2 7945   5.137   0.488   2.764 -3.0467  1.3222 -0.3848
 2668TIP3   OH2 7946   5.966   0.515   0.533  0.7818 -0.1141  0.7675
 2668TIP3    H1 7947   5.878   0.484   0.554  0.8705 -1.4330 -0.5935
 2668TIP3    H2 7948   5.953   0.604   0.501  0.2841  0.6677  2.9796
 2669TIP3   OH2 7949   1.184   1.924   5.764 -0.7025 -0.6818  0.2936
 2669TIP3    H1 7950   1.180   1.841   5.811  1.3540 -0.6618  0.6129
 2669TIP3    H2 7951   1.183   1.899   5.671 -1.0334 -1.0049  0.3839
 2670TIP3   OH2 7952   2.787   3.381   6.057  0.1647  0.7176  0.3016
 2670TIP3    H1 7953   2.867   3.428   6.034  1.2306 -1.7124 -1.4057
 2670TIP3    H2 7954   2.742   3.369   5.973 -0.0396 -1.2575  0.6492
 2671TIP3   OH2 7955   3.705   1.656   5.941  0.4038  0.1289 -0.2095
 2671TIP3    H1 7956   3.762   1.646   6.017 -0.0214 -0.3791  0.0491
 2671TIP3    H2 7957   3.648   1.579   5.944 -0.7227  0.9468 -0.1009
 2672TIP3   OH2 7958   0.566   3.585   5.236  0.1047 -0.0765  0.2501
 2672TIP3    H1 7959   0.535   3.654   5.177  3.0314  1.2971  0.1277
 2672TIP3    H2 7960   0.571   3.507   5.181 -1.6854 -0.0429 -0.0334
 2673TIP3   OH2 7961   6.389   6.438   3.313 -0.8199 -0.3099  0.3283
 2673TIP3    H1 7962   6.443   6.371   3.355 -0.9726 -0.5991  0.0613
 2673TIP3    H2 7963   6.303   6.430   3.355 -1.7958 -2.4114 -1.8537
 2674TIP3   OH2 7964   2.391   5.688   1.062  0.1917  0.4966 -0.0784
 2674TIP3    H1 7965   2.305   5.669   1.100 -0.0151  1.4578 -0.0502
 2674TIP3    H2 7966   2.448   5.620   1.098 -0.8278 -1.0350 -1.2121
 2675TIP3   OH2 7967   6.150   5.607   6.723  0.2462  0.1120  0.5234
 2675TIP3    H1 7968   6.086   5.536   6.720  0.6767 -0.4416  2.7404
 2675TIP3    H2 7969   6.126   5.664   6.650 -0.2137 -2.1879 -1.2413
 2676TIP3   OH2 7970   3.515   1.133   0.065 -0.1400 -0.0962  0.2403
 2676TIP3    H1 7971   3.443   1.136   0.002  0.6715 -1.1206 -0.7841
 2676TIP3    H2 7972   3.521   1.041   0.090  0.6101  0.0309  0.5609
 2677TIP3   OH2 7973   4.921   7.063   1.300  0.4840  0.4495  0.1438
 2677TIP3    H1 7974   4.987   7.055   1.368  0.1395 -2.6735  0.2614
 2677TIP3    H2 7975   4.954   7.009   1.228 -1.8688 -1.2537  0.2259
 2678TIP3   OH2 7976   3.936   7.291   3.132 -0.4086 -0.3736 -0.0095
 2678TIP3    H1 7977   3.982   7.238   3.067 -0.5883 -2.1667  1.2559
 2678TIP3    H2 7978   3.983   7.274   3.214 -1.3919  0.2587  0.7043
 2679TIP3   OH2 7979   8.200   4.959   2.078  0.2156 -0.2190  0.6228
 2679TIP3    H1 7980   8.193   4.936   1.985  1.5558 -1.9810  0.9068
 2679TIP3    H2 7981   8.292   4.944   2.099  0.0086  0.5231  2.1638
 2680TIP3   OH2 7982   6.531   0.417   1.841  0.4398 -0.2450 -0.1550
 2680TIP3    H1 7983   6.519   0.377   1.755 -0.8095  1.7701 -0.9815
 2680TIP3    H2 7984   6.447   0.406   1.886  0.3246  0.7452 -0.1054
 2681TIP3   OH2 7985   1.669   3.444   2.596 -0.1627 -0.1714  0.4172
 2681TIP3    H1 7986   1.674   3.406   2.683 -0.0050  0.1402  0.5465
 2681TIP3    H2 7987   1.759   3.471   2.576 -0.2290 -0.0845  0.2289
 2682TIP3   OH2 7988   7.122   4.138   4.961 -0.1482  0.0480  0.5102
 2682TIP3    H1 7989   7.050   4.173   4.909  0.3140  0.2651  0.0089
 2682TIP3    H2 7990   7.085   4.125   5.048 -1.9262 -3.3322 -0.5355
 2683TIP3   OH2 7991   6.305   1.872   4.506  0.3256 -0.0448 -0.4084
 2683TIP3    H1 7992   6.281   1.898   4.417 -3.2074  0.6236  0.5827
 2683TIP3    H2 7993   6.259   1.790   4.521  0.1567  0.2891  1.0607
 2684TIP3   OH2 7994   7.648   6.419   1.266  0.3572  0.1122  0.1713
 2684TIP3    H1 7995   7.616   6.479   1.334  0.9801 -2.0512  2.5061
 2684TIP3    H2 7996   7.743   6.423   1.274  0.4103 -0.9870  0.2196
 2685TIP3   OH2 7997   4.834   7.613   6.561  0.1846  0.3519 -0.5975
 2685TIP3    H1 7998   4.840   7.531   6.512  1.4688  0.0940 -0.0534
 2685TIP3    H2 7999   4.907   7.666   6.528 -0.1599  0.9632 -0.3886
 2686TIP3   OH2 8000   3.525   3.445   2.562 -0.0143 -0.2064  0.1044
 2686TIP3    H1 8001   3.448   3.495   2.590 -0.1888 -0.5287  0.2083
 2686TIP3    H2 8002   3.534   3.465   2.469 -1.6444 -1.9858 -0.5095
 2687TIP3   OH2 8003   3.058   4.342   0.356  0.7055  0.5946 -0.0100
 2687TIP3    H1 8004   3.031   4.261   0.313  0.5094  0.4085  0.4616
 2687TIP3    H2 8005   2.981   4.370   0.406  0.0218  2.2409 -1.8682
 2688TIP3   OH2 8006   6.705   2.276   4.151  0.2431  0.3615 -0.3668
 2688TIP3    H1 8007   6.755   2.200   4.123  0.3669  0.0123  0.7671
 2688TIP3    H2 8008   6.730   2.290   4.243 -0.0048  1.5768 -0.4608
 2689TIP3   OH2 8009   0.417   4.905   2.482  0.2129 -0.0754  0.5805
 2689TIP3    H1 8010   0.456   4.923   2.396 -0.7936 -0.6868 -0.0363
 2689TIP3    H2 8011   0.430   4.810   2.494 -0.4286 -0.1486  0.6983
 2690TIP3   OH2 8012   8.024   5.235   4.287  0.6871  0.3563  0.2160
 2690TIP3    H1 8013   7.971   5.271   4.358  0.6595 -0.2987  0.5337
 2690TIP3    H2 8014   8.062   5.312   4.245  1.6996  0.7064  1.7015
 2691TIP3   OH2 8015   7.072   0.067   5.478  0.0919 -0.4881  0.4760
 2691TIP3    H1 8016   7.107   0.151   5.506 -0.6767  0.1900 -0.5295
 2691TIP3    H2 8017   7.134   0.037   5.411 -0.2565 -0.1447 -0.0107
 2692TIP3   OH2 8018   1.160   4.548   5.154  0.0092 -0.1349 -0.2558
 2692TIP3    H1 8019   1.201   4.463   5.172 -0.0140 -0.3694 -1.2286
 2692TIP3    H2 8020   1.232   4.611   5.159 -0.0061 -0.1841  0.6523
 2693TIP3   OH2 8021   1.389   2.638   4.391  0.1503  0.7676 -0.2885
 2693TIP3    H1 8022   1.357   2.578   4.323 -0.9429 -3.1298  3.2455
 2693TIP3    H2 8023   1.319   2.703   4.401 -0.6694  0.0791 -1.3887
 2694TIP3   OH2 8024   8.029   0.387   3.653  0.0457  0.7380 -0.2039
 2694TIP3    H1 8025   7.993   0.298   3.650  0.4005  0.6114 -0.9666
 2694TIP3    H2 8026   8.001   0.426   3.570  0.8069  0.9753 -0.3502
 2695TIP3   OH2 8027   8.060   3.880   0.323 -0.0778  0.2316 -0.7021
 2695TIP3    H1 8028   8.016   3.921   0.248  1.1856  2.0212 -0.5434
 2695TIP3    H2 8029   8.072   3.789   0.297  1.3859  1.0252 -3.2765
 2696TIP3   OH2 8030   5.129   2.306   2.203  0.0237  0.2874  0.6347
 2696TIP3    H1 8031   5.126   2.284   2.296 -0.4840  0.4686  0.6652
 2696TIP3    H2 8032   5.210   2.265   2.171  0.1247  0.1004  1.1214
 2697TIP3   OH2 8033   0.395   4.165   0.588  0.0328 -0.5832 -0.0549
 2697TIP3    H1 8034   0.318   4.181   0.641 -0.8336 -0.7281 -1.2374
 2697TIP3    H2 8035   0.361   4.133   0.504  1.3389 -0.0792 -0.8141
 2698TIP3   OH2 8036   5.676   1.797   0.950 -0.0919 -0.1693  0.1220
 2698TIP3    H1 8037   5.760   1.753   0.963 -0.7484 -1.2557  0.8506
 2698TIP3    H2 8038   5.667   1.854   1.026 -0.5442 -0.9481  0.6630
 2699TIP3   OH2 8039   4.180   4.505   5.991  0.5926 -0.3958 -1.0977
 2699TIP3    H1 8040   4.165   4.551   5.908  1.7888 -0.2075 -1.2327
 2699TIP3    H2 8041   4.249   4.441   5.970  1.2538 -0.0159 -0.1470
 2700TIP3   OH2 8042   3.697   2.748   2.286  0.1544  0.9105  0.0795
 2700TIP3    H1 8043   3.608   2.754   2.250 -0.6942  0.2423  1.9245
 2700TIP3    H2 8044   3.703   2.658   2.319  1.0919  1.2947  0.9980
 2701TIP3   OH2 8045   0.763   7.069   1.630 -0.1048 -0.3211 -0.5492
 2701TIP3    H1 8046   0.840   7.089   1.578 -0.1442  1.4819  0.0104
 2701TIP3    H2 8047   0.761   7.138   1.697 -1.3947 -1.1685  0.3339
 2702TIP3   OH2 8048   7.267   2.188   2.208 -0.1466 -0.5156  0.6161
 2702TIP3    H1 8049   7.245   2.168   2.299 -1.7773 -0.5085  0.2595
 2702TIP3    H2 8050   7.285   2.282   2.209 -3.1670  0.1798  0.4887
 2703TIP3   OH2 8051   2.653   4.713   0.386 -0.1350  0.1647 -0.4423
 2703TIP3    H1 8052   2.731   4.752   0.426  0.0097 -1.0718  0.5311
 2703TIP3    H2 8053   2.581   4.770   0.413  0.1736  0.1938  0.3614
 2704TIP3   OH2 8054   2.685   4.187   3.649  0.0236 -0.1360  0.2760
 2704TIP3    H1 8055   2.678   4.095   3.676  1.5564 -0.2285  0.4562
 2704TIP3    H2 8056   2.735   4.183   3.567 -0.6579  0.4809 -0.1749
 2705TIP3   OH2 8057   7.630   2.864   6.000 -0.0752 -0.3476  0.9414
 2705TIP3    H1 8058   7.574   2.877   5.924 -0.7218  0.9269  1.6051
 2705TIP3    H2 8059   7.719   2.871   5.965 -0.3195 -1.3598  0.0585
 2706TIP3   OH2 8060   7.397   2.134   3.019 -0.4278  0.4505  0.1181
 2706TIP3    H1 8061   7.353   2.055   3.051  1.7677 -1.1427 -0.5024
 2706TIP3    H2 8062   7.425   2.179   3.099 -1.8188  0.7092  0.4836
 2707TIP3   OH2 8063   7.608   1.142   5.891 -0.1848 -0.0260 -0.0694
 2707TIP3    H1 8064   7.651   1.210   5.943 -1.0520 -0.4984  1.3089
 2707TIP3    H2 8065   7.592   1.070   5.952 -1.8367 -0.3403 -0.8066
 2708TIP3   OH2 8066   1.894   5.224   0.400  0.1125  0.4619  0.5518
 2708TIP3    H1 8067   1.911   5.277   0.478 -0.7699 -1.6230  2.2534
 2708TIP3    H2 8068   1.801   5.200   0.407 -0.1906  0.8232 -1.5638
 2709TIP3   OH2 8069   7.067   7.185   2.399  0.2924  0.3805  0.1301
 2709TIP3    H1 8070   7.001   7.167   2.466  0.5863 -0.7850  0.1311
 2709TIP3    H2 8071   7.141   7.129   2.424 -1.0032 -3.3318 -3.3477
 2710TIP3   OH2 8072   4.843   2.380   6.205  0.8389  0.0460  1.1970
 2710TIP3    H1 8073   4.764   2.431   6.190  0.1160 -1.1943  0.5383
 2710TIP3    H2 8074   4.814   2.307   6.261  1.0867 -1.3916 -0.4717
 2711TIP3   OH2 8075   7.963   5.135   5.652 -0.2494 -0.1933 -0.0232
 2711TIP3    H1 8076   8.013   5.100   5.725 -0.5462 -0.2771  0.1404
 2711TIP3    H2 8077   8.021   5.201   5.613 -0.0423 -0.2354  0.2116
 2712TIP3   OH2 8078   4.372   1.914   0.112 -0.6250 -0.4159  0.1479
 2712TIP3    H1 8079   4.404   1.940   0.026 -1.3570  0.6271  0.1715
 2712TIP3    H2 8080   4.292   1.965   0.125  0.7003  1.2465  2.4333
 2713TIP3   OH2 8081   4.259   1.753   1.625 -0.2971 -0.6901  0.6291
 2713TIP3    H1 8082   4.303   1.823   1.576 -2.3484 -1.7391 -3.0620
 2713TIP3    H2 8083   4.181   1.794   1.661 -0.0930 -0.4776  0.8329
 2714TIP3   OH2 8084   3.316   6.009   2.843  0.0859 -0.2249 -0.3766
 2714TIP3    H1 8085   3.287   6.100   2.843  1.2140  0.1496 -0.0122
 2714TIP3    H2 8086   3.365   5.999   2.762  1.0851 -0.1168  0.1949
 2715TIP3   OH2 8087   8.061   4.703   3.078  0.8406 -0.4272 -0.0706
 2715TIP3    H1 8088   8.078   4.734   3.166  3.0368 -0.5184 -0.4206
 2715TIP3    H2 8089   8.022   4.779   3.033  2.1444  0.4749  0.2683
 2716TIP3   OH2 8090   6.830   7.671   5.592 -0.2916 -0.6672 -0.1047
 2716TIP3    H1 8091   6.772   7.747   5.593 -0.0364 -0.4753  0.3469
 2716TIP3    H2 8092   6.882   7.682   5.512  0.6112  0.2975  0.5910
 2717TIP3   OH2 8093   2.964   1.330   3.992  0.1623 -0.0823  0.1395
 2717TIP3    H1 8094   3.040   1.284   4.027 -0.2877 -1.2712 -0.3811
 2717TIP3    H2 8095   2.900   1.261   3.974 -1.0943  0.9044  0.6772
 2718TIP3   OH2 8096   0.911   1.662   3.184 -0.2588 -0.8424  0.2949
 2718TIP3    H1 8097   0.903   1.712   3.103  1.1168  1.5150  1.5092
 2718TIP3    H2 8098   1.004   1.638   3.189 -0.4738 -1.6155  0.8233
 2719TIP3   OH2 8099   6.161   4.724   3.062  0.3262 -0.2280 -0.2197
 2719TIP3    H1 8100   6.192   4.808   3.027  1.4323 -0.8111 -0.6667
 2719TIP3    H2 8101   6.169   4.663   2.989  0.2728 -0.9014  0.3286
 2720TIP3   OH2 8102   4.573   3.255   3.665 -0.2321  0.1434 -1.0901
 2720TIP3    H1 8103   4.571   3.351   3.659  0.4316  0.1909 -0.7056
 2720TIP3    H2 8104   4.613   3.227   3.584  1.8360  0.3493 -0.1993
 2721TIP3   OH2 8105   2.546   2.000   0.245  0.6184 -0.0401  0.2155
 2721TIP3    H1 8106   2.617   1.937   0.240  0.8144  0.0269  1.5920
 2721TIP3    H2 8107   2.564   2.049   0.326 -1.0133 -0.0750  0.6325
 2722TIP3   OH2 8108   0.058   3.020   2.609 -0.1183 -0.1174 -0.2991
 2722TIP3    H1 8109   0.084   3.111   2.626  1.0813 -0.4617 -0.1960
 2722TIP3    H2 8110   0.128   2.985   2.554 -0.1287 -1.2341  0.3717
 2723TIP3   OH2 8111   3.338   6.461   3.767  0.2481  0.2557  1.0305
 2723TIP3    H1 8112   3.352   6.378   3.812 -1.7654  0.2837  1.8212
 2723TIP3    H2 8113   3.323   6.524   3.838 -0.7274  0.7546  0.4036
 2724TIP3   OH2 8114   6.060   6.892   2.417 -0.1368  0.3886  0.5443
 2724TIP3    H1 8115   6.041   6.817   2.473 -0.7849 -0.3011 -0.5663
 2724TIP3    H2 8116   5.992   6.890   2.350  0.5354  1.2800 -0.1905
 2725TIP3   OH2 8117   1.733   0.920   2.945 -0.4806  0.5898 -0.7795
 2725TIP3    H1 8118   1.765   0.875   2.867  1.4905  2.0552 -0.8999
 2725TIP3    H2 8119   1.721   0.851   3.009  0.4122 -0.3553 -1.5871
 2726TIP3   OH2 8120   4.738   3.440   2.259  0.5478  0.0334  0.4249
 2726TIP3    H1 8121   4.679   3.515   2.264  2.0614  1.4432 -1.4093
 2726TIP3    H2 8122   4.779   3.436   2.345 -1.6434 -0.5683  1.5086
 2727TIP3   OH2 8123   6.664   0.532   2.699  0.0264 -0.3375 -0.6585
 2727TIP3    H1 8124   6.753   0.554   2.727  0.3698 -1.7982 -0.4943
 2727TIP3    H2 8125   6.650   0.443   2.732 -1.7481  0.1019 -0.1156
 2728TIP3   OH2 8126   7.269   0.786   5.344 -0.2615  0.3018  0.5745
 2728TIP3    H1 8127   7.362   0.764   5.343 -0.4263 -0.3988 -0.2334
 2728TIP3    H2 8128   7.259   0.849   5.273 -0.3411  0.6808  0.9163
 2729TIP3   OH2 8129   0.477   4.402   6.026  0.4309  0.3080  0.3667
 2729TIP3    H1 8130   0.507   4.471   5.966  1.2113 -1.1183 -0.9825
 2729TIP3    H2 8131   0.558   4.372   6.068  0.0680  0.3360  1.0882
 2730TIP3   OH2 8132   7.782   2.178   1.599  0.0916  0.4688  0.0678
 2730TIP3    H1 8133   7.695   2.175   1.559  1.0797  0.3835 -2.2680
 2730TIP3    H2 8134   7.776   2.121   1.675 -2.1318  1.2477  0.5587
 2731TIP3   OH2 8135   7.478   5.377   2.940 -0.2366  0.1604  0.1316
 2731TIP3    H1 8136   7.525   5.446   2.894 -0.3412  0.5896  0.6601
 2731TIP3    H2 8137   7.454   5.314   2.871  0.7480  0.1333 -0.2039
 2732TIP3   OH2 8138   2.637   3.904   0.450 -0.2493 -0.6634 -0.2046
 2732TIP3    H1 8139   2.551   3.920   0.411 -0.9274 -0.5228  1.2802
 2732TIP3    H2 8140   2.650   3.977   0.510  1.5845  0.0972 -1.4529
 2733TIP3   OH2 8141   1.054   4.025   0.932 -0.3765 -0.4387 -0.8701
 2733TIP3    H1 8142   1.070   4.113   0.899 -1.5631 -0.4431 -1.4949
 2733TIP3    H2 8143   1.038   4.037   1.025 -1.4767  0.1309 -1.1215
 2734TIP3   OH2 8144   4.783   3.130   4.334  0.1694 -0.1399 -0.0619
 2734TIP3    H1 8145   4.756   3.082   4.413  0.3291 -1.9511 -1.0389
 2734TIP3    H2 8146   4.878   3.131   4.338  0.2451 -1.4160 -0.8330
 2735TIP3   OH2 8147   1.888   3.712   2.735 -0.8977 -0.3429  0.0237
 2735TIP3    H1 8148   1.841   3.776   2.681 -2.4916 -0.3396  1.3480
 2735TIP3    H2 8149   1.947   3.766   2.789 -0.2585 -0.2420 -0.7579
 2736TIP3   OH2 8150   1.544   4.991   6.675  0.4103  0.3381 -0.3031
 2736TIP3    H1 8151   1.491   4.912   6.659 -2.1690  1.6944  1.0386
 2736TIP3    H2 8152   1.502   5.058   6.621  0.5376  1.5433  1.0750
 2737TIP3   OH2 8153   3.626   6.766   6.378 -0.0528 -0.1551 -0.5830
 2737TIP3    H1 8154   3.535   6.793   6.390 -0.1438 -0.7173  0.0048
 2737TIP3    H2 8155   3.669   6.790   6.460 -0.2799 -2.3821  0.2527
 2738TIP3   OH2 8156   2.292   5.515   4.780 -0.3093  0.1480 -0.2029
 2738TIP3    H1 8157   2.385   5.530   4.801 -0.0101 -0.2335 -1.2009
 2738TIP3    H2 8158   2.260   5.601   4.753 -0.0440  0.1311 -0.5819
 2739TIP3   OH2 8159   0.102   1.514   5.215 -0.1682 -0.1303 -0.1496
 2739TIP3    H1 8160   0.054   1.597   5.210  0.3159  0.2346  0.8946
 2739TIP3    H2 8161   0.034   1.446   5.212 -0.7004  0.3574  0.5471
 2740TIP3   OH2 8162   3.674   5.101   5.585  1.0065  0.1004  0.3762
 2740TIP3    H1 8163   3.608   5.077   5.649 -0.4822  0.0920 -1.0824
 2740TIP3    H2 8164   3.732   5.162   5.631 -0.9137  1.3195  1.2969
 2741TIP3   OH2 8165   8.248   3.213   4.429  0.1791  0.0786 -0.0559
 2741TIP3    H1 8166   8.237   3.195   4.522 -2.1335  1.0230 -0.0869
 2741TIP3    H2 8167   8.342   3.206   4.414  1.2641  4.0791  3.2647
 2742TIP3   OH2 8168   8.165   3.289   5.404 -0.9547  0.0686 -0.1722
 2742TIP3    H1 8169   8.075   3.265   5.382 -1.4282  0.6728  1.0427
 2742TIP3    H2 8170   8.160   3.328   5.491  0.7351 -1.4251  0.6685
 2743TIP3   OH2 8171   5.497   6.572   4.178  0.2602  0.7000 -0.3628
 2743TIP3    H1 8172   5.532   6.511   4.113 -0.2323 -1.7163  1.5158
 2743TIP3    H2 8173   5.575   6.604   4.224  0.4112 -0.1249 -0.0232
 2744TIP3   OH2 8174   7.337   2.996   2.903 -0.0449 -0.1455 -0.2170
 2744TIP3    H1 8175   7.383   3.020   2.823 -3.3217  0.1137 -2.2218
 2744TIP3    H2 8176   7.356   3.067   2.964  1.4716  0.3473 -1.1937
 2745TIP3   OH2 8177   1.385   3.463   2.109  0.2278 -0.5132  0.1789
 2745TIP3    H1 8178   1.425   3.437   2.192  0.0477  0.9673  0.7657
 2745TIP3    H2 8179   1.292   3.447   2.121  0.2681 -0.8332  0.0562
 2746TIP3   OH2 8180   0.198  -0.023   6.617 -0.7627  0.6679  0.3499
 2746TIP3    H1 8181   0.219   0.070   6.633  0.4917  0.7090 -1.2467
 2746TIP3    H2 8182   0.113  -0.021   6.572  0.1255  1.2293 -1.3941
 2747TIP3   OH2 8183   4.658   7.100   5.865 -0.0033 -0.2820  0.3225
 2747TIP3    H1 8184   4.586   7.155   5.897  0.1640  0.2751 -0.2282
 2747TIP3    H2 8185   4.634   7.080   5.774  1.4962  1.6708 -0.5888
 2748TIP3   OH2 8186   7.586   2.250   3.822 -0.5575  0.6606 -0.2799
 2748TIP3    H1 8187   7.643   2.202   3.761 -0.2118 -0.2983  0.7532
 2748TIP3    H2 8188   7.577   2.191   3.897 -0.6914  1.9447  0.7492
 2749TIP3   OH2 8189   3.762   7.569   1.220 -0.2680  0.1134  0.1507
 2749TIP3    H1 8190   3.672   7.548   1.192 -0.3715  0.2744  0.3637
 2749TIP3    H2 8191   3.793   7.632   1.154  0.0920 -0.7883 -0.5702
 2750TIP3   OH2 8192   3.980   7.808   1.362  0.3706  0.4600  0.0991
 2750TIP3    H1 8193   3.898   7.769   1.331  0.3535  1.2239 -0.8476
 2750TIP3    H2 8194   3.980   7.791   1.457 -0.3335 -0.5307 -0.0551
 2751TIP3   OH2 8195   7.302   5.502   4.558 -0.0818  0.1848  0.5908
 2751TIP3    H1 8196   7.391   5.508   4.524  0.5153 -0.6933  1.9296
 2751TIP3    H2 8197   7.264   5.588   4.540 -0.3302 -0.5977 -3.4974
 2752TIP3   OH2 8198   2.464   2.602   0.831  0.0494  0.2103 -0.3833
 2752TIP3    H1 8199   2.395   2.655   0.871  0.5100  0.8627 -0.4372
 2752TIP3    H2 8200   2.539   2.662   0.824  1.5729 -1.1927  2.2297
 2753TIP3   OH2 8201   7.143   1.651   2.924  0.1934  0.3014  0.3149
 2753TIP3    H1 8202   7.058   1.619   2.955  0.8926  0.1205  2.1490
 2753TIP3    H2 8203   7.127   1.742   2.899 -0.9909 -0.3305 -1.4674
 2754TIP3   OH2 8204   6.294   1.397   3.417 -0.4654  0.5594  0.5618
 2754TIP3    H1 8205   6.267   1.367   3.330  0.2125  1.1751  0.1301
 2754TIP3    H2 8206   6.220   1.449   3.448  0.3668  2.6973 -0.8486
 2755TIP3   OH2 8207   7.779   3.456   4.746 -0.2152  0.2719 -0.1226
 2755TIP3    H1 8208   7.785   3.372   4.701  0.1518 -0.0029  0.4226
 2755TIP3    H2 8209   7.708   3.445   4.809  1.3890 -0.4990  1.6717
 2756TIP3   OH2 8210   0.613   7.263   2.768 -0.0749  0.4579 -0.5460
 2756TIP3    H1 8211   0.648   7.174   2.764 -0.8527  0.1795 -1.7132
 2756TIP3    H2 8212   0.596   7.277   2.861  1.5524  0.0072 -0.1351
 2757TIP3   OH2 8213   0.831   6.534   0.984 -0.7001 -0.3287 -0.2401
 2757TIP3    H1 8214   0.772   6.580   1.044 -0.9922 -1.2797  0.2205
 2757TIP3    H2 8215   0.817   6.577   0.899 -1.4617 -0.0154  0.0360
 2758TIP3   OH2 8216   0.981   6.888   2.741 -0.3096  0.4741 -0.0146
 2758TIP3    H1 8217   1.029   6.958   2.785 -1.9324  1.5731  0.0909
 2758TIP3    H2 8218   1.020   6.807   2.775 -0.3290  1.2877  2.0842
 2759TIP3   OH2 8219   0.224   7.670   4.025 -0.3876  0.1975 -0.1717
 2759TIP3    H1 8220   0.273   7.698   3.947  1.3161  1.5038  1.2947
 2759TIP3    H2 8221   0.285   7.615   4.074 -1.5159 -0.7864  0.1716
 2760TIP3   OH2 8222   3.435   5.416   3.674 -0.0073  0.0477 -0.2486
 2760TIP3    H1 8223   3.467   5.349   3.735  1.4160  0.2948 -0.6765
 2760TIP3    H2 8224   3.489   5.404   3.596 -2.3765 -0.8263 -1.8334
 2761TIP3   OH2 8225   3.793   4.327   2.070  0.2510  0.1445 -0.7870
 2761TIP3    H1 8226   3.853   4.358   2.137  0.1996 -0.0510 -0.6484
 2761TIP3    H2 8227   3.836   4.249   2.034  1.8715  2.0115 -3.2583
 2762TIP3   OH2 8228   5.429   2.216   0.891  0.2174 -0.6359 -0.5044
 2762TIP3    H1 8229   5.520   2.185   0.896 -0.5961 -3.0489  3.6377
 2762TIP3    H2 8230   5.384   2.148   0.840  0.1935 -1.0959  0.1232
 2763TIP3   OH2 8231   0.562   4.218   1.735 -1.0177  0.1700 -0.0471
 2763TIP3    H1 8232   0.644   4.217   1.784 -1.4641  1.0010  0.7497
 2763TIP3    H2 8233   0.522   4.133   1.754 -0.3718 -0.2275 -0.4192
 2764TIP3   OH2 8234   1.151   0.100   1.496 -0.0764 -0.2120 -0.1713
 2764TIP3    H1 8235   1.240   0.132   1.509  0.9651 -1.9823 -2.2241
 2764TIP3    H2 8236   1.160   0.005   1.487 -1.8387 -0.2480 -2.5731
 2765TIP3   OH2 8237   3.877   6.938   3.887  0.1897  0.3367 -0.2089
 2765TIP3    H1 8238   3.962   6.937   3.931  1.3455  1.4273 -2.2514
 2765TIP3    H2 8239   3.828   7.008   3.930  0.3193 -0.2354  0.9181
 2766TIP3   OH2 8240   6.946   6.759   1.008  0.1644 -0.1149 -0.4390
 2766TIP3    H1 8241   6.970   6.670   1.032  1.2994 -0.5857 -2.9365
 2766TIP3    H2 8242   7.008   6.814   1.056  0.1335 -0.7178  0.3130
 2767TIP3   OH2 8243   3.026   3.951   2.752  0.4201  0.3005 -0.2478
 2767TIP3    H1 8244   2.943   3.964   2.799  2.1598  1.5411  2.7377
 2767TIP3    H2 8245   3.036   4.030   2.699 -0.4015 -0.0079 -0.8950
 2768TIP3   OH2 8246   5.165   4.248   2.851 -0.6144 -0.3807 -0.3106
 2768TIP3    H1 8247   5.251   4.276   2.883 -1.3795  1.0244  0.6410
 2768TIP3    H2 8248   5.165   4.271   2.759  0.2414 -0.9684 -0.4723
 2769TIP3   OH2 8249   0.139   1.844   4.734 -0.1903  0.1464 -0.4734
 2769TIP3    H1 8250   0.221   1.794   4.741 -0.1604  0.3404  0.7697
 2769TIP3    H2 8251   0.139   1.901   4.811 -0.8611  1.1231 -1.1705
 2770TIP3   OH2 8252   4.442   3.500   6.485 -0.2657 -0.1230  0.0055
 2770TIP3    H1 8253   4.451   3.474   6.576  2.3688 -0.3174 -0.2359
 2770TIP3    H2 8254   4.496   3.579   6.476 -1.3231  0.5123 -1.1649
 2771TIP3   OH2 8255   7.057   1.486   2.027  0.3004  0.0624  0.5810
 2771TIP3    H1 8256   7.112   1.487   1.949  1.7622  2.0509  1.5511
 2771TIP3    H2 8257   7.027   1.395   2.035  1.3714 -0.5118 -1.3930
 2772TIP3   OH2 8258   2.663   1.710   5.788  0.2808  0.1340 -0.0022
 2772TIP3    H1 8259   2.693   1.632   5.834  1.5959  0.4244 -0.3288
 2772TIP3    H2 8260   2.598   1.677   5.725 -0.7509 -0.3989  1.2973
 2773TIP3   OH2 8261   6.813   5.966   3.382 -0.0222 -0.5140 -0.3067
 2773TIP3    H1 8262   6.837   5.940   3.471 -1.5061 -0.1081  0.2432
 2773TIP3    H2 8263   6.855   5.901   3.326 -0.7392 -2.0146  0.8214
 2774TIP3   OH2 8264   3.762   5.206   1.883  0.1653  0.2962 -0.2637
 2774TIP3    H1 8265   3.693   5.229   1.821  1.3894  1.3034 -1.3231
 2774TIP3    H2 8266   3.818   5.284   1.887  1.1564 -0.4189  0.6851
 2775TIP3   OH2 8267   3.068   3.187   2.853 -0.2473 -0.3153 -0.2189
 2775TIP3    H1 8268   3.131   3.128   2.897  0.2313  0.0936 -0.3449
 2775TIP3    H2 8269   3.008   3.128   2.808 -1.4217 -0.7984  1.8552
 2776TIP3   OH2 8270   3.815   3.073   6.058 -0.1701 -0.2129 -0.2625
 2776TIP3    H1 8271   3.900   3.113   6.041 -0.4024 -0.1324 -1.2410
 2776TIP3    H2 8272   3.753   3.146   6.058 -0.3657 -0.3767 -0.4421
 2777TIP3   OH2 8273   8.053   5.215   4.695  0.0586 -0.6368 -0.1127
 2777TIP3    H1 8274   8.027   5.161   4.620 -3.2639 -0.5025  0.8026
 2777TIP3    H2 8275   8.018   5.302   4.674  1.4288  0.0822  0.4577
 2778TIP3   OH2 8276   5.743   0.016   5.758 -0.4233  0.1875 -0.4713
 2778TIP3    H1 8277   5.738  -0.021   5.670 -0.7377  1.3283 -0.9511
 2778TIP3    H2 8278   5.799   0.093   5.749  0.3889 -0.2495  0.5500
 2779TIP3   OH2 8279   6.483   5.735   5.628 -0.5610  0.0783 -0.0544
 2779TIP3    H1 8280   6.510   5.797   5.697 -1.4839  0.2748  0.1422
 2779TIP3    H2 8281   6.422   5.785   5.574  0.0050 -0.1391 -0.9141
 2780TIP3   OH2 8282   7.448   6.404   2.563  0.0455  0.2986  0.0291
 2780TIP3    H1 8283   7.404   6.321   2.579  0.7866 -0.1464 -0.1957
 2780TIP3    H2 8284   7.449   6.448   2.647 -0.5432  0.1759  0.1029
 2781TIP3   OH2 8285   0.082   5.340   0.522 -0.5022 -0.2709  0.3648
 2781TIP3    H1 8286   0.011   5.385   0.567  0.5640  2.5805 -0.5802
 2781TIP3    H2 8287   0.071   5.362   0.430  0.8737 -0.8036  0.0362
 2782TIP3   OH2 8288   0.407   7.840   5.611 -0.2629  0.6041 -0.2544
 2782TIP3    H1 8289   0.387   7.748   5.598 -1.1339  0.6833  0.3795
 2782TIP3    H2 8290   0.370   7.861   5.697  1.1216  1.2129  0.2231
 2783TIP3   OH2 8291   5.170   0.298   3.308 -0.1120 -0.2102 -0.6176
 2783TIP3    H1 8292   5.236   0.230   3.313 -0.5031 -0.5092  2.3602
 2783TIP3    H2 8293   5.101   0.261   3.253  0.1866 -1.7644  0.0082
 2784TIP3   OH2 8294   2.617   4.408   6.392  0.5180  0.4309  0.0085
 2784TIP3    H1 8295   2.648   4.475   6.454  0.5354  0.0509  0.4178
 2784TIP3    H2 8296   2.696   4.365   6.361  0.4312 -1.6488  2.2948
 2785TIP3   OH2 8297   5.176   4.952   1.480 -0.3138  0.9402  0.0028
 2785TIP3    H1 8298   5.204   4.882   1.540  1.7692  0.0112 -1.8864
 2785TIP3    H2 8299   5.177   5.031   1.534  2.2122  0.2771  1.1217
 2786TIP3   OH2 8300   5.336   5.414   5.882  0.6118 -0.1996  0.0244
 2786TIP3    H1 8301   5.390   5.427   5.959  1.6383 -0.0020 -0.7053
 2786TIP3    H2 8302   5.344   5.321   5.862  3.7361  0.3644 -2.1771
 2787TIP3   OH2 8303   5.388   3.821   4.562  0.5946  0.1964  0.1520
 2787TIP3    H1 8304   5.470   3.794   4.603  0.5593  0.0337  0.1120
 2787TIP3    H2 8305   5.386   3.916   4.575  1.5085  0.4129 -1.1615
 2788TIP3   OH2 8306   4.070   0.431   3.546  0.2421 -0.5467  0.4060
 2788TIP3    H1 8307   4.031   0.489   3.481 -0.4256 -1.9712 -0.5223
 2788TIP3    H2 8308   4.047   0.470   3.630 -0.4399  0.3554 -0.1784
 2789TIP3   OH2 8309   1.745   1.056   0.274 -0.4031 -0.1995 -0.0364
 2789TIP3    H1 8310   1.675   1.110   0.238  0.0713 -0.0702 -0.7863
 2789TIP3    H2 8311   1.826   1.094   0.240 -0.0236 -1.0082 -0.0888
 2790TIP3   OH2 8312   0.936   3.515   0.246  0.0890  0.2700 -0.0132
 2790TIP3    H1 8313   0.996   3.442   0.232 -2.8499 -2.5866  1.2840
 2790TIP3    H2 8314   0.962   3.551   0.331  0.6953 -0.1453 -0.0184
 2791TIP3   OH2 8315   5.162   6.252   6.483 -0.6471 -0.0925  0.1230
 2791TIP3    H1 8316   5.169   6.276   6.575 -0.4880 -0.6685  0.2646
 2791TIP3    H2 8317   5.071   6.226   6.472 -0.6195 -0.2039  0.1598
 2792TIP3   OH2 8318   1.158   4.015   4.846 -0.6247 -0.1221  0.0017
 2792TIP3    H1 8319   1.163   4.045   4.936  2.2821 -0.6833  0.1547
 2792TIP3    H2 8320   1.104   3.936   4.849 -1.4006  0.4383  1.0487
 2793TIP3   OH2 8321   5.618   6.396   1.379 -0.1666  0.0417 -0.5304
 2793TIP3    H1 8322   5.671   6.471   1.406  0.6051 -0.0776 -1.6842
 2793TIP3    H2 8323   5.629   6.333   1.450 -2.6510  1.7858  1.6445
 2794TIP3   OH2 8324   1.194   1.575   3.116 -0.1526  0.6127  0.2049
 2794TIP3    H1 8325   1.253   1.649   3.099 -0.1011  0.9879  1.8435
 2794TIP3    H2 8326   1.248   1.512   3.164 -0.1347 -0.6387 -1.3645
 2795TIP3   OH2 8327   5.021   7.550   5.840 -0.3351 -0.0148 -0.5590
 2795TIP3    H1 8328   5.072   7.519   5.766 -0.9147 -0.3677 -0.8146
 2795TIP3    H2 8329   5.017   7.475   5.900 -1.6767 -0.4496 -1.1472
 2796TIP3   OH2 8330   6.995   3.083   5.059  0.1448 -0.5214 -0.0846
 2796TIP3    H1 8331   6.983   3.166   5.106  0.9915 -0.7522  0.5493
 2796TIP3    H2 8332   6.955   3.017   5.116  0.4036 -0.6890 -0.0974
 2797TIP3   OH2 8333   3.449   5.993   3.824  0.3913  0.0234  0.3212
 2797TIP3    H1 8334   3.502   6.064   3.787 -0.1145 -0.2304 -0.9695
 2797TIP3    H2 8335   3.363   6.006   3.785 -0.3487  0.0704  1.9136
 2798TIP3   OH2 8336   7.249   4.220   2.229 -0.1024  0.4754 -0.1517
 2798TIP3    H1 8337   7.320   4.244   2.289 -0.5176  0.0707  0.5264
 2798TIP3    H2 8338   7.181   4.287   2.245 -1.4391 -1.2303  2.0540
 2799TIP3   OH2 8339   3.027   0.043   3.218 -0.0169 -0.0878  0.3801
 2799TIP3    H1 8340   2.962  -0.018   3.253  0.9746 -0.7692  1.1242
 2799TIP3    H2 8341   3.111   0.007   3.248  0.5799  1.8741  1.1872
 2800TIP3   OH2 8342   2.776   6.871   3.427 -0.1863  0.0905  0.0189
 2800TIP3    H1 8343   2.713   6.825   3.482  0.5518  0.2309  1.0170
 2800TIP3    H2 8344   2.855   6.817   3.431  0.0559  0.4069 -0.4308
 2801TIP3   OH2 8345   4.264   7.699   1.829  0.7479  0.1690  0.2397
 2801TIP3    H1 8346   4.283   7.772   1.770 -1.0916  0.4212 -0.1031
 2801TIP3    H2 8347   4.241   7.627   1.770  3.2134 -0.9634  0.5407
 2802TIP3   OH2 8348   0.278   6.951   3.395 -0.0646  0.2025  0.1013
 2802TIP3    H1 8349   0.311   7.041   3.395  0.7670 -0.0783 -1.0394
 2802TIP3    H2 8350   0.196   6.955   3.444 -0.3980  1.7162 -0.5423
 2803TIP3   OH2 8351   1.058   6.286   2.495  0.4563  0.0459 -0.2198
 2803TIP3    H1 8352   1.119   6.301   2.568  2.4851  0.4511 -1.8984
 2803TIP3    H2 8353   0.978   6.255   2.537  2.5498 -2.9666  2.0058
 2804TIP3   OH2 8354   6.324   2.800   4.255 -0.2543 -1.2813 -0.3577
 2804TIP3    H1 8355   6.348   2.826   4.344  1.1109 -3.2548 -0.0864
 2804TIP3    H2 8356   6.262   2.729   4.268 -1.9112 -0.0191 -1.0522
 2805TIP3   OH2 8357   2.850   5.407   6.252 -0.6620 -0.5371  0.0764
 2805TIP3    H1 8358   2.917   5.426   6.318 -0.8468 -0.4541  0.2403
 2805TIP3    H2 8359   2.878   5.456   6.174  0.2844 -1.6927 -0.3472
 2806TIP3   OH2 8360   5.325   1.238   2.856 -0.0681 -0.3358  0.4851
 2806TIP3    H1 8361   5.376   1.266   2.780  0.8296 -1.1568  0.7632
 2806TIP3    H2 8362   5.243   1.206   2.820 -0.5496  1.2986  0.0535
 2807TIP3   OH2 8363   0.159   4.783   0.990  0.3470 -0.1272  0.7450
 2807TIP3    H1 8364   0.162   4.690   0.967  0.8169  0.4049 -1.5936
 2807TIP3    H2 8365   0.202   4.827   0.917  0.2476  1.9425  1.8615
 2808TIP3   OH2 8366   6.020   3.965   4.235 -0.2155 -0.0312 -0.3311
 2808TIP3    H1 8367   5.941   3.981   4.183 -0.0794 -2.3277 -1.3785
 2808TIP3    H2 8368   6.089   4.010   4.187 -0.3711 -0.7747 -1.3005
 2809TIP3   OH2 8369   0.666   1.224   5.415 -0.2798 -0.5031  0.1851
 2809TIP3    H1 8370   0.737   1.253   5.357 -0.1598 -0.4488  0.3563
 2809TIP3    H2 8371   0.624   1.305   5.444  1.0445 -0.3719  1.9107
 2810TIP3   OH2 8372   5.160   3.631   3.257  0.7496  0.1934  0.0548
 2810TIP3    H1 8373   5.210   3.702   3.216 -0.3519  1.4214  0.7562
 2810TIP3    H2 8374   5.072   3.666   3.266 -0.2543 -1.8529 -0.9972
 2811TIP3   OH2 8375   5.883   5.855   6.306 -0.3898  0.0530  0.0823
 2811TIP3    H1 8376   5.811   5.793   6.296  0.4208 -0.8416 -0.2947
 2811TIP3    H2 8377   5.847   5.938   6.275 -0.8676 -0.6608 -1.3691
 2812TIP3   OH2 8378   0.542   1.023   1.713  0.2925 -0.9819 -0.1158
 2812TIP3    H1 8379   0.552   1.064   1.799 -2.2277 -1.0910  0.3223
 2812TIP3    H2 8380   0.566   1.091   1.650 -1.7030  0.5124  0.6379
 2813TIP3   OH2 8381   2.095   1.798   1.809 -0.2240  0.6371  0.3195
 2813TIP3    H1 8382   2.061   1.747   1.883 -1.0761  0.6038 -0.0925
 2813TIP3    H2 8383   2.055   1.884   1.819 -0.8478  0.4442 -0.4616
 2814TIP3   OH2 8384   3.218   5.488   2.573  0.1021 -0.0030  0.0258
 2814TIP3    H1 8385   3.308   5.455   2.582  0.5133  0.8954 -0.5894
 2814TIP3    H2 8386   3.183   5.442   2.497  0.1263 -0.1849  0.1249
 2815TIP3   OH2 8387   2.897   1.296   2.062 -0.4554  0.4832  0.1368
 2815TIP3    H1 8388   2.850   1.338   1.990  1.6346 -0.6637 -2.0439
 2815TIP3    H2 8389   2.944   1.367   2.106 -0.4129  0.9879 -0.7179
 2816TIP3   OH2 8390   1.611   1.827   4.272 -0.1197 -0.2992 -0.3083
 2816TIP3    H1 8391   1.596   1.922   4.273 -3.1340 -0.6778  0.6045
 2816TIP3    H2 8392   1.638   1.806   4.362  0.1496 -0.3779 -0.4050
 2817TIP3   OH2 8393   2.474   1.750   5.444  0.1762  0.2468  0.3197
 2817TIP3    H1 8394   2.451   1.688   5.513  3.0938 -0.6068  0.6578
 2817TIP3    H2 8395   2.564   1.728   5.420 -0.3279  1.2157 -3.0402
 2818TIP3   OH2 8396   5.353   7.017   2.035  0.1033  0.3458  0.0724
 2818TIP3    H1 8397   5.316   7.069   2.107  0.3123  2.4966 -1.2962
 2818TIP3    H2 8398   5.406   7.079   1.985 -0.8433 -0.8164 -2.5217
 2819TIP3   OH2 8399   2.291   6.485   5.985  0.0546 -0.0917  0.3766
 2819TIP3    H1 8400   2.319   6.406   6.032  0.2469  0.3077  0.9344
 2819TIP3    H2 8401   2.372   6.520   5.947  0.0653  0.1823  0.6518
 2820TIP3   OH2 8402   4.676   1.717   2.304 -0.2329  0.0611  0.1414
 2820TIP3    H1 8403   4.686   1.629   2.268 -2.2869 -0.3654  0.5003
 2820TIP3    H2 8404   4.658   1.772   2.228  0.3942  0.0617 -0.0104
 2821TIP3   OH2 8405   4.855   1.016   1.840 -0.0915 -0.4981  0.3293
 2821TIP3    H1 8406   4.775   1.014   1.787 -0.7083  1.5271  1.0722
 2821TIP3    H2 8407   4.926   1.030   1.777 -0.8958  2.9238 -0.0654
 2822TIP3   OH2 8408   1.680   3.612   4.997  0.0311  0.2200 -0.2910
 2822TIP3    H1 8409   1.673   3.639   5.089  1.6963  0.1314 -0.1013
 2822TIP3    H2 8410   1.773   3.623   4.976 -0.1086 -0.8545 -1.6185
 2823TIP3   OH2 8411   4.302   4.712   1.869 -0.0678  0.1295 -0.0309
 2823TIP3    H1 8412   4.327   4.733   1.959  0.2284  1.5088 -0.4116
 2823TIP3    H2 8413   4.219   4.758   1.856 -0.9314 -1.3729  0.0336
 2824TIP3   OH2 8414   6.222   5.777   1.564 -0.4061  0.2002 -0.0720
 2824TIP3    H1 8415   6.215   5.843   1.496 -0.4156 -0.3334 -0.5946
 2824TIP3    H2 8416   6.314   5.781   1.591 -0.3043  0.1187 -0.4095
 2825TIP3   OH2 8417   7.445   3.306   4.700  0.5550  0.2038 -0.2240
 2825TIP3    H1 8418   7.429   3.240   4.767  0.8144 -1.2163 -1.5057
 2825TIP3    H2 8419   7.357   3.335   4.673  0.3772 -0.8353 -0.7980
 2826TIP3   OH2 8420   2.047   1.421   6.433  0.8584  0.4173 -0.0019
 2826TIP3    H1 8421   2.107   1.458   6.368  1.1443 -0.5510 -0.3012
 2826TIP3    H2 8422   2.103   1.392   6.504  0.8617 -1.2818 -0.6564
 2827TIP3   OH2 8423   0.133   7.484   0.815 -0.1216  0.1440  0.2997
 2827TIP3    H1 8424   0.092   7.521   0.737 -0.8868 -1.1957  0.0328
 2827TIP3    H2 8425   0.075   7.413   0.841  2.0981 -1.9716 -0.1979
 2828TIP3   OH2 8426   3.660   2.441   3.694  0.3318  1.0131 -0.3516
 2828TIP3    H1 8427   3.665   2.488   3.777 -0.0577  1.1651 -0.4134
 2828TIP3    H2 8428   3.648   2.509   3.628 -0.3463  0.8227 -0.4306
 2829TIP3   OH2 8429   4.981   5.735   6.777 -0.2422 -0.3723  0.0702
 2829TIP3    H1 8430   5.044   5.805   6.757  0.3013 -0.6016  0.9582
 2829TIP3    H2 8431   4.895   5.776   6.765  0.0178 -0.3961 -2.4127
 2830TIP3   OH2 8432   1.180   2.222   5.212  0.2563 -0.1005  0.0661
 2830TIP3    H1 8433   1.088   2.202   5.227  0.8477 -3.0084  0.2457
 2830TIP3    H2 8434   1.216   2.239   5.299 -0.2793  2.3635 -0.1007
 2831TIP3   OH2 8435   7.265   3.803   6.648 -0.4496 -0.0489  0.3172
 2831TIP3    H1 8436   7.358   3.811   6.669 -0.2951  1.4042 -0.7914
 2831TIP3    H2 8437   7.250   3.709   6.640  1.0119 -0.2800  0.0922
 2832TIP3   OH2 8438   0.188   3.884   2.554 -0.6444 -0.6144 -0.2259
 2832TIP3    H1 8439   0.201   3.936   2.475  1.8920 -1.4196 -0.4457
 2832TIP3    H2 8440   0.192   3.793   2.524 -1.4739 -0.9305  0.5960
 2833TIP3   OH2 8441   5.042   6.754   0.007 -0.5040 -0.5468  0.2493
 2833TIP3    H1 8442   5.057   6.742   0.100 -0.5119  0.0019  0.3272
 2833TIP3    H2 8443   4.951   6.726  -0.007 -1.0948  1.0282  0.7383
 2834TIP3   OH2 8444   5.655   5.047   2.279  0.1236 -0.3770  0.1132
 2834TIP3    H1 8445   5.739   5.093   2.275  0.2145 -0.4577  0.9459
 2834TIP3    H2 8446   5.600   5.102   2.334 -0.2045 -0.5928  0.0031
 2835TIP3   OH2 8447   7.727   0.201   4.042 -0.2151  0.1905  0.0407
 2835TIP3    H1 8448   7.817   0.232   4.047  0.5095 -1.9037  1.5104
 2835TIP3    H2 8449   7.725   0.140   3.968 -1.0237  1.8332 -1.3506
 2836TIP3   OH2 8450   1.599   7.119   6.428  0.5396  0.6260 -0.2246
 2836TIP3    H1 8451   1.686   7.159   6.416  0.6256  0.2854 -0.7348
 2836TIP3    H2 8452   1.599   7.043   6.371  0.9775 -1.0856  1.9335
 2837TIP3   OH2 8453   2.367   3.961   2.024  0.5224  0.1271  0.8478
 2837TIP3    H1 8454   2.442   3.917   1.984  0.2231  1.1679 -0.9777
 2837TIP3    H2 8455   2.388   4.054   2.019 -1.8969  0.6893 -2.1823
 2838TIP3   OH2 8456   4.099   6.934   4.035 -0.0795 -0.3695 -0.4397
 2838TIP3    H1 8457   4.115   7.011   4.090  1.9344  0.3604 -1.9130
 2838TIP3    H2 8458   4.117   6.860   4.092 -0.6852  0.2610  0.6146
 2839TIP3   OH2 8459   5.865   2.000   0.758  0.1670 -0.3902 -0.0051
 2839TIP3    H1 8460   5.779   1.961   0.747 -0.3344  0.6917 -0.0647
 2839TIP3    H2 8461   5.891   2.028   0.670 -0.6144  1.6603  0.3566
 2840TIP3   OH2 8462   3.072   3.560   1.523  1.1164  0.4458 -0.1050
 2840TIP3    H1 8463   3.021   3.517   1.454  0.0692  1.7379 -0.1948
 2840TIP3    H2 8464   3.063   3.504   1.599  0.6562 -0.0190 -0.4949
 2841TIP3   OH2 8465   0.502   5.087   1.680 -0.0545  0.1149 -0.1084
 2841TIP3    H1 8466   0.552   5.039   1.614  0.9742  1.5697 -0.4454
 2841TIP3    H2 8467   0.412   5.058   1.667  0.4731 -1.4698 -0.4740
 2842TIP3   OH2 8468   1.303   1.426   1.422 -0.1317  0.1673  0.4625
 2842TIP3    H1 8469   1.242   1.493   1.453 -0.5671 -0.4153  0.8855
 2842TIP3    H2 8470   1.362   1.412   1.497  0.2741  0.4388  0.1969
 2843TIP3   OH2 8471   4.377   3.366   4.589  0.4490 -0.1348  0.3965
 2843TIP3    H1 8472   4.472   3.366   4.595  0.7628  0.9866 -2.8410
 2843TIP3    H2 8473   4.356   3.285   4.542 -0.2397 -0.4233  1.1760
 2844TIP3   OH2 8474   0.485   7.060   5.138 -0.0957 -0.3816  0.1618
 2844TIP3    H1 8475   0.437   6.979   5.152  0.8227 -1.1474 -0.9323
 2844TIP3    H2 8476   0.576   7.038   5.155  0.2091  0.3161 -0.4760
 2845TIP3   OH2 8477   0.494   5.585   5.318  0.3098  0.2136  1.0104
 2845TIP3    H1 8478   0.554   5.511   5.314  0.8173  0.5726  1.8166
 2845TIP3    H2 8479   0.512   5.627   5.402 -0.5665  0.7531  0.9470
 2846TIP3   OH2 8480   1.737   3.891   4.801  0.0555  0.4725  0.5814
 2846TIP3    H1 8481   1.753   3.819   4.861  0.2834 -0.8105 -0.9509
 2846TIP3    H2 8482   1.642   3.901   4.799 -0.1426 -1.1346 -0.6296
 2847TIP3   OH2 8483   4.780   5.932   0.672 -0.4007 -0.7608 -0.0792
 2847TIP3    H1 8484   4.740   5.929   0.585  0.8330 -0.1542 -0.7035
 2847TIP3    H2 8485   4.855   5.872   0.666 -0.5331 -1.0030  0.6847
 2848TIP3   OH2 8486   7.727   2.425   1.218 -0.1629 -0.1484 -0.2032
 2848TIP3    H1 8487   7.764   2.336   1.214 -1.4694 -0.6541 -1.6743
 2848TIP3    H2 8488   7.635   2.414   1.196  0.0007  1.7835 -2.1683
 2849TIP3   OH2 8489   7.484   2.047   2.566 -0.0702 -0.2802 -0.5681
 2849TIP3    H1 8490   7.539   2.075   2.493 -0.1608 -2.0139 -1.3717
 2849TIP3    H2 8491   7.409   2.004   2.524 -0.4994 -0.6502  0.5377
 2850TIP3   OH2 8492   5.841   0.389   6.640 -0.3100 -0.0345 -0.1758
 2850TIP3    H1 8493   5.821   0.330   6.567  2.9475  0.2491 -1.4300
 2850TIP3    H2 8494   5.929   0.365   6.667 -0.2575  1.9464  1.6561
 2851TIP3   OH2 8495   7.261   6.088   5.098  0.1168  0.3822  0.0421
 2851TIP3    H1 8496   7.312   6.022   5.051 -0.4414  0.6073 -0.9251
 2851TIP3    H2 8497   7.237   6.152   5.030 -1.5867  0.1899  0.4165
 2852TIP3   OH2 8498   2.478   7.331   4.191 -0.2767 -0.0557 -0.1100
 2852TIP3    H1 8499   2.486   7.401   4.256 -0.8885 -0.1880  0.1200
 2852TIP3    H2 8500   2.531   7.359   4.118 -1.5901  1.3159 -0.5899
 2853TIP3   OH2 8501   6.992   0.444   4.767  0.1652 -0.7042  0.5678
 2853TIP3    H1 8502   7.007   0.417   4.857  0.3280 -1.4735  0.3151
 2853TIP3    H2 8503   7.039   0.527   4.759 -1.1794  0.1894  1.6368
 2854TIP3   OH2 8504   3.458   6.019   5.251 -0.0394 -0.1047 -0.3285
 2854TIP3    H1 8505   3.476   5.953   5.184 -1.1159 -0.3412 -0.4133
 2854TIP3    H2 8506   3.366   6.003   5.275 -0.2790  1.2777 -0.2592
 2855TIP3   OH2 8507   1.166   3.060   6.227 -0.1810  0.0059 -0.2809
 2855TIP3    H1 8508   1.141   3.100   6.144  2.0067 -0.2909 -1.1460
 2855TIP3    H2 8509   1.141   2.968   6.218  1.2680 -0.3286 -1.2073
 2856TIP3   OH2 8510   3.356   6.903   3.101 -0.3141 -0.1881  0.3003
 2856TIP3    H1 8511   3.371   6.917   3.008 -1.3700  1.5153  0.3555
 2856TIP3    H2 8512   3.310   6.819   3.106  0.2188 -0.5411 -0.6622
 2857TIP3   OH2 8513   5.719   2.318   5.637  0.3318 -0.1999 -0.1619
 2857TIP3    H1 8514   5.684   2.238   5.677 -1.6729 -0.2163 -1.7778
 2857TIP3    H2 8515   5.705   2.386   5.703 -1.1564 -0.5658 -0.0544
 2858TIP3   OH2 8516   1.667   1.525   1.158 -0.5879  0.1725 -0.0813
 2858TIP3    H1 8517   1.627   1.581   1.224 -0.3656 -0.8521  0.9479
 2858TIP3    H2 8518   1.752   1.566   1.139  0.1576 -0.4832  1.6424
 2859TIP3   OH2 8519   2.804   7.066   1.814  0.2810 -0.1720 -0.2922
 2859TIP3    H1 8520   2.716   7.058   1.851  0.7519 -0.7912  0.7203
 2859TIP3    H2 8521   2.848   7.129   1.871  1.3088 -1.8404  0.8281
 2860TIP3   OH2 8522   6.282   2.111   3.023  0.3218  0.8006 -0.0096
 2860TIP3    H1 8523   6.221   2.108   3.097  1.6679  2.4797  1.2375
 2860TIP3    H2 8524   6.313   2.020   3.014 -1.9081  0.0038 -0.3703
 2861TIP3   OH2 8525   4.866   0.185   6.243 -0.5807 -0.3871 -0.2418
 2861TIP3    H1 8526   4.936   0.181   6.308 -1.0092 -4.1517  0.1763
 2861TIP3    H2 8527   4.913   0.192   6.159  0.1531 -0.0934  0.1811
 2862TIP3   OH2 8528   1.718   2.736   0.493 -0.1782 -0.1205 -0.4236
 2862TIP3    H1 8529   1.731   2.678   0.418  1.3878 -0.4129  0.0261
 2862TIP3    H2 8530   1.718   2.824   0.456 -0.8074 -0.3224 -0.9128
 2863TIP3   OH2 8531   3.055   3.568   4.237 -0.0369  0.4172 -0.6730
 2863TIP3    H1 8532   2.963   3.546   4.251 -0.4087  1.0371 -1.9616
 2863TIP3    H2 8533   3.053   3.657   4.203  1.0739  0.5755 -0.3461
 2864TIP3   OH2 8534   7.907   0.797   3.133  0.0918 -0.3846  0.2291
 2864TIP3    H1 8535   7.960   0.869   3.099 -1.2170  0.8973  0.7959
 2864TIP3    H2 8536   7.931   0.791   3.225 -0.6064  0.1081  0.4544
 2865TIP3   OH2 8537   5.445   6.321   4.620  0.0145 -0.5750 -0.3092
 2865TIP3    H1 8538   5.391   6.359   4.690 -0.2641 -0.8355 -0.3809
 2865TIP3    H2 8539   5.423   6.374   4.543  1.6608  0.9109  0.1564
 2866TIP3   OH2 8540   5.899   6.221   6.556 -0.6333 -0.4504 -0.4002
 2866TIP3    H1 8541   5.841   6.284   6.514  0.4464 -0.5897 -2.2082
 2866TIP3    H2 8542   5.985   6.264   6.557 -0.0024 -1.6299 -1.1382
 2867TIP3   OH2 8543   5.487   1.238   3.938  0.3602  0.0085  0.3126
 2867TIP3    H1 8544   5.510   1.292   4.014  1.1180  0.8134 -0.4620
 2867TIP3    H2 8545   5.440   1.297   3.879 -1.2852 -0.9121  0.6415
 2868TIP3   OH2 8546   4.149   2.527   3.496 -0.1806  0.4770 -0.5560
 2868TIP3    H1 8547   4.143   2.563   3.408 -1.9356 -1.1117 -1.1377
 2868TIP3    H2 8548   4.224   2.467   3.493 -1.4975 -1.1680 -1.6097
 2869TIP3   OH2 8549   3.710   3.230   3.338 -0.4284 -0.4124  0.2388
 2869TIP3    H1 8550   3.691   3.147   3.295 -1.2107 -0.0951 -0.0480
 2869TIP3    H2 8551   3.805   3.234   3.343 -0.2721 -0.0947 -2.1784
 2870TIP3   OH2 8552   3.875   3.024   1.309 -0.1122  0.5796 -0.0958
 2870TIP3    H1 8553   3.874   2.928   1.314  0.9819  0.5110 -0.8153
 2870TIP3    H2 8554   3.783   3.048   1.303 -0.4593 -0.3639  0.9582
 2871TIP3   OH2 8555   7.835   4.515   4.990 -0.3030 -0.2849 -0.4590
 2871TIP3    H1 8556   7.832   4.605   4.956  0.4517 -0.1527 -0.2030
 2871TIP3    H2 8557   7.822   4.525   5.085 -1.9827 -0.6143 -0.6327
 2872TIP3   OH2 8558   5.934   7.734   6.428  0.4363  0.1761  0.5873
 2872TIP3    H1 8559   5.882   7.774   6.498  1.7386  1.7822  0.7116
 2872TIP3    H2 8560   6.010   7.793   6.419  0.6824 -0.4127 -1.6525
 2873TIP3   OH2 8561   5.625   1.980   0.354 -0.3051 -0.4562  0.4639
 2873TIP3    H1 8562   5.683   2.055   0.341 -1.3545  0.7082  2.0421
 2873TIP3    H2 8563   5.605   1.982   0.448  0.1417 -3.1311  0.7100
 2874TIP3   OH2 8564   3.578   2.774   1.190 -0.0361 -0.4363  0.5210
 2874TIP3    H1 8565   3.581   2.822   1.273 -1.5008  1.3499 -0.3762
 2874TIP3    H2 8566   3.491   2.734   1.188  0.3121 -1.2039  0.2104
 2875TIP3   OH2 8567   7.150   0.525   4.080 -0.4508  0.2608 -0.1563
 2875TIP3    H1 8568   7.144   0.443   4.031 -1.7868  0.3852 -0.2303
 2875TIP3    H2 8569   7.241   0.553   4.069 -0.5043 -0.1179 -1.9136
 2876TIP3   OH2 8570   1.388   1.476   2.871 -0.1755  0.0282 -0.4273
 2876TIP3    H1 8571   1.464   1.508   2.824  0.7520 -1.4144  0.0077
 2876TIP3    H2 8572   1.424   1.423   2.942 -1.5674 -1.5504 -0.8136
 2877TIP3   OH2 8573   3.887   1.616   6.512  0.1355 -0.1132  0.4457
 2877TIP3    H1 8574   3.892   1.690   6.573  0.9639  0.0879  0.1600
 2877TIP3    H2 8575   3.972   1.572   6.521  0.6600  0.4533 -1.1962
 2878TIP3   OH2 8576   1.086   3.893   2.108 -0.2675 -0.2563 -0.3384
 2878TIP3    H1 8577   1.024   3.950   2.062 -0.5984 -1.0647 -0.9001
 2878TIP3    H2 8578   1.052   3.805   2.096  1.5277 -0.8361 -1.5283
 2879TIP3   OH2 8579   0.744   6.474   1.389 -0.0561  0.8852 -0.1925
 2879TIP3    H1 8580   0.813   6.414   1.418 -0.5366  0.4829  0.1454
 2879TIP3    H2 8581   0.679   6.417   1.347 -0.8048  1.0829  0.6647
 2880TIP3   OH2 8582   1.274   4.722   5.441 -0.4243 -0.2197  0.2676
 2880TIP3    H1 8583   1.359   4.723   5.486 -0.8920  0.3784  1.1537
 2880TIP3    H2 8584   1.297   4.727   5.348  0.5906 -2.2012  0.3455
 2881TIP3   OH2 8585   2.872   1.249   0.555 -0.9824 -0.0860 -0.0311
 2881TIP3    H1 8586   2.875   1.172   0.498 -0.8944 -1.3957  1.6765
 2881TIP3    H2 8587   2.960   1.286   0.551 -0.6470 -0.8622  0.1914
 2882TIP3   OH2 8588   0.702   2.258   1.933  0.0989  0.1269 -0.3169
 2882TIP3    H1 8589   0.678   2.290   2.020  0.7907  1.1983 -0.5034
 2882TIP3    H2 8590   0.689   2.163   1.938 -1.2072  0.3252  0.5104
 2883TIP3   OH2 8591   6.021   3.136   0.986 -0.5103  0.1614 -0.1402
 2883TIP3    H1 8592   6.059   3.072   1.046 -1.2505 -0.6275 -0.4823
 2883TIP3    H2 8593   5.972   3.196   1.042 -1.7198 -0.9358  0.0291
 2884TIP3   OH2 8594   6.537   3.995   6.267  0.2756  0.3250  0.4275
 2884TIP3    H1 8595   6.502   4.004   6.178 -0.8146 -1.1133  0.6836
 2884TIP3    H2 8596   6.519   3.905   6.291 -0.2649  0.9222  2.4617
 2885TIP3   OH2 8597   2.597   2.481   3.116 -0.3772  0.3832 -0.2424
 2885TIP3    H1 8598   2.626   2.528   3.194 -1.8957 -0.5849  0.9521
 2885TIP3    H2 8599   2.595   2.548   3.047  0.9028  1.2622  0.5397
 2886TIP3   OH2 8600   3.493   7.620   5.108  0.9374  0.4476 -0.0033
 2886TIP3    H1 8601   3.438   7.689   5.071  0.4802 -0.0870 -0.3288
 2886TIP3    H2 8602   3.436   7.543   5.112  1.5197  0.0137  0.1066
 2887TIP3   OH2 8603   0.871   2.362   5.033 -0.3911  0.2349 -0.3895
 2887TIP3    H1 8604   0.875   2.330   5.123  0.1459 -0.8159 -0.7651
 2887TIP3    H2 8605   0.801   2.311   4.992 -0.4818  0.5442 -0.6262
 2888TIP3   OH2 8606   4.097   2.920   5.843  0.4750  0.0528 -0.4493
 2888TIP3    H1 8607   4.107   2.968   5.925  0.6755 -1.2499  0.3192
 2888TIP3    H2 8608   4.071   2.986   5.779 -2.8064  0.6781  1.3000
 2889TIP3   OH2 8609   3.345   3.217   0.867  0.2433 -0.4898  0.2840
 2889TIP3    H1 8610   3.363   3.199   0.959 -0.0029  1.3462  0.7385
 2889TIP3    H2 8611   3.270   3.276   0.869  1.4249  1.1741 -0.9423
 2890TIP3   OH2 8612   3.376   5.580   4.977 -0.5617 -0.6773  0.1478
 2890TIP3    H1 8613   3.463   5.540   4.982  0.0996  0.6364 -0.2853
 2890TIP3    H2 8614   3.341   5.575   5.066  1.1099  1.1918  0.9804
 2891TIP3   OH2 8615   6.096   4.635   5.254 -0.2911 -0.5736  0.0934
 2891TIP3    H1 8616   6.072   4.625   5.161  0.6587  1.8184 -0.4687
 2891TIP3    H2 8617   6.014   4.621   5.301 -1.4083  0.8686 -1.3180
 2892TIP3   OH2 8618   1.960   1.020   5.661 -0.2935  0.1372 -0.5751
 2892TIP3    H1 8619   2.036   0.969   5.690  0.4187  0.7016 -1.4100
 2892TIP3    H2 8620   1.896   1.010   5.731  0.8560  0.3326  0.5311
 2893TIP3   OH2 8621   5.088   3.178   5.711  0.3309 -0.3008  0.6769
 2893TIP3    H1 8622   5.082   3.171   5.807  1.2518 -1.5860  0.6676
 2893TIP3    H2 8623   5.004   3.146   5.679 -0.1970  0.6612  1.0543
 2894TIP3   OH2 8624   1.002   0.957   6.307 -0.0238 -0.2639 -0.1031
 2894TIP3    H1 8625   0.980   1.023   6.373 -0.1140  1.4815 -1.8055
 2894TIP3    H2 8626   1.089   0.926   6.332  0.8471  1.8794 -0.2719
 2895TIP3   OH2 8627   0.997   4.634   5.499 -0.7939 -0.4199  1.0892
 2895TIP3    H1 8628   1.076   4.642   5.447  0.7131 -0.9942  3.1604
 2895TIP3    H2 8629   1.011   4.692   5.574 -2.9779  0.5694  0.8144
 2896TIP3   OH2 8630   6.626   4.302   4.422  0.0554 -1.2859  0.0143
 2896TIP3    H1 8631   6.545   4.256   4.397  0.2469 -1.1769 -0.8394
 2896TIP3    H2 8632   6.649   4.353   4.344  0.3037 -0.3936  0.6688
 2897TIP3   OH2 8633   5.971   5.828   0.146 -0.2270  0.4065  0.1857
 2897TIP3    H1 8634   6.055   5.797   0.112 -0.3738  0.1548  0.0480
 2897TIP3    H2 8635   5.909   5.812   0.075 -0.4205  0.4410  0.3468
 2898TIP3   OH2 8636   4.282   1.664   5.253 -0.1107  0.0708  0.5857
 2898TIP3    H1 8637   4.286   1.585   5.306  0.8221  0.9313  1.8492
 2898TIP3    H2 8638   4.318   1.733   5.309  1.9744  0.8200 -1.4959
 2899TIP3   OH2 8639   4.630   5.280   0.419  0.1855 -0.3922  0.0643
 2899TIP3    H1 8640   4.570   5.282   0.493  0.7176  2.8422  0.5608
 2899TIP3    H2 8641   4.582   5.324   0.348  1.3002  0.7606 -0.0232
 2900TIP3   OH2 8642   4.659   5.177   4.784  0.2305 -0.2260  0.0969
 2900TIP3    H1 8643   4.659   5.269   4.809  0.7565 -0.5556  1.3912
 2900TIP3    H2 8644   4.691   5.177   4.694  2.3735  0.7150  0.7794
 2901TIP3   OH2 8645   1.490   0.175   1.993 -0.0413  0.0591 -0.0201
 2901TIP3    H1 8646   1.398   0.198   1.979 -0.6178 -0.6661  2.1722
 2901TIP3    H2 8647   1.513   0.219   2.075  0.8543 -1.6114  0.6614
 2902TIP3   OH2 8648   8.173   7.423   6.130  0.0842  0.2816 -0.3624
 2902TIP3    H1 8649   8.166   7.449   6.221 -0.9556 -1.8868  0.2354
 2902TIP3    H2 8650   8.239   7.482   6.093  0.0939  1.5865  1.6083
 2903TIP3   OH2 8651   0.602   2.938   1.299 -0.4051  0.8231  0.3726
 2903TIP3    H1 8652   0.682   2.926   1.350 -0.6906  0.2961  0.7092
 2903TIP3    H2 8653   0.585   3.032   1.302 -1.7486  0.5726  3.3070
 2904TIP3   OH2 8654   7.628   7.412   3.115 -0.0553 -0.5148  0.0189
 2904TIP3    H1 8655   7.587   7.357   3.049 -0.0102  0.2355 -0.6580
 2904TIP3    H2 8656   7.613   7.502   3.084 -1.7720 -0.0095  2.0347
 2905TIP3   OH2 8657   2.139   7.137   3.928 -0.2663 -0.5216  0.2321
 2905TIP3    H1 8658   2.185   7.109   3.849  1.0783  0.0624  0.7698
 2905TIP3    H2 8659   2.165   7.074   3.995  1.6555  1.0721  1.0976
 2906TIP3   OH2 8660   0.415   3.997   0.816  0.2681  0.3417  0.0364
 2906TIP3    H1 8661   0.426   4.066   0.752 -1.3433 -0.3167 -1.0152
 2906TIP3    H2 8662   0.341   4.026   0.870  0.6080  0.1731  0.6011
 2907TIP3   OH2 8663   6.574   5.671   1.751  1.1062 -0.0157  0.4651
 2907TIP3    H1 8664   6.510   5.655   1.820 -0.4234  1.4516 -0.5482
 2907TIP3    H2 8665   6.600   5.762   1.763  1.7422 -0.1032 -0.1621
 2908TIP3   OH2 8666   3.621   5.398   6.552  0.4378  0.5788  0.3127
 2908TIP3    H1 8667   3.563   5.423   6.480 -2.0097 -1.5153  1.3932
 2908TIP3    H2 8668   3.639   5.305   6.537  0.4337  0.2744  2.0445
 2909TIP3   OH2 8669   5.319   2.582   2.439 -0.2528 -0.0614 -0.0845
 2909TIP3    H1 8670   5.340   2.583   2.345  0.1816  0.0229  0.0094
 2909TIP3    H2 8671   5.236   2.536   2.445 -0.5310  0.3599 -0.5649
 2910TIP3   OH2 8672   6.823   7.828   3.704 -0.2846 -0.0052 -0.0632
 2910TIP3    H1 8673   6.874   7.753   3.672 -0.1093  0.5102 -1.0334
 2910TIP3    H2 8674   6.776   7.794   3.780  1.8309 -0.3953  1.1692
 2911TIP3   OH2 8675   2.199   7.121   4.630  0.1998 -0.1723  0.1084
 2911TIP3    H1 8676   2.271   7.100   4.571  0.2885  0.2719  0.0564
 2911TIP3    H2 8677   2.234   7.106   4.718 -0.1742 -1.5897  0.0378
 2912TIP3   OH2 8678   6.202   7.145   5.699 -0.4726 -0.7153  0.0782
 2912TIP3    H1 8679   6.263   7.217   5.684  1.0459 -1.5449  1.9252
 2912TIP3    H2 8680   6.164   7.128   5.612  0.4201  1.1243 -0.7325
 2913TIP3   OH2 8681   7.331   6.562   6.683  0.4623  0.7516  0.2806
 2913TIP3    H1 8682   7.286   6.495   6.734  1.9043 -0.5026 -0.0335
 2913TIP3    H2 8683   7.424   6.540   6.690  0.8607  1.8195 -1.0937
 2914TIP3   OH2 8684   3.806   1.113   2.425  0.1115  0.1981  0.4214
 2914TIP3    H1 8685   3.830   1.189   2.372 -1.1031 -0.4526 -1.1301
 2914TIP3    H2 8686   3.884   1.058   2.425  0.4527  0.6772  0.1660
 2915TIP3   OH2 8687   2.913   1.943   0.409  0.2031 -0.0670 -0.2588
 2915TIP3    H1 8688   2.976   2.015   0.402 -0.5242  0.4534 -1.8588
 2915TIP3    H2 8689   2.915   1.919   0.501  0.3674  2.1028  0.3567
 2916TIP3   OH2 8690   7.960   1.892   4.843 -0.2017 -0.2341  0.4894
 2916TIP3    H1 8691   7.864   1.889   4.848 -0.4157  0.0942 -2.0695
 2916TIP3    H2 8692   7.986   1.803   4.822 -0.4782  0.4604 -3.6878
 2917TIP3   OH2 8693   4.481   2.034   1.046  0.2086  0.2781 -0.3150
 2917TIP3    H1 8694   4.530   2.002   0.970 -0.2107  3.0408 -1.8976
 2917TIP3    H2 8695   4.546   2.041   1.115  0.9560 -0.7454 -0.8867
 2918TIP3   OH2 8696   5.608   7.420   5.005  0.4317 -0.5482  0.0779
 2918TIP3    H1 8697   5.540   7.354   5.019 -0.6727  0.1426 -1.6664
 2918TIP3    H2 8698   5.565   7.503   5.025  1.7074 -0.2514  1.9175
 2919TIP3   OH2 8699   7.807   4.952   4.983  0.0601  0.1420  0.0585
 2919TIP3    H1 8700   7.901   4.944   4.995  0.2326  1.5211 -0.2908
 2919TIP3    H2 8701   7.796   5.022   4.919 -1.1694 -0.6671 -0.6673
 2920TIP3   OH2 8702   2.304   7.095   3.450 -0.1865 -0.1789 -0.1537
 2920TIP3    H1 8703   2.392   7.095   3.489 -0.1274 -0.6247 -0.2862
 2920TIP3    H2 8704   2.317   7.132   3.362 -0.2011  0.1412 -0.0232
 2921TIP3   OH2 8705   1.691   4.879   2.661 -0.6958 -0.0027  0.2803
 2921TIP3    H1 8706   1.782   4.890   2.633 -0.3666 -1.8545  0.5273
 2921TIP3    H2 8707   1.639   4.905   2.584  0.0315  0.5027 -0.0531
 2922TIP3   OH2 8708   3.643   7.424   0.623  0.5153  0.3927  0.1223
 2922TIP3    H1 8709   3.573   7.473   0.579  1.2461  2.0753  0.7589
 2922TIP3    H2 8710   3.724   7.455   0.581  1.2608  2.1438  2.5990
 2923TIP3   OH2 8711   2.545   1.522   4.187  0.2280 -0.4404 -0.7194
 2923TIP3    H1 8712   2.496   1.448   4.222  0.0980 -0.4277 -0.8723
 2923TIP3    H2 8713   2.507   1.599   4.230 -1.3981 -0.2099 -2.4477
 2924TIP3   OH2 8714   0.276   5.965   5.370  0.2936 -0.1733  0.0170
 2924TIP3    H1 8715   0.232   6.048   5.384 -0.0878 -0.4754  0.6072
 2924TIP3    H2 8716   0.343   5.961   5.438  0.3208 -0.3447 -0.0198
 2925TIP3   OH2 8717   5.598   2.925   2.520 -0.2784 -0.0802  0.0213
 2925TIP3    H1 8718   5.531   2.906   2.455  0.6732 -1.3836 -0.6365
 2925TIP3    H2 8719   5.606   2.844   2.571  1.5298 -0.3620 -0.6342
 2926TIP3   OH2 8720   3.632   0.485   1.034  0.0741  0.2322 -0.3223
 2926TIP3    H1 8721   3.656   0.576   1.015  0.7786  0.2856  0.7460
 2926TIP3    H2 8722   3.541   0.490   1.064 -0.9769  0.1798 -3.1926
 2927TIP3   OH2 8723   5.012   6.457   3.651  0.2724  0.0453  0.0344
 2927TIP3    H1 8724   4.917   6.444   3.655  0.3446 -1.1188 -1.3212
 2927TIP3    H2 8725   5.048   6.380   3.696  0.5889 -0.6885 -1.4254
 2928TIP3   OH2 8726   1.624   2.468   3.642 -0.0057 -0.4155 -0.6494
 2928TIP3    H1 8727   1.582   2.391   3.604 -0.5311  0.5517 -2.1019
 2928TIP3    H2 8728   1.553   2.532   3.652  0.1770 -0.4614  1.6691
 2929TIP3   OH2 8729   0.075   0.850   5.377  0.0521 -0.5427 -0.0887
 2929TIP3    H1 8730   0.039   0.874   5.292  0.7497  0.4291 -0.1202
 2929TIP3    H2 8731   0.131   0.924   5.402  0.3183 -1.0689  0.9442
 2930TIP3   OH2 8732   3.820   5.015   1.638 -0.2692 -0.4093 -0.3201
 2930TIP3    H1 8733   3.805   4.969   1.554 -1.3874  1.5021 -1.2382
 2930TIP3    H2 8734   3.912   4.998   1.658  0.1803 -0.5054 -2.2132
 2931TIP3   OH2 8735   1.114   5.619   1.015 -0.3775  0.7473  0.4346
 2931TIP3    H1 8736   1.128   5.553   1.084  2.3014 -1.7063 -2.1715
 2931TIP3    H2 8737   1.198   5.664   1.008 -0.2659  0.2978 -1.7707
 2932TIP3   OH2 8738   1.936   1.031   5.371  0.0374  0.3565  0.4985
 2932TIP3    H1 8739   1.924   1.007   5.463 -1.4711  0.5899  0.4011
 2932TIP3    H2 8740   1.873   1.102   5.357 -0.1374 -0.0362 -0.8488
 2933TIP3   OH2 8741   2.225   3.932   0.628 -0.1079 -0.2138  0.6187
 2933TIP3    H1 8742   2.172   3.852   0.621  0.5755 -0.6378  0.1061
 2933TIP3    H2 8743   2.161   4.001   0.645 -0.8984 -0.6403 -0.4457
 2934TIP3   OH2 8744   0.583   1.663   6.108  0.4018 -0.7644  0.2417
 2934TIP3    H1 8745   0.655   1.617   6.065  0.0591 -1.2956  0.2361
 2934TIP3    H2 8746   0.619   1.750   6.127  1.8188 -1.7166  2.2686
 2935TIP3   OH2 8747   3.273   5.874   0.996  0.2325  0.5020 -0.1113
 2935TIP3    H1 8748   3.261   5.783   1.025  2.1653  0.2731  0.0946
 2935TIP3    H2 8749   3.185   5.913   1.003 -0.2888 -0.8260  1.5970
 2936TIP3   OH2 8750   6.142   5.849   5.800 -0.3848 -0.2924  0.2127
 2936TIP3    H1 8751   6.145   5.757   5.775 -0.9061 -0.1644 -0.3735
 2936TIP3    H2 8752   6.048   5.869   5.804 -0.2932  0.6038 -1.2519
 2937TIP3   OH2 8753   1.469   4.165   0.065 -0.5195 -0.5107  0.5154
 2937TIP3    H1 8754   1.496   4.247   0.108 -1.8462  0.1919  0.0470
 2937TIP3    H2 8755   1.379   4.180   0.038 -1.6130 -2.9387  2.4125
 2938TIP3   OH2 8756   7.848   4.857   0.653  0.9074 -0.5844 -0.5984
 2938TIP3    H1 8757   7.805   4.781   0.692  1.9910 -0.3572  1.1896
 2938TIP3    H2 8758   7.781   4.925   0.653  0.5035 -0.9733 -0.3596
 2939TIP3   OH2 8759   2.099   6.112   1.221  0.0180  0.6258  0.4524
 2939TIP3    H1 8760   2.108   6.057   1.298 -2.3779 -0.1332  0.2824
 2939TIP3    H2 8761   2.042   6.062   1.162  2.3485  0.8348 -2.1783
 2940TIP3   OH2 8762   0.492   5.692   5.582  0.2375  0.2605  0.2258
 2940TIP3    H1 8763   0.398   5.675   5.586  0.3285 -1.2017 -1.8845
 2940TIP3    H2 8764   0.498   5.785   5.557 -0.9498 -0.6852 -4.6645
 2941TIP3   OH2 8765   5.279   3.334   2.987  0.0483 -0.3880  0.1779
 2941TIP3    H1 8766   5.195   3.295   3.009  0.1684  0.2396  1.8716
 2941TIP3    H2 8767   5.311   3.282   2.913 -1.0339 -1.7281  0.6133
 2942TIP3   OH2 8768   4.764   3.822   0.949 -0.2095  0.4140  0.4024
 2942TIP3    H1 8769   4.723   3.766   1.015 -0.4984 -1.2563 -1.1245
 2942TIP3    H2 8770   4.813   3.887   1.000  1.3171 -2.0626  2.3115
 2943TIP3   OH2 8771   8.283   2.872   3.500  0.1590  0.0082  0.0588
 2943TIP3    H1 8772   8.329   2.925   3.564  0.3297 -0.7868  0.6184
 2943TIP3    H2 8773   8.215   2.929   3.465 -0.9934 -0.0205  2.1256
 2944TIP3   OH2 8774   5.817   2.860   3.149  0.0967  0.7992  0.4029
 2944TIP3    H1 8775   5.817   2.872   3.054  0.4333  1.2587  0.4522
 2944TIP3    H2 8776   5.735   2.816   3.168  0.7747 -0.8361 -0.2794
 2945TIP3   OH2 8777   7.054   5.452   0.126 -0.4358 -0.1131 -0.3606
 2945TIP3    H1 8778   7.007   5.428   0.206 -0.5329 -3.0190 -1.1930
 2945TIP3    H2 8779   7.012   5.533   0.097 -2.3090 -0.5277  1.0058
 2946TIP3   OH2 8780   6.291   3.150   0.475 -0.2265 -0.2001  0.4464
 2946TIP3    H1 8781   6.345   3.096   0.417 -0.0503  1.0280 -0.5742
 2946TIP3    H2 8782   6.348   3.223   0.500 -0.6797 -0.1093  1.2576
 2947TIP3   OH2 8783   7.471   2.903   5.364 -0.7435 -0.0794 -0.0059
 2947TIP3    H1 8784   7.452   2.996   5.378 -1.3556 -0.0128 -1.1861
 2947TIP3    H2 8785   7.426   2.881   5.283  0.3593 -1.1364 -0.3525
 2948TIP3   OH2 8786   7.465   6.051   2.428  1.0523  0.3067  0.1587
 2948TIP3    H1 8787   7.418   6.074   2.508  1.6308  0.0446  0.5769
 2948TIP3    H2 8788   7.415   6.094   2.358  0.8293  0.9603  0.7075
 2949TIP3   OH2 8789   7.101   0.540   5.815 -0.5512  0.4318 -0.0186
 2949TIP3    H1 8790   7.135   0.580   5.896 -1.6860  1.8074 -0.1868
 2949TIP3    H2 8791   7.157   0.575   5.746  1.7095 -2.2581  0.2528
 2950TIP3   OH2 8792   3.994   4.397   2.250 -0.2330 -0.0998  0.4934
 2950TIP3    H1 8793   4.046   4.477   2.265 -0.7296  0.0678  1.3517
 2950TIP3    H2 8794   3.928   4.397   2.319 -0.4893 -1.0590  0.2689
 2951TIP3   OH2 8795   0.273   5.475   1.229 -0.3158  0.1393 -0.3811
 2951TIP3    H1 8796   0.185   5.476   1.267 -0.0661  0.5663  0.1934
 2951TIP3    H2 8797   0.317   5.402   1.273 -0.0947  0.4985 -0.0048
 2952TIP3   OH2 8798   5.525   4.020   3.443 -0.0281  0.6879  0.2150
 2952TIP3    H1 8799   5.512   3.926   3.427  1.1749  0.6269 -0.5554
 2952TIP3    H2 8800   5.482   4.063   3.369 -1.1615  0.7972  0.9149
 2953TIP3   OH2 8801   6.803   6.549   6.646  0.2405  0.3332  0.1978
 2953TIP3    H1 8802   6.889   6.508   6.655 -0.1265 -0.6443 -0.5693
 2953TIP3    H2 8803   6.811   6.609   6.572  0.1653 -0.0601 -0.1350
 2954TIP3   OH2 8804   6.643   1.455   0.637  0.4747 -0.0664 -0.2129
 2954TIP3    H1 8805   6.577   1.474   0.703  0.1950  0.5552 -0.6595
 2954TIP3    H2 8806   6.599   1.473   0.554  0.9666 -0.3952 -0.5483
 2955TIP3   OH2 8807   3.131   4.026   2.200  0.2206  0.2984  0.2739
 2955TIP3    H1 8808   3.074   3.970   2.148  1.7722 -0.3521 -0.7921
 2955TIP3    H2 8809   3.104   4.009   2.291 -0.5871 -0.7389 -0.1340
 2956TIP3   OH2 8810   5.806   0.080   4.826  0.3332 -0.2806 -0.0335
 2956TIP3    H1 8811   5.783   0.011   4.888 -2.4996 -0.2270 -0.8773
 2956TIP3    H2 8812   5.724   0.101   4.782  0.9441  3.8436  0.3598
 2957TIP3   OH2 8813   7.876   4.685   6.679 -0.1032 -0.6233  0.2274
 2957TIP3    H1 8814   7.860   4.617   6.745 -1.4986 -0.6234 -0.0919
 2957TIP3    H2 8815   7.863   4.641   6.595 -1.0383  0.0197  0.0160
 2958TIP3   OH2 8816   2.770   1.760   0.772 -0.3059 -0.0813  0.5873
 2958TIP3    H1 8817   2.685   1.736   0.735  0.7174 -0.2260 -1.8664
 2958TIP3    H2 8818   2.794   1.841   0.727  0.5669  0.3137  1.7299
 2959TIP3   OH2 8819   5.742   7.150   1.042  0.5222 -0.2454 -0.0831
 2959TIP3    H1 8820   5.722   7.180   1.131  2.0479  2.7293 -0.6219
 2959TIP3    H2 8821   5.709   7.220   0.985  0.4370 -1.6362 -1.8400
 2960TIP3   OH2 8822   1.939   4.894   3.396  0.0513 -0.0171  0.0907
 2960TIP3    H1 8823   1.895   4.883   3.480  1.5407 -0.2871  0.8764
 2960TIP3    H2 8824   1.916   4.816   3.345  0.8963 -0.9619  1.1048
 2961TIP3   OH2 8825   5.767   7.274   2.974  0.1597 -0.1369  0.0395
 2961TIP3    H1 8826   5.781   7.295   2.882  0.7184  0.2975  0.2179
 2961TIP3    H2 8827   5.732   7.354   3.012  0.1820 -0.2312  0.2599
 2962TIP3   OH2 8828   2.016   4.842   5.768  0.5284  0.4380 -0.1812
 2962TIP3    H1 8829   2.074   4.788   5.714  3.2039  0.4986  2.3651
 2962TIP3    H2 8830   1.980   4.780   5.832 -1.9927  0.4959 -1.4483
 2963TIP3   OH2 8831   5.627   0.594   2.727 -0.8616 -0.0145 -0.2821
 2963TIP3    H1 8832   5.602   0.522   2.669 -0.4303 -0.6740  0.3377
 2963TIP3    H2 8833   5.558   0.660   2.714 -1.2192 -0.5037 -0.9149
 2964TIP3   OH2 8834   1.804   5.484   2.138  0.2622 -0.3426 -0.0211
 2964TIP3    H1 8835   1.798   5.507   2.231  2.2709 -1.5280  0.4447
 2964TIP3    H2 8836   1.748   5.549   2.094  0.5865  1.2894  1.8367
 2965TIP3   OH2 8837   0.187   0.735   3.721  0.3515 -0.1362 -0.6989
 2965TIP3    H1 8838   0.192   0.657   3.665 -0.4279  0.4738 -1.6585
 2965TIP3    H2 8839   0.188   0.701   3.810  1.8856 -1.1196 -1.0542
 2966TIP3   OH2 8840   1.815   4.078   0.650  0.2896  0.3457  0.0063
 2966TIP3    H1 8841   1.730   4.034   0.657  0.4668 -0.2810 -1.5343
 2966TIP3    H2 8842   1.850   4.050   0.566  1.6316  1.3198  0.2124
 2967TIP3   OH2 8843   6.941   2.090   0.646  0.2837  0.1376  0.5753
 2967TIP3    H1 8844   6.987   2.153   0.590  0.2623  0.5296  0.9967
 2967TIP3    H2 8845   6.916   2.140   0.723  0.0626 -0.3337  0.8129
 2968TIP3   OH2 8846   8.095   7.367   3.651 -0.3283 -0.9376 -0.4906
 2968TIP3    H1 8847   8.034   7.373   3.577 -0.2996  1.2676 -0.4074
 2968TIP3    H2 8848   8.181   7.358   3.610 -0.4940 -1.7965 -0.6633
 2969TIP3   OH2 8849   6.025   6.655   6.491  0.0702  0.3866  0.1264
 2969TIP3    H1 8850   6.064   6.705   6.419 -0.7291  1.6521  0.5366
 2969TIP3    H2 8851   6.042   6.709   6.569 -0.6046 -0.0950  0.6154
 2970TIP3   OH2 8852   1.563   4.640   3.727 -0.2943 -0.2199  0.3760
 2970TIP3    H1 8853   1.467   4.643   3.720 -0.4333 -0.7831  1.7769
 2970TIP3    H2 8854   1.589   4.570   3.666 -0.7516  0.0199 -0.1063
 2971TIP3   OH2 8855   6.527   3.065   3.347 -0.0292  0.0029  0.1620
 2971TIP3    H1 8856   6.528   3.109   3.262  0.8665  0.2133  0.2763
 2971TIP3    H2 8857   6.462   2.995   3.336  0.1773 -0.0655 -0.7430
 2972TIP3   OH2 8858   5.418   2.207   5.654  0.4912 -0.1157  0.1391
 2972TIP3    H1 8859   5.348   2.143   5.668  1.8429 -1.9851 -1.0693
 2972TIP3    H2 8860   5.483   2.160   5.601  1.9318  2.0433 -0.1497
 2973TIP3   OH2 8861   7.709   0.156   2.056 -0.1917  0.2911  0.1537
 2973TIP3    H1 8862   7.632   0.204   2.085 -1.2398 -1.3650  0.2433
 2973TIP3    H2 8863   7.678   0.101   1.984  0.6935 -1.0270  0.7343
 2974TIP3   OH2 8864   6.716   7.658   1.545 -0.0212 -0.2684 -0.2525
 2974TIP3    H1 8865   6.628   7.621   1.538  1.1828 -3.1715 -1.5783
 2974TIP3    H2 8866   6.730   7.668   1.639 -1.6951  0.1774 -0.0160
 2975TIP3   OH2 8867   1.821   1.219   6.454  0.6181  0.4130 -0.2975
 2975TIP3    H1 8868   1.898   1.276   6.445 -0.0360  1.2721 -0.5089
 2975TIP3    H2 8869   1.753   1.276   6.488  0.2064 -0.4693  0.3903
 2976TIP3   OH2 8870   4.885   2.423   3.957 -0.8901 -0.2458  0.3484
 2976TIP3    H1 8871   4.902   2.457   3.869 -0.8251  2.5076  1.3042
 2976TIP3    H2 8872   4.878   2.329   3.946  0.3967 -0.1150 -2.3914
 2977TIP3   OH2 8873   4.609   2.176   3.775 -0.0289 -0.0550  0.2074
 2977TIP3    H1 8874   4.521   2.157   3.808 -1.1260 -2.0438 -3.3932
 2977TIP3    H2 8875   4.667   2.118   3.825 -1.1999 -0.9489  0.5570
 2978TIP3   OH2 8876   5.457   5.430   2.320 -0.0662 -0.1874  0.5042
 2978TIP3    H1 8877   5.445   5.429   2.225  0.3029 -2.1729  0.4335
 2978TIP3    H2 8878   5.380   5.477   2.353  0.1131  1.0745 -0.7852
 2979TIP3   OH2 8879   1.613   3.669   5.275 -0.3672 -0.0078 -0.1821
 2979TIP3    H1 8880   1.571   3.723   5.343 -0.9506 -0.0443 -0.5042
 2979TIP3    H2 8881   1.699   3.648   5.311 -1.0365 -0.8591  0.9841
 2980TIP3   OH2 8882   5.672   0.791   2.144 -0.2714  0.1133 -0.5819
 2980TIP3    H1 8883   5.766   0.808   2.153 -0.3547  1.8213 -2.2284
 2980TIP3    H2 8884   5.664   0.696   2.149  1.4588 -0.0199  0.2631
 2981TIP3   OH2 8885   7.548   1.644   3.249 -0.0813  0.7672 -0.6153
 2981TIP3    H1 8886   7.591   1.559   3.255 -4.5084 -1.6958  2.0699
 2981TIP3    H2 8887   7.514   1.647   3.160  1.0929  0.3400 -1.1012
 2982TIP3   OH2 8888   0.897   7.563   2.299  0.4563 -0.6531  0.1736
 2982TIP3    H1 8889   0.916   7.614   2.378  0.3874  1.7833 -1.3008
 2982TIP3    H2 8890   0.983   7.541   2.264  0.4930 -0.4871  0.1593
 2983TIP3   OH2 8891   3.312   2.414   5.590 -0.2731 -0.0873 -0.1466
 2983TIP3    H1 8892   3.364   2.491   5.611 -0.3815 -0.3970  1.3582
 2983TIP3    H2 8893   3.273   2.434   5.504  0.7662  0.9464 -0.4011
 2984TIP3   OH2 8894   1.847   0.150   3.264  0.0451  0.3201  0.1716
 2984TIP3    H1 8895   1.851   0.237   3.304 -1.7564  1.7061 -2.3912
 2984TIP3    H2 8896   1.777   0.105   3.312  0.8268  0.3108  1.3514
 2985TIP3   OH2 8897   2.917   5.965   4.561 -0.3945 -0.3828 -0.7786
 2985TIP3    H1 8898   2.876   5.901   4.502 -0.5160  0.3616 -1.5187
 2985TIP3    H2 8899   2.845   6.000   4.612 -0.3375 -0.7783 -0.4208
 2986TIP3   OH2 8900   1.172   0.824   2.897 -0.0165 -0.1253  0.2526
 2986TIP3    H1 8901   1.218   0.755   2.944  1.2076  0.6711  0.2997
 2986TIP3    H2 8902   1.130   0.876   2.965 -0.5953 -0.5820  0.2471
 2987TIP3   OH2 8903   6.736   3.405   4.343 -0.2152  0.6759  0.2273
 2987TIP3    H1 8904   6.648   3.379   4.369 -0.0232  1.3014  1.6429
 2987TIP3    H2 8905   6.730   3.420   4.249 -1.1360 -1.0973 -0.0369
 2988TIP3   OH2 8906   3.442   1.596   0.881 -0.5127 -0.4785 -0.4159
 2988TIP3    H1 8907   3.402   1.645   0.952  1.4953  1.2916 -0.3860
 2988TIP3    H2 8908   3.438   1.656   0.806  0.8039 -0.7540 -0.7369
 2989TIP3   OH2 8909   4.368   5.046   1.741 -1.2219  0.6053  0.0617
 2989TIP3    H1 8910   4.371   4.959   1.701 -0.9284  1.2884 -1.4739
 2989TIP3    H2 8911   4.455   5.057   1.780 -1.0886  0.3843 -0.1642
 2990TIP3   OH2 8912   5.688   3.973   1.517  0.0659  0.1218  0.3568
 2990TIP3    H1 8913   5.731   3.901   1.562 -1.4020 -1.3426 -0.4446
 2990TIP3    H2 8914   5.722   3.969   1.427 -0.6172 -0.1244  0.0979
 2991TIP3   OH2 8915   5.529   3.366   3.718  0.0564 -0.3866 -0.4255
 2991TIP3    H1 8916   5.448   3.366   3.768  1.3252 -0.2746  1.7808
 2991TIP3    H2 8917   5.555   3.458   3.715  0.0037 -0.3909 -1.3382
 2992TIP3   OH2 8918   4.065   4.510   4.172 -0.3767  0.2111  0.0377
 2992TIP3    H1 8919   4.093   4.557   4.251  0.0468 -1.5549  0.9820
 2992TIP3    H2 8920   4.144   4.502   4.120 -0.5914  1.1022 -0.4466
 2993TIP3   OH2 8921   5.632   6.551   4.580  0.0413  0.3383 -0.3262
 2993TIP3    H1 8922   5.632   6.459   4.552 -2.3290  0.6578 -1.6939
 2993TIP3    H2 8923   5.716   6.563   4.625 -0.2401 -2.8959  1.3427
 2994TIP3   OH2 8924   8.029   5.820   5.250  0.2980 -0.4163  0.3609
 2994TIP3    H1 8925   7.935   5.807   5.259 -0.0819  1.8236  0.2710
 2994TIP3    H2 8926   8.062   5.737   5.215 -1.9152 -0.6473 -1.3574
 2995TIP3   OH2 8927   1.581   1.520   0.899  0.1675  0.8429 -0.3962
 2995TIP3    H1 8928   1.614   1.494   0.985 -1.1752  1.1351  0.2356
 2995TIP3    H2 8929   1.636   1.472   0.837  2.2829  1.9468  0.5421
 2996TIP3   OH2 8930   3.144   0.962   0.195 -0.2099  1.1487  0.0830
 2996TIP3    H1 8931   3.137   1.019   0.118 -0.0998  2.3985  0.9526
 2996TIP3    H2 8932   3.181   1.019   0.263 -2.5629  0.7960  1.7558
 2997TIP3   OH2 8933   2.567   1.467   5.279 -0.3147 -0.4242  0.0214
 2997TIP3    H1 8934   2.649   1.483   5.325 -0.1492  1.1560 -0.7511
 2997TIP3    H2 8935   2.511   1.423   5.343  0.9370 -1.0465  0.7241
 2998TIP3   OH2 8936   2.399   1.767   4.300  0.0856 -0.1147  0.5194
 2998TIP3    H1 8937   2.339   1.773   4.374 -1.1325  0.3219 -0.4579
 2998TIP3    H2 8938   2.384   1.848   4.251  1.8477  0.2231  0.4951
 2999TIP3   OH2 8939   4.057   1.525   5.487  0.4091 -0.9638 -0.7118
 2999TIP3    H1 8940   4.051   1.469   5.564  1.0546 -0.7540 -0.4986
 2999TIP3    H2 8941   4.148   1.514   5.457  0.6484  0.2110 -0.4723
 3000TIP3   OH2 8942   1.175   2.779   4.899 -0.2450 -0.0057 -0.0037
 3000TIP3    H1 8943   1.247   2.756   4.959  0.7406  1.5831 -0.5194
 3000TIP3    H2 8944   1.212   2.846   4.842 -1.8989  0.2201 -0.8684
 3001TIP3   OH2 8945   7.840   7.017   0.284  0.2444  0.6325 -0.1970
 3001TIP3    H1 8946   7.795   6.935   0.305  2.9650 -0.6443  1.1148
 3001TIP3    H2 8947   7.805   7.079   0.348  1.4469 -0.7658  1.9537
 3002TIP3   OH2 8948   5.425   7.667   3.450 -0.5073  0.2447  0.4737
 3002TIP3    H1 8949   5.420   7.758   3.423 -2.3376 -0.0829 -0.4686
 3002TIP3    H2 8950   5.337   7.647   3.481  0.0939 -0.9727  1.4854
 3003TIP3   OH2 8951   6.767   6.432   3.177  0.1265 -0.3043  0.4114
 3003TIP3    H1 8952   6.753   6.337   3.179  0.4076 -0.3521  2.5665
 3003TIP3    H2 8953   6.845   6.446   3.231 -0.1129  1.1905  0.4221
 3004TIP3   OH2 8954   1.036   0.637   1.285 -0.2047  0.0485  0.1665
 3004TIP3    H1 8955   1.107   0.613   1.345  0.9151  3.7788  0.5531
 3004TIP3    H2 8956   1.037   0.568   1.218  2.6675 -0.9469  1.0900
 3005TIP3   OH2 8957   7.804   6.161   6.087  0.0709 -0.4569 -0.0441
 3005TIP3    H1 8958   7.827   6.253   6.099 -0.1830 -0.3124 -0.6604
 3005TIP3    H2 8959   7.877   6.113   6.127 -0.3160  0.0058  1.2505
 3006TIP3   OH2 8960   5.931   0.256   6.408 -0.0475  0.4745 -0.7574
 3006TIP3    H1 8961   5.957   0.346   6.429 -1.4251  0.8127 -0.3979
 3006TIP3    H2 8962   5.957   0.245   6.316  2.4080  0.3483 -0.1149
 3007TIP3   OH2 8963   4.908   0.960   3.684  0.3511  0.0498 -0.0592
 3007TIP3    H1 8964   5.000   0.948   3.662 -0.0078 -2.1943 -0.5285
 3007TIP3    H2 8965   4.860   0.936   3.605 -0.6739  1.6060  0.0266
 3008TIP3   OH2 8966   4.727   3.266   1.457  0.2752  0.5024  0.4584
 3008TIP3    H1 8967   4.748   3.358   1.469  3.4840 -0.2968  1.8560
 3008TIP3    H2 8968   4.691   3.261   1.369 -0.8883  3.1736  0.6843
 3009TIP3   OH2 8969   0.198   0.365   4.072 -0.5700 -0.5806 -0.0467
 3009TIP3    H1 8970   0.160   0.311   4.003  1.1392 -0.2499 -1.3208
 3009TIP3    H2 8971   0.266   0.310   4.111 -1.8718 -0.9594  1.8038
 3010TIP3   OH2 8972   1.833   3.295   5.640 -0.3902 -0.3222  0.1273
 3010TIP3    H1 8973   1.739   3.310   5.643 -0.4436  0.3577 -2.4533
 3010TIP3    H2 8974   1.848   3.259   5.553  1.6520 -1.2875  0.8179
 3011TIP3   OH2 8975   2.740   7.641   0.052 -0.0882  0.2682 -0.6070
 3011TIP3    H1 8976   2.833   7.643   0.075 -0.4825 -0.4548  1.3097
 3011TIP3    H2 8977   2.695   7.661   0.134 -1.6359  0.0601 -1.3655
 3012TIP3   OH2 8978   4.214   3.454   4.798  0.5148 -0.1243  0.0585
 3012TIP3    H1 8979   4.251   3.419   4.717 -0.9982 -0.0119 -0.7362
 3012TIP3    H2 8980   4.140   3.508   4.768 -1.2506 -1.5582  1.5450
 3013TIP3   OH2 8981   2.075   3.601   1.766  0.6252  0.4212  0.3666
 3013TIP3    H1 8982   2.096   3.690   1.793  2.1632  0.2241 -0.0603
 3013TIP3    H2 8983   2.106   3.546   1.838  0.2662  0.1853  0.3463
 3014TIP3   OH2 8984   1.277   0.101   0.626 -0.1574 -0.3128 -0.2750
 3014TIP3    H1 8985   1.231   0.178   0.659 -0.6197  0.1604 -1.9331
 3014TIP3    H2 8986   1.369   0.127   0.622  0.0386 -0.6491  1.3229
 3015TIP3   OH2 8987   2.428   5.973   5.714  0.2076 -0.1089 -0.0359
 3015TIP3    H1 8988   2.446   6.055   5.761 -2.0646  0.5039 -0.1286
 3015TIP3    H2 8989   2.487   5.975   5.639  1.9367  0.2237  1.2808
 3016TIP3   OH2 8990   4.837   2.854   5.867 -0.3331  0.2867 -0.2466
 3016TIP3    H1 8991   4.848   2.760   5.879 -0.0005  0.5774  2.3809
 3016TIP3    H2 8992   4.924   2.891   5.886 -0.4149  1.1270 -1.4042
 3017TIP3   OH2 8993   3.496   6.974   5.073  0.7944  0.0031 -0.3009
 3017TIP3    H1 8994   3.528   6.893   5.033  0.4453 -0.3359  0.1089
 3017TIP3    H2 8995   3.468   6.949   5.160  1.3602  0.7092  0.0993
 3018TIP3   OH2 8996   7.866   2.611   0.177  0.1037  0.1976 -0.2836
 3018TIP3    H1 8997   7.877   2.524   0.139 -0.7453  0.0667 -0.2517
 3018TIP3    H2 8998   7.941   2.621   0.236  0.4786 -0.3044 -0.6669
 3019TIP3   OH2 8999   0.834   2.313   5.500  0.1166  0.1642  0.3031
 3019TIP3    H1 9000   0.887   2.302   5.579 -0.2927  2.1924  0.9110
 3019TIP3    H2 9001   0.745   2.292   5.527  0.1659 -0.4584  0.0091
 3020TIP3   OH2 9002   6.323   4.037   5.458 -0.3168  0.7367 -0.2037
 3020TIP3    H1 9003   6.339   4.106   5.523  0.1143  0.9599 -0.5477
 3020TIP3    H2 9004   6.290   4.083   5.381 -1.7643  0.3802  0.1682
 3021TIP3   OH2 9005   0.286   3.112   0.475 -0.6189 -0.2161 -0.5568
 3021TIP3    H1 9006   0.359   3.152   0.429  0.2436 -0.6743  0.3787
 3021TIP3    H2 9007   0.215   3.175   0.467  0.7009  1.5443  0.9045
 3022TIP3   OH2 9008   0.666   4.802   1.296 -0.1852  0.5599 -0.2243
 3022TIP3    H1 9009   0.704   4.890   1.289 -0.2254  0.4734 -2.4326
 3022TIP3    H2 9010   0.735   4.745   1.261 -0.7989 -0.0627 -0.4263
 3023TIP3   OH2 9011   7.052   2.436   6.718  0.0171 -0.4524  0.0013
 3023TIP3    H1 9012   7.139   2.401   6.736  0.9365  2.6456  2.6007
 3023TIP3    H2 9013   7.066   2.504   6.653 -0.7233 -0.8172 -0.5626
 3024TIP3   OH2 9014   5.917   2.250   4.777  0.2721 -0.5148 -0.3958
 3024TIP3    H1 9015   5.932   2.268   4.870 -1.1387  1.7700 -0.5491
 3024TIP3    H2 9016   5.862   2.172   4.776  0.9844 -1.0528  0.6181
 3025TIP3   OH2 9017   6.142   0.033   5.723 -0.7540 -0.1876 -0.0899
 3025TIP3    H1 9018   6.117   0.121   5.695 -1.1721 -0.8079 -1.7674
 3025TIP3    H2 9019   6.099   0.022   5.808  1.0601  1.9808  1.1969
 3026TIP3   OH2 9020   1.006   5.806   0.235 -0.2983 -0.3859  0.2394
 3026TIP3    H1 9021   0.924   5.805   0.186  0.4584 -1.0206 -1.0951
 3026TIP3    H2 9022   0.980   5.817   0.326 -1.8349 -0.2091 -0.1929
 3027TIP3   OH2 9023   3.502   6.927   5.350 -0.1056  0.2516  0.2593
 3027TIP3    H1 9024   3.570   6.951   5.413  0.8754  0.2041 -0.7361
 3027TIP3    H2 9025   3.465   6.846   5.385  1.6955 -0.8064 -0.1102
 3028TIP3   OH2 9026   8.199   3.889   5.579 -0.1792  0.9989 -0.0264
 3028TIP3    H1 9027   8.221   3.910   5.669  1.1545  1.6529 -0.4814
 3028TIP3    H2 9028   8.111   3.924   5.567 -0.1391  1.4105  0.8464
 3029TIP3   OH2 9029   5.116   2.792   1.143 -0.1884  0.6659 -0.1340
 3029TIP3    H1 9030   5.161   2.772   1.225 -1.2641 -1.1874  0.0776
 3029TIP3    H2 9031   5.134   2.717   1.087 -0.1843  1.5020 -1.2910
 3030TIP3   OH2 9032   0.175   4.169   6.453 -0.0037 -0.1009  0.5695
 3030TIP3    H1 9033   0.156   4.165   6.359 -1.8695  1.1836  0.8573
 3030TIP3    H2 9034   0.271   4.179   6.457  0.0483  0.4601 -1.2172
 3031TIP3   OH2 9035   4.289   4.266   1.753  0.0914  0.6565  0.4628
 3031TIP3    H1 9036   4.283   4.354   1.715  2.6991  1.3825  1.4855
 3031TIP3    H2 9037   4.208   4.222   1.726 -1.1927  3.2840 -0.2496
 3032TIP3   OH2 9038   2.776   7.246   0.296  0.4539 -0.2442  0.2571
 3032TIP3    H1 9039   2.714   7.175   0.312  0.2711 -0.0407  0.4622
 3032TIP3    H2 9040   2.790   7.245   0.202  1.1986 -1.1781  0.3608
 3033TIP3   OH2 9041   2.439   0.542   1.917 -0.0707  0.0881  0.0312
 3033TIP3    H1 9042   2.443   0.502   2.004 -1.8045  0.1132  0.1646
 3033TIP3    H2 9043   2.458   0.470   1.857 -2.3282 -0.8411  0.3066
 3034TIP3   OH2 9044   6.443   5.005   4.571  0.0120 -0.1046  0.4827
 3034TIP3    H1 9045   6.417   4.914   4.587  1.6273 -0.9096 -1.1803
 3034TIP3    H2 9046   6.466   5.008   4.479  1.8136  1.5293  0.9274
 3035TIP3   OH2 9047   6.744   5.692   3.085  0.0079 -0.2108  1.2696
 3035TIP3    H1 9048   6.763   5.698   2.991 -1.5079 -2.4345  0.7479
 3035TIP3    H2 9049   6.672   5.754   3.098 -0.6924 -0.8653  0.6394
 3036TIP3   OH2 9050   7.832   2.227   3.156 -0.2095  0.1861  0.6530
 3036TIP3    H1 9051   7.782   2.190   3.083 -0.6659  0.8438  0.6312
 3036TIP3    H2 9052   7.921   2.235   3.121 -0.6410  1.5593 -0.2464
 3037TIP3   OH2 9053   3.788   6.153   3.631  0.1699 -0.3197  0.0430
 3037TIP3    H1 9054   3.855   6.222   3.639 -0.4646  0.1284  1.9291
 3037TIP3    H2 9055   3.831   6.074   3.664 -0.1384 -0.0628  1.1149
 3038TIP3   OH2 9056   1.262   6.812   2.939 -0.1330  0.0191  0.2895
 3038TIP3    H1 9057   1.328   6.841   3.002 -0.9703  0.5256  0.9583
 3038TIP3    H2 9058   1.310   6.806   2.856  1.0561 -0.9223  1.0054
 3039TIP3   OH2 9059   4.565   0.665   3.931 -0.3135 -0.0640  0.4781
 3039TIP3    H1 9060   4.482   0.662   3.978  0.1557  0.2523  1.3446
 3039TIP3    H2 9061   4.548   0.722   3.856 -1.2095 -0.9800 -0.0370
 3040TIP3   OH2 9062   2.511   2.579   1.978  0.2394  0.2807 -0.1616
 3040TIP3    H1 9063   2.435   2.575   2.036 -0.2341 -0.5678 -0.8154
 3040TIP3    H2 9064   2.533   2.672   1.974 -0.8095  0.5457 -0.0142
 3041TIP3   OH2 9065   5.250   1.175   6.603  0.3800 -0.9237  0.0692
 3041TIP3    H1 9066   5.197   1.252   6.625  0.7613 -0.6831  0.1581
 3041TIP3    H2 9067   5.312   1.207   6.537  0.1573 -1.3010 -0.3293
 3042TIP3   OH2 9068   4.262   0.064   4.722  0.1804 -0.3735 -0.1501
 3042TIP3    H1 9069   4.167   0.074   4.730  0.0976 -1.5071  0.3558
 3042TIP3    H2 9070   4.274  -0.013   4.667  0.8118 -0.3516 -0.0508
 3043TIP3   OH2 9071   2.783   1.452   2.530 -0.2450  0.3484  0.4728
 3043TIP3    H1 9072   2.771   1.453   2.435 -1.7156  0.0940  0.6368
 3043TIP3    H2 9073   2.842   1.377   2.545 -0.1696  0.2611 -0.2085
 3044TIP3   OH2 9074   0.439   6.214   3.353  0.2345 -0.1461 -0.3747
 3044TIP3    H1 9075   0.483   6.233   3.436 -0.1788 -1.0730  0.0690
 3044TIP3    H2 9076   0.502   6.162   3.304 -0.8908 -2.9007  0.9205
 3045TIP3   OH2 9077   8.280   0.488   1.866  0.5384  0.3722 -0.5347
 3045TIP3    H1 9078   8.264   0.402   1.903 -1.0076  1.0609  0.5056
 3045TIP3    H2 9079   8.239   0.485   1.779 -0.3659  0.3362 -0.1190
 3046TIP3   OH2 9080   1.999   5.641   2.557 -0.3849  0.1206  0.1051
 3046TIP3    H1 9081   1.977   5.714   2.614 -1.0310  0.8995 -1.1135
 3046TIP3    H2 9082   1.919   5.625   2.507 -0.3430 -1.5995  0.5235
 3047TIP3   OH2 9083   3.466   3.511   1.010  0.2457 -0.2032 -0.6792
 3047TIP3    H1 9084   3.411   3.567   0.955 -1.1622 -0.4893  0.3626
 3047TIP3    H2 9085   3.549   3.505   0.963 -0.3172  0.9502 -1.8977
 3048TIP3   OH2 9086   6.844   1.079   6.349 -0.3367 -0.1207 -0.1257
 3048TIP3    H1 9087   6.912   1.014   6.368 -0.7000 -0.4893 -0.0682
 3048TIP3    H2 9088   6.876   1.125   6.271 -0.9040 -1.5563 -1.2308
 3049TIP3   OH2 9089   1.393   6.891   1.398  0.5760  0.4875  0.9961
 3049TIP3    H1 9090   1.391   6.906   1.493  1.2787  0.4790  1.0124
 3049TIP3    H2 9091   1.474   6.842   1.383  0.4225  0.4115  0.4002
 3050TIP3   OH2 9092   7.885   7.759   2.101 -0.0006 -0.5821  0.0311
 3050TIP3    H1 9093   7.815   7.759   2.036 -0.8072 -0.2644  0.8855
 3050TIP3    H2 9094   7.935   7.839   2.082  0.2229 -0.8712 -0.6517
 3051TIP3   OH2 9095   2.720   5.981   2.322  0.0682 -0.0194  0.6774
 3051TIP3    H1 9096   2.655   5.925   2.279 -0.1357  0.3319  0.5241
 3051TIP3    H2 9097   2.694   5.981   2.414  0.5613 -0.8514  0.8332
 3052TIP3   OH2 9098   2.513   1.490   2.775  0.1311 -0.4257  0.1759
 3052TIP3    H1 9099   2.547   1.406   2.805  0.1524  0.1705  1.9521
 3052TIP3    H2 9100   2.536   1.493   2.682 -1.6030 -3.2171 -0.4639
 3053TIP3   OH2 9101   1.706   4.604   6.089 -0.2519  0.1425 -0.2548
 3053TIP3    H1 9102   1.733   4.660   6.162 -0.3149  1.2740 -1.0673
 3053TIP3    H2 9103   1.615   4.628   6.072 -0.2981 -0.2489 -0.5921
 3054TIP3   OH2 9104   4.262   6.985   4.286  0.4538 -0.2547 -0.0184
 3054TIP3    H1 9105   4.351   6.979   4.251  0.1775 -0.3135 -0.7224
 3054TIP3    H2 9106   4.258   6.915   4.352  1.1968  0.3108  0.6455
 3055TIP3   OH2 9107   3.127   4.621   3.266 -0.1837  0.5333  0.1689
 3055TIP3    H1 9108   3.108   4.613   3.173 -1.9851  0.7914  0.4724
 3055TIP3    H2 9109   3.132   4.531   3.298  1.0732  0.4312 -0.2677
 3056TIP3   OH2 9110   4.547   5.866   5.362  0.1111  0.4244  0.6130
 3056TIP3    H1 9111   4.613   5.812   5.404  0.0764  0.4509  0.7010
 3056TIP3    H2 9112   4.505   5.808   5.298 -0.6411  0.0496  1.4352
 3057TIP3   OH2 9113   8.063   6.746   5.999  0.1552  0.5000  0.4199
 3057TIP3    H1 9114   8.043   6.667   5.949  1.0117  0.4844  0.0689
 3057TIP3    H2 9115   8.061   6.718   6.090  1.3745 -0.1696  0.2620
 3058TIP3   OH2 9116   4.323   4.795   5.145  0.1052 -0.8234 -0.7879
 3058TIP3    H1 9117   4.316   4.717   5.199 -0.5024  0.2752  0.7839
 3058TIP3    H2 9118   4.379   4.855   5.195  2.0818 -0.8587 -2.7700
 3059TIP3   OH2 9119   7.891   0.241   4.876  0.4764 -0.2048 -0.0753
 3059TIP3    H1 9120   7.853   0.323   4.843 -1.2954 -0.8225  0.3677
 3059TIP3    H2 9121   7.865   0.237   4.967  1.2719 -0.8789  0.1340
 3060TIP3   OH2 9122   1.654   6.032   2.532 -0.0709  0.2603  0.0182
 3060TIP3    H1 9123   1.567   6.069   2.550  0.4428  1.5309 -0.0532
 3060TIP3    H2 9124   1.678   5.987   2.614 -1.0423 -0.6457 -0.1700
 3061TIP3   OH2 9125   5.726   4.724   0.695  0.0968  0.3542 -0.2398
 3061TIP3    H1 9126   5.661   4.788   0.725  0.5117  0.4929  0.3733
 3061TIP3    H2 9127   5.705   4.644   0.743  0.6919  0.5449  0.3477
 3062TIP3   OH2 9128   1.964   3.472   0.595 -0.1126  0.5959 -0.4925
 3062TIP3    H1 9129   1.891   3.465   0.534 -0.6344 -1.0587  0.2764
 3062TIP3    H2 9130   2.015   3.393   0.582 -0.5741 -0.1126  1.5940
 3063TIP3   OH2 9131   1.467   1.574   5.023  0.4187  0.3469  0.0884
 3063TIP3    H1 9132   1.524   1.510   5.066 -0.6766 -0.9468 -0.3160
 3063TIP3    H2 9133   1.473   1.553   4.930  0.5364  1.2732 -0.1303
 3064TIP3   OH2 9134   0.192   2.311   3.015  0.4965 -0.4209 -0.0962
 3064TIP3    H1 9135   0.157   2.229   2.980  0.4336 -1.2569  1.8051
 3064TIP3    H2 9136   0.118   2.351   3.061  0.7275  0.3583 -0.3818
 3065TIP3   OH2 9137   0.591   0.330   5.942 -0.1904  0.3794  0.1655
 3065TIP3    H1 9138   0.661   0.389   5.913  1.0131 -0.6946  0.8146
 3065TIP3    H2 9139   0.540   0.314   5.863  0.7021  0.6343 -0.4850
 3066TIP3   OH2 9140   4.656   3.526   4.624  0.5594  0.5619  0.2923
 3066TIP3    H1 9141   4.608   3.494   4.700  0.2800 -0.8428 -0.4576
 3066TIP3    H2 9142   4.666   3.620   4.641  0.2903  0.3266  1.9370
 3067TIP3   OH2 9143   4.525   6.107   0.631  0.2432  0.0320  0.2901
 3067TIP3    H1 9144   4.550   6.182   0.577  2.2265 -0.2364  0.7831
 3067TIP3    H2 9145   4.459   6.061   0.578 -0.5233  1.7290 -0.2994
 3068TIP3   OH2 9146   2.882   7.078   6.514  0.4539  0.3899  0.5536
 3068TIP3    H1 9147   2.805   7.081   6.456 -0.3577 -0.0087  1.5911
 3068TIP3    H2 9148   2.944   7.022   6.467 -0.7775 -1.1825  0.7396
 3069TIP3   OH2 9149   3.154   6.347   3.199  0.2419 -0.4501 -0.1101
 3069TIP3    H1 9150   3.176   6.257   3.172  0.9476 -0.3469  0.0974
 3069TIP3    H2 9151   3.224   6.400   3.161  0.1151 -0.0522  0.2134
 3070TIP3   OH2 9152   0.274   7.277   4.616  0.2309 -0.2308 -0.3823
 3070TIP3    H1 9153   0.179   7.266   4.626  0.6099 -2.5031  1.5746
 3070TIP3    H2 9154   0.293   7.359   4.661 -0.5098 -1.2016  1.8437
 3071TIP3   OH2 9155   1.450   4.442   5.485  0.0011 -0.5724 -0.4319
 3071TIP3    H1 9156   1.474   4.534   5.477  1.0710 -0.6832  1.1180
 3071TIP3    H2 9157   1.530   4.394   5.462  0.3999 -1.0165  1.6791
 3072TIP3   OH2 9158   4.416   3.138   6.555 -0.3318  0.0739  0.3159
 3072TIP3    H1 9159   4.383   3.216   6.600  1.1624 -0.9803  3.5205
 3072TIP3    H2 9160   4.510   3.154   6.545  0.0542 -1.3817  1.2969
 3073TIP3   OH2 9161   1.289   1.172   4.996  1.2008  0.1206  0.2373
 3073TIP3    H1 9162   1.363   1.232   4.986  0.5939  0.9164  0.4487
 3073TIP3    H2 9163   1.314   1.094   4.946  1.5775  0.9404 -0.8936
 3074TIP3   OH2 9164   7.441   0.369   0.885  0.0420  0.0367 -0.2217
 3074TIP3    H1 9165   7.414   0.420   0.808  0.7138 -0.6924 -0.9631
 3074TIP3    H2 9166   7.527   0.404   0.908  0.6624 -0.9621 -0.9479
 3075TIP3   OH2 9167   4.605   0.923   3.801  0.0981 -0.0914 -0.2591
 3075TIP3    H1 9168   4.668   0.941   3.871  0.2451 -0.8324 -0.1981
 3075TIP3    H2 9169   4.658   0.920   3.721 -0.1105  1.0782 -0.4707
 3076TIP3   OH2 9170   5.478   2.061   3.914 -0.1051 -0.4690  0.1205
 3076TIP3    H1 9171   5.480   2.152   3.882 -0.5781  0.0481  1.4994
 3076TIP3    H2 9172   5.396   2.026   3.879 -0.0596 -0.2809 -0.1802
 3077TIP3   OH2 9173   3.782   5.398   2.725  0.2185  0.0193 -0.0519
 3077TIP3    H1 9174   3.798   5.421   2.634  0.2295 -1.1987 -0.3661
 3077TIP3    H2 9175   3.826   5.467   2.775  1.3196 -0.0166 -0.9453
 3078TIP3   OH2 9176   2.030   0.070   3.741 -0.4491  0.1458  0.1368
 3078TIP3    H1 9177   2.084   0.004   3.784  2.7310  1.7660 -1.0759
 3078TIP3    H2 9178   2.050   0.060   3.648 -0.8881  1.9615 -0.1913
 3079TIP3   OH2 9179   7.458   1.090   1.563 -0.1194  0.1789 -0.0471
 3079TIP3    H1 9180   7.448   1.040   1.482  2.0350  1.7285 -1.3540
 3079TIP3    H2 9181   7.522   1.041   1.614  0.5363  0.5905 -0.4716
 3080TIP3   OH2 9182   8.206   6.261   1.360  0.5897 -0.3840 -0.3056
 3080TIP3    H1 9183   8.154   6.329   1.404 -0.7528 -0.4217 -1.7417
 3080TIP3    H2 9184   8.144   6.188   1.348  1.8309 -1.6581  0.6420
 3081TIP3   OH2 9185   6.949   4.323   2.358  0.2901 -0.0603  0.5462
 3081TIP3    H1 9186   6.947   4.339   2.264 -0.1761  0.6828  0.6759
 3081TIP3    H2 9187   6.928   4.407   2.397 -1.4813 -0.7993  1.2849
 3082TIP3   OH2 9188   1.111   0.655   3.677  0.2767 -0.1203 -0.7596
 3082TIP3    H1 9189   1.068   0.665   3.762 -0.2907  1.9372 -1.2255
 3082TIP3    H2 9190   1.204   0.671   3.695  0.0394  1.2440 -0.6288
 3083TIP3   OH2 9191   2.009   3.012   4.222  0.1795 -0.7564  0.3997
 3083TIP3    H1 9192   1.976   3.084   4.276 -1.1745 -1.1417  0.1070
 3083TIP3    H2 9193   1.950   3.009   4.147  0.2448 -2.1318  0.3785
 3084TIP3   OH2 9194   6.675   0.575   5.565  0.5097  0.3764  0.3184
 3084TIP3    H1 9195   6.595   0.540   5.605  0.6168 -1.7019 -1.0838
 3084TIP3    H2 9196   6.645   0.617   5.485  0.6420  1.4696  0.8264
 3085TIP3   OH2 9197   4.282   6.676   6.294  0.3255 -0.4219  0.7849
 3085TIP3    H1 9198   4.325   6.738   6.236 -1.0119  0.9292  1.1736
 3085TIP3    H2 9199   4.300   6.708   6.382 -0.8078 -0.2602  0.9732
 3086TIP3   OH2 9200   7.281   0.822   4.087  0.3822 -0.1247  0.2731
 3086TIP3    H1 9201   7.323   0.908   4.084 -0.3829  0.2810  0.7426
 3086TIP3    H2 9202   7.193   0.837   4.054  0.0410 -0.5998  0.9297
 3087TIP3   OH2 9203   5.894   7.426   0.219 -0.0759 -0.1235  0.3903
 3087TIP3    H1 9204   5.985   7.452   0.206  0.3766 -1.5592  0.4779
 3087TIP3    H2 9205   5.889   7.401   0.312 -0.4427 -0.4308  0.2918
 3088TIP3   OH2 9206   1.281   4.652   2.647  0.3439 -0.3508  0.3062
 3088TIP3    H1 9207   1.269   4.619   2.735  2.1150 -0.7947  0.4146
 3088TIP3    H2 9208   1.329   4.734   2.658  0.5164 -0.3736 -0.2394
 3089TIP3   OH2 9209   3.328   4.806   2.284 -0.1003 -0.1249  0.3706
 3089TIP3    H1 9210   3.346   4.786   2.192  1.7531 -0.2544  0.7310
 3089TIP3    H2 9211   3.401   4.767   2.332 -0.5488  0.7561  1.8273
 3090TIP3   OH2 9212   0.624   4.989   3.478 -0.3623  0.1659  0.1860
 3090TIP3    H1 9213   0.691   5.046   3.441  0.0856  0.3454  1.2371
 3090TIP3    H2 9214   0.615   4.918   3.414 -0.0511  0.7752 -0.5431
 3091TIP3   OH2 9215   3.718   3.445   0.900 -0.4938 -0.0853  0.0381
 3091TIP3    H1 9216   3.679   3.406   0.822 -0.6362  1.5471 -0.7618
 3091TIP3    H2 9217   3.785   3.505   0.865  1.6128 -1.5725  1.3024
 3092TIP3   OH2 9218   3.635   4.179   3.034 -0.4794 -0.0295 -0.0487
 3092TIP3    H1 9219   3.556   4.233   3.034 -0.6536 -0.2852 -0.2907
 3092TIP3    H2 9220   3.637   4.139   2.947 -0.2157 -0.2179  0.0446
 3093TIP3   OH2 9221   6.405   5.812   0.638  0.2037 -0.5888 -0.2290
 3093TIP3    H1 9222   6.379   5.884   0.581 -1.1272 -1.0837 -0.2871
 3093TIP3    H2 9223   6.472   5.765   0.589  0.4443  0.0774 -0.5588
 3094TIP3   OH2 9224   0.292   0.642   0.340 -0.5519  0.1951 -0.9224
 3094TIP3    H1 9225   0.271   0.721   0.389  0.8045  0.2937 -0.4622
 3094TIP3    H2 9226   0.207   0.598   0.329 -0.9920  0.4618  1.0059
 3095TIP3   OH2 9227   6.919   5.716   0.160  0.2119  0.0934  0.1038
 3095TIP3    H1 9228   6.857   5.783   0.132  0.2727 -0.0221 -0.3146
 3095TIP3    H2 9229   6.982   5.762   0.215 -0.6989  0.0657  1.2109
 3096TIP3   OH2 9230   3.423   1.711   1.822 -0.1922 -0.3027 -0.4028
 3096TIP3    H1 9231   3.477   1.789   1.807  1.3693 -1.3634 -0.4942
 3096TIP3    H2 9232   3.439   1.655   1.746 -1.5573 -0.5911 -0.5032
 3097TIP3   OH2 9233   1.717   0.249   2.281 -0.8888  0.3085 -0.6078
 3097TIP3    H1 9234   1.624   0.273   2.281 -0.9469  0.1815 -2.0682
 3097TIP3    H2 9235   1.718   0.158   2.312 -1.1058  0.7121  0.6374
 3098TIP3   OH2 9236   2.437   1.785   2.007  0.3641 -0.3128  0.2100
 3098TIP3    H1 9237   2.408   1.784   1.916  0.4386  1.3297  0.1372
 3098TIP3    H2 9238   2.519   1.835   2.005 -0.0768  0.4843  1.2917
 3099TIP3   OH2 9239   0.116   4.402   6.701 -0.5347  0.1436 -0.1148
 3099TIP3    H1 9240   0.077   4.489   6.691 -0.6119  0.2663  1.0750
 3099TIP3    H2 9241   0.043   4.347   6.732 -0.3839 -0.2482 -0.4448
 3100TIP3   OH2 9242   3.188   5.941   5.244 -0.0211 -0.3533 -0.2160
 3100TIP3    H1 9243   3.129   5.988   5.302  1.8615  0.1262  1.4118
 3100TIP3    H2 9244   3.130   5.902   5.177 -2.2921 -0.9127  1.9225
 3101TIP3   OH2 9245   7.929   3.982   4.128  0.0770 -0.2780  0.0949
 3101TIP3    H1 9246   7.855   3.967   4.069 -0.2100  0.8672  0.1458
 3101TIP3    H2 9247   7.893   4.032   4.201  0.8685  0.1803  0.1867
 3102TIP3   OH2 9248   5.118   7.425   2.634  0.1729  0.5681 -0.1721
 3102TIP3    H1 9249   5.102   7.357   2.700  0.2888  1.0971  0.4124
 3102TIP3    H2 9250   5.084   7.387   2.553 -1.3209  0.4690  0.4588
 3103TIP3   OH2 9251   6.151   1.470   2.931  0.5630 -0.2472  0.5144
 3103TIP3    H1 9252   6.078   1.531   2.936 -0.3385 -1.2953  0.6048
 3103TIP3    H2 9253   6.207   1.506   2.863 -1.0896 -0.4830 -1.0498
 3104TIP3   OH2 9254   5.581   7.486   4.687 -0.3286 -0.3252 -0.2761
 3104TIP3    H1 9255   5.636   7.556   4.720 -2.0271  1.3738 -0.9052
 3104TIP3    H2 9256   5.579   7.498   4.592  1.7560 -3.0969 -0.8081
 3105TIP3   OH2 9257   1.802   5.614   1.516  0.1346 -0.1681 -0.3125
 3105TIP3    H1 9258   1.811   5.669   1.594 -0.6825  1.0833 -1.0656
 3105TIP3    H2 9259   1.718   5.570   1.527  0.8433 -1.4311  0.3500
 3106TIP3   OH2 9260   3.095   2.537   4.588 -0.1428 -0.4941  0.3321
 3106TIP3    H1 9261   3.048   2.480   4.649 -0.9516  0.3900  0.5546
 3106TIP3    H2 9262   3.027   2.595   4.553  0.6302  0.1892 -0.0527
 3107TIP3   OH2 9263   4.397   7.203   4.081  0.0754 -0.0668 -0.3989
 3107TIP3    H1 9264   4.428   7.117   4.109  1.1526  0.1783 -0.8050
 3107TIP3    H2 9265   4.344   7.234   4.154 -0.5344 -1.1650 -0.3429
 3108TIP3   OH2 9266   3.945   3.389   3.252 -0.3631  0.1916 -0.4596
 3108TIP3    H1 9267   3.892   3.468   3.260 -1.7940 -0.6135 -1.5326
 3108TIP3    H2 9268   3.945   3.370   3.158 -0.3846 -1.2886 -0.1804
 3109TIP3   OH2 9269   8.184   3.329   6.537  0.1111 -0.2960  1.1435
 3109TIP3    H1 9270   8.171   3.356   6.627 -3.2731  1.0652  0.4073
 3109TIP3    H2 9271   8.152   3.238   6.534 -0.5791 -0.0624  1.1950
 3110TIP3   OH2 9272   2.367   3.582   2.556 -0.2787 -0.5609  0.3530
 3110TIP3    H1 9273   2.291   3.638   2.570 -0.7045 -0.9455 -0.3554
 3110TIP3    H2 9274   2.336   3.514   2.497  0.6605 -0.6398 -0.0694
 3111TIP3   OH2 9275   7.996   3.681   1.492  0.4875  0.2718 -0.0797
 3111TIP3    H1 9276   7.981   3.634   1.410 -0.3226  0.2435  0.0795
 3111TIP3    H2 9277   7.938   3.638   1.556 -0.1703  1.3953  0.0957
 3112TIP3   OH2 9278   2.669   7.637   5.030 -0.1397 -0.4589 -0.9031
 3112TIP3    H1 9279   2.653   7.710   5.090  3.3936  1.0420 -1.5354
 3112TIP3    H2 9280   2.642   7.670   4.945  0.6756 -0.1652 -1.0577
 3113TIP3   OH2 9281   7.941   6.970   4.939 -0.0664  0.2514  0.2659
 3113TIP3    H1 9282   7.874   6.956   5.006  1.1054  0.0413  1.4344
 3113TIP3    H2 9283   8.005   7.028   4.980 -0.4508  2.0105 -1.4945
 3114TIP3   OH2 9284   5.320   0.072   3.310 -0.1717  0.5645  0.2630
 3114TIP3    H1 9285   5.392   0.131   3.290 -1.1626  1.3903 -1.0586
 3114TIP3    H2 9286   5.346  -0.012   3.272 -0.7514  1.3862 -2.1781
 3115TIP3   OH2 9287   5.150   3.192   1.292 -0.1503  0.1986 -0.4210
 3115TIP3    H1 9288   5.166   3.140   1.213 -1.9656  0.6045 -1.1140
 3115TIP3    H2 9289   5.098   3.266   1.261 -0.1785  0.8267  1.0424
 3116TIP3   OH2 9290   5.703   2.065   5.737 -0.5933  0.0012 -0.1830
 3116TIP3    H1 9291   5.760   2.020   5.800 -1.4907  0.0686  0.7025
 3116TIP3    H2 9292   5.671   1.996   5.679 -1.7412 -0.5009  0.9972
 3117TIP3   OH2 9293   6.992   7.713   4.310 -0.3268 -0.0987  0.2723
 3117TIP3    H1 9294   6.902   7.705   4.279 -0.4434 -0.9884  0.8151
 3117TIP3    H2 9295   7.017   7.803   4.287 -1.2774  0.0966 -0.0591
 3118TIP3   OH2 9296   5.338   6.628   0.636  0.3864 -0.0038  0.2117
 3118TIP3    H1 9297   5.347   6.544   0.590  0.0060 -1.1708  2.1562
 3118TIP3    H2 9298   5.345   6.605   0.729 -2.0529  1.7683  0.9282
 3119TIP3   OH2 9299   2.426   1.312   5.474  0.1357 -0.2223  0.0690
 3119TIP3    H1 9300   2.334   1.313   5.448  0.3676 -1.7696 -0.9201
 3119TIP3    H2 9301   2.429   1.254   5.550  0.4601 -1.2668 -0.7147
 3120TIP3   OH2 9302   2.100   2.024   1.566 -0.6113  0.0848 -0.7493
 3120TIP3    H1 9303   2.087   1.978   1.483 -2.0419  0.0890 -0.5534
 3120TIP3    H2 9304   2.012   2.031   1.604  0.1441 -1.1080  1.4217
 3121TIP3   OH2 9305   7.134   7.079   5.603 -0.1692 -0.1534  0.0580
 3121TIP3    H1 9306   7.228   7.097   5.610  0.2386 -1.8604 -0.5716
 3121TIP3    H2 9307   7.117   7.081   5.509 -1.0747  1.4781  0.2301
 3122TIP3   OH2 9308   7.172   0.677   6.196  0.4106  0.0687  0.1089
 3122TIP3    H1 9309   7.252   0.658   6.147 -0.2333  1.3781 -1.5230
 3122TIP3    H2 9310   7.121   0.597   6.190 -0.0788  0.5003 -2.2734
 3123TIP3   OH2 9311   7.761   4.112   1.865  0.0347 -0.1064  0.1758
 3123TIP3    H1 9312   7.678   4.141   1.826 -0.0346  1.0499  1.1417
 3123TIP3    H2 9313   7.827   4.136   1.800 -0.4045 -1.5860 -0.8784
 3124TIP3   OH2 9314   1.283   5.627   1.961  0.7012  0.3100  0.3407
 3124TIP3    H1 9315   1.340   5.604   1.887 -0.6117 -1.3909 -0.1968
 3124TIP3    H2 9316   1.340   5.676   2.020  2.6158 -0.9239 -0.3862
 3125TIP3   OH2 9317   0.381   1.707   4.662  0.3023  0.4477 -0.5152
 3125TIP3    H1 9318   0.421   1.679   4.579  2.6608  0.1917  0.6277
 3125TIP3    H2 9319   0.341   1.627   4.697  3.2936 -0.7002  0.6774
 3126TIP3   OH2 9320   2.088   2.738   5.812  0.2252 -0.4259 -0.2865
 3126TIP3    H1 9321   2.106   2.749   5.905 -1.8127  2.2935 -0.0919
 3126TIP3    H2 9322   2.104   2.646   5.795 -0.7600 -1.3456  3.0979
 3127TIP3   OH2 9323   2.773   0.438   0.938 -0.3588  0.1251 -0.3697
 3127TIP3    H1 9324   2.759   0.429   1.033 -0.7332 -0.6852 -0.4949
 3127TIP3    H2 9325   2.714   0.508   0.912 -0.1958  0.4068  0.0131
 3128TIP3   OH2 9326   1.895   4.287   0.168 -0.3639  0.5702 -0.0697
 3128TIP3    H1 9327   1.919   4.200   0.135 -3.3096 -0.0984 -0.7548
 3128TIP3    H2 9328   1.910   4.345   0.093 -1.6630  0.0250 -0.7758
 3129TIP3   OH2 9329   3.980   1.742   0.967 -0.2187  0.4993 -0.2181
 3129TIP3    H1 9330   4.037   1.759   1.042 -1.5064  1.1693  0.6300
 3129TIP3    H2 9331   3.908   1.690   1.003 -0.6748  0.5369 -1.0580
 3130TIP3   OH2 9332   3.141   4.844   0.019  0.4636 -0.1978  0.1060
 3130TIP3    H1 9333   3.127   4.928   0.063 -0.7617 -0.4471  0.2378
 3130TIP3    H2 9334   3.204   4.863  -0.051 -0.5885  1.0784 -0.5413
 3131TIP3   OH2 9335   7.167   1.202   1.372 -0.6457 -0.2466  0.0745
 3131TIP3    H1 9336   7.256   1.204   1.408 -0.7781 -1.2920  0.4686
 3131TIP3    H2 9337   7.181   1.197   1.277 -0.3003  0.6265  0.0627
 3132TIP3   OH2 9338   3.720   1.559   2.374  0.2824  0.6322 -0.2769
 3132TIP3    H1 9339   3.757   1.639   2.411 -0.7984  0.0966  2.1831
 3132TIP3    H2 9340   3.734   1.492   2.441 -2.7713 -0.1577 -0.2445
 3133TIP3   OH2 9341   0.350   3.823   5.368 -0.3299 -0.2275  0.2044
 3133TIP3    H1 9342   0.314   3.736   5.387  2.7391 -1.5551  0.4203
 3133TIP3    H2 9343   0.291   3.883   5.415 -1.5021 -2.2912  1.5814
 3134TIP3   OH2 9344   3.032   5.070   1.505 -0.1287 -0.8118  0.4848
 3134TIP3    H1 9345   3.110   5.108   1.546  0.6039 -0.8228 -0.8297
 3134TIP3    H2 9346   2.994   5.015   1.573  1.3007 -1.2197  1.0085
 3135TIP3   OH2 9347   6.069   5.588   2.959 -0.5160  0.3619  0.4033
 3135TIP3    H1 9348   6.082   5.662   2.899  0.6456 -1.4517 -1.7001
 3135TIP3    H2 9349   5.975   5.574   2.959 -0.4797 -0.9564 -2.9362
 3136TIP3   OH2 9350   2.341   3.659   1.602 -0.0213  0.4645  0.4421
 3136TIP3    H1 9351   2.347   3.580   1.655 -0.6081 -0.9480 -1.4764
 3136TIP3    H2 9352   2.248   3.682   1.603 -0.1007  0.2146 -0.2051
 3137TIP3   OH2 9353   1.808   1.796   3.136 -0.1950  0.6566  0.3636
 3137TIP3    H1 9354   1.717   1.766   3.133 -0.6173  1.7345  1.5709
 3137TIP3    H2 9355   1.853   1.741   3.072 -1.1985 -1.6136  1.4733
 3138TIP3   OH2 9356   7.268   1.020   6.683  0.0221 -0.5274  0.1355
 3138TIP3    H1 9357   7.314   1.083   6.738 -0.2700  1.0449 -1.3599
 3138TIP3    H2 9358   7.176   1.045   6.690  0.0518  0.2146 -1.6546
 3139TIP3   OH2 9359   6.341   1.760   2.598 -0.2415 -0.4197  0.0618
 3139TIP3    H1 9360   6.322   1.783   2.507  1.1542  0.4547 -0.0347
 3139TIP3    H2 9361   6.418   1.812   2.621  0.8276 -2.3203  1.0321
 3140TIP3   OH2 9362   2.812   7.466   5.585 -0.2445 -0.4593  0.0544
 3140TIP3    H1 9363   2.854   7.412   5.518 -1.2215  0.1874 -1.1305
 3140TIP3    H2 9364   2.730   7.421   5.605 -0.2797 -0.2846  0.3132
 3141TIP3   OH2 9365   2.138   3.593   6.052  0.0916  0.1180 -0.1835
 3141TIP3    H1 9366   2.218   3.563   6.010 -0.9547  1.1787 -3.1327
 3141TIP3    H2 9367   2.162   3.678   6.090  0.4963  0.1857 -0.5788
 3142TIP3   OH2 9368   5.772   6.115   1.323 -0.4328 -0.2446  0.3408
 3142TIP3    H1 9369   5.730   6.197   1.299  0.6613  0.3794  0.5104
 3142TIP3    H2 9370   5.772   6.116   1.419  0.3503 -0.0331  0.3412
 3143TIP3   OH2 9371   7.623   2.931   6.552 -0.2355 -0.1539  0.2811
 3143TIP3    H1 9372   7.534   2.920   6.519 -0.0727  0.3151 -0.3311
 3143TIP3    H2 9373   7.615   2.999   6.620 -0.3494 -0.1350  0.2499
 3144TIP3   OH2 9374   8.073   1.331   2.701  0.4890 -0.5726 -0.2173
 3144TIP3    H1 9375   8.072   1.424   2.720  0.0352 -0.5472 -0.3627
 3144TIP3    H2 9376   8.078   1.288   2.787  0.9590 -0.4164 -0.1610
 3145TIP3   OH2 9377   0.788   1.449   4.932 -0.2386  0.2106  0.0053
 3145TIP3    H1 9378   0.871   1.402   4.938  0.3185  1.1810  0.1297
 3145TIP3    H2 9379   0.812   1.536   4.900 -1.1703  0.5905  0.2992
 3146TIP3   OH2 9380   1.746   1.468   5.733 -0.4280  0.1030 -0.2235
 3146TIP3    H1 9381   1.804   1.532   5.774  1.1407  0.0236 -2.1593
 3146TIP3    H2 9382   1.677   1.521   5.692 -0.5217  0.3661  0.2728
 3147TIP3   OH2 9383   1.283   1.226   5.897 -0.3412 -0.1018 -0.4966
 3147TIP3    H1 9384   1.268   1.135   5.924  1.2032  0.2103  1.7511
 3147TIP3    H2 9385   1.196   1.260   5.877 -1.1912 -1.4762  0.6471
 3148TIP3   OH2 9386   4.801   1.276   5.884 -0.0227  0.0210  0.3757
 3148TIP3    H1 9387   4.821   1.353   5.831 -0.0171 -0.9295 -1.0760
 3148TIP3    H2 9388   4.740   1.308   5.951 -1.0576  1.0317 -0.9861
 3149TIP3   OH2 9389   4.378   1.323   1.841 -0.0721  0.1177  0.1184
 3149TIP3    H1 9390   4.424   1.270   1.775  0.2710  0.7209 -0.1401
 3149TIP3    H2 9391   4.308   1.266   1.873 -1.7663  0.5822 -2.4564
 3150TIP3   OH2 9392   5.775   0.457   0.833  0.3478 -0.0682 -0.7793
 3150TIP3    H1 9393   5.768   0.430   0.741  1.3386  3.2028 -1.9392
 3150TIP3    H2 9394   5.769   0.552   0.831  1.9025  0.2295  2.3892
 3151TIP3   OH2 9395   0.497   2.611   2.298  0.1583  0.5487  0.1896
 3151TIP3    H1 9396   0.415   2.578   2.260  0.7706 -0.9178  0.0771
 3151TIP3    H2 9397   0.510   2.559   2.377  1.7903 -0.4288 -0.6575
 3152TIP3   OH2 9398   2.506   3.242   3.074  0.1615 -0.4897  0.3458
 3152TIP3    H1 9399   2.482   3.207   3.159 -0.8796  1.1346  0.7798
 3152TIP3    H2 9400   2.584   3.295   3.090  0.1479 -0.4325  0.2253
 3153TIP3   OH2 9401   3.094   4.860   4.725  0.1815  0.7339 -0.4974
 3153TIP3    H1 9402   3.164   4.896   4.779  0.5912 -2.6445  1.5450
 3153TIP3    H2 9403   3.139   4.799   4.665 -0.8833 -2.6631  1.8648
 3154TIP3   OH2 9404   1.815   0.807   2.711  0.3549 -0.5222 -0.3868
 3154TIP3    H1 9405   1.878   0.857   2.659  1.3429 -1.3216  0.0019
 3154TIP3    H2 9406   1.741   0.793   2.652  0.9062 -0.3108 -1.1444
 3155TIP3   OH2 9407   8.000   7.014   6.543  0.0007 -0.1054  0.2937
 3155TIP3    H1 9408   8.024   7.089   6.489  0.0858  0.7522  1.4894
 3155TIP3    H2 9409   7.906   7.026   6.559 -0.5151 -1.4973 -1.3651
 3156TIP3   OH2 9410   2.509   6.596   5.825 -0.1710 -0.1196  0.1228
 3156TIP3    H1 9411   2.572   6.530   5.798 -0.3530 -0.7813  1.2676
 3156TIP3    H2 9412   2.458   6.615   5.746  1.7272  0.7707 -0.9470
 3157TIP3   OH2 9413   3.733   3.903   1.486  0.4688 -0.0623  0.1392
 3157TIP3    H1 9414   3.668   3.832   1.492  0.4640 -0.0616  0.0946
 3157TIP3    H2 9415   3.800   3.879   1.549  0.1070  0.2650  0.6521
 3158TIP3   OH2 9416   3.856   3.491   1.951  0.1128 -0.5665 -0.3669
 3158TIP3    H1 9417   3.787   3.540   1.907  1.4890 -0.5940 -2.7150
 3158TIP3    H2 9418   3.901   3.555   2.006 -0.6357 -0.1575 -0.2204
 3159TIP3   OH2 9419   3.322   2.139   3.566 -0.1071  0.0625 -0.6300
 3159TIP3    H1 9420   3.271   2.220   3.573 -0.5021 -0.1446 -1.0768
 3159TIP3    H2 9421   3.307   2.109   3.477 -3.0473 -2.5334  0.5834
 3160TIP3   OH2 9422   2.352   1.798   1.351  0.1468 -0.9303  0.6504
 3160TIP3    H1 9423   2.338   1.834   1.438 -1.5529  1.5326 -0.5219
 3160TIP3    H2 9424   2.384   1.872   1.299  0.2030 -2.0795 -1.0405
 3161TIP3   OH2 9425   3.369   0.980   5.509 -0.6492  0.2472 -0.0997
 3161TIP3    H1 9426   3.446   0.998   5.563 -0.8910 -1.1622  0.7601
 3161TIP3    H2 9427   3.361   1.057   5.454  1.0056  0.7062  0.2282
 3162TIP3   OH2 9428   2.952   4.504   4.453  0.4456  0.4896 -0.5255
 3162TIP3    H1 9429   2.935   4.506   4.359 -2.8294 -0.4237 -0.0977
 3162TIP3    H2 9430   2.881   4.557   4.491  1.2159  0.1895  1.4673
 3163TIP3   OH2 9431   8.274   5.162   4.852  0.5387 -0.3316 -0.1700
 3163TIP3    H1 9432   8.341   5.133   4.789  1.1763  1.1823 -0.2162
 3163TIP3    H2 9433   8.211   5.210   4.799  0.2607 -0.3654  0.1275
 3164TIP3   OH2 9434   3.195   4.357   1.005  0.0538 -0.3810 -0.3925
 3164TIP3    H1 9435   3.139   4.371   1.081  0.8942  0.1654  0.1434
 3164TIP3    H2 9436   3.232   4.443   0.985  0.4117 -0.6531 -0.9652
 3165TIP3   OH2 9437   0.927   5.213   5.018 -0.0209  0.5280 -0.3017
 3165TIP3    H1 9438   0.916   5.255   5.103  1.6763  0.6667 -0.1087
 3165TIP3    H2 9439   0.954   5.123   5.039 -3.3654 -0.7292 -0.7031
 3166TIP3   OH2 9440   0.531   6.295   6.527  0.1291  0.5145  0.6166
 3166TIP3    H1 9441   0.458   6.265   6.581 -0.0477 -0.1014  0.0477
 3166TIP3    H2 9442   0.514   6.257   6.440 -1.0902  3.6613 -0.6909
 3167TIP3   OH2 9443   5.613   5.829   2.334  0.2965  0.1781  0.3374
 3167TIP3    H1 9444   5.656   5.832   2.249 -1.1022 -0.6579 -0.4230
 3167TIP3    H2 9445   5.641   5.746   2.372 -1.5424 -0.9796 -0.6962
 3168TIP3   OH2 9446   4.708   0.095   4.635  0.0859  0.5563 -0.0966
 3168TIP3    H1 9447   4.705   0.012   4.683  1.7105 -0.1185 -1.0646
 3168TIP3    H2 9448   4.617   0.120   4.623 -0.4145  0.6136  3.0352
 3169TIP3   OH2 9449   7.879   5.254   5.326 -0.2094 -0.1442  0.3095
 3169TIP3    H1 9450   7.944   5.218   5.265 -2.2388  0.2100 -2.2238
 3169TIP3    H2 9451   7.814   5.185   5.334 -0.2380  0.0232  1.7528
 3170TIP3   OH2 9452   7.240   3.410   5.446  0.0801 -0.3202  0.3789
 3170TIP3    H1 9453   7.299   3.485   5.435 -0.3966 -0.2871 -2.8060
 3170TIP3    H2 9454   7.155   3.450   5.468 -0.0351  0.0589 -0.7143
 3171TIP3   OH2 9455   4.927   0.793   4.751  0.2848 -0.1104 -0.0549
 3171TIP3    H1 9456   4.938   0.888   4.752 -1.6564  0.1648 -0.9485
 3171TIP3    H2 9457   4.876   0.773   4.830  0.8359 -0.4406  0.2236
 3172TIP3   OH2 9458   1.980   4.017   3.478 -0.1334 -0.1442  0.3453
 3172TIP3    H1 9459   2.038   4.092   3.466  0.5673 -0.6376  0.6310
 3172TIP3    H2 9460   2.014   3.972   3.555 -0.9673 -0.3775  0.5914
 3173TIP3   OH2 9461   3.614   1.673   1.567  0.1670 -0.0555  0.3408
 3173TIP3    H1 9462   3.695   1.645   1.610 -0.4657 -0.5555  1.2535
 3173TIP3    H2 9463   3.595   1.758   1.606  1.2652  1.0064 -1.3050
 3174TIP3   OH2 9464   1.323   5.812   0.987 -0.0073 -0.1662  0.0073
 3174TIP3    H1 9465   1.387   5.742   0.997 -0.8870 -1.4192 -2.2688
 3174TIP3    H2 9466   1.339   5.871   1.061  1.4596 -2.2049  1.4172
 3175TIP3   OH2 9467   3.440   5.664   5.457  0.2194 -0.1022 -0.1504
 3175TIP3    H1 9468   3.444   5.746   5.506 -0.7570  1.4191 -2.4513
 3175TIP3    H2 9469   3.384   5.607   5.510 -0.2661  1.2125  0.8081
 3176TIP3   OH2 9470   3.414   2.317   6.400 -0.1199  0.0343  0.4794
 3176TIP3    H1 9471   3.322   2.338   6.417  0.1268  2.0374 -0.3964
 3176TIP3    H2 9472   3.460   2.399   6.414  1.4512 -0.7448  0.1068
 3177TIP3   OH2 9473   5.803   5.647   5.034  0.0025  0.1502  0.2343
 3177TIP3    H1 9474   5.819   5.738   5.058 -1.6974  0.3998  0.5715
 3177TIP3    H2 9475   5.779   5.651   4.941 -0.1498  0.0699  0.2694
 3178TIP3   OH2 9476   1.529   7.278   2.748 -0.2820 -0.9562 -0.3190
 3178TIP3    H1 9477   1.499   7.198   2.790  0.8428 -1.2945 -0.1259
 3178TIP3    H2 9478   1.596   7.313   2.806  0.9980 -1.2039 -1.5705
 3179TIP3   OH2 9479   3.172   5.261   0.831  0.2407  0.0683  0.3795
 3179TIP3    H1 9480   3.254   5.303   0.806 -0.8989  2.7345  0.7550
 3179TIP3    H2 9481   3.149   5.302   0.914 -0.8834 -1.5192  0.8965
 3180TIP3   OH2 9482   7.584   6.720   4.273 -0.3920  0.6782 -0.7332
 3180TIP3    H1 9483   7.533   6.783   4.222 -1.9798  0.1524  0.1417
 3180TIP3    H2 9484   7.625   6.773   4.342  1.1019  1.2574 -2.0093
 3181TIP3   OH2 9485   4.253   5.547   2.866  0.2214 -0.0236 -0.2200
 3181TIP3    H1 9486   4.277   5.612   2.800 -0.7042  0.6129  0.0392
 3181TIP3    H2 9487   4.334   5.528   2.912  0.7622 -0.0251 -1.1519
 3182TIP3   OH2 9488   6.085   5.164   5.257 -0.2631 -0.6917 -0.3853
 3182TIP3    H1 9489   6.101   5.160   5.163 -0.5053 -2.0373 -0.3871
 3182TIP3    H2 9490   6.116   5.080   5.290 -0.3203 -0.2941  0.7222
 3183TIP3   OH2 9491   5.403   5.639   1.820  0.3595  0.0671  0.0481
 3183TIP3    H1 9492   5.347   5.693   1.875 -0.3525  0.0976 -0.6794
 3183TIP3    H2 9493   5.406   5.686   1.736 -1.5607 -1.7223 -1.1455
 3184TIP3   OH2 9494   6.415   4.582   1.766  0.0850 -0.5584  0.2397
 3184TIP3    H1 9495   6.329   4.548   1.790  0.0244 -0.5633  0.0172
 3184TIP3    H2 9496   6.428   4.554   1.675  0.2958 -0.5073  0.2523
 3185TIP3   OH2 9497   4.036   7.568   2.727 -0.2936  0.2145  0.0969
 3185TIP3    H1 9498   3.967   7.582   2.663  0.3712 -0.9634 -0.9102
 3185TIP3    H2 9499   3.998   7.505   2.789  0.0002 -0.8086 -0.7251
 3186TIP3   OH2 9500   0.955   4.325   1.222 -0.8648  0.1227  0.1891
 3186TIP3    H1 9501   0.938   4.414   1.189  1.1524  1.5688  2.6284
 3186TIP3    H2 9502   0.905   4.320   1.304 -1.4658 -1.2802 -0.2455
 3187TIP3   OH2 9503   6.357   7.046   5.166  0.1021  0.0330  0.2487
 3187TIP3    H1 9504   6.398   7.002   5.241  1.5812  0.2499 -0.4063
 3187TIP3    H2 9505   6.371   7.139   5.182 -1.4356  0.2252  0.7164
 3188TIP3   OH2 9506   2.489   6.189   1.289 -0.4326  0.6792  0.5194
 3188TIP3    H1 9507   2.467   6.104   1.250 -1.9373  2.0688 -1.9292
 3188TIP3    H2 9508   2.463   6.181   1.381  0.4190 -1.7899  0.6078
 3189TIP3   OH2 9509   4.982   4.670   2.199  0.5341  0.2358  0.2158
 3189TIP3    H1 9510   5.044   4.742   2.191 -0.1453  0.6821 -1.2948
 3189TIP3    H2 9511   5.036   4.594   2.219  1.6197  0.5871 -1.2276
 3190TIP3   OH2 9512   1.792   0.395   5.543  0.3931 -0.1744  0.0689
 3190TIP3    H1 9513   1.833   0.363   5.463 -0.9023 -0.6407 -0.4334
 3190TIP3    H2 9514   1.823   0.485   5.552 -0.7726  0.5096 -1.9450
 3191TIP3   OH2 9515   2.356   1.559   1.211 -0.7881  0.0983  0.6813
 3191TIP3    H1 9516   2.378   1.622   1.279 -0.9054  0.2910  0.5444
 3191TIP3    H2 9517   2.260   1.555   1.212 -0.9072  1.5533 -0.7460
 3192TIP3   OH2 9518   1.370   5.841   2.965 -0.4623  0.1204  0.0791
 3192TIP3    H1 9519   1.420   5.791   3.029 -1.2341 -0.5655  0.1713
 3192TIP3    H2 9520   1.292   5.787   2.948 -1.8035  1.7010  0.8899
 3193TIP3   OH2 9521   4.081   6.623   2.372 -0.1355  0.0115 -0.1971
 3193TIP3    H1 9522   4.006   6.564   2.358 -0.5420  0.3909  0.3566
 3193TIP3    H2 9523   4.064   6.698   2.314  0.2707 -0.2987 -0.7346
 3194TIP3   OH2 9524   7.130   6.265   4.399  0.4253  0.3203 -0.8097
 3194TIP3    H1 9525   7.075   6.252   4.322  1.2826 -0.7729 -1.2574
 3194TIP3    H2 9526   7.215   6.227   4.376  0.4522 -0.8293  0.9623
 3195TIP3   OH2 9527   6.577   0.911   0.561  0.4100 -0.1695  0.0147
 3195TIP3    H1 9528   6.664   0.873   0.546  0.1096 -1.2718  0.9325
 3195TIP3    H2 9529   6.594   1.003   0.583  1.3871 -0.4899  0.6643
 3196TIP3   OH2 9530   2.061   5.997   3.336  0.0483 -0.5353 -0.1733
 3196TIP3    H1 9531   2.040   6.014   3.245  0.8307  0.0421 -0.2620
 3196TIP3    H2 9532   2.135   6.056   3.355 -1.3298  0.8147  1.3795
 3197TIP3   OH2 9533   5.814   1.202   0.250 -0.0210 -0.2798 -0.5936
 3197TIP3    H1 9534   5.824   1.276   0.191  0.6852 -0.1968 -0.3811
 3197TIP3    H2 9535   5.899   1.195   0.294 -0.1685 -1.0461 -0.4171
 3198TIP3   OH2 9536   0.541   0.659   4.563 -0.7251 -0.4721 -0.2756
 3198TIP3    H1 9537   0.609   0.629   4.624 -0.8141  1.3384  0.7877
 3198TIP3    H2 9538   0.582   0.652   4.476  1.1285  1.2133  0.3857
 3199TIP3   OH2 9539   5.054   1.470   5.689 -0.0634  0.2868  0.0698
 3199TIP3    H1 9540   4.989   1.509   5.748 -1.1234  0.0049 -0.8885
 3199TIP3    H2 9541   5.138   1.498   5.725 -0.6785  0.1628  1.6888
 3200TIP3   OH2 9542   7.726   6.890   5.108 -0.4658 -0.0915 -0.1928
 3200TIP3    H1 9543   7.727   6.919   5.199  0.4171  0.3137 -0.3222
 3200TIP3    H2 9544   7.765   6.803   5.111 -0.2892 -0.0133 -0.2018
 3201TIP3   OH2 9545   0.429   2.711   3.862 -0.3188 -0.9136  0.0803
 3201TIP3    H1 9546   0.450   2.803   3.880 -0.8032 -0.7474 -0.1974
 3201TIP3    H2 9547   0.339   2.713   3.829  0.0033 -1.3806 -0.8474
 3202TIP3   OH2 9548   7.027   4.147   3.474 -0.7803 -0.3016 -0.1432
 3202TIP3    H1 9549   6.990   4.081   3.532 -1.8083  0.9879  0.7284
 3202TIP3    H2 9550   6.953   4.203   3.451  0.2430  1.2197  0.1048
 3203TIP3   OH2 9551   7.317   0.127   0.821 -0.8512 -0.3379 -0.2364
 3203TIP3    H1 9552   7.382   0.068   0.780 -1.0169 -0.9923  0.4274
 3203TIP3    H2 9553   7.365   0.209   0.835  0.5787 -1.4893  2.3207
 3204TIP3   OH2 9554   0.160   0.171   1.353 -0.2816  0.1810  0.3633
 3204TIP3    H1 9555   0.202   0.246   1.396 -0.0274 -0.3361  1.0221
 3204TIP3    H2 9556   0.082   0.154   1.406  0.0164 -0.4408  0.6070
 3205TIP3   OH2 9557   5.738   3.829   5.670  0.0154  0.3970 -0.2781
 3205TIP3    H1 9558   5.694   3.781   5.740  1.6523 -0.6697  0.0973
 3205TIP3    H2 9559   5.734   3.921   5.697 -1.7921  0.3330 -0.2092
 3206TIP3   OH2 9560   4.033   1.880   3.108 -0.1286 -0.0997  0.6065
 3206TIP3    H1 9561   4.121   1.843   3.111 -0.0806 -0.2412 -1.1222
 3206TIP3    H2 9562   4.043   1.971   3.136  0.7930  0.2141 -0.6617
 3207TIP3   OH2 9563   2.609   4.990   4.644  0.1852  0.0822 -0.3519
 3207TIP3    H1 9564   2.564   5.074   4.633 -0.4875 -0.2178  0.0047
 3207TIP3    H2 9565   2.702   5.012   4.646  0.0206  0.8061 -0.3791
 3208TIP3   OH2 9566   4.663   5.308   2.398  0.0020 -0.3434 -0.1228
 3208TIP3    H1 9567   4.606   5.232   2.409 -0.6389  0.1693  0.1492
 3208TIP3    H2 9568   4.735   5.294   2.459 -0.1148 -0.7267 -0.0743
 3209TIP3   OH2 9569   5.415   0.295   4.571  0.1366 -0.0494 -0.5752
 3209TIP3    H1 9570   5.449   0.383   4.552 -1.4762  1.0667  1.2738
 3209TIP3    H2 9571   5.322   0.300   4.549  0.2314 -1.6799 -1.4857
 3210TIP3   OH2 9572   1.747   6.291   5.136  0.3818 -0.5460 -0.0518
 3210TIP3    H1 9573   1.675   6.230   5.151 -0.9051  1.2776  1.6277
 3210TIP3    H2 9574   1.761   6.334   5.220  1.9354  0.7333 -0.9056
 3211TIP3   OH2 9575   5.051   4.883   1.090 -0.2281 -0.8756 -0.2505
 3211TIP3    H1 9576   5.086   4.917   1.172  1.6530 -1.5308 -0.7393
 3211TIP3    H2 9577   5.071   4.950   1.025 -0.1232 -1.1369 -0.4889
 3212TIP3   OH2 9578   0.564   4.778   1.761  0.1748  0.0200  0.1022
 3212TIP3    H1 9579   0.556   4.829   1.681 -0.1829  1.6788  1.1519
 3212TIP3    H2 9580   0.479   4.734   1.769  0.8994 -1.8331 -1.4442
 3213TIP3   OH2 9581   4.717   5.673   0.100  0.1526 -0.3276  0.4032
 3213TIP3    H1 9582   4.786   5.616   0.068  0.3154  0.2450 -0.3003
 3213TIP3    H2 9583   4.760   5.757   0.116 -0.1463 -0.2969  1.1073
 3214TIP3   OH2 9584   4.611   6.330   3.408  0.1784 -0.7342 -0.3578
 3214TIP3    H1 9585   4.582   6.280   3.332 -3.0663 -0.3668  0.4774
 3214TIP3    H2 9586   4.593   6.272   3.482  1.1978 -0.2339  0.3051
 3215TIP3   OH2 9587   6.139   0.036   0.412  0.0142 -0.2035 -0.3890
 3215TIP3    H1 9588   6.118   0.037   0.319 -1.2461  2.3375 -0.1449
 3215TIP3    H2 9589   6.221   0.085   0.419  2.0774 -3.3271 -0.4266
 3216TIP3   OH2 9590   5.784   1.321   1.414 -0.1056 -0.1274  0.6031
 3216TIP3    H1 9591   5.725   1.391   1.440  1.3763  0.7404  1.7969
 3216TIP3    H2 9592   5.748   1.242   1.456 -0.9188  0.1871  0.5137
 3217TIP3   OH2 9593   4.125   0.896   1.261 -0.3394 -0.4417  0.4047
 3217TIP3    H1 9594   4.114   0.824   1.324 -0.4136  0.1787  1.1150
 3217TIP3    H2 9595   4.051   0.954   1.278 -1.5394 -1.2495 -1.6407
 3218TIP3   OH2 9596   7.828   5.184   4.836  0.0275 -0.4377 -0.0689
 3218TIP3    H1 9597   7.904   5.202   4.780 -0.5736  2.8967  0.0159
 3218TIP3    H2 9598   7.757   5.167   4.775  0.4869 -2.2449 -0.1597
 3219TIP3   OH2 9599   0.586   1.088   3.346  0.0859  0.2260 -0.0583
 3219TIP3    H1 9600   0.512   1.080   3.406 -0.3147  1.8573 -0.2968
 3219TIP3    H2 9601   0.618   1.176   3.359  2.4936 -0.6749  0.5633
 3220TIP3   OH2 9602   3.387   3.149   5.971  0.4033  0.2412  0.3464
 3220TIP3    H1 9603   3.469   3.164   6.017  0.7653 -1.6914  0.4096
 3220TIP3    H2 9604   3.395   3.198   5.890  1.5464  0.2135  0.4270
 3221TIP3   OH2 9605   5.820   4.281   6.618  0.5082 -0.6246  0.3638
 3221TIP3    H1 9606   5.802   4.357   6.673 -0.3592  0.1830 -0.9867
 3221TIP3    H2 9607   5.915   4.284   6.604  0.4667  0.2841  0.2227
 3222TIP3   OH2 9608   5.845   5.091   3.558  0.1195 -0.2511 -0.5389
 3222TIP3    H1 9609   5.842   4.997   3.573  1.1982 -0.5167 -1.7817
 3222TIP3    H2 9610   5.885   5.127   3.637 -0.5284 -0.7891  0.0495
 3223TIP3   OH2 9611   1.092   5.675   0.737 -0.0908 -0.0623 -0.4212
 3223TIP3    H1 9612   1.147   5.628   0.675  1.9947  2.6714 -0.8396
 3223TIP3    H2 9613   1.112   5.636   0.822  0.9115 -0.4873 -0.8406
 3224TIP3   OH2 9614   4.595   1.321   1.129  0.1004 -0.4277  0.0650
 3224TIP3    H1 9615   4.684   1.348   1.151 -0.1076  1.4033 -1.0950
 3224TIP3    H2 9616   4.603   1.279   1.043 -0.1701 -0.1817 -0.0809
 3225TIP3   OH2 9617   4.835   5.351   2.635 -0.3019 -0.7037  0.4948
 3225TIP3    H1 9618   4.762   5.359   2.696 -1.1308 -1.4399 -0.3711
 3225TIP3    H2 9619   4.912   5.376   2.686 -0.7034 -2.9595  2.3525
 3226TIP3   OH2 9620   1.794   5.948   4.841 -0.0012 -0.1238 -0.0245
 3226TIP3    H1 9621   1.708   5.958   4.881  0.3052  0.4246  0.4990
 3226TIP3    H2 9622   1.851   6.006   4.891  0.4344  0.4022 -1.1041
 3227TIP3   OH2 9623   7.217   0.590   1.222  0.3304  0.6937 -0.3540
 3227TIP3    H1 9624   7.141   0.628   1.267 -0.4928 -1.2519 -0.0181
 3227TIP3    H2 9625   7.293   0.623   1.270 -0.4348  0.4200  1.0982
 3228TIP3   OH2 9626   4.388   5.339   3.250 -0.2410 -0.5520 -0.0481
 3228TIP3    H1 9627   4.392   5.379   3.336 -1.8852 -0.0644 -0.1669
 3228TIP3    H2 9628   4.468   5.368   3.206 -1.3011  2.6558 -0.1300
 3229TIP3   OH2 9629   5.660   2.010   2.413  0.3751  0.0510 -0.4483
 3229TIP3    H1 9630   5.670   1.980   2.323 -0.3224  0.7320 -0.7655
 3229TIP3    H2 9631   5.592   1.953   2.450  1.0205 -0.5682 -0.1736
 3230TIP3   OH2 9632   7.209   4.459   5.936  0.0996  0.0157 -0.2299
 3230TIP3    H1 9633   7.181   4.367   5.934 -0.2758  0.0871 -2.9282
 3230TIP3    H2 9634   7.218   4.480   6.029 -0.4906 -2.5329  0.4825
 3231TIP3   OH2 9635   0.027   1.575   2.125  0.8803  0.5990 -0.0402
 3231TIP3    H1 9636   0.077   1.633   2.182  0.2094  2.6224 -1.3979
 3231TIP3    H2 9637  -0.058   1.566   2.167  1.2695 -0.1586  0.6130
 3232TIP3   OH2 9638   0.829   6.178   6.453 -0.6603 -0.2650 -0.2345
 3232TIP3    H1 9639   0.822   6.146   6.363 -1.7183 -0.2923 -0.1605
 3232TIP3    H2 9640   0.769   6.253   6.457  2.1252  2.1613 -0.5507
 3233TIP3   OH2 9641   5.299   6.332   3.166 -0.6022  0.4800 -0.5382
 3233TIP3    H1 9642   5.330   6.275   3.236 -1.2668  1.3789  0.5235
 3233TIP3    H2 9643   5.276   6.414   3.210 -1.8593  0.7718 -1.6733
 3234TIP3   OH2 9644   6.041   2.067   3.186 -0.2764  0.6891 -0.4073
 3234TIP3    H1 9645   6.065   2.146   3.234 -1.7534  0.2023  1.2397
 3234TIP3    H2 9646   5.969   2.029   3.237 -0.2389 -1.2065 -1.6740
 3235TIP3   OH2 9647   0.749   1.081   4.779  1.0646 -0.5195  0.4826
 3235TIP3    H1 9648   0.677   1.018   4.769  1.6606 -1.0557 -0.6330
 3235TIP3    H2 9649   0.749   1.130   4.696  1.3653  0.1565  0.8725
 3236TIP3   OH2 9650   1.591   6.191   5.676 -0.0080 -0.8058 -0.3893
 3236TIP3    H1 9651   1.569   6.212   5.586  0.5133 -0.4804 -0.4446
 3236TIP3    H2 9652   1.678   6.150   5.671 -0.0409 -0.9236 -0.0532
 3237TIP3   OH2 9653   6.640   5.392   0.377  0.1628  0.3838  0.1529
 3237TIP3    H1 9654   6.557   5.413   0.335  0.7810  1.0804 -0.7633
 3237TIP3    H2 9655   6.631   5.300   0.402 -1.3928  0.8173  1.3316
 3238TIP3   OH2 9656   5.541   3.326   0.780  0.2837 -0.3313 -0.1192
 3238TIP3    H1 9657   5.524   3.306   0.688  1.3530 -1.7462 -0.0508
 3238TIP3    H2 9658   5.627   3.369   0.780  0.2435 -0.2430  0.2084
 3239TIP3   OH2 9659   8.106   4.989   5.828 -0.5439  0.2749 -0.4851
 3239TIP3    H1 9660   8.097   4.969   5.921  2.0333 -0.2444 -0.2749
 3239TIP3    H2 9661   8.155   4.914   5.793 -1.5232  0.4416 -2.2854
 3240TIP3   OH2 9662   7.252   4.960   6.438 -0.4652 -0.5065 -1.0569
 3240TIP3    H1 9663   7.316   4.961   6.510 -1.7909 -0.4271  0.1573
 3240TIP3    H2 9664   7.209   5.045   6.443 -0.9586 -0.7235 -1.5869
 3241TIP3   OH2 9665   4.689   0.400   6.659 -0.1560 -0.5133 -0.6920
 3241TIP3    H1 9666   4.768   0.449   6.683 -1.4777  0.7890  1.2803
 3241TIP3    H2 9667   4.667   0.432   6.571 -0.1212  1.3573 -0.0589
 3242TIP3   OH2 9668   3.774   6.693   3.311 -0.5696  0.2810  0.0266
 3242TIP3    H1 9669   3.681   6.705   3.293 -0.3605  0.0196 -1.3792
 3242TIP3    H2 9670   3.818   6.752   3.249  0.1930  0.9605  1.1749
 3243TIP3   OH2 9671   1.612   5.729   4.184 -0.5081 -0.2559 -0.2776
 3243TIP3    H1 9672   1.634   5.699   4.096 -0.2451  1.3035 -0.7578
 3243TIP3    H2 9673   1.659   5.668   4.241  0.2231 -0.6155 -1.2309
 3244TIP3   OH2 9674   1.039   7.233   2.199 -0.2621  0.2506  0.2790
 3244TIP3    H1 9675   1.084   7.306   2.156 -1.7645  1.3135  0.4498
 3244TIP3    H2 9676   1.052   7.158   2.140  1.1337  0.6834  0.0095
 3245TIP3   OH2 9677   3.782   0.442   0.652 -0.2866 -0.1125  0.0236
 3245TIP3    H1 9678   3.753   0.371   0.710 -0.2869 -0.4290 -0.3660
 3245TIP3    H2 9679   3.751   0.417   0.565 -1.0879  0.8095  0.0204
 3246TIP3   OH2 9680   7.484   3.947   0.396 -0.0958  0.3189 -0.1744
 3246TIP3    H1 9681   7.498   4.014   0.463  1.0411  0.7267 -0.7813
 3246TIP3    H2 9682   7.530   3.870   0.429  1.2993  0.8042 -0.8713
 3247TIP3   OH2 9683   0.404   0.658   2.330  0.2652 -0.4625  0.8881
 3247TIP3    H1 9684   0.313   0.629   2.321 -0.4637  1.9321 -0.5645
 3247TIP3    H2 9685   0.408   0.738   2.276  3.5732 -1.2093 -0.1610
 3248TIP3   OH2 9686   5.459   7.598   5.295 -0.2974  0.9080  0.0578
 3248TIP3    H1 9687   5.393   7.530   5.304  0.0177  0.3485 -1.5756
 3248TIP3    H2 9688   5.432   7.648   5.219  1.0413  0.7640 -0.5429
 3249TIP3   OH2 9689   3.369   2.354   6.759 -0.3492  0.4706 -0.0850
 3249TIP3    H1 9690   3.276   2.376   6.764 -0.1900  0.8862  1.6932
 3249TIP3    H2 9691   3.409   2.427   6.712 -0.8149  0.5966 -0.2923
 3250TIP3   OH2 9692   3.805   5.376   5.336  0.2619  0.6500 -0.3996
 3250TIP3    H1 9693   3.867   5.308   5.310 -0.4570  0.3663 -1.4486
 3250TIP3    H2 9694   3.840   5.457   5.300 -0.6634  0.2767 -2.2450
 3251TIP3   OH2 9695   6.792   5.348   2.891 -0.2406  0.2603 -0.1623
 3251TIP3    H1 9696   6.795   5.257   2.920 -0.9361  0.5227  0.7695
 3251TIP3    H2 9697   6.831   5.398   2.962  0.1938  0.6932 -0.6950
 3252TIP3   OH2 9698   2.491   5.101   3.866 -0.5694  0.1816  0.2754
 3252TIP3    H1 9699   2.464   5.193   3.868  1.2933  0.7516  1.1434
 3252TIP3    H2 9700   2.511   5.084   3.774 -0.3667  0.8189  0.1964
 3253TIP3   OH2 9701   3.034   2.396   1.865 -0.3050  0.1406 -0.2658
 3253TIP3    H1 9702   3.018   2.487   1.840  2.1408  0.7853  0.2576
 3253TIP3    H2 9703   3.084   2.359   1.792 -0.2955 -0.4599  0.0373
 3254TIP3   OH2 9704   3.557   4.644   3.834  0.0076 -0.5216  0.0544
 3254TIP3    H1 9705   3.522   4.667   3.920 -1.0282 -0.9085 -0.2387
 3254TIP3    H2 9706   3.484   4.659   3.774  0.1875 -1.8074 -0.5303
 3255TIP3   OH2 9707   1.249   3.198   0.007 -0.0883  0.1160  0.7162
 3255TIP3    H1 9708   1.280   3.114  -0.026  0.9746  0.9854 -0.5956
 3255TIP3    H2 9709   1.314   3.225   0.072 -0.8415 -0.4160  1.7124
 3256TIP3   OH2 9710   1.177   7.000   0.142  0.0241  0.2338 -0.7127
 3256TIP3    H1 9711   1.243   6.973   0.206 -1.0978  0.5906  0.6369
 3256TIP3    H2 9712   1.110   6.932   0.146 -0.9188  1.1695 -0.1671
 3257TIP3   OH2 9713   6.588   2.994   5.498  0.1634 -0.7249  0.3333
 3257TIP3    H1 9714   6.590   2.936   5.422 -1.0308 -1.6630  0.9869
 3257TIP3    H2 9715   6.536   2.947   5.563  1.3264 -0.0344  1.8271
 3258TIP3   OH2 9716   1.610   1.939   1.643  0.6134 -0.1463  0.4436
 3258TIP3    H1 9717   1.599   1.858   1.692  1.8541 -0.0301  0.9524
 3258TIP3    H2 9718   1.577   1.919   1.556 -0.9583 -0.5765  1.0894
 3259TIP3   OH2 9719   4.701   4.736   2.154  0.2429  0.2445  0.5491
 3259TIP3    H1 9720   4.649   4.754   2.232 -0.7734 -1.1041  0.2131
 3259TIP3    H2 9721   4.783   4.698   2.188 -1.1625 -2.6767  0.9604
 3260TIP3   OH2 9722   0.140   2.019   5.267 -0.0849 -0.0066  0.1933
 3260TIP3    H1 9723   0.060   2.067   5.248  0.6816  1.5355  0.7591
 3260TIP3    H2 9724   0.159   2.038   5.359 -0.2720 -2.1951  0.7606
 3261TIP3   OH2 9725   3.157   7.773   2.352  0.1689 -0.2432 -0.4896
 3261TIP3    H1 9726   3.189   7.832   2.420 -0.1740 -0.6623  0.0493
 3261TIP3    H2 9727   3.179   7.816   2.270  0.0899  0.5428 -0.1090
 3262TIP3   OH2 9728   6.097   1.739   0.402  0.2890 -0.5131  0.0705
 3262TIP3    H1 9729   6.139   1.697   0.477  3.5232  0.8352 -0.8111
 3262TIP3    H2 9730   6.027   1.792   0.441  1.0903 -0.7669  1.9919
 3263TIP3   OH2 9731   2.907   2.705   6.260  0.5475  0.1937  0.0219
 3263TIP3    H1 9732   2.867   2.622   6.286 -0.5191  0.9699  0.9373
 3263TIP3    H2 9733   2.970   2.724   6.329 -0.1727  0.7992  0.5219
 3264TIP3   OH2 9734   6.865   0.065   1.010 -0.2843 -0.4413  0.0738
 3264TIP3    H1 9735   6.906   0.076   1.096  0.6833 -0.1772 -0.4051
 3264TIP3    H2 9736   6.918   0.119   0.951 -1.9547  0.7387 -0.3938
 3265TIP3   OH2 9737   5.726   4.488   2.166  0.4139  0.4202  0.1090
 3265TIP3    H1 9738   5.693   4.405   2.199  0.4333  0.4658  0.2443
 3265TIP3    H2 9739   5.756   4.469   2.077  1.7335 -0.0339  0.6296
 3266TIP3   OH2 9740   7.311   3.077   4.857 -0.2454  0.0602  0.0612
 3266TIP3    H1 9741   7.225   3.037   4.863  0.3707 -1.0715  2.5568
 3266TIP3    H2 9742   7.361   3.018   4.801 -0.1749 -1.1964  1.3802
 3267TIP3   OH2 9743   4.862   3.663   1.294 -0.3143  0.4364 -0.8360
 3267TIP3    H1 9744   4.783   3.643   1.344 -1.0321  1.3219 -1.5683
 3267TIP3    H2 9745   4.930   3.678   1.359 -0.6827 -0.5798 -0.1995
 3268TIP3   OH2 9746   7.857   2.211   4.599  0.0886 -0.2378  0.7742
 3268TIP3    H1 9747   7.939   2.172   4.632  0.5675 -1.7704 -1.9230
 3268TIP3    H2 9748   7.882   2.300   4.572  0.3833 -0.0215  1.7304
 3269TIP3   OH2 9749   5.980   4.176   5.113 -0.4464 -0.5517  0.1781
 3269TIP3    H1 9750   5.954   4.265   5.138 -0.4993 -0.5294  0.0426
 3269TIP3    H2 9751   5.908   4.121   5.144 -0.1388 -0.6180  0.7941
 3270TIP3   OH2 9752   7.744   7.553   5.132  0.1866  0.8680  0.3853
 3270TIP3    H1 9753   7.717   7.644   5.120  0.8226  1.1682  1.1118
 3270TIP3    H2 9754   7.738   7.515   5.045  1.3979  2.0437 -0.2639
 3271TIP3   OH2 9755   7.737   6.858   2.635 -0.3112  0.1870 -0.9034
 3271TIP3    H1 9756   7.695   6.927   2.687  1.5542  0.7607 -0.0858
 3271TIP3    H2 9757   7.810   6.829   2.689 -0.0304 -1.2407 -2.0058
 3272TIP3   OH2 9758   4.748   6.613   4.080  0.3075  0.4163  0.0191
 3272TIP3    H1 9759   4.817   6.551   4.105  0.7996  1.7083  2.1196
 3272TIP3    H2 9760   4.778   6.697   4.114 -0.4857  1.8170 -2.4957
 3273TIP3   OH2 9761   6.428   2.860   6.576 -0.3766 -0.0589  0.2569
 3273TIP3    H1 9762   6.397   2.794   6.639 -1.0775 -1.9035 -1.9116
 3273TIP3    H2 9763   6.384   2.838   6.494  2.5823  0.5417 -1.6284
 3274TIP3   OH2 9764   5.974   2.830   3.830  0.3114 -0.8709  0.2083
 3274TIP3    H1 9765   5.907   2.877   3.880 -1.1761 -0.0194 -2.3814
 3274TIP3    H2 9766   6.037   2.800   3.896 -2.1928 -1.0492  2.7007
 3275TIP3   OH2 9767   4.035   6.518   3.167  0.0117 -0.1499 -0.3827
 3275TIP3    H1 9768   3.985   6.476   3.237  0.8841  0.6070  0.7385
 3275TIP3    H2 9769   4.032   6.611   3.188  2.6442 -0.1359  0.2946
 3276TIP3   OH2 9770   3.559   5.129   4.474  0.1934 -0.5600  0.1124
 3276TIP3    H1 9771   3.574   5.077   4.552  1.5325  1.4788  1.3026
 3276TIP3    H2 9772   3.615   5.088   4.407  2.3082  0.0991  1.3916
 3277TIP3   OH2 9773   4.814   6.730   6.047 -0.5957 -0.0981 -0.1400
 3277TIP3    H1 9774   4.730   6.776   6.043 -0.8740 -0.0962  3.0508
 3277TIP3    H2 9775   4.792   6.640   6.071  0.2451 -0.5445 -0.9680
 3278TIP3   OH2 9776   3.855   7.278   0.804  0.4755 -0.8271 -0.1341
 3278TIP3    H1 9777   3.785   7.293   0.741 -0.1358  0.3321  0.7881
 3278TIP3    H2 9778   3.888   7.191   0.783  0.2748 -0.4730 -2.0315
 3279TIP3   OH2 9779   2.619   5.949   5.936  0.4395 -0.0012 -0.1254
 3279TIP3    H1 9780   2.671   5.936   5.857  0.2891  1.4997 -0.4865
 3279TIP3    H2 9781   2.529   5.959   5.905  0.1936 -0.6523  0.3490
 3280TIP3   OH2 9782   2.739   0.520   3.531  0.3461  0.2308 -0.3621
 3280TIP3    H1 9783   2.781   0.450   3.580  0.6807  0.9273  0.3670
 3280TIP3    H2 9784   2.662   0.543   3.582  0.6614  0.9199 -0.1855
 3281TIP3   OH2 9785   2.913   3.499   5.545  0.3880  0.1412 -0.3905
 3281TIP3    H1 9786   2.952   3.457   5.468 -0.7711 -0.1323 -0.8407
 3281TIP3    H2 9787   2.871   3.578   5.510 -1.3518 -0.7060 -0.2787
 3282TIP3   OH2 9788   4.719   2.304   4.729 -0.3544 -0.8068  0.2008
 3282TIP3    H1 9789   4.710   2.211   4.752  0.4738 -1.2077 -0.9926
 3282TIP3    H2 9790   4.754   2.345   4.809 -0.3450 -1.5943  0.6122
 3283TIP3   OH2 9791   3.616   1.835   0.883 -1.1201 -0.3476  0.4404
 3283TIP3    H1 9792   3.684   1.892   0.919 -0.3819 -1.2365  0.4915
 3283TIP3    H2 9793   3.547   1.895   0.855  1.2428  1.0332 -3.2198
 3284TIP3   OH2 9794   0.339   5.020   6.412 -0.5919  0.0983 -0.2165
 3284TIP3    H1 9795   0.295   5.059   6.337 -0.3632  0.7281 -0.0261
 3284TIP3    H2 9796   0.329   5.085   6.482  0.0843 -0.0379  0.0081
 3285TIP3   OH2 9797   8.230   3.096   4.688 -0.1471 -0.0597 -0.0905
 3285TIP3    H1 9798   8.310   3.056   4.724 -0.0840 -1.1208 -1.3470
 3285TIP3    H2 9799   8.166   3.089   4.759  0.4334 -0.6231  0.3963
 3286TIP3   OH2 9800   0.141   0.287   6.266 -0.3217 -0.0908 -0.9150
 3286TIP3    H1 9801   0.113   0.219   6.204  0.9937 -1.6646  0.1299
 3286TIP3    H2 9802   0.089   0.271   6.345 -0.5401  0.6195 -0.9085
 3287TIP3   OH2 9803   4.260   4.247   2.626  0.2238  0.5159 -0.3670
 3287TIP3    H1 9804   4.206   4.168   2.630 -0.0968  0.7680  2.3249
 3287TIP3    H2 9805   4.344   4.220   2.663  0.9764  0.8426 -1.8029
 3288TIP3   OH2 9806   4.695   5.603   2.303 -0.7471  0.1746  0.0625
 3288TIP3    H1 9807   4.726   5.521   2.343  0.3726 -0.9125 -2.7772
 3288TIP3    H2 9808   4.614   5.579   2.258  0.3279  0.1839 -1.9921
 3289TIP3   OH2 9809   6.338   3.974   2.795  0.1878 -0.2101 -0.4545
 3289TIP3    H1 9810   6.433   3.968   2.808  0.1479  0.4859  0.1501
 3289TIP3    H2 9811   6.300   3.942   2.877 -0.0979  0.3544 -0.3674
 3290TIP3   OH2 9812   2.293   1.671   2.546 -0.4186 -0.0296 -0.1503
 3290TIP3    H1 9813   2.357   1.739   2.569 -0.5776  0.2539 -0.5478
 3290TIP3    H2 9814   2.255   1.645   2.630  0.5544 -0.5362  0.1480
 3291TIP3   OH2 9815   4.942   6.006   3.980  0.0558 -0.2238 -0.2780
 3291TIP3    H1 9816   4.928   6.085   3.928 -0.5800 -0.0191  0.1963
 3291TIP3    H2 9817   4.939   5.934   3.917 -0.9489 -0.0006 -0.4917
 3292TIP3   OH2 9818   6.493   0.693   1.372 -0.8012  0.6417 -0.0462
 3292TIP3    H1 9819   6.413   0.678   1.423 -0.5469 -0.7827 -0.0097
 3292TIP3    H2 9820   6.508   0.610   1.327  0.6637  0.8806 -0.0401
 3293TIP3   OH2 9821   4.896   2.744   0.068  0.5807  0.1254  0.2431
 3293TIP3    H1 9822   4.986   2.775   0.082  1.7547 -2.7126 -0.2900
 3293TIP3    H2 9823   4.864   2.721   0.155  0.6835  0.3607  0.3425
 3294TIP3   OH2 9824   2.046   1.868   3.782  0.2670 -0.2161 -0.1111
 3294TIP3    H1 9825   2.070   1.911   3.864  2.1143  0.4212 -0.9325
 3294TIP3    H2 9826   2.037   1.940   3.719 -2.0353 -0.5993 -0.3268
 3295TIP3   OH2 9827   3.825   1.723   3.055  0.0252 -0.5408 -0.0317
 3295TIP3    H1 9828   3.858   1.637   3.079  2.3829 -0.6205 -2.8930
 3295TIP3    H2 9829   3.895   1.784   3.080 -0.2750  0.1131 -0.7176
 3296TIP3   OH2 9830   6.606   7.182   2.015  0.1161  0.6009  0.1769
 3296TIP3    H1 9831   6.619   7.198   2.108  0.0592  1.9623 -0.0316
 3296TIP3    H2 9832   6.664   7.108   1.995 -1.2185 -0.9030  1.6440
 3297TIP3   OH2 9833   8.032   3.484   1.248 -0.1018 -0.6578  0.2594
 3297TIP3    H1 9834   8.052   3.393   1.226 -0.0008 -0.3366 -1.0951
 3297TIP3    H2 9835   8.038   3.530   1.164 -2.0262  0.2735  0.5997
 3298TIP3   OH2 9836   6.994   2.302   1.169  0.0655 -0.5251 -0.3485
 3298TIP3    H1 9837   7.048   2.343   1.236 -0.6872 -0.6772  0.3806
 3298TIP3    H2 9838   7.051   2.238   1.127  0.8231  0.2376 -0.5088
 3299TIP3   OH2 9839   1.011   5.616   4.930 -0.0960 -0.5039  0.4569
 3299TIP3    H1 9840   0.987   5.552   4.863 -1.5777  0.7679 -0.2922
 3299TIP3    H2 9841   0.928   5.646   4.965  0.6444 -0.7014  2.4804
 3300TIP3   OH2 9842   3.535   0.535   0.312 -0.0885 -0.2517  0.3955
 3300TIP3    H1 9843   3.534   0.454   0.262 -0.2318 -0.6192  0.9816
 3300TIP3    H2 9844   3.501   0.511   0.398  0.3594  0.3159  0.7429
 3301TIP3   OH2 9845   4.795   4.734   2.692  0.1216  0.6104  0.2253
 3301TIP3    H1 9846   4.785   4.799   2.761  0.5532  1.9308 -0.9086
 3301TIP3    H2 9847   4.840   4.780   2.621 -4.2811  0.8804 -2.8610
 3302TIP3   OH2 9848   1.837   0.052   0.016  0.0917 -0.0026 -0.6418
 3302TIP3    H1 9849   1.780  -0.009   0.062  0.5532 -0.8114 -1.1123
 3302TIP3    H2 9850   1.871   0.110   0.084  2.1996 -2.2981  0.4216
 3303TIP3   OH2 9851   0.479   5.639   1.173 -0.0227 -0.1798  0.2308
 3303TIP3    H1 9852   0.412   5.574   1.152 -1.0086  0.3788  1.5879
 3303TIP3    H2 9853   0.558   5.587   1.189  0.0127 -0.8203 -1.7014
 3304TIP3   OH2 9854   6.854   5.774   5.431  0.0888 -0.0783  0.3826
 3304TIP3    H1 9855   6.806   5.693   5.417 -0.8237  0.3133  1.1333
 3304TIP3    H2 9856   6.935   5.748   5.474  1.5327 -0.9711 -2.5918
 3305TIP3   OH2 9857   5.195   1.895   2.458 -0.3610 -0.1552  0.3447
 3305TIP3    H1 9858   5.124   1.893   2.394  0.0964  1.9392 -0.3358
 3305TIP3    H2 9859   5.232   1.983   2.449  3.7111 -1.7742 -0.8409
 3306TIP3   OH2 9860   0.411   1.365   5.836  0.5292  0.3078  0.3655
 3306TIP3    H1 9861   0.347   1.430   5.865 -0.6272 -1.8059  3.0633
 3306TIP3    H2 9862   0.465   1.349   5.914  2.4417 -0.1479 -0.9823
 3307TIP3   OH2 9863   7.363   7.131   1.271  0.2436 -0.7743  0.4654
 3307TIP3    H1 9864   7.283   7.179   1.250  0.9294 -0.2081 -1.0381
 3307TIP3    H2 9865   7.391   7.166   1.355 -0.4325 -0.1055  0.4253
 3308TIP3   OH2 9866   7.009   3.286   2.057 -0.6319  0.2324  0.1713
 3308TIP3    H1 9867   6.938   3.346   2.032 -0.8132 -1.2480 -3.5314
 3308TIP3    H2 9868   7.088   3.339   2.055 -1.1949  1.1047  0.6529
 3309TIP3   OH2 9869   8.120   0.117   3.451  0.0122 -0.2939  0.0523
 3309TIP3    H1 9870   8.054   0.113   3.520 -0.5457 -0.2543 -0.4755
 3309TIP3    H2 9871   8.072   0.138   3.371  0.3630 -2.2690 -0.7461
 3310TIP3   OH2 9872   2.948   2.680   1.773 -0.1308  0.2742 -0.5978
 3310TIP3    H1 9873   2.890   2.718   1.839 -0.2689 -0.0647 -0.5225
 3310TIP3    H2 9874   2.913   2.708   1.689 -1.1976 -1.0101 -0.6185
 3311TIP3   OH2 9875   6.750   3.462   2.339 -0.4684  0.1344  0.4665
 3311TIP3    H1 9876   6.798   3.537   2.305  0.2596 -0.7199 -0.4243
 3311TIP3    H2 9877   6.710   3.422   2.262 -0.4610 -0.6677  0.8709
 3312TIP3   OH2 9878   3.623   5.192   3.289  0.2800 -0.0309  0.1039
 3312TIP3    H1 9879   3.593   5.131   3.222 -0.5496 -0.9440  1.2639
 3312TIP3    H2 9880   3.716   5.203   3.273 -0.0628  0.4830 -1.7365
 3313TIP3   OH2 9881   7.086   0.987   4.250 -0.5176  0.7392  0.2087
 3313TIP3    H1 9882   7.064   1.012   4.160  0.3038  1.4461  0.1834
 3313TIP3    H2 9883   7.054   1.060   4.304 -1.7542 -0.0625  0.5975
 3314TIP3   OH2 9884   0.205   7.500   2.889  0.3203 -0.4966  0.2784
 3314TIP3    H1 9885   0.125   7.552   2.893  0.3776 -0.3797 -0.0710
 3314TIP3    H2 9886   0.229   7.486   2.981 -0.0558 -0.4674  0.3826
 3315TIP3   OH2 9887   3.566   2.082   5.360  0.2438  0.1036 -0.0401
 3315TIP3    H1 9888   3.579   2.122   5.447 -0.8391 -0.1262  0.2417
 3315TIP3    H2 9889   3.511   2.145   5.313 -1.7950 -1.1515  0.5353
 3316TIP3   OH2 9890   4.380   0.415   3.042  0.0648  0.0468 -0.2248
 3316TIP3    H1 9891   4.385   0.481   2.972 -2.2402  1.4643  0.8157
 3316TIP3    H2 9892   4.311   0.355   3.014 -1.2731  0.9474  1.0066
 3317TIP3   OH2 9893   1.646   1.093   5.663 -0.1499 -0.0713 -0.1287
 3317TIP3    H1 9894   1.679   1.079   5.751 -2.6213  0.6837  1.0278
 3317TIP3    H2 9895   1.612   1.008   5.636 -1.5653  0.2080  0.6857
 3318TIP3   OH2 9896   6.287   1.337   4.093 -0.0478  0.5974  0.7974
 3318TIP3    H1 9897   6.258   1.397   4.024 -1.7658 -0.9339  0.1205
 3318TIP3    H2 9898   6.217   1.273   4.101  2.6398 -2.7949 -0.2180
 3319TIP3   OH2 9899   3.853   1.469   4.749 -0.0362 -0.3313  0.3674
 3319TIP3    H1 9900   3.918   1.540   4.749 -0.5962  0.2925  2.8143
 3319TIP3    H2 9901   3.844   1.444   4.657  2.0185  1.0667 -0.2832
 3320TIP3   OH2 9902   1.855   7.755   1.239  0.3367  0.5873  0.2040
 3320TIP3    H1 9903   1.933   7.741   1.293  0.0113  0.1019  0.5636
 3320TIP3    H2 9904   1.784   7.768   1.302 -0.3210 -1.4387 -0.0464
 3321TIP3   OH2 9905   1.176   4.230   1.680 -0.0781  0.0736 -0.1022
 3321TIP3    H1 9906   1.193   4.209   1.588 -1.4639  0.8011 -0.5572
 3321TIP3    H2 9907   1.082   4.247   1.683 -0.6157 -2.5217  1.9658
 3322TIP3   OH2 9908   2.559   4.468   2.078  0.0376 -0.0283 -0.0633
 3322TIP3    H1 9909   2.491   4.518   2.123  0.0218  0.5341 -0.6940
 3322TIP3    H2 9910   2.626   4.452   2.145  0.2038  1.1337  0.0626
 3323TIP3   OH2 9911   0.782   0.334   4.487  0.1155  0.2953 -0.3796
 3323TIP3    H1 9912   0.812   0.339   4.396 -0.8485  2.0175 -0.6664
 3323TIP3    H2 9913   0.699   0.383   4.487 -0.2371 -0.2254  1.3057
 3324TIP3   OH2 9914   2.615   4.134   4.147 -0.2437  0.2657 -0.4090
 3324TIP3    H1 9915   2.571   4.217   4.130 -0.6999 -0.2545 -1.8815
 3324TIP3    H2 9916   2.709   4.156   4.141 -0.3668  0.5420 -1.5469
 3325TIP3   OH2 9917   5.357   5.621   5.714 -0.2499 -0.1853 -0.0915
 3325TIP3    H1 9918   5.344   5.552   5.779 -1.8801 -1.3021 -1.5062
 3325TIP3    H2 9919   5.300   5.596   5.641 -0.5180  2.4399 -0.8605
 3326TIP3   OH2 9920   4.162   1.190   1.581  0.2507 -0.0307  0.5622
 3326TIP3    H1 9921   4.193   1.268   1.627 -1.2151  0.5603  0.5950
 3326TIP3    H2 9922   4.226   1.175   1.512  0.6774  1.0620  0.7076
 3327TIP3   OH2 9923   7.497   2.757   2.917 -0.4869  0.0426  0.1434
 3327TIP3    H1 9924   7.446   2.837   2.927  0.0447  0.9963 -3.3821
 3327TIP3    H2 9925   7.432   2.687   2.927 -1.2856  0.9186  1.5453
 3328TIP3   OH2 9926   1.624   2.814   3.126  0.3459 -0.0415  0.1216
 3328TIP3    H1 9927   1.612   2.908   3.138  0.6069 -0.0850  0.7263
 3328TIP3    H2 9928   1.664   2.784   3.207 -1.0178 -0.9217  0.5005
 3329TIP3   OH2 9929   0.782   3.183   5.412  0.5938 -0.8526 -0.2900
 3329TIP3    H1 9930   0.764   3.221   5.326 -0.1063  0.5801  0.4466
 3329TIP3    H2 9931   0.816   3.257   5.464  2.9495 -2.1307  0.1080
 3330TIP3   OH2 9932   7.293   5.419   3.598 -1.2110 -0.2729  0.0122
 3330TIP3    H1 9933   7.264   5.332   3.625 -0.4279 -0.5002  0.1534
 3330TIP3    H2 9934   7.341   5.452   3.673 -0.1491 -0.3691 -0.6025
 3331TIP3   OH2 9935   1.959   1.811   2.770  0.3061 -0.5749  0.1800
 3331TIP3    H1 9936   1.902   1.760   2.828  0.0020  0.7838  1.1108
 3331TIP3    H2 9937   1.906   1.825   2.692  0.3885 -1.6459 -0.0897
 3332TIP3   OH2 9938   4.378   1.295   0.041  0.0976  0.0056  0.4720
 3332TIP3    H1 9939   4.308   1.359   0.057  0.8720  0.9646  0.1233
 3332TIP3    H2 9940   4.359   1.260  -0.046  0.1327  0.3699  0.3183
 3333TIP3   OH2 9941   1.909   6.214   2.573 -0.3775 -0.3340  0.4342
 3333TIP3    H1 9942   1.904   6.181   2.483 -0.3792  1.0331 -0.0895
 3333TIP3    H2 9943   1.984   6.274   2.572 -0.5772 -0.0635  1.2581
 3334TIP3   OH2 9944   1.029   0.587   3.961 -0.1115  0.5781  0.3573
 3334TIP3    H1 9945   1.124   0.588   3.971  0.1954 -0.8296 -1.7488
 3334TIP3    H2 9946   0.998   0.536   4.036  0.9320 -0.2525  0.2457
 3335TIP3   OH2 9947   7.721   6.340   3.565  0.2189  0.0646  0.6223
 3335TIP3    H1 9948   7.689   6.427   3.588 -0.2846 -0.0609  0.4295
 3335TIP3    H2 9949   7.677   6.320   3.482  3.3751  1.2941 -1.5234
 3336TIP3   OH2 9950   5.117   4.589   5.776 -0.2964  0.1368 -0.1178
 3336TIP3    H1 9951   5.080   4.628   5.698 -1.8736  1.5967  1.2866
 3336TIP3    H2 9952   5.060   4.514   5.795  0.8289 -0.9882 -1.0166
 3337TIP3   OH2 9953   1.620   7.573   1.998 -0.0504 -0.7846 -0.0434
 3337TIP3    H1 9954   1.557   7.523   1.946  0.9241 -1.2174 -0.8509
 3337TIP3    H2 9955   1.676   7.506   2.038 -1.0306 -0.4819  1.9464
 3338TIP3   OH2 9956   1.306   3.946   0.859 -0.0457 -0.0733 -0.2476
 3338TIP3    H1 9957   1.212   3.961   0.864  0.1818  1.7979 -0.6165
 3338TIP3    H2 9958   1.342   4.003   0.928  0.8318 -0.4181 -0.4127
 3339TIP3   OH2 9959   2.013   5.913   6.419  0.2577  0.8200  0.2477
 3339TIP3    H1 9960   1.970   5.967   6.485  2.2022  0.6993  1.7286
 3339TIP3    H2 9961   2.030   5.971   6.346  2.3508  2.3248  1.8210
 3340TIP3   OH2 9962   2.611   0.594   0.311 -0.4066  0.0329  0.0364
 3340TIP3    H1 9963   2.627   0.621   0.220 -1.3950 -0.8537 -0.4186
 3340TIP3    H2 9964   2.660   0.512   0.320 -1.6095 -0.7258 -0.2061
 3341TIP3   OH2 9965   6.532   0.433   1.286  0.1308  0.0780 -0.4533
 3341TIP3    H1 9966   6.589   0.366   1.248 -1.0164 -1.6608  0.7464
 3341TIP3    H2 9967   6.443   0.406   1.262 -0.4252  0.6326  0.8486
 3342TIP3   OH2 9968   2.618   3.973   0.835  0.6945  0.2697  0.7608
 3342TIP3    H1 9969   2.684   3.961   0.903  1.1595  1.2891  0.5025
 3342TIP3    H2 9970   2.535   3.981   0.882  0.8399 -0.2871  1.1240
 3343TIP3   OH2 9971   2.757   0.351   0.183  0.2568 -0.3712 -0.2657
 3343TIP3    H1 9972   2.759   0.281   0.118 -0.3930 -2.1545  1.5365
 3343TIP3    H2 9973   2.813   0.319   0.254  1.2796  1.6938 -0.0690
 3344TIP3   OH2 9974   4.681   2.049   4.777 -0.0804  0.0993 -0.0705
 3344TIP3    H1 9975   4.585   2.044   4.782 -0.3648  2.4437 -1.7699
 3344TIP3    H2 9976   4.704   1.990   4.706 -0.1098 -1.2005  0.9518
 3345TIP3   OH2 9977   3.169   6.462   0.036 -0.0283 -0.4042 -0.1427
 3345TIP3    H1 9978   3.083   6.456   0.077 -0.2923  0.7126 -0.4908
 3345TIP3    H2 9979   3.158   6.420  -0.050  0.3769 -2.2257  0.6351
 3346TIP3   OH2 9980   5.717   4.973   2.763 -0.6781  0.0418  0.1804
 3346TIP3    H1 9981   5.809   4.951   2.747 -0.4049  0.3934  1.1932
 3346TIP3    H2 9982   5.706   5.061   2.725 -0.1309  0.7231  1.5521
 3347TIP3   OH2 9983   5.631   6.607   1.608 -0.4164  0.3797 -0.0026
 3347TIP3    H1 9984   5.546   6.577   1.639 -0.4789  1.0113  0.4548
 3347TIP3    H2 9985   5.692   6.583   1.679 -0.0116 -1.0205 -0.7669
 3348TIP3   OH2 9986   5.527   4.934   6.582  0.1903  0.9782  0.4457
 3348TIP3    H1 9987   5.512   5.025   6.608 -2.2862  0.4962  0.8918
 3348TIP3    H2 9988   5.514   4.935   6.487 -2.5976  0.6846  0.7450
 3349TIP3   OH2 9989   0.628   7.424   6.353 -0.5132  0.1828 -0.1850
 3349TIP3    H1 9990   0.540   7.393   6.332 -0.4097  0.4761 -1.1161
 3349TIP3    H2 9991   0.631   7.513   6.319 -0.0132  0.3443  0.2758
 3350TIP3   OH2 9992   0.269   5.342   1.781 -0.1941 -0.0532 -0.5665
 3350TIP3    H1 9993   0.237   5.375   1.697 -0.6384 -0.9454 -0.7674
 3350TIP3    H2 9994   0.246   5.410   1.844  1.9112  1.5452 -1.4207
 3351TIP3   OH2 9995   0.853   7.190   0.538 -0.2591 -0.1658  0.2378
 3351TIP3    H1 9996   0.883   7.183   0.628 -0.5726 -0.3202  0.3319
 3351TIP3    H2 9997   0.764   7.154   0.539 -0.1691 -0.4100 -0.1815
 3352TIP3   OH2 9998   3.745   2.201   1.392 -0.3800  0.2872  0.2088
 3352TIP3    H1 9999   3.675   2.147   1.428 -0.0479  0.1522  0.6673
 3352TIP3    H210000   3.707   2.244   1.315 -1.6623  1.9423  1.6902
 3353TIP3   OH210001   4.102   5.899   6.170  0.1694  0.1033  0.3384
 3353TIP3    H110002   4.014   5.864   6.157  0.4192 -0.6081  0.5170
 3353TIP3    H210003   4.089   5.980   6.220 -0.4244  0.3282 -0.1825
 3354TIP3   OH210004   6.083   5.757   6.500 -0.0854  0.3642  0.3644
 3354TIP3    H110005   6.018   5.751   6.430 -0.0296 -1.5555  0.4338
 3354TIP3    H210006   6.044   5.818   6.563  0.0415  2.4478 -1.4608
 3355TIP3   OH210007   4.151   6.246   0.170 -0.5447 -0.3775  0.0810
 3355TIP3    H110008   4.096   6.173   0.198  0.4476 -0.7663  1.0941
 3355TIP3    H210009   4.179   6.288   0.252 -0.1014  0.3813 -0.4431
 3356TIP3   OH210010   5.557   6.170   3.271 -0.6871  0.3244  0.0435
 3356TIP3    H110011   5.541   6.115   3.348 -0.5077  0.4532  0.1749
 3356TIP3    H210012   5.646   6.203   3.284 -0.3542 -0.2853 -0.6104
 3357TIP3   OH210013   3.550   0.531   3.819 -0.2873 -0.2171 -0.6435
 3357TIP3    H110014   3.520   0.621   3.831  0.9026 -0.1992  3.6020
 3357TIP3    H210015   3.470   0.479   3.817 -0.9147  0.7351 -1.2634
 3358TIP3   OH210016   6.595   2.409   2.868 -0.6538  0.1589 -0.0881
 3358TIP3    H110017   6.616   2.498   2.839  1.3000 -0.4737 -0.7649
 3358TIP3    H210018   6.620   2.408   2.961  1.8566 -0.3399 -0.6791
 3359TIP3   OH210019   2.714   4.034   0.110  0.0061 -0.0039  0.2031
 3359TIP3    H110020   2.622   4.030   0.086  0.3190 -0.2183 -1.0517
 3359TIP3    H210021   2.757   4.075   0.035  1.0772 -0.9358  0.2687
 3360TIP3   OH210022   5.725   7.245   4.685  0.1763  0.0711  0.3665
 3360TIP3    H110023   5.704   7.198   4.604  0.6436 -0.8137  0.7432
 3360TIP3    H210024   5.659   7.314   4.690  0.5538  0.5843 -1.1160
 3361TIP3   OH210025   8.231   6.787   2.171 -0.0561  0.5936 -0.0086
 3361TIP3    H110026   8.140   6.768   2.150  0.3070 -1.6000  0.1785
 3361TIP3    H210027   8.240   6.765   2.264  1.1592 -1.5941 -0.5609
 3362TIP3   OH210028   7.272   0.326   4.266  0.2949 -0.3984  0.1904
 3362TIP3    H110029   7.292   0.364   4.351  1.6653  0.3929 -0.4412
 3362TIP3    H210030   7.358   0.315   4.224 -0.3671 -0.3466 -1.2514
 3363TIP3   OH210031   1.610   2.621   6.035 -0.3020  1.0307  0.1078
 3363TIP3    H110032   1.643   2.620   5.945 -0.9117 -0.5439 -0.1343
 3363TIP3    H210033   1.688   2.620   6.090  0.1115 -0.7587 -0.4453
 3364TIP3   OH210034   2.969   5.361   0.180 -0.3264  0.1745  0.3973
 3364TIP3    H110035   2.992   5.293   0.243 -0.4938  0.3254  0.6236
 3364TIP3    H210036   2.884   5.393   0.210  0.3615  1.4186  1.0783
 3365TIP3   OH210037   8.020   7.796   5.159 -0.1047 -0.2844 -0.1353
 3365TIP3    H110038   7.933   7.833   5.141 -0.7600 -2.3973 -1.8170
 3365TIP3    H210039   8.042   7.747   5.079  2.8380  0.4737  0.0815
 3366TIP3   OH210040   4.817   3.754   0.293  0.4485  0.9187 -0.5059
 3366TIP3    H110041   4.781   3.695   0.359 -0.6049  2.2310  0.1479
 3366TIP3    H210042   4.746   3.766   0.230  1.3948 -0.2097 -1.8576
 3367TIP3   OH210043   7.189   5.407   4.234 -0.0011 -0.0716 -0.7852
 3367TIP3    H110044   7.172   5.502   4.229 -0.0398  0.2823  3.2185
 3367TIP3    H210045   7.279   5.401   4.264 -0.6089 -1.2109  0.8986
 3368TIP3   OH210046   2.409   0.745   3.898 -0.4616  0.0319  0.1749
 3368TIP3    H110047   2.492   0.709   3.931  0.5102  1.1982 -0.8725
 3368TIP3    H210048   2.346   0.727   3.967  1.4647  2.4013  2.8019
 3369TIP3   OH210049   1.475   7.447   4.068  0.1345  0.5469 -0.5022
 3369TIP3    H110050   1.387   7.467   4.099  0.9957  0.8257  2.0643
 3369TIP3    H210051   1.467   7.362   4.025 -1.3567  0.4699 -0.1262
 3370TIP3   OH210052   2.325   0.058   1.159  0.4630 -0.5118 -0.1210
 3370TIP3    H110053   2.317   0.114   1.237  0.2539 -0.5446 -0.1179
 3370TIP3    H210054   2.361   0.115   1.092  0.2899 -0.3850 -0.1055
 3371TIP3   OH210055   6.874   3.152   4.239 -0.0351  0.1112  0.4443
 3371TIP3    H110056   6.940   3.185   4.179  0.0668  1.2369  1.1534
 3371TIP3    H210057   6.818   3.227   4.257 -0.6688 -0.4681  0.9639
 3372TIP3   OH210058   0.243   6.564   5.444  0.1122 -0.1671 -0.1826
 3372TIP3    H110059   0.256   6.654   5.476  0.8557  0.3930 -1.9237
 3372TIP3    H210060   0.288   6.562   5.359 -0.8946 -1.8509 -0.7265
 3373TIP3   OH210061   6.814   1.385   4.005 -0.2831 -0.3158  0.2293
 3373TIP3    H110062   6.719   1.391   3.994 -0.0909  1.3738 -0.9357
 3373TIP3    H210063   6.841   1.475   4.026  1.1769 -0.4999 -0.7307
 3374TIP3   OH210064   6.728   1.301   1.305  0.0089  0.2654  0.5890
 3374TIP3    H110065   6.678   1.236   1.256 -0.5601  0.5753  0.7438
 3374TIP3    H210066   6.661   1.362   1.337  0.3851  0.1163  1.6736
 3375TIP3   OH210067   2.518   0.176   2.055 -0.1226 -0.4931  0.1096
 3375TIP3    H110068   2.479   0.260   2.078  2.0597  0.0463  2.2952
 3375TIP3    H210069   2.566   0.192   1.974 -0.5509  0.1050 -0.0267
 3376TIP3   OH210070   5.059   4.346   6.485 -0.2418 -0.0226 -0.2220
 3376TIP3    H110071   5.008   4.424   6.507 -0.2786 -0.2716  0.5903
 3376TIP3    H210072   5.080   4.306   6.569  0.9432 -0.1494 -0.5517
 3377TIP3   OH210073   0.389   0.481   4.933 -0.3552 -0.3519 -0.3638
 3377TIP3    H110074   0.301   0.481   4.971 -1.4225 -0.1417 -2.6337
 3377TIP3    H210075   0.375   0.509   4.842  2.2509  1.1476 -0.3963
 3378TIP3   OH210076   4.502   6.960   0.833  0.2179  0.6246  0.1960
 3378TIP3    H110077   4.574   6.973   0.772  0.4072  0.2188  0.3298
 3378TIP3    H210078   4.514   7.027   0.900  0.1463  0.9170 -0.0775
 3379TIP3   OH210079   4.981   3.423   1.546 -0.2117  0.0183 -0.2521
 3379TIP3    H110080   5.024   3.480   1.609  0.2584 -0.6107  0.0036
 3379TIP3    H210081   5.020   3.445   1.462  1.8237 -1.6526  0.1843
 3380TIP3   OH210082   3.291   4.223   5.445 -0.2594 -0.9450 -0.5825
 3380TIP3    H110083   3.262   4.229   5.536  0.1481  0.4718 -0.5235
 3380TIP3    H210084   3.378   4.183   5.450 -0.2250 -0.8443 -0.3524
 3381TIP3   OH210085   2.331   7.726   4.992  0.2647  0.6557 -0.8650
 3381TIP3    H110086   2.360   7.788   5.057  0.8199  1.2387 -1.6521
 3381TIP3    H210087   2.398   7.728   4.924  0.2964 -0.7992 -0.9181
 3382TIP3   OH210088   6.743   5.072   0.075  0.0569 -0.2861  0.4510
 3382TIP3    H110089   6.727   4.982   0.104  0.2379  0.0783  1.7526
 3382TIP3    H210090   6.824   5.066   0.024  1.1161 -0.6050  2.0885
 3383TIP3   OH210091   0.261   7.078   2.922  0.0776  0.3303 -0.0890
 3383TIP3    H110092   0.188   7.114   2.871 -0.5676  0.0822  0.6373
 3383TIP3    H210093   0.322   7.044   2.856 -0.4336  0.6064 -0.7090
 3384TIP3   OH210094   6.306   7.703   5.053 -0.1240 -0.2352  0.3182
 3384TIP3    H110095   6.349   7.706   4.967  0.0263 -0.6562  0.3759
 3384TIP3    H210096   6.372   7.665   5.112 -0.5250 -0.7835  0.4280
 3385TIP3   OH210097   3.397   5.850   2.016  0.2750 -0.6531 -0.3823
 3385TIP3    H110098   3.446   5.909   2.074  1.9697 -0.9251 -1.4667
 3385TIP3    H210099   3.375   5.775   2.070  0.3982 -0.1838  0.3268
 3386TIP3   OH210100   5.663   3.851   2.638 -0.5163 -0.5130  0.3817
 3386TIP3    H110101   5.733   3.826   2.578  0.1064 -0.3787  1.0396
 3386TIP3    H210102   5.584   3.810   2.601 -0.4948  0.9446 -1.4834
 3387TIP3   OH210103   3.230   4.904   5.307  0.0380 -0.0725  0.2654
 3387TIP3    H110104   3.293   4.969   5.275 -1.0171  0.5848 -0.5606
 3387TIP3    H210105   3.284   4.831   5.336  1.1722  0.1361 -1.1715
 3388TIP3   OH210106   1.278   3.873   0.522  0.0456  0.6451 -0.3270
 3388TIP3    H110107   1.224   3.824   0.461  1.9977 -2.1848  0.0090
 3388TIP3    H210108   1.262   3.832   0.607 -0.2448  2.4282  0.5424
 3389TIP3   OH210109   5.060   7.136   3.303 -0.3233  0.3406  0.0228
 3389TIP3    H110110   4.989   7.091   3.349  0.7205 -1.5366 -0.0865
 3389TIP3    H210111   5.017   7.188   3.236 -1.5962 -0.8804 -0.1473
 3390TIP3   OH210112   4.467   0.733   5.079  0.1936  0.6866  0.5186
 3390TIP3    H110113   4.541   0.766   5.129  1.4071 -0.9283 -0.1131
 3390TIP3    H210114   4.436   0.657   5.128 -0.6715  0.9730  0.4448
 3391TIP3   OH210115   2.431   0.049   0.793  0.3872  0.0327 -0.0927
 3391TIP3    H110116   2.515   0.005   0.777 -0.9070 -2.3091 -0.8870
 3391TIP3    H210117   2.369  -0.022   0.809 -1.1326  1.7673  2.3507
 3392TIP3   OH210118   2.438   5.244   4.661 -0.0400 -0.5339 -0.3431
 3392TIP3    H110119   2.479   5.261   4.575 -1.0406 -0.9249 -0.9055
 3392TIP3    H210120   2.431   5.331   4.701 -0.8023 -0.1709 -1.2298
 3393TIP3   OH210121   5.681   5.838   0.861 -0.2513 -0.1855 -0.6467
 3393TIP3    H110122   5.664   5.929   0.837  0.7507  0.2044  0.0646
 3393TIP3    H210123   5.777   5.830   0.858  0.0046 -0.1185  2.9910
 3394TIP3   OH210124   7.984   4.346   1.241 -0.1939 -0.1390  0.7253
 3394TIP3    H110125   8.064   4.350   1.294 -0.1726 -1.0209  0.7815
 3394TIP3    H210126   8.006   4.393   1.161 -0.1672  1.0477  1.4072
 3395TIP3   OH210127   1.415   5.057   2.178  0.2458  0.4806  0.9498
 3395TIP3    H110128   1.417   5.125   2.245  0.6953  0.1574  1.2661
 3395TIP3    H210129   1.502   5.059   2.137  0.3821 -0.1350  1.1973
 3396TIP3   OH210130   1.461   4.662   2.909  0.0055  0.1294 -0.2367
 3396TIP3    H110131   1.377   4.675   2.952 -0.0428  0.9780 -0.5511
 3396TIP3    H210132   1.515   4.617   2.973 -0.2582  0.8114  0.4837
 3397TIP3   OH210133   4.914   1.413   4.937 -0.1925  0.5233 -0.2270
 3397TIP3    H110134   4.979   1.378   4.875 -1.1711 -1.1957 -0.3569
 3397TIP3    H210135   4.830   1.390   4.898 -0.8518  1.1114  0.8209
 3398TIP3   OH210136   4.334   4.975   3.603  0.7591  0.0888  0.1749
 3398TIP3    H110137   4.354   4.912   3.533 -1.9234 -0.4779 -0.1985
 3398TIP3    H210138   4.392   4.951   3.675  1.2541 -1.4740 -0.7012
 3399TIP3   OH210139   5.999   7.496   4.813  0.5337  0.0413 -0.4637
 3399TIP3    H110140   5.915   7.532   4.783  0.9647  1.0354 -0.4944
 3399TIP3    H210141   6.038   7.566   4.865  1.5515 -0.2525 -0.8124
 3400TIP3   OH210142   6.325   4.018   4.536  0.1675  0.2079  0.0593
 3400TIP3    H110143   6.269   3.941   4.527  0.4136  0.0959 -0.5475
 3400TIP3    H210144   6.360   4.012   4.625 -0.1776 -0.1323  0.1737
 3401TIP3   OH210145   6.793   2.755   1.895 -0.1749  0.1144  0.5992
 3401TIP3    H110146   6.793   2.733   1.988 -1.7148 -0.5268  0.4736
 3401TIP3    H210147   6.885   2.773   1.874  0.2983 -0.5211  2.0531
 3402TIP3   OH210148   7.338   0.332   6.462  0.7333 -0.5741  0.7487
 3402TIP3    H110149   7.251   0.331   6.422  0.9737  0.6441  0.1764
 3402TIP3    H210150   7.321   0.334   6.556  0.0872  2.0235  0.6282
 3403TIP3   OH210151   4.742   3.743   3.841  0.4360  0.7472  0.1491
 3403TIP3    H110152   4.730   3.793   3.922 -0.7438 -2.3788  2.1300
 3403TIP3    H210153   4.712   3.801   3.772 -0.7140  2.7711  2.1955
 3404TIP3   OH210154   0.883   5.299   0.988 -0.2418 -0.1043  0.2158
 3404TIP3    H110155   0.895   5.314   1.082  3.5786 -1.6047  0.1374
 3404TIP3    H210156   0.867   5.387   0.953 -2.2984  0.4406  2.2299
 3405TIP3   OH210157   6.262   3.135   1.353 -0.0905 -0.5168  0.0537
 3405TIP3    H110158   6.205   3.076   1.303 -1.9635 -0.1842  1.6789
 3405TIP3    H210159   6.344   3.134   1.305 -1.0840 -1.9236 -1.7748
 3406TIP3   OH210160   7.090   1.685   2.437  0.1294  0.6673 -0.0402
 3406TIP3    H110161   7.096   1.590   2.448  1.9636  0.7887  0.2757
 3406TIP3    H210162   7.006   1.708   2.476  0.3876 -0.6298  1.3746
 3407TIP3   OH210163   2.057   5.069   3.742  0.0169  0.3713  0.1890
 3407TIP3    H110164   2.134   5.026   3.779 -0.5575 -0.0011  0.9954
 3407TIP3    H210165   1.988   5.054   3.807 -1.0402 -0.3112 -1.0453
 3408TIP3   OH210166   4.407   5.365   0.600  0.4373 -0.3358 -0.4373
 3408TIP3    H110167   4.337   5.402   0.547 -1.7891  1.6149  3.3875
 3408TIP3    H210168   4.467   5.439   0.616  0.6203 -0.6393  0.3615
 3409TIP3   OH210169   6.221   3.356   4.755 -0.4715 -0.0361 -0.3215
 3409TIP3    H110170   6.265   3.309   4.826 -1.5127 -1.6264 -0.6692
 3409TIP3    H210171   6.292   3.399   4.707  0.5993 -1.6266 -0.2289
 3410TIP3   OH210172   4.740   6.832   3.448 -0.4671 -0.7501 -0.0122
 3410TIP3    H110173   4.823   6.834   3.494 -1.6867  0.2405  2.3305
 3410TIP3    H210174   4.734   6.743   3.413 -0.0048 -2.1193  3.0353
 3411TIP3   OH210175   4.998   0.732   6.354 -0.4269  0.0631  0.1927
 3411TIP3    H110176   5.004   0.721   6.259 -1.4863 -0.0953  0.1385
 3411TIP3    H210177   4.987   0.644   6.388  1.1280 -0.0098  0.5785
 3412TIP3   OH210178   2.190   3.448   6.795 -0.2822 -0.1715 -0.0464
 3412TIP3    H110179   2.280   3.454   6.762 -0.7818  0.2975 -1.4030
 3412TIP3    H210180   2.136   3.484   6.724 -1.6249 -1.2598  0.3795
 3413TIP3   OH210181   4.542   1.939   3.128 -0.3470  0.3180  0.3320
 3413TIP3    H110182   4.582   1.994   3.061  1.9010  0.2127  1.4802
 3413TIP3    H210183   4.462   1.905   3.088 -0.5935  2.5595 -1.2146
 3414TIP3   OH210184   4.960   4.993   5.398 -0.9549  0.1993 -0.3920
 3414TIP3    H110185   5.049   4.999   5.433 -0.5396 -0.5888 -1.2569
 3414TIP3    H210186   4.952   5.070   5.341 -0.6313 -0.0152 -0.7292
 3415TIP3   OH210187   7.159   6.614   0.628 -0.7027  0.4664 -0.5875
 3415TIP3    H110188   7.166   6.538   0.686 -1.2915  1.1466  0.3969
 3415TIP3    H210189   7.069   6.643   0.638 -0.6169  1.0042 -1.3354
 3416TIP3   OH210190   7.060   2.518   1.816  0.3337 -0.5080 -0.4513
 3416TIP3    H110191   7.057   2.438   1.765  0.2270 -0.2038 -0.9251
 3416TIP3    H210192   7.019   2.495   1.900 -0.7366 -0.6570 -0.9929
 3417TIP3   OH210193   6.361   6.713   0.533 -0.2364 -0.4511  0.2301
 3417TIP3    H110194   6.317   6.714   0.618 -0.1507 -1.5344  0.2982
 3417TIP3    H210195   6.399   6.800   0.525  1.3365 -0.8904  2.1315
 3418TIP3   OH210196   6.566   1.431   4.055  0.2196  0.1607  0.2740
 3418TIP3    H110197   6.499   1.416   3.988 -0.2778  0.3938  0.7151
 3418TIP3    H210198   6.534   1.506   4.105 -0.2881 -1.0737  1.8749
 3419TIP3   OH210199   1.660   0.413   1.876  0.6633  0.0093  0.0258
 3419TIP3    H110200   1.576   0.418   1.922 -0.1909 -0.8375 -1.3601
 3419TIP3    H210201   1.653   0.477   1.805  0.9142 -0.5240 -0.4923
 3420TIP3   OH210202   4.512   0.979   0.363  0.8402  1.1568  0.3203
 3420TIP3    H110203   4.453   1.052   0.343  2.6949  2.4335 -0.7855
 3420TIP3    H210204   4.525   0.985   0.458 -0.7940  0.8385  0.5786
 3421TIP3   OH210205   2.959   4.090   4.519  0.0906 -0.1528  0.0200
 3421TIP3    H110206   2.996   4.108   4.433  0.7075  2.1377  0.7107
 3421TIP3    H210207   2.874   4.134   4.518 -0.2974 -0.8788  0.2871
 3422TIP3   OH210208   3.048   4.510   6.277 -0.3879  0.1265 -0.2500
 3422TIP3    H110209   3.031   4.523   6.370  1.8224 -1.4944  0.4791
 3422TIP3    H210210   3.117   4.573   6.255 -2.2106  1.8195 -1.3292
 3423TIP3   OH210211   3.937   7.244   5.682  0.4550  0.5647  0.0580
 3423TIP3    H110212   3.898   7.207   5.603  2.0483  1.8340 -1.3772
 3423TIP3    H210213   3.873   7.226   5.751  0.0628 -2.6266 -1.0118
 3424TIP3   OH210214   5.045   6.871   2.678 -0.1816 -0.3283 -0.7581
 3424TIP3    H110215   4.979   6.919   2.629 -0.8008  0.0237  0.3862
 3424TIP3    H210216   5.074   6.802   2.618 -0.4051  0.5003 -1.8603
 3425TIP3   OH210217   1.368   6.135   3.278 -0.2051  0.0046 -0.4718
 3425TIP3    H110218   1.380   6.119   3.372  0.5905  0.7894 -0.4190
 3425TIP3    H210219   1.297   6.077   3.252 -0.0451 -0.6467  0.4959
 3426TIP3   OH210220   1.680   7.321   6.097 -0.1941 -0.0738  0.2843
 3426TIP3    H110221   1.767   7.358   6.114  0.4286 -1.1174 -0.5409
 3426TIP3    H210222   1.687   7.282   6.010 -0.8041 -2.1629  1.1166
 3427TIP3   OH210223   0.046   1.392   0.954  0.7966  0.0979  0.3269
 3427TIP3    H110224   0.057   1.487   0.964  0.1405  0.0797  1.4922
 3427TIP3    H210225   0.102   1.354   1.022  1.8673 -0.4072 -0.8118
 3428TIP3   OH210226   0.376   3.749   4.514  0.3941  0.5289 -0.1521
 3428TIP3    H110227   0.359   3.677   4.453 -0.1363 -0.9755  1.7065
 3428TIP3    H210228   0.293   3.795   4.522  1.1200  2.5760 -2.6871
 3429TIP3   OH210229   5.663   6.470   2.303  0.2308  0.8096 -0.4349
 3429TIP3    H110230   5.575   6.433   2.305  0.1673  0.9641 -0.3555
 3429TIP3    H210231   5.705   6.427   2.229  0.4313 -0.0507  0.1641
 3430TIP3   OH210232   1.814   4.258   5.694  0.2421  0.1973  0.5420
 3430TIP3    H110233   1.830   4.164   5.696  0.2722  0.1956  0.2175
 3430TIP3    H210234   1.770   4.277   5.777  0.7592 -0.0066  0.8660
 3431TIP3   OH210235   2.731   0.140   5.514 -0.5319 -0.7475  0.3483
 3431TIP3    H110236   2.721   0.139   5.419 -0.2841  0.0953  0.3047
 3431TIP3    H210237   2.797   0.207   5.530 -0.6882 -0.7727  1.1258
 3432TIP3   OH210238   1.716   2.894   0.103  0.2098 -0.5893  0.4275
 3432TIP3    H110239   1.722   2.915   0.196 -1.6026 -1.4927  0.7964
 3432TIP3    H210240   1.727   2.799   0.099 -1.3121 -0.7749 -0.0651
 3433TIP3   OH210241   2.186   3.145   3.499  0.0761  0.2337 -0.1627
 3433TIP3    H110242   2.093   3.165   3.509  0.1413  0.8891 -0.7729
 3433TIP3    H210243   2.230   3.228   3.518  0.4990  0.0708 -0.4350
 3434TIP3   OH210244   4.141   1.342   4.028 -0.2926 -0.4497  0.2181
 3434TIP3    H110245   4.145   1.438   4.025  0.0787 -0.3197  2.4547
 3434TIP3    H210246   4.206   1.319   4.095  0.5276 -2.3672 -1.1719
 3435TIP3   OH210247   5.728   4.427   5.049 -0.3386 -0.4764 -0.4681
 3435TIP3    H110248   5.694   4.381   4.972  0.8286 -0.8587 -0.7711
 3435TIP3    H210249   5.745   4.358   5.113  0.4332 -0.3589 -0.5406
 3436TIP3   OH210250   5.070   3.795   0.204  0.3898  0.0608 -0.0591
 3436TIP3    H110251   4.975   3.783   0.210  0.3416  1.0396  1.5275
 3436TIP3    H210252   5.106   3.734   0.269  0.6246  1.8982  1.6358
 3437TIP3   OH210253   1.373   5.981   0.094  0.9952  0.2222 -0.2629
 3437TIP3    H110254   1.364   6.074   0.074 -0.3586  0.1036 -0.2989
 3437TIP3    H210255   1.438   5.977   0.164 -1.5563  1.5622  2.4106
 3438TIP3   OH210256   2.225   5.648   5.403 -0.3023  0.2668  0.6268
 3438TIP3    H110257   2.292   5.716   5.415  1.5011 -1.5981  1.9427
 3438TIP3    H210258   2.238   5.617   5.313  1.4160 -0.7696  1.1714
 3439TIP3   OH210259   6.311   4.511   2.724  0.7923 -0.1934  0.2409
 3439TIP3    H110260   6.396   4.524   2.765  0.9389  0.1479 -0.1704
 3439TIP3    H210261   6.293   4.593   2.678  0.7168 -0.6330 -0.5293
 3440TIP3   OH210262   3.311   0.026   2.006 -0.3281 -0.1661 -0.2059
 3440TIP3    H110263   3.307  -0.044   1.940  2.4274 -0.2006 -0.4504
 3440TIP3    H210264   3.335   0.104   1.957  1.7926 -0.1957  0.7040
 3441TIP3   OH210265   5.199   0.837   4.623  0.1840  0.5816  0.3341
 3441TIP3    H110266   5.275   0.889   4.594 -1.2692  1.3629 -2.5049
 3441TIP3    H210267   5.142   0.901   4.664 -0.7025  0.9164 -1.3190
 3442TIP3   OH210268   7.359   7.701   4.778 -0.2048  0.2723 -0.9813
 3442TIP3    H110269   7.323   7.720   4.691  0.1002  0.1885 -1.1241
 3442TIP3    H210270   7.325   7.772   4.833 -4.3793 -2.1009 -0.0476
 3443TIP3   OH210271   3.320   0.559   6.761 -0.4221 -0.2499 -0.3977
 3443TIP3    H110272   3.274   0.478   6.738 -0.4896 -0.2882 -0.1298
 3443TIP3    H210273   3.404   0.530   6.797 -0.4410 -0.1993 -0.3135
 3444TIP3   OH210274   1.075   3.647   3.314  0.1102 -0.0927 -0.8831
 3444TIP3    H110275   1.119   3.563   3.324 -0.1525 -0.1780 -0.4124
 3444TIP3    H210276   1.015   3.635   3.241 -0.5498 -0.5857 -0.2746
 3445TIP3   OH210277   0.617   7.447   5.706 -0.1780 -0.2643  0.8420
 3445TIP3    H110278   0.594   7.452   5.614 -0.0777 -0.3385  0.8128
 3445TIP3    H210279   0.686   7.381   5.710 -0.5604 -0.6518  1.0424
 3446TIP3   OH210280   5.848   1.996   4.878 -0.2402  0.3417  0.2850
 3446TIP3    H110281   5.810   1.910   4.863 -1.8047  1.0926 -0.2551
 3446TIP3    H210282   5.943   1.981   4.882 -0.3744 -1.1735 -1.3280
 3447TIP3   OH210283   2.897   1.138   4.797  0.1780 -0.1390 -0.2027
 3447TIP3    H110284   2.836   1.082   4.749  0.1841 -1.4128  1.2225
 3447TIP3    H210285   2.865   1.137   4.887  1.6217  0.1351  0.3327
 3448TIP3   OH210286   7.792   4.365   4.575 -0.4528 -0.2084 -0.2457
 3448TIP3    H110287   7.758   4.298   4.635  0.3823 -0.3755  0.0539
 3448TIP3    H210288   7.887   4.361   4.585 -0.3598  0.6424 -0.6415
 3449TIP3   OH210289   0.952   4.039   0.145 -0.6081 -0.3674 -0.3457
 3449TIP3    H110290   1.045   4.060   0.154 -0.3916 -0.7057 -1.5325
 3449TIP3    H210291   0.951   3.950   0.112 -1.4198 -0.9476  1.1544
 3450TIP3   OH210292   1.579   4.480   2.661 -0.3851  0.2240 -0.4397
 3450TIP3    H110293   1.520   4.534   2.713  1.7070  0.4203  1.8891
 3450TIP3    H210294   1.579   4.520   2.574 -2.2733  1.2368 -0.0202
 3451TIP3   OH210295   0.138   5.372   0.834 -0.1658 -0.2697 -0.2649
 3451TIP3    H110296   0.097   5.417   0.907  1.1740 -0.2460  0.5060
 3451TIP3    H210297   0.138   5.436   0.763  2.7466  1.4704  1.1445
 3452TIP3   OH210298   6.456   4.110   3.627 -0.6188  0.2767 -0.4871
 3452TIP3    H110299   6.499   4.036   3.670 -0.5252  1.1022  0.9195
 3452TIP3    H210300   6.366   4.106   3.658 -0.7447  0.4352 -0.8354
 3453TIP3   OH210301   0.999   7.496   2.708 -0.2738  0.3668  0.1803
 3453TIP3    H110302   0.934   7.433   2.738 -0.5802 -0.0785 -1.3121
 3453TIP3    H210303   1.043   7.452   2.635  1.0247  1.0482  0.5209
 3454TIP3   OH210304   6.574   3.065   6.365 -0.6515  0.5009 -0.0586
 3454TIP3    H110305   6.484   3.079   6.336 -0.9980 -0.8727  0.2576
 3454TIP3    H210306   6.611   3.004   6.301 -0.0307  0.8324 -0.0267
 3455TIP3   OH210307   3.008   0.298   3.353 -0.5313  0.4064  0.2981
 3455TIP3    H110308   2.918   0.311   3.325 -0.6276 -0.4845  0.1841
 3455TIP3    H210309   3.031   0.210   3.322  0.1900  0.4023  0.8131
 3456TIP3   OH210310   5.109   2.256   6.674 -0.1252  0.4276  0.1327
 3456TIP3    H110311   5.172   2.327   6.687  1.1235  0.0586 -2.8944
 3456TIP3    H210312   5.031   2.300   6.641 -0.2894  0.6058  0.7512
 3457TIP3   OH210313   2.739   6.833   4.608  0.3417 -0.0263  0.1752
 3457TIP3    H110314   2.812   6.874   4.562  0.0663  0.6870  0.3463
 3457TIP3    H210315   2.668   6.833   4.545 -0.6173  2.6741  1.0820
 3458TIP3   OH210316   3.626   3.411   1.405 -0.5467  0.1608  0.0059
 3458TIP3    H110317   3.612   3.502   1.434 -1.4951  0.0815 -0.1794
 3458TIP3    H210318   3.548   3.390   1.354 -0.9212 -1.1706  1.0731
 3459TIP3   OH210319   0.219   2.437   0.988 -0.0029 -0.3146 -0.1874
 3459TIP3    H110320   0.302   2.478   1.009 -0.3337  0.1635  0.2207
 3459TIP3    H210321   0.234   2.393   0.904  0.6737 -0.2954 -0.0828
 3460TIP3   OH210322   1.225   3.955   3.962  0.2711  0.5250 -0.3187
 3460TIP3    H110323   1.274   3.950   4.045  1.0093 -1.1883 -0.8106
 3460TIP3    H210324   1.272   3.896   3.903 -1.9749 -0.6967 -1.0339
 3461TIP3   OH210325   7.252   6.363   5.205 -0.1184  0.1841  0.9309
 3461TIP3    H110326   7.159   6.378   5.222 -0.9247 -0.0156 -2.5553
 3461TIP3    H210327   7.261   6.268   5.202  0.1094  0.2070  0.8733
 3462TIP3   OH210328   5.922   3.228   0.389  0.3266 -0.2907  0.4965
 3462TIP3    H110329   5.857   3.265   0.449  1.6466 -1.2678  2.6634
 3462TIP3    H210330   5.988   3.297   0.380 -0.4011  0.2722 -0.7886
 3463TIP3   OH210331   4.496   4.829   2.672 -0.3714  0.3174 -0.1631
 3463TIP3    H110332   4.513   4.799   2.761 -1.3008 -0.9370 -0.3810
 3463TIP3    H210333   4.405   4.804   2.655 -0.1931  0.4827 -1.4805
 3464TIP3   OH210334   2.736   6.316   3.073  0.5837 -0.2365  0.1201
 3464TIP3    H110335   2.693   6.277   3.149  0.3710 -0.3968 -0.0784
 3464TIP3    H210336   2.795   6.247   3.041  0.4656 -0.2712 -0.0239
 3465TIP3   OH210337   0.645   4.393   3.818 -0.0604  0.0665  0.3439
 3465TIP3    H110338   0.676   4.363   3.732  0.0822  0.8015  0.1278
 3465TIP3    H210339   0.550   4.387   3.813 -0.0397 -0.1928  0.2461
 3466TIP3   OH210340   4.145   6.190   5.619  0.2819 -0.2697  0.1417
 3466TIP3    H110341   4.208   6.179   5.690  0.0061  0.7919  0.5723
 3466TIP3    H210342   4.067   6.226   5.661 -0.3321 -0.8088 -0.5084
 3467TIP3   OH210343   4.961   0.246   5.954  0.2093 -0.3667 -0.8024
 3467TIP3    H110344   5.046   0.232   5.913  0.9450 -0.5974  0.7539
 3467TIP3    H210345   4.968   0.331   5.997 -1.3916  1.0575 -3.1165
 3468TIP3   OH210346   6.010   6.777   0.474  0.1316  0.0057 -0.2595
 3468TIP3    H110347   5.987   6.806   0.563  0.0549 -0.1776 -0.2202
 3468TIP3    H210348   6.070   6.844   0.443  1.4942 -0.7863  0.5574
 3469TIP3   OH210349   6.584   3.644   0.038 -0.3965 -0.3107 -0.0393
 3469TIP3    H110350   6.665   3.594   0.030 -1.2179 -2.2084  2.2949
 3469TIP3    H210351   6.526   3.608  -0.029 -0.7004 -2.0355  1.0827
 3470TIP3   OH210352   7.469   0.250   2.604 -0.6434  0.4981  0.1766
 3470TIP3    H110353   7.502   0.236   2.515 -0.8333  0.7501  0.0660
 3470TIP3    H210354   7.375   0.259   2.594 -0.5513  1.7868  0.2391
 3471TIP3   OH210355   0.399   3.211   3.710 -0.2370 -0.6322 -0.3348
 3471TIP3    H110356   0.344   3.200   3.788  1.3766 -0.1385  0.9495
 3471TIP3    H210357   0.445   3.127   3.702 -0.7321 -0.8387 -1.0394
 3472TIP3   OH210358   1.840   7.441   4.841  0.4345 -0.5924 -0.1852
 3472TIP3    H110359   1.901   7.368   4.843 -0.8827 -1.7423  0.2922
 3472TIP3    H210360   1.756   7.403   4.869 -0.3174  1.0823 -0.0062
 3473TIP3   OH210361   7.456   6.650   0.965 -0.3476 -0.2637 -0.2168
 3473TIP3    H110362   7.503   6.620   0.887  0.4961  0.3994  0.0164
 3473TIP3    H210363   7.394   6.716   0.933  0.4751  0.5128 -0.2713
 3474TIP3   OH210364   3.669   5.370   0.370 -0.2856  0.8755 -0.0256
 3474TIP3    H110365   3.658   5.300   0.434  0.2683 -0.0758 -0.9526
 3474TIP3    H210366   3.586   5.419   0.373 -0.2826  0.8316  1.3691
 3475TIP3   OH210367   2.093   1.644   1.556 -0.0136  0.4773 -0.3885
 3475TIP3    H110368   2.094   1.715   1.620 -0.5905 -0.0959  0.2773
 3475TIP3    H210369   2.104   1.564   1.609  0.3547  0.0477 -1.0915
 3476TIP3   OH210370   0.306   2.446   1.918  0.4611 -0.2552  0.7087
 3476TIP3    H110371   0.221   2.452   1.876  0.0489 -0.1336  1.5419
 3476TIP3    H210372   0.289   2.462   2.011  1.0861 -2.0822  1.1984
 3477TIP3   OH210373   5.992   6.795   4.091  0.4290  0.0538 -0.3256
 3477TIP3    H110374   5.972   6.779   4.184  0.5957 -1.4149 -0.5160
 3477TIP3    H210375   5.917   6.843   4.058  0.4716  0.8088  0.6192
 3478TIP3   OH210376   2.413   1.290   4.313 -0.0596 -0.3277  0.4534
 3478TIP3    H110377   2.441   1.223   4.375 -0.3046 -0.1505  0.7581
 3478TIP3    H210378   2.319   1.300   4.329 -0.0134  0.1322  0.4546
 3479TIP3   OH210379   3.881   0.063   4.171  0.1155 -0.3346  0.3762
 3479TIP3    H110380   3.957   0.112   4.203  0.7083  0.5264 -2.1006
 3479TIP3    H210381   3.893   0.061   4.076 -1.1816 -3.2392  0.1923
 3480TIP3   OH210382   4.340   4.300   6.623 -0.2945 -0.5373  0.4398
 3480TIP3    H110383   4.352   4.382   6.671 -0.9305 -0.7239  0.9310
 3480TIP3    H210384   4.429   4.272   6.601  0.1432 -1.1300  2.6740
 3481TIP3   OH210385   0.373   7.493   3.621  0.2133 -0.2439 -0.7776
 3481TIP3    H110386   0.433   7.465   3.689  1.5316  2.7131 -0.5499
 3481TIP3    H210387   0.412   7.461   3.540  0.7751 -0.4155 -0.4464
 3482TIP3   OH210388   7.428   2.563   2.671 -0.3991 -0.1886  0.6198
 3482TIP3    H110389   7.518   2.540   2.695  0.0666  0.1275 -0.7245
 3482TIP3    H210390   7.425   2.658   2.677 -1.2883 -0.3047  2.7095
 3483TIP3   OH210391   0.310   1.007   6.127  0.2823 -0.1802 -0.1311
 3483TIP3    H110392   0.235   1.002   6.068 -0.0466 -1.6972  0.3590
 3483TIP3    H210393   0.349   0.920   6.124  1.2853  0.2217  0.5727
 3484TIP3   OH210394   2.994   4.233   2.681  0.0520 -0.1543 -0.1342
 3484TIP3    H110395   2.996   4.250   2.587 -1.1930 -0.8517 -0.2996
 3484TIP3    H210396   2.927   4.292   2.715  0.3260 -0.0797  0.2839
 3485TIP3   OH210397   2.415   4.113   5.803  0.4086 -0.2025  0.3154
 3485TIP3    H110398   2.334   4.101   5.752 -0.5756 -1.9889  2.1347
 3485TIP3    H210399   2.412   4.203   5.833 -0.3208  0.0943 -0.6012
 3486TIP3   OH210400   7.847   1.733   4.581  0.3999  0.2533 -0.3490
 3486TIP3    H110401   7.863   1.679   4.659 -0.6309 -0.0745 -0.3552
 3486TIP3    H210402   7.935   1.754   4.549  0.9300 -2.9355 -1.3921
 3487TIP3   OH210403   4.206   1.230   6.035 -0.5023 -0.5016 -0.1284
 3487TIP3    H110404   4.178   1.146   6.073 -0.2696 -1.1887 -1.4406
 3487TIP3    H210405   4.205   1.215   5.941 -0.0967  0.8719 -0.3640
 3488TIP3   OH210406   5.891   5.522   5.921 -0.5766 -0.0663 -0.3750
 3488TIP3    H110407   5.931   5.592   5.972 -0.9655  1.0076 -1.4952
 3488TIP3    H210408   5.912   5.442   5.969  3.6469  0.2622 -1.2196
 3489TIP3   OH210409   7.242   4.051   2.500  0.0505  0.5265  0.1547
 3489TIP3    H110410   7.297   4.126   2.479 -0.8785  1.5786  1.2905
 3489TIP3    H210411   7.296   3.975   2.480  0.9929  1.4774 -1.1015
 3490TIP3   OH210412   5.266   0.133   5.881 -0.2595 -0.2060  0.2015
 3490TIP3    H110413   5.329   0.205   5.884 -0.6833  0.3441 -1.9231
 3490TIP3    H210414   5.318   0.057   5.857 -0.0715 -0.2431  0.7172
 3491TIP3   OH210415   2.199   4.267   6.352 -0.2249  0.3352  0.8198
 3491TIP3    H110416   2.127   4.242   6.411  0.2772  0.7027  1.6059
 3491TIP3    H210417   2.278   4.237   6.396  0.1481  0.4207  0.2241
 3492TIP3   OH210418   2.612   3.282   5.145 -0.4378 -0.7465  0.4954
 3492TIP3    H110419   2.562   3.238   5.214 -0.8701 -1.0947 -0.0293
 3492TIP3    H210420   2.546   3.330   5.094 -0.0804 -0.2076  0.5297
 3493TIP3   OH210421   7.681   1.322   5.513 -0.3667  0.1634  0.0945
 3493TIP3    H110422   7.742   1.261   5.556 -1.2442  0.3057  1.6294
 3493TIP3    H210423   7.618   1.265   5.469  0.9081  0.0143 -1.6564
 3494TIP3   OH210424   2.447   0.112   4.400 -0.5669  0.3573  0.0490
 3494TIP3    H110425   2.356   0.104   4.373 -0.4411  1.3224 -0.7244
 3494TIP3    H210426   2.447   0.185   4.462 -0.4698 -0.2883  0.8209
 3495TIP3   OH210427   7.561   5.412   5.242  0.0788 -0.5687  0.9605
 3495TIP3    H110428   7.622   5.353   5.198 -2.4336 -0.2144 -3.5999
 3495TIP3    H210429   7.513   5.355   5.303  0.5096 -2.3207 -0.2618
 3496TIP3   OH210430   3.777   3.422   4.318  0.0147  0.2162  0.6328
 3496TIP3    H110431   3.713   3.470   4.265  0.2156  0.8788  0.9741
 3496TIP3    H210432   3.805   3.350   4.262  0.1722  0.8644 -0.1552
 3497TIP3   OH210433   6.104   5.348   6.054 -0.4452  0.1856  0.5615
 3497TIP3    H110434   6.049   5.271   6.069 -0.4048 -0.3387 -1.6667
 3497TIP3    H210435   6.185   5.313   6.016 -0.2847  1.2848 -0.1673
 3498TIP3   OH210436   6.571   1.741   1.608 -0.2378 -0.4059 -0.4138
 3498TIP3    H110437   6.622   1.690   1.545  0.6085  0.0001 -0.0666
 3498TIP3    H210438   6.584   1.695   1.692 -1.1826 -0.8210 -0.4828
 3499TIP3   OH210439   6.470   3.897  -0.014 -0.0186 -0.8343  0.2257
 3499TIP3    H110440   6.480   3.973   0.043 -0.1583 -1.1013  0.6119
 3499TIP3    H210441   6.527   3.830   0.025 -0.2383 -1.0712  0.1429
 3500TIP3   OH210442   0.246   4.519   4.028  0.0523  0.4367 -0.3311
 3500TIP3    H110443   0.270   4.434   4.064 -0.4213  0.9606  1.3073
 3500TIP3    H210444   0.325   4.550   3.985  0.2820 -0.7312 -0.7998
 3501TIP3   OH210445   3.509   2.537   5.208  0.1229 -0.5087 -0.2771
 3501TIP3    H110446   3.420   2.513   5.233  0.5763 -1.3372  0.6423
 3501TIP3    H210447   3.520   2.626   5.242  0.1786 -1.0149  1.1204
 3502TIP3   OH210448   5.013   5.461   4.614  0.1187  0.1393 -0.0701
 3502TIP3    H110449   5.083   5.527   4.614  0.6604 -0.4092  0.9676
 3502TIP3    H210450   5.033   5.406   4.537  2.3613 -1.5103  1.5389
 3503TIP3   OH210451   1.916   5.315   1.602  0.0070 -0.4255  0.0913
 3503TIP3    H110452   1.920   5.393   1.546  0.6412  0.7718  1.7243
 3503TIP3    H210453   1.940   5.243   1.544  0.9311  0.8064 -1.1218
 3504TIP3   OH210454   5.014   4.519   0.316 -0.6867 -0.0962 -0.1598
 3504TIP3    H110455   5.064   4.445   0.349 -1.6184 -0.4207  0.5964
 3504TIP3    H210456   5.011   4.506   0.221  1.1732  0.2957 -0.3126
 3505TIP3   OH210457   1.265   1.448   6.069  0.3040  0.7212 -0.0540
 3505TIP3    H110458   1.236   1.362   6.038 -1.4000  1.6801 -1.2525
 3505TIP3    H210459   1.350   1.461   6.026 -0.0642  0.2155 -0.9738
 3506TIP3   OH210460   4.308   5.962   2.348  0.3281  0.0868  0.2469
 3506TIP3    H110461   4.368   5.890   2.325 -2.8352 -2.3333 -1.2609
 3506TIP3    H210462   4.280   5.998   2.264 -1.2887  0.2205  0.8048
 3507TIP3   OH210463   7.705   4.261   6.456  0.0370 -0.7740  0.1249
 3507TIP3    H110464   7.664   4.228   6.377 -0.4938 -0.3916  0.2361
 3507TIP3    H210465   7.633   4.298   6.507  0.4986 -0.1594  0.3535
 3508TIP3   OH210466   1.885   3.393   5.292 -0.4564 -0.0011  0.4459
 3508TIP3    H110467   1.952   3.390   5.224  0.9581  0.8513  1.7475
 3508TIP3    H210468   1.847   3.305   5.292  1.1630 -0.7299  0.1710
 3509TIP3   OH210469   7.058   1.576   5.737  0.0644 -0.5861  0.0255
 3509TIP3    H110470   7.089   1.486   5.733  1.5297 -0.0842 -3.5987
 3509TIP3    H210471   7.133   1.629   5.710 -0.8438  1.7402  1.7101
 3510TIP3   OH210472   1.509   4.522   4.360 -0.7698  0.2631 -0.1962
 3510TIP3    H110473   1.457   4.579   4.417 -2.2381  0.0415 -1.2578
 3510TIP3    H210474   1.594   4.517   4.403 -1.6234  0.6016  1.6348
 3511TIP3   OH210475   8.112   7.639   6.288  0.1173  0.3016 -0.3638
 3511TIP3    H110476   8.178   7.700   6.322  0.2500  0.4349 -0.8516
 3511TIP3    H210477   8.041   7.696   6.259 -1.1073  0.0827  1.9637
 3512TIP3   OH210478   6.732   7.272   6.476  0.6722  0.2519  0.1139
 3512TIP3    H110479   6.708   7.179   6.484  0.3368  0.4121  1.1172
 3512TIP3    H210480   6.730   7.289   6.382 -0.0925 -0.5467 -0.0277
 3513TIP3   OH210481   1.523   2.461   5.039 -0.8017  0.3358  0.4201
 3513TIP3    H110482   1.565   2.446   4.954 -0.2474  1.5086  0.4547
 3513TIP3    H210483   1.570   2.403   5.099 -0.4967  0.2537  0.1084
 3514TIP3   OH210484   4.546   3.909   1.446 -0.5370 -0.0714 -0.0115
 3514TIP3    H110485   4.474   3.862   1.487 -1.6178  1.3931 -0.1887
 3514TIP3    H210486   4.562   3.985   1.502  0.5743 -0.1264 -0.2173
 3515TIP3   OH210487   3.958   5.921   5.870 -0.5804 -0.2638  0.1583
 3515TIP3    H110488   4.041   5.877   5.852 -1.2322 -0.8973 -1.5141
 3515TIP3    H210489   3.941   5.903   5.962  1.6248  0.7694  0.8483
 3516TIP3   OH210490   1.530   3.655   1.996 -0.1788 -0.5947 -0.2147
 3516TIP3    H110491   1.506   3.727   2.054  1.8594 -0.7432  0.8864
 3516TIP3    H210492   1.474   3.582   2.024  0.7249 -0.6462  1.5643
 3517TIP3   OH210493   2.935   7.744   5.078 -0.0235  0.1587 -0.0572
 3517TIP3    H110494   2.868   7.681   5.051 -1.1708  1.0204  0.6657
 3517TIP3    H210495   3.011   7.690   5.101 -0.0452 -0.7702 -2.0039
 3518TIP3   OH210496   5.484   5.935   1.092 -0.0506  0.0788  0.0074
 3518TIP3    H110497   5.537   5.915   1.015  1.0129  0.0174  0.7430
 3518TIP3    H210498   5.512   5.871   1.158 -3.7802 -2.6461 -0.7368
 3519TIP3   OH210499   6.971   2.867   4.887 -0.2264 -0.3029 -0.0384
 3519TIP3    H110500   6.915   2.810   4.941 -0.6369  0.4100  0.3022
 3519TIP3    H210501   6.998   2.937   4.947  0.2030 -0.0916 -0.4780
 3520TIP3   OH210502   1.066   1.347   4.904 -0.3850  0.0313 -0.1668
 3520TIP3    H110503   1.111   1.420   4.947 -0.0669 -0.6161  0.6234
 3520TIP3    H210504   1.120   1.271   4.923 -1.2382 -0.5820 -0.1392
 3521TIP3   OH210505   0.330   3.912   2.286 -0.7359 -0.9538 -0.0897
 3521TIP3    H110506   0.418   3.947   2.279 -1.3478  0.6719  0.0231
 3521TIP3    H210507   0.340   3.819   2.265  1.0355 -0.8674  0.2027
 3522TIP3   OH210508   4.345   1.443   1.154 -0.0816  0.0942  0.1562
 3522TIP3    H110509   4.342   1.526   1.106 -1.6481  0.3725  0.6591
 3522TIP3    H210510   4.434   1.410   1.140  0.7676  2.1320  0.4116
 3523TIP3   OH210511   0.641   2.603   1.655  0.5464 -0.7069 -0.1200
 3523TIP3    H110512   0.569   2.612   1.718  1.0301 -0.0616  0.3591
 3523TIP3    H210513   0.658   2.509   1.651 -0.8631 -0.9664 -0.8761
 3524TIP3   OH210514   5.923   4.668   2.263  0.4053  0.0774  0.9701
 3524TIP3    H110515   5.873   4.587   2.261  0.4282  0.0641  0.9494
 3524TIP3    H210516   5.886   4.717   2.337  0.5419 -0.0467  1.1189
 3525TIP3   OH210517   0.043   2.749   4.624  0.4639 -0.0737  0.1605
 3525TIP3    H110518   0.065   2.787   4.538 -0.8040  1.2024  0.3497
 3525TIP3    H210519   0.093   2.802   4.686 -1.1327  1.2349  0.4097
 3526TIP3   OH210520   6.967   3.637   1.549  0.5167  0.3958  0.1262
 3526TIP3    H110521   7.056   3.643   1.584  0.6416 -1.2250  0.1459
 3526TIP3    H210522   6.968   3.560   1.492 -1.0022  0.0438  0.5194
 3527TIP3   OH210523   0.373   5.584   2.114 -0.1671  0.3198 -0.1255
 3527TIP3    H110524   0.353   5.510   2.057 -0.0356 -1.5653  2.1263
 3527TIP3    H210525   0.291   5.632   2.122 -0.7579 -0.6731 -0.1284
 3528TIP3   OH210526   3.715   3.210   5.716 -0.1518  0.1582  0.0176
 3528TIP3    H110527   3.697   3.279   5.651 -0.1626  0.8859  0.7778
 3528TIP3    H210528   3.801   3.233   5.752 -1.0110  0.9438  1.6972
 3529TIP3   OH210529   4.793   4.198   4.355 -0.3570  0.8863  0.0309
 3529TIP3    H110530   4.832   4.233   4.435  0.7455  0.6082 -0.3636
 3529TIP3    H210531   4.839   4.244   4.284 -1.2182  1.0300 -0.4402
 3530TIP3   OH210532   8.132   2.022   5.227  0.7119  0.3051 -0.3440
 3530TIP3    H110533   8.179   1.971   5.161 -0.2114 -0.2248 -0.6073
 3530TIP3    H210534   8.061   1.964   5.256  0.5395  0.8917  0.4276
 3531TIP3   OH210535   4.115   2.011   4.411  0.6361 -0.1620  0.1207
 3531TIP3    H110536   4.062   1.980   4.338  0.1771  1.8380 -0.4420
 3531TIP3    H210537   4.078   2.096   4.433  2.6100  0.5689  0.7824
 3532TIP3   OH210538   6.662   6.884   1.309 -0.2027 -0.7939  0.3037
 3532TIP3    H110539   6.638   6.915   1.396  1.5157  0.0726  0.5095
 3532TIP3    H210540   6.757   6.879   1.311  0.0105  0.7935 -2.0024
 3533TIP3   OH210541   5.709   4.531   4.496  0.4791  0.1176 -0.2572
 3533TIP3    H110542   5.656   4.468   4.445 -0.4145  1.4930 -1.0907
 3533TIP3    H210543   5.730   4.600   4.433  0.8716  0.9860  0.8095
 3534TIP3   OH210544   7.244   5.186   0.865 -0.3686 -0.2257  0.4562
 3534TIP3    H110545   7.207   5.215   0.949 -0.3634 -0.3858  0.5142
 3534TIP3    H210546   7.283   5.265   0.827 -1.0979  0.0316  0.2201
 3535TIP3   OH210547   7.334   7.002   2.788 -0.5556 -0.3711 -0.0836
 3535TIP3    H110548   7.375   6.972   2.707 -1.6628  1.1176 -1.2472
 3535TIP3    H210549   7.264   6.939   2.803 -1.9014  0.6598 -1.6739
 3536TIP3   OH210550   3.462   3.509   4.776 -0.2583 -0.1522 -0.2507
 3536TIP3    H110551   3.460   3.461   4.694  1.5481 -0.2948 -0.2391
 3536TIP3    H210552   3.419   3.593   4.756 -1.2697 -0.7909 -0.8844
 3537TIP3   OH210553   7.489   3.646   3.126  0.0794  0.3943 -0.0148
 3537TIP3    H110554   7.423   3.650   3.195 -0.0158  2.3389 -0.1608
 3537TIP3    H210555   7.544   3.723   3.141  0.9348  0.0553 -1.2507
 3538TIP3   OH210556   6.893   3.089   4.737  0.3451 -0.1951  0.8883
 3538TIP3    H110557   6.846   3.080   4.654  0.4822 -0.2485  0.8168
 3538TIP3    H210558   6.961   3.022   4.734  1.4811  0.9456  0.2816
 3539TIP3   OH210559   0.151   5.803   1.078  0.1626 -0.3895  0.4650
 3539TIP3    H110560   0.235   5.798   1.031  0.5447 -2.8158  1.2345
 3539TIP3    H210561   0.176   5.803   1.171 -0.6681 -0.8681  0.6956
 3540TIP3   OH210562   2.188   4.197   2.624  0.1118  0.4934  0.3001
 3540TIP3    H110563   2.136   4.121   2.600  0.8451  0.4397 -1.2283
 3540TIP3    H210564   2.147   4.230   2.704 -0.7869 -0.9395  0.4592
 3541TIP3   OH210565   3.440   1.440   5.143  0.1515  0.5960 -0.0346
 3541TIP3    H110566   3.490   1.403   5.216  0.0070  1.0285  0.2868
 3541TIP3    H210567   3.418   1.528   5.172 -0.2867  0.6135 -0.4220
 3542TIP3   OH210568   4.650   0.595   2.936  0.0186 -0.1867  0.4920
 3542TIP3    H110569   4.713   0.608   2.865 -0.6705  0.3811 -0.0160
 3542TIP3    H210570   4.568   0.574   2.893 -0.7817  1.6240  1.0316
 3543TIP3   OH210571   0.438   6.353   4.626 -0.3855  0.0877  0.1268
 3543TIP3    H110572   0.435   6.433   4.572  0.4007  0.9402  1.2884
 3543TIP3    H210573   0.441   6.386   4.716 -1.4167 -1.3009  0.7004
 3544TIP3   OH210574   6.053   3.535   1.585 -0.0610  0.2639 -0.0859
 3544TIP3    H110575   6.045   3.460   1.527  0.1414  0.7938 -0.8150
 3544TIP3    H210576   6.108   3.504   1.656 -1.1734 -0.7117  0.3894
 3545TIP3   OH210577   2.191   4.206   1.505  0.4204 -0.0661  0.0138
 3545TIP3    H110578   2.215   4.235   1.593  0.8162 -1.9930  0.5922
 3545TIP3    H210579   2.192   4.111   1.510  0.6528 -0.2357 -2.1427
 3546TIP3   OH210580   7.424   2.592   5.877  0.1912  0.0165 -0.2356
 3546TIP3    H110581   7.402   2.538   5.801  0.9283 -0.2654 -0.2523
 3546TIP3    H210582   7.421   2.682   5.844  1.6547 -0.1593 -0.8998
 3547TIP3   OH210583   5.012   3.174   1.762 -0.1572  0.0785 -0.2811
 3547TIP3    H110584   5.063   3.237   1.814  0.1731  0.1945 -0.7366
 3547TIP3    H210585   4.973   3.227   1.692  0.9307 -0.3708 -1.2570
 3548TIP3   OH210586   2.083   7.713   1.362 -0.4987 -0.5619  0.1682
 3548TIP3    H110587   2.171   7.686   1.334  0.1916  0.2767  1.4108
 3548TIP3    H210588   2.067   7.662   1.442 -1.1358 -0.6769 -0.0241
 3549TIP3   OH210589   6.793   5.746   4.970 -0.2550  0.4078  0.0858
 3549TIP3    H110590   6.859   5.782   4.911 -0.4816  2.4221  0.9677
 3549TIP3    H210591   6.836   5.670   5.010  0.0228 -0.8024 -2.3106
 3550TIP3   OH210592   4.847   0.945   3.947  0.3915 -0.0433  0.3426
 3550TIP3    H110593   4.877   0.929   3.858 -2.1763 -0.4266 -0.5356
 3550TIP3    H210594   4.834   0.858   3.985  0.9627  0.1124  0.9125
 3551TIP3   OH210595   2.491   5.109   4.135  0.1808 -0.1565  0.3102
 3551TIP3    H110596   2.399   5.086   4.147  0.2595 -0.8666 -0.3280
 3551TIP3    H210597   2.505   5.102   4.040  0.4893  1.5229  0.2036
 3552TIP3   OH210598   1.314   2.177   0.661  0.3354  0.0199  0.0978
 3552TIP3    H110599   1.272   2.232   0.727 -0.2115 -0.1976 -0.0626
 3552TIP3    H210600   1.243   2.123   0.626  0.6225  0.1258 -0.6660
 3553TIP3   OH210601   7.933   2.878   5.953 -0.4398 -0.1634 -0.2917
 3553TIP3    H110602   8.025   2.900   5.936 -0.9440  0.9288 -1.9317
 3553TIP3    H210603   7.898   2.852   5.867 -1.2474 -2.3095  0.6303
 3554TIP3   OH210604   4.825   6.827   5.224 -0.2569 -0.0770 -0.1185
 3554TIP3    H110605   4.807   6.747   5.175 -1.3250  0.2564 -0.2902
 3554TIP3    H210606   4.804   6.804   5.315 -0.9591  0.1204 -0.2261
 3555TIP3   OH210607   1.865   6.603   0.282  0.3157 -0.3418 -0.2170
 3555TIP3    H110608   1.934   6.668   0.269 -0.1370  0.0835 -0.4742
 3555TIP3    H210609   1.850   6.566   0.195 -0.4121  0.1996 -0.3243
 3556TIP3   OH210610   1.172   5.786   5.648 -0.6147  0.1636 -0.1080
 3556TIP3    H110611   1.208   5.698   5.636 -0.4457  0.1728  0.3073
 3556TIP3    H210612   1.078   5.773   5.657 -0.7187  0.1332 -1.1462
 3557TIP3   OH210613   0.737   0.841   3.652 -0.0039 -0.1246 -0.6341
 3557TIP3    H110614   0.755   0.807   3.739  0.6119 -0.5947 -0.9375
 3557TIP3    H210615   0.743   0.936   3.661 -0.1840 -0.1589 -0.1207
 3558TIP3   OH210616   1.818   3.303   6.099  0.1885  0.4260  0.3896
 3558TIP3    H110617   1.829   3.268   6.187  0.6244 -2.1468 -0.6158
 3558TIP3    H210618   1.906   3.307   6.062 -0.2384 -1.8306 -1.0587
 3559TIP3   OH210619   6.940   4.801   0.141 -0.4040 -0.1118 -0.0201
 3559TIP3    H110620   6.991   4.766   0.068  0.2327  0.0038  0.3572
 3559TIP3    H210621   6.857   4.755   0.137  0.1019 -1.0359 -0.0467
 3560TIP3   OH210622   1.590   7.107   1.677  0.0938 -0.0902 -0.4166
 3560TIP3    H110623   1.601   7.027   1.729 -3.1698 -0.9225 -0.7800
 3560TIP3    H210624   1.645   7.172   1.722 -1.2208 -1.1679  3.1633
 3561TIP3   OH210625   4.400   0.982   1.243 -0.2984 -0.0768 -0.0809
 3561TIP3    H110626   4.415   0.924   1.169  0.8382 -0.6520  0.5693
 3561TIP3    H210627   4.347   0.930   1.304 -0.0722 -0.0953  0.1000
 3562TIP3   OH210628   3.352   6.820   2.098  0.0342 -0.2172  0.3623
 3562TIP3    H110629   3.353   6.894   2.038  0.7892  0.4568  1.1880
 3562TIP3    H210630   3.401   6.751   2.053  2.4221  0.9700  1.0282
 3563TIP3   OH210631   2.968   3.846   2.091  0.0089 -0.0386  0.0755
 3563TIP3    H110632   2.889   3.896   2.073 -0.1797 -0.4801 -0.3455
 3563TIP3    H210633   2.988   3.803   2.008 -0.8212 -2.0339  0.8499
 3564TIP3   OH210634   0.794   1.555   0.035  0.6569  0.5608 -0.2194
 3564TIP3    H110635   0.821   1.479   0.087  2.2456  0.5002 -1.0701
 3564TIP3    H210636   0.830   1.538  -0.051 -2.0208  0.5950 -1.4589
 3565TIP3   OH210637   8.036   1.030   3.315  0.0388 -0.0730 -0.0973
 3565TIP3    H110638   8.091   1.011   3.239 -1.7356  0.2379 -1.5108
 3565TIP3    H210639   8.048   1.124   3.330 -0.0368 -0.0224 -0.3473
 3566TIP3   OH210640   0.472   1.157   1.357  0.1451 -0.5152 -0.0721
 3566TIP3    H110641   0.544   1.186   1.414  0.1968  0.8131 -0.7548
 3566TIP3    H210642   0.445   1.237   1.312 -0.6763 -1.3142 -1.0344
 3567TIP3   OH210643   3.149   3.285   3.589 -0.2105 -0.2154 -0.2784
 3567TIP3    H110644   3.208   3.359   3.577 -0.4668  0.0736  0.1976
 3567TIP3    H210645   3.177   3.221   3.525  1.1477 -0.4162  0.4808
 3568TIP3   OH210646   7.772   4.948   1.986  0.2915 -0.5218 -0.1551
 3568TIP3    H110647   7.823   4.896   2.048  1.9812  0.3923 -0.7273
 3568TIP3    H210648   7.701   4.890   1.959  1.2694 -2.0010  0.3442
 3569TIP3   OH210649   5.346   5.877   2.257 -0.4088 -0.2409  0.1094
 3569TIP3    H110650   5.271   5.861   2.315 -1.2380 -4.0362 -1.6775
 3569TIP3    H210651   5.420   5.836   2.301 -0.5239 -0.9770 -0.3598
 3570TIP3   OH210652   0.385   5.343   5.253  0.0348 -0.4156  0.1403
 3570TIP3    H110653   0.474   5.347   5.219  0.4991 -1.0798  1.2265
 3570TIP3    H210654   0.380   5.415   5.316 -0.6228  0.4161 -0.8157
 3571TIP3   OH210655   0.395   7.184   6.047  0.2802 -0.0674 -0.6401
 3571TIP3    H110656   0.463   7.127   6.084 -0.0891  0.5207  1.0485
 3571TIP3    H210657   0.365   7.236   6.121 -0.6779  1.0442 -1.7629
 3572TIP3   OH210658   7.596   4.663   4.019 -0.0595  0.0509 -0.2317
 3572TIP3    H110659   7.621   4.705   4.101  2.7660 -1.5007 -0.1807
 3572TIP3    H210660   7.567   4.575   4.045  0.9523 -0.4894 -0.8486
 3573TIP3   OH210661   0.760   7.293   4.627  0.1772 -0.0804  0.9617
 3573TIP3    H110662   0.715   7.349   4.563  0.3835 -0.9353  0.0400
 3573TIP3    H210663   0.694   7.228   4.652  0.2662 -0.0808  1.1972
 3574TIP3   OH210664   2.057   2.755   2.198 -0.5628 -0.1530  0.0079
 3574TIP3    H110665   1.994   2.687   2.173  0.7080 -1.3198 -0.1525
 3574TIP3    H210666   2.003   2.826   2.232 -1.9464 -1.3613  0.4661
 3575TIP3   OH210667   0.366   2.067   0.525  0.6030 -0.0082 -0.1451
 3575TIP3    H110668   0.393   2.121   0.599  1.0428 -0.0392 -0.2824
 3575TIP3    H210669   0.402   2.111   0.448  1.9581 -1.0864 -0.1741
 3576TIP3   OH210670   0.612   4.719   2.567  0.0962 -0.2915 -0.1757
 3576TIP3    H110671   0.592   4.714   2.661 -1.7745 -2.3786 -0.5980
 3576TIP3    H210672   0.695   4.672   2.558  0.5139  0.3019  0.4637
 3577TIP3   OH210673   8.127   7.404   0.470 -0.4687  0.9607 -0.3398
 3577TIP3    H110674   8.095   7.393   0.380 -2.4991 -1.9066  0.6006
 3577TIP3    H210675   8.059   7.365   0.525  2.3131 -0.7494  2.2216
 3578TIP3   OH210676   1.020   3.957   4.478  0.2677 -0.1358  0.4035
 3578TIP3    H110677   1.021   3.881   4.537  0.6566 -0.6078 -0.1984
 3578TIP3    H210678   1.113   3.976   4.464  0.2332  2.1430  2.6755
 3579TIP3   OH210679   6.476   7.386   3.013  0.5476 -0.6776 -0.4824
 3579TIP3    H110680   6.409   7.430   2.960  0.5729  0.9970  0.8223
 3579TIP3    H210681   6.426   7.322   3.065  0.3577 -1.3846 -1.4860
 3580TIP3   OH210682   0.229   7.706   1.854 -0.0375  0.0361 -0.1814
 3580TIP3    H110683   0.250   7.672   1.941 -0.4416  0.6534  0.1621
 3580TIP3    H210684   0.222   7.628   1.799  0.0959 -0.3684  0.3676
 3581TIP3   OH210685   1.364   6.386   4.467  0.0819  0.1384  0.0325
 3581TIP3    H110686   1.411   6.307   4.495 -0.3966  0.6675  2.4780
 3581TIP3    H210687   1.274   6.357   4.454 -0.0558  0.2394  0.7524
 3582TIP3   OH210688   2.145   7.372   6.051 -0.5372  0.0063 -0.4054
 3582TIP3    H110689   2.087   7.295   6.054 -0.8248  0.2515  0.5858
 3582TIP3    H210690   2.158   7.388   5.957 -1.1120 -0.7739 -0.6311
 3583TIP3   OH210691   5.634   3.802   4.674 -0.4195  0.3421  0.2514
 3583TIP3    H110692   5.684   3.853   4.611 -3.3135  0.4299 -2.1875
 3583TIP3    H210693   5.634   3.856   4.753  1.8105  1.0867 -0.1871
 3584TIP3   OH210694   6.117   3.562   4.368  0.1283  0.1285 -0.0100
 3584TIP3    H110695   6.145   3.471   4.362  0.5852  0.2306  0.5076
 3584TIP3    H210696   6.197   3.612   4.384 -0.3710  0.3462  2.2091
 3585TIP3   OH210697   7.141   5.404   5.510 -0.1055  0.5589 -0.3645
 3585TIP3    H110698   7.153   5.498   5.506  0.6404  0.4927  0.0134
 3585TIP3    H210699   7.146   5.374   5.420  1.1432  0.7251 -0.3664
 3586TIP3   OH210700   2.956   1.176   5.745 -0.0063 -0.4591  0.2307
 3586TIP3    H110701   2.909   1.223   5.677 -0.1433 -0.3265  0.4156
 3586TIP3    H210702   3.047   1.176   5.716  0.0003 -0.0516  0.2445
 3587TIP3   OH210703   7.929   1.140   0.833 -0.3084  0.2834 -0.3209
 3587TIP3    H110704   7.873   1.179   0.900 -1.0295 -0.3183 -0.5596
 3587TIP3    H210705   8.013   1.125   0.877 -0.7348  0.0105  0.4144
 3588TIP3   OH210706   3.294   6.053   3.447 -0.1037 -0.4750 -0.3898
 3588TIP3    H110707   3.298   6.065   3.352 -0.6948 -1.9119 -0.6179
 3588TIP3    H210708   3.384   6.066   3.477  0.0673  0.1062 -1.1142
 3589TIP3   OH210709   7.709   7.372   2.814 -0.0434 -0.6040 -0.2541
 3589TIP3    H110710   7.779   7.414   2.864  0.7292 -1.3658 -0.6706
 3589TIP3    H210711   7.723   7.279   2.827 -1.1277 -0.7637 -0.1636
 3590TIP3   OH210712   3.695   6.986   5.644 -0.3785  0.1824 -0.0623
 3590TIP3    H110713   3.752   6.913   5.665 -1.2922 -0.5815 -0.1464
 3590TIP3    H210714   3.690   7.038   5.724 -0.3450 -0.2803  0.2378
 3591TIP3   OH210715   2.053   5.513   1.406  0.3984  0.4365  0.0023
 3591TIP3    H110716   1.977   5.560   1.441  1.7242  1.5498  1.5263
 3591TIP3    H210717   2.076   5.562   1.327 -3.0333 -2.4965 -3.1856
 3592TIP3   OH210718   7.739   6.335   4.905 -0.3055 -0.5386 -0.3316
 3592TIP3    H110719   7.750   6.269   4.973 -1.2877 -0.6987 -0.3204
 3592TIP3    H210720   7.652   6.372   4.921 -0.3068 -0.1727 -1.1548
 3593TIP3   OH210721   5.886   1.484   1.709  0.0585 -0.8263  0.3337
 3593TIP3    H110722   5.904   1.401   1.666  2.2749 -0.0654 -0.3052
 3593TIP3    H210723   5.885   1.462   1.803  1.5271 -1.4416  0.2273
 3594TIP3   OH210724   1.818   4.068   5.964  0.8174  0.0763 -0.1043
 3594TIP3    H110725   1.884   4.047   5.898  0.6277 -0.4327 -0.1335
 3594TIP3    H210726   1.863   4.127   6.024  0.8619  0.8875 -0.9175
 3595TIP3   OH210727   0.599   5.441   3.178 -0.1850 -0.3167  1.1506
 3595TIP3    H110728   0.644   5.480   3.254  0.0427  0.5471  0.5899
 3595TIP3    H210729   0.670   5.407   3.124 -0.2786 -0.0335  0.8466
 3596TIP3   OH210730   4.977   5.360   1.444  0.4908  0.4271  0.0384
 3596TIP3    H110731   4.895   5.346   1.491  0.8298  0.3830  0.6282
 3596TIP3    H210732   4.978   5.454   1.425 -0.4921  0.1611 -1.4918
 3597TIP3   OH210733   6.052   0.046   0.128  0.1935 -0.1381 -0.0455
 3597TIP3    H110734   6.113   0.036   0.055  0.1834  0.0228 -0.0760
 3597TIP3    H210735   5.966   0.040   0.088  0.1528 -2.1079  0.2136
 3598TIP3   OH210736   2.652   7.014   4.220 -0.0471 -0.1990 -0.2528
 3598TIP3    H110737   2.718   7.054   4.276 -1.2339  0.0319  1.0487
 3598TIP3    H210738   2.677   7.039   4.131  1.7717 -0.4013  0.1837
 3599TIP3   OH210739   8.097   7.355   4.242 -0.3250  0.1205  0.2852
 3599TIP3    H110740   8.017   7.405   4.227 -0.8144 -0.2453  1.5232
 3599TIP3    H210741   8.098   7.289   4.173 -0.2140  1.1541 -0.7320
 3600TIP3   OH210742   0.631   4.869   5.458  0.2461 -0.2922 -0.6537
 3600TIP3    H110743   0.717   4.907   5.475  0.5252 -0.8521 -0.8126
 3600TIP3    H210744   0.576   4.902   5.529  1.2389 -2.0865  1.0525
 3601TIP3   OH210745   2.700   5.384   2.380 -0.2444 -0.4633 -0.1699
 3601TIP3    H110746   2.641   5.382   2.305  0.6705 -0.1676 -0.9156
 3601TIP3    H210747   2.732   5.475   2.383 -0.5963 -0.3513  0.8495
 3602TIP3   OH210748   6.786   5.928   0.373  0.1706  0.1342  0.0088
 3602TIP3    H110749   6.793   6.016   0.410  0.6030  0.0759  0.0748
 3602TIP3    H210750   6.701   5.927   0.328 -1.3764 -0.4530  2.7288
 3603TIP3   OH210751   6.013   0.604   4.382  0.4173  0.5586  0.0748
 3603TIP3    H110752   6.006   0.517   4.345  1.5483  0.4810  0.0019
 3603TIP3    H210753   5.926   0.642   4.373 -0.0182 -0.4687 -0.1137
 3604TIP3   OH210754   7.122   2.604   5.013  0.8274  0.6035 -0.0325
 3604TIP3    H110755   7.083   2.650   4.939 -1.1409 -1.1704 -0.1953
 3604TIP3    H210756   7.142   2.517   4.978  0.8399  0.0799  1.2479
 3605TIP3   OH210757   3.217   0.880   1.822  0.0557  0.6409 -0.0376
 3605TIP3    H110758   3.184   0.825   1.893 -0.0207 -1.0076 -1.2799
 3605TIP3    H210759   3.312   0.878   1.832  0.2304 -1.7364 -1.3902
 3606TIP3   OH210760   6.704   1.580   1.811 -0.2280 -0.1740 -0.1862
 3606TIP3    H110761   6.788   1.535   1.821  0.3275  0.7816 -0.4580
 3606TIP3    H210762   6.721   1.670   1.840 -0.9015  0.2856 -1.1616
 3607TIP3   OH210763   2.033   0.882   0.751 -0.0032  0.2885 -0.4992
 3607TIP3    H110764   2.089   0.885   0.674 -1.1712  3.1284 -1.3671
 3607TIP3    H210765   1.945   0.895   0.718 -0.7404 -0.0840  1.1941
 3608TIP3   OH210766   8.032   6.413   1.678 -0.0896  0.4220  0.1422
 3608TIP3    H110767   7.997   6.325   1.661  0.3146  0.0266  1.2608
 3608TIP3    H210768   7.995   6.438   1.763  0.8936  0.7470  0.4863
 3609TIP3   OH210769   0.145   0.182   3.045 -0.3011 -0.1146  0.3210
 3609TIP3    H110770   0.160   0.234   3.124 -0.9943  0.5622  0.0216
 3609TIP3    H210771   0.072   0.125   3.067  1.6363 -2.4070  1.3019
 3610TIP3   OH210772   7.543   2.040   0.157 -0.2233 -0.1780 -0.3595
 3610TIP3    H110773   7.576   2.086   0.080  0.8962 -0.9142 -0.3408
 3610TIP3    H210774   7.538   2.107   0.225  2.1093 -0.1552 -0.1131
 3611TIP3   OH210775   4.126   3.864   3.900 -0.0349 -0.2350 -0.0029
 3611TIP3    H110776   4.142   3.957   3.917  1.3543 -0.4676  0.0577
 3611TIP3    H210777   4.048   3.864   3.845  0.5806  1.0542 -0.9446
 3612TIP3   OH210778   1.320   2.553   1.819 -0.3940 -0.2597 -0.1618
 3612TIP3    H110779   1.374   2.484   1.857  2.1083  1.4917 -0.2745
 3612TIP3    H210780   1.373   2.588   1.747 -1.8344  1.3794 -0.5040
 3613TIP3   OH210781   1.404   6.472   4.201 -0.3437  0.3199 -0.3780
 3613TIP3    H110782   1.366   6.442   4.283  1.6843  0.7637  0.7743
 3613TIP3    H210783   1.498   6.473   4.216  0.1054  0.4277 -2.7202
 3614TIP3   OH210784   1.908   0.451   1.469  0.5708  0.3518 -0.0172
 3614TIP3    H110785   1.895   0.420   1.380 -0.8164  0.3813  0.1445
 3614TIP3    H210786   1.850   0.528   1.476 -0.2327 -0.3259  1.2279
 3615TIP3   OH210787   7.995   7.082   1.135  0.0495  0.2410  0.4892
 3615TIP3    H110788   7.931   7.039   1.078  0.1411 -2.7694  2.4398
 3615TIP3    H210789   7.942   7.131   1.199 -0.1991  0.0617  0.4193
 3616TIP3   OH210790   1.034   3.008   5.594  0.2319  0.3892  0.2410
 3616TIP3    H110791   1.118   2.975   5.561  0.1400  0.3121  0.0849
 3616TIP3    H210792   0.968   2.957   5.548  0.0942  0.6090  0.1933
 3617TIP3   OH210793   5.314   1.610   4.523  0.2268  0.3974  0.2749
 3617TIP3    H110794   5.251   1.658   4.469  1.1536  0.8426 -0.4502
 3617TIP3    H210795   5.365   1.678   4.568  0.4825  0.0621  0.5008
 3618TIP3   OH210796   5.905   5.500   6.414  0.0792 -0.0352  0.2364
 3618TIP3    H110797   5.893   5.518   6.507 -1.5268 -3.0441  0.7510
 3618TIP3    H210798   5.817   5.501   6.377  0.5786 -0.0155 -1.0161
 3619TIP3   OH210799   4.906   4.722   3.479  0.3049 -0.3664 -0.0346
 3619TIP3    H110800   4.823   4.697   3.520  0.0426  2.4733  1.4270
 3619TIP3    H210801   4.973   4.674   3.528 -0.3522 -1.3702 -0.0995
 3620TIP3   OH210802   6.831   4.658   0.376  0.5578  0.0342 -0.0408
 3620TIP3    H110803   6.779   4.595   0.326 -1.0791  0.8640  0.5718
 3620TIP3    H210804   6.811   4.639   0.468 -0.0150  1.4794  0.1466
 3621TIP3   OH210805   0.393   6.518   5.208 -0.2215 -0.5135  0.4096
 3621TIP3    H110806   0.466   6.573   5.180 -0.1822 -1.8031 -2.4430
 3621TIP3    H210807   0.434   6.442   5.249 -0.1898  0.4808  2.3131
 3622TIP3   OH210808   1.143   7.563   2.175  0.1967  1.0269  0.1395
 3622TIP3    H110809   1.116   7.638   2.123  0.9768  0.8605 -0.5274
 3622TIP3    H210810   1.184   7.504   2.112  1.7918  1.1275  1.0250
 3623TIP3   OH210811   3.669   2.921   4.055 -0.1300  0.1412  0.2452
 3623TIP3    H110812   3.576   2.944   4.054 -0.0473  0.6543  1.6603
 3623TIP3    H210813   3.678   2.860   4.128  0.7106  0.4568  0.4183
 3624TIP3   OH210814   0.229   6.680   2.773 -0.5819 -0.2808 -0.2700
 3624TIP3    H110815   0.312   6.700   2.729  0.8510 -0.4205  2.1717
 3624TIP3    H210816   0.218   6.585   2.761  0.6160 -0.6009  0.8846
 3625TIP3   OH210817   6.421   2.752   5.419  0.2799 -0.3657 -0.0349
 3625TIP3    H110818   6.342   2.709   5.452 -0.4185  0.0448 -1.1217
 3625TIP3    H210819   6.397   2.781   5.331  2.0753 -1.3929 -0.8928
 3626TIP3   OH210820   8.163   3.684   0.701 -0.4474  0.1421  0.0879
 3626TIP3    H110821   8.194   3.721   0.784  0.0419  0.3078 -0.1657
 3626TIP3    H210822   8.143   3.761   0.648 -0.2734  0.0385 -0.1269
 3627TIP3   OH210823   1.220   1.010   1.619  0.3561  0.3932 -0.5969
 3627TIP3    H110824   1.304   1.052   1.634  0.7261 -0.6390  0.4789
 3627TIP3    H210825   1.238   0.941   1.555 -0.3246  2.0242 -2.6482
 3628TIP3   OH210826   4.159   3.844   4.939 -0.7983  0.5786 -0.8808
 3628TIP3    H110827   4.134   3.934   4.958 -0.3091  0.7452 -1.0116
 3628TIP3    H210828   4.174   3.842   4.845 -0.4607  0.4499 -0.8270
 3629TIP3   OH210829   4.554   5.083   2.513 -0.1101  0.2979 -0.0293
 3629TIP3    H110830   4.560   5.027   2.590 -2.4843 -0.7299 -0.5205
 3629TIP3    H210831   4.478   5.138   2.528  0.4246  1.3250 -0.8947
 3630TIP3   OH210832   0.236   2.267   0.327 -0.7007 -0.3119  0.1114
 3630TIP3    H110833   0.148   2.288   0.356 -0.8768  1.7285 -1.6437
 3630TIP3    H210834   0.281   2.351   0.324 -0.1384 -0.5898 -3.4570
 3631TIP3   OH210835   0.138   7.254   4.990  0.0621 -0.2865 -0.2770
 3631TIP3    H110836   0.234   7.249   4.985  0.0949  0.6466 -0.6809
 3631TIP3    H210837   0.108   7.224   4.905 -0.1921 -4.0086  0.9299
 3632TIP3   OH210838   3.432   7.111   2.164 -0.0256 -0.0811  0.0588
 3632TIP3    H110839   3.418   7.072   2.250 -0.5099  0.8716  0.4283
 3632TIP3    H210840   3.395   7.199   2.172 -0.0686  0.0182 -1.1202
 3633TIP3   OH210841   6.247   5.917   0.413 -0.0535 -0.2779  0.5820
 3633TIP3    H110842   6.217   5.981   0.348  0.6785  0.0173  0.5212
 3633TIP3    H210843   6.185   5.926   0.485 -2.1709 -2.0893 -0.8747
 3634TIP3   OH210844   0.302   1.990   4.892 -0.0614 -0.0249 -0.1417
 3634TIP3    H110845   0.396   2.000   4.879 -0.1977  0.0834 -1.1981
 3634TIP3    H210846   0.292   1.905   4.935  0.4035 -1.2389 -2.2688
 3635TIP3   OH210847   1.508   5.965   4.800 -0.4831  0.2525 -0.5287
 3635TIP3    H110848   1.450   5.890   4.812 -0.5761  0.4139  0.0850
 3635TIP3    H210849   1.534   5.961   4.708  0.7451 -1.4400 -0.1577
 3636TIP3   OH210850   7.150   2.385   1.365  0.3833  1.0731  0.1592
 3636TIP3    H110851   7.226   2.443   1.370  2.8910 -2.0612  1.1758
 3636TIP3    H210852   7.130   2.364   1.457 -0.7071  0.6163 -0.1700
 3637TIP3   OH210853   3.516   5.706   1.710  0.0762 -0.3000 -0.5211
 3637TIP3    H110854   3.425   5.688   1.687 -0.2857  0.9813 -0.2111
 3637TIP3    H210855   3.561   5.711   1.626 -0.5935  1.1386 -0.8377
 3638TIP3   OH210856   6.741   6.259   0.344  0.0297  0.0324  0.5243
 3638TIP3    H110857   6.649   6.279   0.360 -0.1087  0.2763 -0.4828
 3638TIP3    H210858   6.777   6.340   0.308  0.4013 -0.3613 -0.0068
 3639TIP3   OH210859   5.319   3.076   3.775  0.2389  0.4531 -0.7966
 3639TIP3    H110860   5.276   2.994   3.752  1.4268  0.0725 -1.7452
 3639TIP3    H210861   5.373   3.055   3.851 -0.5433  0.7173 -0.1546
 3640TIP3   OH210862   1.141   5.289   3.065  0.1927  0.2849 -0.6089
 3640TIP3    H110863   1.172   5.368   3.021  0.4734 -0.4965 -1.8562
 3640TIP3    H210864   1.170   5.217   3.009 -0.0989 -0.7113  0.4762
 3641TIP3   OH210865   7.000   5.175   6.592 -0.1009 -0.3161 -0.7664
 3641TIP3    H110866   6.950   5.225   6.657  0.9404 -0.5723  0.2567
 3641TIP3    H210867   6.952   5.188   6.510 -0.0778  2.0696 -0.4787
 3642TIP3   OH210868   4.081   6.694   3.577 -0.6386 -0.6826  0.5827
 3642TIP3    H110869   4.162   6.672   3.622  0.0984  0.9828  0.1474
 3642TIP3    H210870   4.108   6.754   3.507 -2.3703  1.0057  1.2638
 3643TIP3   OH210871   5.650   6.009   6.628 -0.9426  0.1449 -0.3954
 3643TIP3    H110872   5.671   5.935   6.685  0.9087  0.3571 -0.7399
 3643TIP3    H210873   5.674   6.087   6.679  0.7990  0.3335 -1.4400
 3644TIP3   OH210874   7.959   0.905   0.664  0.4464  0.1810  0.2272
 3644TIP3    H110875   7.931   0.936   0.578 -0.0536  0.9714  0.6635
 3644TIP3    H210876   7.982   0.985   0.712 -1.4677 -0.0039  1.5816
 3645TIP3   OH210877   5.968   0.595   1.805  0.2932 -0.0278 -0.8371
 3645TIP3    H110878   5.936   0.677   1.766  0.3801  1.3146  1.7031
 3645TIP3    H210879   6.062   0.610   1.818  0.4224 -0.7736 -0.9034
 3646TIP3   OH210880   6.616   4.348   5.432 -0.0870 -0.1950 -0.6828
 3646TIP3    H110881   6.661   4.388   5.506  0.2103  0.4563 -1.2075
 3646TIP3    H210882   6.539   4.306   5.471  0.4080 -0.4142  0.0752
 3647TIP3   OH210883   7.948   5.996   5.488  0.1425 -0.3735  0.2683
 3647TIP3    H110884   7.949   6.048   5.568 -2.6152  0.8010 -0.3659
 3647TIP3    H210885   7.874   5.937   5.497 -1.2898  0.9051 -2.0003
 3648TIP3   OH210886   6.473   2.481   1.244 -0.5706 -0.0363 -0.8907
 3648TIP3    H110887   6.468   2.533   1.163  0.7777  0.3153 -0.7718
 3648TIP3    H210888   6.450   2.543   1.313 -1.9339 -0.3920 -1.0119
 3649TIP3   OH210889   4.174   1.100   1.932  0.1641  0.4249  0.1546
 3649TIP3    H110890   4.150   1.013   1.964 -0.3006  0.7475  0.6982
 3649TIP3    H210891   4.102   1.125   1.874  0.7931  0.0276 -0.8388
 3650TIP3   OH210892   2.689   0.788   3.860 -0.7347 -0.1178  0.0339
 3650TIP3    H110893   2.743   0.838   3.922  0.7101 -1.6743  0.1021
 3650TIP3    H210894   2.686   0.700   3.897 -2.0742 -0.4282 -0.7818
 3651TIP3   OH210895   1.722   6.641   1.002 -0.2619 -0.3808 -0.7466
 3651TIP3    H110896   1.768   6.597   0.930  0.4538 -1.0217  0.0866
 3651TIP3    H210897   1.637   6.664   0.965  0.3140 -0.1532 -1.9866
 3652TIP3   OH210898   4.378   4.802   3.129  0.0457  0.2284 -0.6137
 3652TIP3    H110899   4.459   4.831   3.089 -0.8087  0.5773 -2.1782
 3652TIP3    H210900   4.324   4.770   3.056 -0.7575 -1.1705  0.5210
 3653TIP3   OH210901   7.883   5.742   0.992  0.0780 -0.1627  0.1017
 3653TIP3    H110902   7.805   5.717   1.041 -0.2321 -1.0037 -0.7817
 3653TIP3    H210903   7.903   5.665   0.938 -0.3968  1.1430 -2.0851
 3654TIP3   OH210904   2.676   7.504   4.318 -0.0134 -0.6877  0.3775
 3654TIP3    H110905   2.724   7.446   4.260  1.5683 -0.4461  1.3636
 3654TIP3    H210906   2.685   7.464   4.405  0.6399  0.6995  0.9908
 3655TIP3   OH210907   5.130   1.476   6.328 -0.6825  0.4098  0.2226
 3655TIP3    H110908   5.042   1.486   6.294 -0.7773 -0.1303  0.2934
 3655TIP3    H210909   5.185   1.527   6.269 -0.5928 -1.9023 -1.8650
 3656TIP3   OH210910   0.291   3.986   5.773 -0.3678  0.0635 -0.1440
 3656TIP3    H110911   0.348   3.911   5.791 -1.8583 -1.5812 -1.8434
 3656TIP3    H210912   0.315   4.050   5.840  3.4439 -0.4731 -0.7231
 3657TIP3   OH210913   8.145   5.854   4.066  0.4078 -0.4279  0.3301
 3657TIP3    H110914   8.205   5.876   4.137  0.6139  2.4379 -0.6256
 3657TIP3    H210915   8.095   5.933   4.050 -1.8918 -1.9673 -0.6424
 3658TIP3   OH210916   5.162   3.051   4.129 -0.2804  0.0752 -0.4277
 3658TIP3    H110917   5.239   3.074   4.076 -0.9086  0.3297 -1.2475
 3658TIP3    H210918   5.150   2.958   4.115 -0.3935  0.1255 -0.6679
 3659TIP3   OH210919   0.601   7.008   6.127 -0.3102  0.2786 -0.3513
 3659TIP3    H110920   0.636   6.937   6.181 -0.8670 -0.6110 -1.1063
 3659TIP3    H210921   0.675   7.037   6.074  0.3644  1.4998  1.1962
 3660TIP3   OH210922   7.161   6.942   1.108  0.7324 -0.4143 -0.5092
 3660TIP3    H110923   7.173   7.028   1.147 -0.9978 -0.1391 -0.4877
 3660TIP3    H210924   7.208   6.882   1.166  1.2954  0.4238 -0.0916
 3661TIP3   OH210925   0.675   7.344   5.434  0.6140 -0.0922  0.0747
 3661TIP3    H110926   0.662   7.426   5.386 -1.0356 -0.1921  0.3024
 3661TIP3    H210927   0.758   7.356   5.480  0.8013  1.1218 -0.5553
 3662TIP3   OH210928   7.458   6.858   2.573  0.1232 -0.4641 -0.8205
 3662TIP3    H110929   7.418   6.782   2.530 -0.6984 -0.0404 -0.8168
 3662TIP3    H210930   7.549   6.832   2.587 -0.5345 -2.1540  0.7625
 3663TIP3   OH210931   7.714   3.609   5.130  0.6829 -0.0055 -0.9802
 3663TIP3    H110932   7.732   3.696   5.166 -0.2206 -0.4745  0.7250
 3663TIP3    H210933   7.645   3.624   5.065 -0.7038  0.3994  0.5090
 3664TIP3   OH210934   5.797   2.179   5.995  0.2984 -0.1903  0.4599
 3664TIP3    H110935   5.808   2.091   5.958  0.2045  0.1476 -0.4011
 3664TIP3    H210936   5.715   2.210   5.958  1.0661  0.8265 -0.4328
 3665TIP3   OH210937   3.016   3.534   5.997 -0.3154 -0.5695 -0.4902
 3665TIP3    H110938   2.962   3.607   6.026  0.7203  0.2863 -0.6716
 3665TIP3    H210939   3.098   3.574   5.970  0.4981 -1.8690 -0.0253
 3666TIP3   OH210940   6.763   4.564   4.866 -0.1575 -0.4364  0.2034
 3666TIP3    H110941   6.732   4.619   4.938 -0.1014  0.6364 -0.5608
 3666TIP3    H210942   6.777   4.626   4.794  1.4593 -1.2227 -0.1959
 3667TIP3   OH210943   4.297   2.864   2.917  0.2106 -0.1850  0.7196
 3667TIP3    H110944   4.222   2.915   2.885  0.5975  0.6539  1.1231
 3667TIP3    H210945   4.323   2.909   2.997  1.6238 -0.0185  0.1820
 3668TIP3   OH210946   6.134   6.373   6.566  0.2057 -0.2363  0.0442
 3668TIP3    H110947   6.122   6.448   6.624 -1.4281  0.1321 -0.7012
 3668TIP3    H210948   6.175   6.409   6.488 -0.5421 -0.0915 -0.2974
 3669TIP3   OH210949   0.523   2.923   6.423  0.3670  0.0207 -0.4211
 3669TIP3    H110950   0.504   2.833   6.449  1.0649 -0.4053 -1.2973
 3669TIP3    H210951   0.475   2.977   6.485 -1.4495 -0.9543 -0.8920
 3670TIP3   OH210952   5.472   6.311   5.782 -0.0129  0.2938  0.2310
 3670TIP3    H110953   5.480   6.291   5.688 -0.1868  0.0707  0.2641
 3670TIP3    H210954   5.455   6.405   5.785 -0.8502  0.1591 -0.0036
 3671TIP3   OH210955   2.984   3.367   1.739  0.0329  0.6165  0.8960
 3671TIP3    H110956   2.987   3.359   1.834 -2.2885 -1.4696  0.9135
 3671TIP3    H210957   2.896   3.401   1.720  0.7182  1.7403 -0.5134
 3672TIP3   OH210958   0.606   6.165   3.922  0.0402 -0.1030  0.2050
 3672TIP3    H110959   0.663   6.088   3.931  1.6721  0.9659 -0.4981
 3672TIP3    H210960   0.663   6.240   3.939 -1.1254  1.0326 -0.6354
 3673TIP3   OH210961   3.409   6.683   5.469  0.1184  0.1515 -0.2773
 3673TIP3    H110962   3.464   6.646   5.538  0.1147 -0.9936 -0.8767
 3673TIP3    H210963   3.324   6.698   5.512 -0.2728 -1.7283 -0.3220
 3674TIP3   OH210964   4.220   0.118   3.869  0.5059 -0.0651 -0.3187
 3674TIP3    H110965   4.251   0.127   3.959  0.6706 -0.0213 -0.3792
 3674TIP3    H210966   4.297   0.137   3.815  0.3142  0.2813 -0.4736
 3675TIP3   OH210967   6.917   7.265   2.741 -0.4932  0.0207  0.7130
 3675TIP3    H110968   6.916   7.349   2.787 -0.1659 -0.4978  1.7157
 3675TIP3    H210969   7.006   7.233   2.753 -0.5449 -0.3461  0.1111
 3676TIP3   OH210970   4.133   6.789   4.495  0.5263 -0.0560 -0.3607
 3676TIP3    H110971   4.145   6.710   4.442 -2.4449 -0.6536 -0.3157
 3676TIP3    H210972   4.043   6.816   4.477  0.9237  2.3626  0.9449
 3677TIP3   OH210973   5.433   7.515   6.490  0.7191 -0.1214  0.2102
 3677TIP3    H110974   5.494   7.441   6.501  0.4892 -0.1927  1.1534
 3677TIP3    H210975   5.362   7.479   6.437  0.5110 -0.6468  0.8337
 3678TIP3   OH210976   3.876   2.343   2.861 -0.5095 -0.1266  0.1402
 3678TIP3    H110977   3.971   2.346   2.851 -0.5703  0.0540 -0.3850
 3678TIP3    H210978   3.856   2.251   2.879 -0.4381 -0.5706 -1.8314
 3679TIP3   OH210979   8.084   6.514   1.079  0.1370 -0.2313 -0.1856
 3679TIP3    H110980   8.000   6.557   1.061  0.5417  1.1032  0.9822
 3679TIP3    H210981   8.059   6.426   1.109 -1.0134  0.7586  2.0438
 3680TIP3   OH210982   0.696   7.630   2.815  0.2466  0.8490 -0.2880
 3680TIP3    H110983   0.691   7.578   2.735 -0.2048  1.8985 -0.9638
 3680TIP3    H210984   0.622   7.690   2.809 -0.5698  0.1062  1.5423
 3681TIP3   OH210985   3.992   2.792   2.041 -0.0494  0.0860  0.3596
 3681TIP3    H110986   3.922   2.852   2.015  0.2457  0.7135  0.9660
 3681TIP3    H210987   3.947   2.712   2.067 -0.6368  0.7821  1.5970
 3682TIP3   OH210988   8.133   3.943   4.485 -0.7481  0.2623 -0.2133
 3682TIP3    H110989   8.175   4.009   4.429  0.5391 -0.8369 -0.6048
 3682TIP3    H210990   8.108   3.991   4.564  1.8519  0.9136  0.3255
 3683TIP3   OH210991   5.329   7.622   0.433  0.0351  0.2592  0.7242
 3683TIP3    H110992   5.333   7.718   0.429 -1.6096  0.4095  1.7486
 3683TIP3    H210993   5.363   7.601   0.520  1.7418 -0.2414 -0.0137
 3684TIP3   OH210994   4.899   0.493   6.321 -0.6403  0.4487 -0.0906
 3684TIP3    H110995   4.821   0.509   6.375 -0.3755 -1.0706  0.8173
 3684TIP3    H210996   4.871   0.426   6.258  0.2186 -1.0716  1.0661
 3685TIP3   OH210997   4.335   6.120   5.799 -0.2001  0.3030  0.3024
 3685TIP3    H110998   4.382   6.055   5.747  1.1684  0.6488  1.0617
 3685TIP3    H210999   4.357   6.099   5.890 -2.6697 -0.3821  0.8049
 3686TIP3   OH211000   7.609   6.310   0.702  0.3365  0.0067  0.3029
 3686TIP3    H111001   7.666   6.238   0.675  0.7845 -0.2940  1.9505
 3686TIP3    H211002   7.520   6.277   0.690  0.5218 -0.3152 -0.2140
 3687TIP3   OH211003   4.836   3.673   2.626  0.4736 -0.1065 -0.1288
 3687TIP3    H111004   4.921   3.707   2.655  1.3114  0.0182 -2.5444
 3687TIP3    H211005   4.832   3.692   2.533 -2.4692  0.3156 -0.0152
 3688TIP3   OH211006   2.767   5.180   1.412  0.1686  0.1909  0.0712
 3688TIP3    H111007   2.730   5.141   1.332 -1.2018 -1.3218  1.3614
 3688TIP3    H211008   2.855   5.143   1.417  0.1404  0.0183 -0.5432
 3689TIP3   OH211009   2.117   0.062   3.490  0.0708  0.3780 -0.0921
 3689TIP3    H111010   2.180   0.133   3.480 -0.2538  0.5077 -1.4774
 3689TIP3    H211011   2.077   0.054   3.404 -0.9711 -0.4877  0.4509
 3690TIP3   OH211012   2.047   3.956   2.859 -0.0090  0.4413 -0.1853
 3690TIP3    H111013   2.134   3.958   2.897 -1.1712 -1.7503  2.9904
 3690TIP3    H211014   2.027   4.048   2.840  1.6749  1.4370  2.3099
 3691TIP3   OH211015   5.651   3.480   5.336  0.6060 -0.4629 -0.1260
 3691TIP3    H111016   5.599   3.472   5.256  0.3688 -1.4611  0.1097
 3691TIP3    H211017   5.726   3.423   5.323 -0.6894 -2.6537  1.2946
 3692TIP3   OH211018   5.390   5.299   3.455  0.7108 -0.2126  0.0380
 3692TIP3    H111019   5.336   5.335   3.384  0.9572  1.6083  0.7341
 3692TIP3    H211020   5.329   5.245   3.505  0.1648 -0.2754 -0.6641
 3693TIP3   OH211021   3.714   7.651   1.696  0.0897  0.1755  0.4122
 3693TIP3    H111022   3.785   7.715   1.690 -1.0942  1.8106  2.4731
 3693TIP3    H211023   3.723   7.598   1.617  1.6437  2.3840 -1.0164
 3694TIP3   OH211024   3.579   1.660   2.977  0.0039  0.5284 -0.6301
 3694TIP3    H111025   3.576   1.629   2.886 -1.3958  0.0504 -0.4424
 3694TIP3    H211026   3.666   1.632   3.008  1.5821  2.9055 -2.5223
 3695TIP3   OH211027   0.812   7.375   4.002  0.3391 -0.3111 -0.2237
 3695TIP3    H111028   0.827   7.313   4.074 -1.3876 -0.7045 -0.1704
 3695TIP3    H211029   0.800   7.459   4.044  0.6530 -0.2946 -0.1603
 3696TIP3   OH211030   2.979   0.248   5.392 -0.0344 -0.2865 -0.1920
 3696TIP3    H111031   2.979   0.280   5.302  2.8778  1.2963  0.2446
 3696TIP3    H211032   3.069   0.216   5.406 -1.0658 -2.7964  1.4489
 3697TIP3   OH211033   5.317   4.899   1.237 -0.0280  0.6840 -0.4238
 3697TIP3    H111034   5.312   4.807   1.261 -0.1634  0.0702 -2.6034
 3697TIP3    H211035   5.275   4.945   1.310  0.2452 -0.9262  0.8127
 3698TIP3   OH211036   3.592   6.823   0.804 -0.1456 -0.2230 -0.3466
 3698TIP3    H111037   3.587   6.769   0.883  0.5784  1.4046  0.8769
 3698TIP3    H211038   3.535   6.898   0.822  0.4346  0.4316 -1.1281
 3699TIP3   OH211039   3.488   4.404   0.900 -0.1857  0.1482  0.3771
 3699TIP3    H111040   3.525   4.408   0.988  1.2248  1.4312 -0.2351
 3699TIP3    H211041   3.435   4.484   0.894 -0.8331 -0.2813  0.2777
 3700TIP3   OH211042   0.691   6.998   0.641  0.2218  0.1813  0.2899
 3700TIP3    H111043   0.601   6.984   0.612  0.4047 -1.6495  0.4725
 3700TIP3    H211044   0.693   6.964   0.730  0.6157  2.1260  1.0597
 3701TIP3   OH211045   5.706   1.269   6.643  0.0442 -0.2948  0.5945
 3701TIP3    H111046   5.711   1.196   6.705 -0.9360 -0.1400  0.8760
 3701TIP3    H211047   5.711   1.228   6.557 -0.0046 -0.6525  0.7582
 3702TIP3   OH211048   6.635   2.680   2.767  0.2942  0.3325 -0.1875
 3702TIP3    H111049   6.707   2.743   2.773  0.6217 -0.2104  4.0349
 3702TIP3    H211050   6.556   2.734   2.763  0.6315  1.0995  2.2716
 3703TIP3   OH211051   3.453   3.845   3.390  0.1998  0.5155 -0.1034
 3703TIP3    H111052   3.547   3.828   3.382  0.4454  0.7866  1.6247
 3703TIP3    H211053   3.412   3.786   3.328  1.5346  0.6692 -1.1748
 3704TIP3   OH211054   0.488   0.288   5.710  0.2533  0.1523 -0.8806
 3704TIP3    H111055   0.520   0.220   5.651  1.6866 -0.8945  1.0007
 3704TIP3    H211056   0.440   0.348   5.653 -0.7662 -2.2007 -2.6763
 3705TIP3   OH211057   6.315   1.212   2.080  0.4255 -0.1743 -0.0817
 3705TIP3    H111058   6.346   1.162   2.005 -0.9006 -2.8856  1.0098
 3705TIP3    H211059   6.388   1.210   2.142  0.9998  0.8241 -0.6944
 3706TIP3   OH211060   7.954   4.984   0.070 -0.1212 -0.9506  0.2859
 3706TIP3    H111061   7.944   4.963  -0.023 -1.9465 -1.4285  0.5398
 3706TIP3    H211062   8.022   4.924   0.102  1.2483 -0.0939 -0.9143
 3707TIP3   OH211063   3.702   5.052   2.117 -0.4946 -0.3581 -0.4544
 3707TIP3    H111064   3.715   5.128   2.060  2.1277 -0.8956 -0.7091
 3707TIP3    H211065   3.737   5.079   2.202 -0.0387 -1.1035 -0.3975
 3708TIP3   OH211066   0.182   7.129   4.286 -0.5536 -0.0116  0.2529
 3708TIP3    H111067   0.097   7.143   4.328 -0.5591 -0.6646  0.4738
 3708TIP3    H211068   0.200   7.211   4.241 -1.5555 -0.0528 -0.2453
 3709TIP3   OH211069   2.212   5.371   5.431 -0.2889 -0.0670  0.4179
 3709TIP3    H111070   2.230   5.461   5.458  1.4589 -0.0355 -0.7228
 3709TIP3    H211071   2.289   5.321   5.456 -0.8055 -1.0539  0.1225
 3710TIP3   OH211072   3.332   1.201   6.201 -0.0583 -0.1153 -0.1886
 3710TIP3    H111073   3.331   1.106   6.214 -2.2149 -0.3975 -1.7927
 3710TIP3    H211074   3.270   1.216   6.129  0.2441  2.5149 -0.0049
 3711TIP3   OH211075   6.863   7.093   5.398 -0.6721 -0.3100 -0.3696
 3711TIP3    H111076   6.813   7.056   5.471  1.7109 -0.2812  1.3955
 3711TIP3    H211077   6.905   7.017   5.356 -1.0869 -0.2064 -0.9910
 3712TIP3   OH211078   2.160   0.548   4.539  0.0744 -0.0023 -0.5043
 3712TIP3    H111079   2.114   0.482   4.486 -1.5335  1.5640 -1.1595
 3712TIP3    H211080   2.243   0.561   4.494 -0.4966 -0.0441 -1.6137
 3713TIP3   OH211081   3.223   5.029   3.085 -0.3882 -0.2759  0.2195
 3713TIP3    H111082   3.291   4.973   3.120 -1.5608 -1.5077  0.6235
 3713TIP3    H211083   3.265   5.078   3.015  0.6757 -1.6843 -0.1638
 3714TIP3   OH211084   3.609   0.432   5.132 -0.0049 -0.1128  0.0094
 3714TIP3    H111085   3.588   0.519   5.164 -0.7571  0.3068 -1.5271
 3714TIP3    H211086   3.658   0.447   5.051 -0.5667 -1.0996 -0.5347
 3715TIP3   OH211087   6.231   3.143   4.286 -0.0357 -0.3722  0.0218
 3715TIP3    H111088   6.273   3.129   4.371 -1.7668 -0.7380  0.8734
 3715TIP3    H211089   6.292   3.198   4.238  0.9465 -0.0625  1.5501
 3716TIP3   OH211090   0.446   7.791   6.676 -0.2209  0.4317  0.0312
 3716TIP3    H111091   0.542   7.797   6.670 -0.2195  0.4526  0.0721
 3716TIP3    H211092   0.425   7.708   6.635 -0.1487  0.2354  0.3887
 3717TIP3   OH211093   4.212   2.339   0.949 -0.4275 -0.2641  0.1822
 3717TIP3    H111094   4.178   2.422   0.982  0.8375  0.9437 -1.3772
 3717TIP3    H211095   4.160   2.322   0.871 -0.5881 -0.8954  0.4213
 3718TIP3   OH211096   6.702   7.529   5.321 -0.4061  0.4416 -0.1611
 3718TIP3    H111097   6.746   7.472   5.385 -1.5877  0.2716  0.5381
 3718TIP3    H211098   6.771   7.555   5.261  0.5449 -0.2153  0.6050
 3719TIP3   OH211099   1.907   7.456   6.210  0.0179  0.2269 -0.3187
 3719TIP3    H111100   1.990   7.439   6.166  0.5516  0.9717  0.3694
 3719TIP3    H211101   1.903   7.552   6.217  0.2165  0.1299  1.7193
 3720TIP3   OH211102   4.106   4.471   2.591 -0.0012  0.0202 -0.1111
 3720TIP3    H111103   4.143   4.520   2.665 -1.3397 -0.6319  1.0426
 3720TIP3    H211104   4.141   4.383   2.601  0.2773  0.0716 -0.6135
 3721TIP3   OH211105   3.792   1.840   0.393  0.0138  0.4763  0.4600
 3721TIP3    H111106   3.862   1.833   0.329  0.1905  2.6304  0.3380
 3721TIP3    H211107   3.825   1.792   0.469  1.1372  0.4950  0.0107
 3722TIP3   OH211108   7.831   7.602   5.856 -0.4199 -0.1723 -0.1606
 3722TIP3    H111109   7.784   7.622   5.937 -0.4626 -2.2413  0.3751
 3722TIP3    H211110   7.912   7.560   5.885  1.2991  2.2417 -1.1151
 3723TIP3   OH211111   6.827   2.479   2.642 -0.1788 -0.5993  0.3398
 3723TIP3    H111112   6.759   2.479   2.709  0.4559 -1.0483  1.0077
 3723TIP3    H211113   6.869   2.564   2.650 -0.3194 -0.5258  0.2889
 3724TIP3   OH211114   4.755   5.658   0.540 -0.5352 -0.1039  0.3168
 3724TIP3    H111115   4.728   5.712   0.465  0.3105  0.4420  0.3879
 3724TIP3    H211116   4.673   5.627   0.578 -1.0520  1.1219  0.2513
 3725TIP3   OH211117   5.612   3.778   6.589  0.5746 -0.5239  0.1321
 3725TIP3    H111118   5.524   3.744   6.573  0.4571 -0.1207 -0.0649
 3725TIP3    H211119   5.647   3.799   6.502  0.6486 -0.1414  0.2517
 3726TIP3   OH211120   4.186   2.438   4.939  0.2232 -0.0070 -0.1920
 3726TIP3    H111121   4.227   2.375   4.997  1.1348  1.5122  0.8923
 3726TIP3    H211122   4.224   2.421   4.853  0.7798 -0.6374  0.1711
 3727TIP3   OH211123   3.161   2.083   4.564 -0.0617 -0.4219 -0.3054
 3727TIP3    H111124   3.216   2.037   4.628  0.3645 -0.0512 -0.3998
 3727TIP3    H211125   3.086   2.025   4.551 -0.6009 -0.1196  1.1866
 3728TIP3   OH211126   2.065   4.516   6.371 -0.1294  0.1885  0.4470
 3728TIP3    H111127   2.151   4.527   6.412  0.7330 -1.4194 -0.7839
 3728TIP3    H211128   2.084   4.466   6.292 -1.8363  2.2516 -1.3876
 3729TIP3   OH211129   3.627   1.894   2.639  0.2661 -0.3768 -0.1536
 3729TIP3    H111130   3.665   1.914   2.553  1.1817 -0.8750  0.1243
 3729TIP3    H211131   3.692   1.838   2.682 -0.2539 -0.2697  0.8047
 3730TIP3   OH211132   3.873   1.149   4.759 -0.3372 -0.0638  0.7062
 3730TIP3    H111133   3.945   1.090   4.739  0.1987  0.4992  0.9415
 3730TIP3    H211134   3.817   1.147   4.681  1.2121  1.3668 -0.5116
 3731TIP3   OH211135   4.771   0.733   2.508  0.6169  0.8214 -0.0470
 3731TIP3    H111136   4.724   0.692   2.436 -0.3397  2.2850 -0.3009
 3731TIP3    H211137   4.850   0.770   2.468  0.0094  1.7714 -0.4185
 3732TIP3   OH211138   7.587   2.233   6.616 -0.0924  0.0872 -0.4301
 3732TIP3    H111139   7.650   2.277   6.559 -0.5305  0.3134 -0.7373
 3732TIP3    H211140   7.599   2.275   6.701 -0.1502  0.4452 -0.5983
 3733TIP3   OH211141   2.739   4.694   0.996  0.8301 -0.4312 -0.2482
 3733TIP3    H111142   2.713   4.748   1.071  0.9167 -0.2412 -0.3520
 3733TIP3    H211143   2.665   4.637   0.980 -0.1962  1.1716 -1.5302
 3734TIP3   OH211144   7.242   3.422   2.121  0.1554  0.2330  0.1731
 3734TIP3    H111145   7.310   3.487   2.136 -0.4288  0.4855  1.9003
 3734TIP3    H211146   7.287   3.338   2.131 -0.0931  0.3642  3.4008
 3735TIP3   OH211147   3.261   6.744   0.811 -0.3070  0.1368  0.2013
 3735TIP3    H111148   3.224   6.762   0.725  2.5350  1.4589 -0.8575
 3735TIP3    H211149   3.261   6.828   0.856  1.5291  0.2434  0.0677
 3736TIP3   OH211150   8.195   3.952   5.245 -0.5225 -0.0358 -0.0717
 3736TIP3    H111151   8.208   4.021   5.179  0.5053 -0.8129 -0.7199
 3736TIP3    H211152   8.259   3.884   5.221 -2.0980 -1.6099  0.0072
 3737TIP3   OH211153   4.908   1.067   0.351  0.2824  0.0169 -0.7130
 3737TIP3    H111154   4.929   0.976   0.330  1.9056 -0.2660  1.6735
 3737TIP3    H211155   4.992   1.107   0.372 -0.7505  0.6992  2.8468
 3738TIP3   OH211156   5.204   0.666   5.588  0.2562 -0.2310 -0.1123
 3738TIP3    H111157   5.197   0.671   5.492  0.5856  2.2133 -0.0734
 3738TIP3    H211158   5.284   0.615   5.603  0.2794 -0.5336 -1.1416
 3739TIP3   OH211159   4.103   5.358   3.985  0.3643 -0.1959 -0.2576
 3739TIP3    H111160   4.042   5.427   3.963 -0.6161 -0.1962  2.1256
 3739TIP3    H211161   4.151   5.340   3.904  0.0516  2.6375 -1.1553
 3740TIP3   OH211162   0.500   4.621   5.521  0.5004  0.0538 -0.5505
 3740TIP3    H111163   0.532   4.675   5.593 -0.4996 -0.5981  0.4118
 3740TIP3    H211164   0.578   4.574   5.491  0.9336  0.3314  0.1036
 3741TIP3   OH211165   2.790   1.456   3.654 -0.0880 -0.0077 -1.4128
 3741TIP3    H111166   2.752   1.541   3.678  0.2263 -0.2576  0.0432
 3741TIP3    H211167   2.717   1.407   3.617 -0.6457  0.3639 -0.8364
 3742TIP3   OH211168   0.789   6.373   4.254 -0.2065 -0.5597  0.0826
 3742TIP3    H111169   0.776   6.290   4.299 -1.7695 -0.2636  0.2560
 3742TIP3    H211170   0.706   6.421   4.267  0.9541  1.3903  0.7516
 3743TIP3   OH211171   3.777   5.316   1.288 -0.0890 -0.2000  0.3390
 3743TIP3    H111172   3.699   5.264   1.271 -0.0076 -0.1324 -0.3027
 3743TIP3    H211173   3.848   5.253   1.293  0.2403 -0.0904 -1.9051
 3744TIP3   OH211174   5.116   5.934   6.676 -0.4016  0.4295  0.0407
 3744TIP3    H111175   5.205   5.914   6.646 -0.5694 -1.2051  0.5102
 3744TIP3    H211176   5.124   6.017   6.723  1.2384 -0.4685  1.4927
 3745TIP3   OH211177   7.306   7.742   2.061 -0.2641  0.0548 -0.3169
 3745TIP3    H111178   7.268   7.767   2.146  1.8381  1.1928  0.3624
 3745TIP3    H211179   7.359   7.818   2.035  3.0131 -2.0196 -0.2493
 3746TIP3   OH211180   3.121   5.389   2.362 -0.1190 -0.1923  0.4560
 3746TIP3    H111181   3.136   5.298   2.337 -0.9366 -0.2484  0.1588
 3746TIP3    H211182   3.063   5.424   2.294  0.2223  0.5650  0.5391
 3747TIP3   OH211183   3.074   7.122   1.716  0.3383 -0.0645 -0.2290
 3747TIP3    H111184   3.095   7.203   1.669 -0.3051 -0.3110 -0.9523
 3747TIP3    H211185   2.979   7.115   1.711  0.2544 -0.1302  1.0836
 3748TIP3   OH211186   4.899   6.720   1.361  0.0880  0.3578 -0.3150
 3748TIP3    H111187   4.811   6.754   1.377 -0.4338 -1.0165 -0.1187
 3748TIP3    H211188   4.906   6.644   1.418  1.2226  0.1529 -0.7060
 3749TIP3   OH211189   3.739   0.010   1.423 -0.6515  0.1930  0.8561
 3749TIP3    H111190   3.722  -0.057   1.489  0.9925 -0.7658  0.3625
 3749TIP3    H211191   3.784   0.080   1.470  2.9091 -1.5788  0.4611
 3750TIP3   OH211192   7.816   0.703   0.475 -0.0446  0.1287  0.1103
 3750TIP3    H111193   7.858   0.619   0.489  0.1232  0.1519 -0.2435
 3750TIP3    H211194   7.848   0.759   0.546  0.0157 -0.0411  0.2152
 3751TIP3   OH211195   8.083   4.943   4.918 -0.0750  0.0454 -0.3436
 3751TIP3    H111196   8.109   4.857   4.884  1.5994  0.3345  0.1096
 3751TIP3    H211197   8.131   5.005   4.864 -1.1761  0.7173 -0.5810
 3752TIP3   OH211198   4.381   7.102   6.664  0.1121 -0.2500 -0.2393
 3752TIP3    H111199   4.355   7.119   6.755 -0.9883 -0.8086 -0.4325
 3752TIP3    H211200   4.304   7.128   6.612  0.4004 -0.7616 -0.9388
 3753TIP3   OH211201   0.062   0.276   6.677 -0.6014  0.0828  0.0192
 3753TIP3    H111202   0.029   0.357   6.637  1.2285  0.4307 -0.8992
 3753TIP3    H211203   0.156   0.292   6.687 -0.5741 -1.0736  1.9749
 3754TIP3   OH211204   2.128   4.647   1.988 -0.0985  0.0318 -0.3956
 3754TIP3    H111205   2.096   4.737   1.994  0.2098  0.0362  2.4625
 3754TIP3    H211206   2.177   4.644   1.906 -1.1174  2.1102 -1.1458
 3755TIP3   OH211207   3.164   4.417   3.923  0.5207 -0.5227 -0.1106
 3755TIP3    H111208   3.189   4.500   3.881  0.0845 -0.0653  0.5120
 3755TIP3    H211209   3.143   4.442   4.013  0.9721 -1.4150  0.2486
 3756TIP3   OH211210   2.086   3.805   6.370  0.0551 -0.0240 -0.1649
 3756TIP3    H111211   1.996   3.834   6.356 -0.6852 -2.8483 -2.1520
 3756TIP3    H211212   2.130   3.818   6.286  0.3269 -2.2714 -0.4273
 3757TIP3   OH211213   7.926   6.846   3.373 -0.1340  0.0345 -0.1718
 3757TIP3    H111214   7.971   6.915   3.422  1.1879 -0.3894 -0.7292
 3757TIP3    H211215   7.956   6.857   3.283  0.8618 -1.8125 -0.1199
 3758TIP3   OH211216   4.076   2.053   0.641  0.1468  0.4703 -0.1472
 3758TIP3    H111217   4.146   1.988   0.644  1.3136  1.6667 -0.6585
 3758TIP3    H211218   3.995   2.001   0.643  1.0349 -1.0147 -1.1500
 3759TIP3   OH211219   1.652   4.175   2.990 -0.0460  0.0495  0.7883
 3759TIP3    H111220   1.702   4.094   3.003 -0.6361 -0.3722  0.4553
 3759TIP3    H211221   1.680   4.207   2.904 -0.3393 -0.1805  0.6069
 3760TIP3   OH211222   4.574   4.198   3.144  0.5651  0.2622  0.0261
 3760TIP3    H111223   4.599   4.258   3.215 -3.1809  3.4131 -0.9284
 3760TIP3    H211224   4.621   4.230   3.067  1.3292 -0.3938  0.2112
 3761TIP3   OH211225   3.113   6.284   0.871 -0.5568 -0.5196  0.6390
 3761TIP3    H111226   3.038   6.233   0.900 -0.2703  0.0174  2.4866
 3761TIP3    H211227   3.172   6.285   0.947  1.1282 -0.5581 -0.6100
 3762TIP3   OH211228   1.950   1.550   0.424  0.2751 -0.3746 -0.3927
 3762TIP3    H111229   1.934   1.457   0.408 -0.1081 -0.4488  0.3639
 3762TIP3    H211230   2.044   1.561   0.409  0.3886 -0.9564 -0.1658
 3763TIP3   OH211231   0.542   1.369   5.070 -0.1553 -0.0006  0.1150
 3763TIP3    H111232   0.622   1.413   5.040 -0.3524  1.7638  1.9853
 3763TIP3    H211233   0.475   1.438   5.069 -1.3114 -1.1057 -0.0791
 3764TIP3   OH211234   4.268   0.597   2.195 -0.0594 -0.1826  0.3234
 3764TIP3    H111235   4.337   0.657   2.168  0.6365 -0.9206  0.4057
 3764TIP3    H211236   4.305   0.552   2.271 -0.0323 -1.6318 -0.5097
 3765TIP3   OH211237   3.154   0.109   4.435 -0.3364  0.4591  0.7460
 3765TIP3    H111238   3.119   0.176   4.376 -1.4666  0.7001  1.6443
 3765TIP3    H211239   3.084   0.044   4.440  0.6331 -0.6614  0.1172
 3766TIP3   OH211240   7.839   5.303   0.814 -0.5614  0.0548 -0.5849
 3766TIP3    H111241   7.918   5.259   0.782 -1.5439 -1.6009 -0.8191
 3766TIP3    H211242   7.841   5.290   0.909 -0.1493  0.7429 -0.4892
 3767TIP3   OH211243   6.807   4.647   6.535 -0.7518 -0.5528  0.3609
 3767TIP3    H111244   6.860   4.676   6.609  0.9874 -2.9843  0.1943
 3767TIP3    H211245   6.787   4.555   6.554 -2.0218 -0.6617 -1.2242
 3768TIP3   OH211246   4.778   1.045   4.387 -0.6769  0.1397 -0.2623
 3768TIP3    H111247   4.858   1.096   4.402  0.5584 -1.3680 -1.3885
 3768TIP3    H211248   4.779   0.980   4.457 -1.2317  0.4665  0.0520
 3769TIP3   OH211249   2.784   3.322   0.362  0.3915 -0.3530 -0.2205
 3769TIP3    H111250   2.880   3.316   0.368  0.2645 -0.9991  2.2494
 3769TIP3    H211251   2.755   3.231   0.355 -0.0599 -0.1468 -1.1832
 3770TIP3   OH211252   4.692   5.613   6.253 -0.5605 -0.1871 -0.5876
 3770TIP3    H111253   4.665   5.586   6.165 -0.3246 -1.5102 -0.2779
 3770TIP3    H211254   4.785   5.632   6.245 -0.1095 -2.0867 -0.2673
 3771TIP3   OH211255   4.323   0.187   6.331 -0.4905 -0.3310 -0.1219
 3771TIP3    H111256   4.364   0.103   6.352 -1.8399 -0.8547  0.5889
 3771TIP3    H211257   4.262   0.167   6.260 -1.9375 -0.3250  1.0612
 3772TIP3   OH211258   4.101   6.042   4.075  1.0139  0.1120  0.2382
 3772TIP3    H111259   4.179   6.061   4.127  0.6271 -0.2991  0.9933
 3772TIP3    H211260   4.039   6.110   4.100  0.3402 -0.8835  1.3988
 3773TIP3   OH211261   2.018   4.352   3.867 -0.2873 -0.3901 -0.3236
 3773TIP3    H111262   1.981   4.266   3.849 -0.5326 -0.8513  2.1070
 3773TIP3    H211263   2.074   4.339   3.944 -2.1337  2.0031  1.5893
 3774TIP3   OH211264   7.667   0.805   5.890  0.0645  0.0252  0.1657
 3774TIP3    H111265   7.744   0.849   5.925 -0.4298 -0.8825  2.6605
 3774TIP3    H211266   7.682   0.712   5.907 -1.3524 -0.2137  0.2966
 3775TIP3   OH211267   7.065   3.330   6.734 -0.5960 -0.0011 -0.0179
 3775TIP3    H111268   7.121   3.286   6.799 -2.1422  0.1473  1.4800
 3775TIP3    H211269   6.983   3.280   6.736 -1.0976  0.7610 -0.9774
 3776TIP3   OH211270   4.842   5.066   4.271 -0.2353 -0.2709  0.0173
 3776TIP3    H111271   4.859   4.974   4.292 -0.5925 -0.2338  0.4856
 3776TIP3    H211272   4.927   5.109   4.282 -0.2766 -0.3657  0.7868
 3777TIP3   OH211273   1.145   0.572   4.982 -0.5016  0.1689 -0.0301
 3777TIP3    H111274   1.131   0.478   4.989  0.6672  0.1167  3.3085
 3777TIP3    H211275   1.095   0.609   5.055 -0.7889  2.1529 -1.1513
 3778TIP3   OH211276   0.719   5.183   4.428 -0.1435 -0.1538 -0.2032
 3778TIP3    H111277   0.683   5.120   4.491  0.9457  0.6114  1.2402
 3778TIP3    H211278   0.715   5.137   4.344 -2.0910 -1.0357  0.2966
 3779TIP3   OH211279   4.767   7.542   2.076 -0.4240  0.7865  1.0657
 3779TIP3    H111280   4.789   7.631   2.103  0.5473  1.0211 -0.3602
 3779TIP3    H211281   4.700   7.554   2.008  0.5351  0.5501  0.0320
 3780TIP3   OH211282   1.121   7.416   0.596 -0.4640 -0.3243  1.0555
 3780TIP3    H111283   1.147   7.324   0.604  0.1738 -0.2943 -0.3651
 3780TIP3    H211284   1.200   7.465   0.617  0.0769 -0.1886 -1.0813
 3781TIP3   OH211285   7.730   6.952   6.702  1.0934  0.2808  0.3124
 3781TIP3    H111286   7.766   6.866   6.722  1.1959  0.5606  1.3781
 3781TIP3    H211287   7.716   6.993   6.787 -0.6409  0.6380 -0.1043
 3782TIP3   OH211288   5.649   2.515   3.704  0.2498  0.0231 -0.1102
 3782TIP3    H111289   5.657   2.561   3.620  0.8980  2.0825  1.0079
 3782TIP3    H211290   5.739   2.497   3.730  0.1095  0.3853  0.6469
 3783TIP3   OH211291   0.699   7.347   2.321 -0.3402  0.3246 -0.3147
 3783TIP3    H111292   0.784   7.391   2.315 -0.7357  1.0832 -0.5657
 3783TIP3    H211293   0.719   7.254   2.312  0.4582  0.4970 -0.4171
 3784TIP3   OH211294   4.166   1.795   0.591  0.1144 -0.2808 -0.5533
 3784TIP3    H111295   4.105   1.739   0.639 -0.0403  1.5993  1.5943
 3784TIP3    H211296   4.129   1.801   0.503 -1.0830 -1.6876 -0.1857
 3785TIP3   OH211297   6.865   5.372   4.033  0.3166  0.6880 -0.3138
 3785TIP3    H111298   6.829   5.460   4.046  2.3517  1.4184  0.8681
 3785TIP3    H211299   6.946   5.387   3.985  0.8963 -0.4979  0.2651
 3786TIP3   OH211300   3.399   0.052   3.921  0.1618  0.2210 -0.3815
 3786TIP3    H111301   3.463   0.056   3.851  1.3170 -1.1427  0.5412
 3786TIP3    H211302   3.415   0.131   3.973  1.1590 -0.1534 -0.1128
 3787TIP3   OH211303   3.527   3.020   5.539  0.4539  0.3234 -0.0557
 3787TIP3    H111304   3.455   2.980   5.589  0.6864 -0.2723 -0.1861
 3787TIP3    H211305   3.563   3.086   5.597  0.0932  0.3047  0.1907
 3788TIP3   OH211306   4.608   6.563   2.930 -0.1184  0.2061 -0.1458
 3788TIP3    H111307   4.615   6.469   2.914 -1.3712 -0.2111  1.4590
 3788TIP3    H211308   4.563   6.570   3.014 -0.5585  2.2516 -0.4878
 3789TIP3   OH211309   0.430   1.470   2.041  0.7427 -0.7473 -0.0586
 3789TIP3    H111310   0.357   1.501   2.094 -0.0802 -1.6807 -0.6128
 3789TIP3    H211311   0.420   1.375   2.040  0.2155 -0.7344 -2.5555
 3790TIP3   OH211312   4.065   3.224   2.974 -0.1442  0.1069 -0.3371
 3790TIP3    H111313   3.999   3.291   2.957  0.1490  0.8183  1.1672
 3790TIP3    H211314   4.143   3.273   2.999  0.4315 -0.7720 -0.3744
 3791TIP3   OH211315   2.473   5.221   0.558 -0.6659  0.3199 -0.2917
 3791TIP3    H111316   2.544   5.171   0.518 -1.0578 -2.2208  1.9628
 3791TIP3    H211317   2.424   5.256   0.483 -0.3001 -2.6221 -2.0715
 3792TIP3   OH211318   1.463   0.996   1.117  0.3339 -0.6407  0.3841
 3792TIP3    H111319   1.537   1.014   1.059  0.5673  0.3056  0.9611
 3792TIP3    H211320   1.442   1.080   1.157 -0.1509 -1.1752  1.2915
 3793TIP3   OH211321   1.178   6.937   6.208 -0.3216  0.0476  0.5190
 3793TIP3    H111322   1.106   6.973   6.260 -1.8855  0.1788 -1.6206
 3793TIP3    H211323   1.219   7.013   6.168 -0.6391 -0.2043 -0.2960
 3794TIP3   OH211324   3.841   6.605   1.087  0.5007 -0.2980  0.0849
 3794TIP3    H111325   3.759   6.653   1.094  0.6409 -0.1429  0.6925
 3794TIP3    H211326   3.822   6.532   1.028  0.1933  0.3022 -0.5598
 3795TIP3   OH211327   3.526   4.949   3.719  0.4734  0.4917 -0.1869
 3795TIP3    H111328   3.432   4.932   3.728  0.8228 -4.2522 -2.3860
 3795TIP3    H211329   3.536   4.983   3.630  0.8704  0.8402 -0.0141
 3796TIP3   OH211330   7.636   2.462   0.852  0.6607  0.0404 -0.0830
 3796TIP3    H111331   7.682   2.465   0.768  0.1976 -1.9787 -0.4477
 3796TIP3    H211332   7.706   2.469   0.918  1.4000 -1.6406 -0.6445
 3797TIP3   OH211333   5.870   2.066   4.291 -0.0618 -0.3094  0.0358
 3797TIP3    H111334   5.862   2.135   4.357 -0.9430  0.6317 -1.0158
 3797TIP3    H211335   5.799   2.005   4.311 -0.0329 -0.2763  0.2435
 3798TIP3   OH211336   4.875   2.245   3.007 -0.3601  0.2936 -0.3358
 3798TIP3    H111337   4.789   2.254   2.966  0.0453  0.4860 -1.1682
 3798TIP3    H211338   4.863   2.277   3.097 -0.9588  1.0913 -0.6914
 3799TIP3   OH211339   5.670   0.705   6.456 -0.0507 -0.6058 -0.3631
 3799TIP3    H111340   5.758   0.729   6.485 -0.3661 -0.5191  0.5488
 3799TIP3    H211341   5.640   0.780   6.403  0.2704 -0.4685 -0.3493
 3800TIP3   OH211342   8.087   0.691   3.685 -0.0540 -0.9575 -0.8712
 3800TIP3    H111343   8.099   0.597   3.673  2.2456 -0.7323 -0.8144
 3800TIP3    H211344   8.166   0.719   3.731 -2.0814  0.5455  1.9745
 3801TIP3   OH211345   4.195   5.625   1.923  0.4137 -0.0173 -0.6842
 3801TIP3    H111346   4.171   5.705   1.876  1.0570  1.0530  0.7257
 3801TIP3    H211347   4.289   5.615   1.906  1.0263  1.2607  1.4907
 3802TIP3   OH211348   3.513   3.700   0.445 -0.8420 -0.4910 -0.5130
 3802TIP3    H111349   3.468   3.690   0.362  0.5764 -0.5685 -1.3108
 3802TIP3    H211350   3.453   3.750   0.500 -1.4049  0.4248 -1.9196
 3803TIP3   OH211351   1.611   4.465   0.684 -0.0979  0.0678  0.2204
 3803TIP3    H111352   1.675   4.453   0.614  0.8061  0.5096  0.9494
 3803TIP3    H211353   1.560   4.383   0.684  2.2643 -1.5191  1.4005
 3804TIP3   OH211354   5.218   5.212   2.748 -0.2057 -0.1104  0.0290
 3804TIP3    H111355   5.160   5.288   2.740  0.3169  0.2963  0.0969
 3804TIP3    H211356   5.212   5.186   2.840  0.3136  0.4082  0.2130
 3805TIP3   OH211357   3.726   6.367   4.129  0.5571  0.0797 -0.3314
 3805TIP3    H111358   3.730   6.298   4.195 -1.6072 -0.7969 -1.0159
 3805TIP3    H211359   3.759   6.327   4.049  1.5604  0.6116 -0.1975
 3806TIP3   OH211360   6.676   5.360   2.422  0.5862 -0.5178  0.1544
 3806TIP3    H111361   6.692   5.269   2.399  0.3775 -1.1680  2.4082
 3806TIP3    H211362   6.583   5.374   2.403  0.6909 -0.6716 -0.4822
 3807TIP3   OH211363   6.068   4.389   3.741 -0.3040 -0.1679 -0.2561
 3807TIP3    H111364   5.988   4.345   3.711 -0.1078 -0.8429  0.1860
 3807TIP3    H211365   6.105   4.429   3.662 -1.4496  0.7746 -0.3468
 3808TIP3   OH211366   4.330   2.550   2.449 -0.2453  0.2376  0.1596
 3808TIP3    H111367   4.394   2.611   2.412 -0.1182  0.0403  0.0524
 3808TIP3    H211368   4.249   2.602   2.456  0.0545  0.6277  0.7553
 3809TIP3   OH211369   0.928   3.113   0.341 -0.3202 -0.1895  0.0954
 3809TIP3    H111370   0.944   3.184   0.404 -0.1443 -0.4289  0.3259
 3809TIP3    H211371   0.833   3.100   0.343 -0.2420 -0.6950  0.8675
 3810TIP3   OH211372   5.091   3.116   6.490  0.2859 -0.1736 -0.4851
 3810TIP3    H111373   5.065   3.097   6.400 -2.7032 -0.6977  0.3956
 3810TIP3    H211374   5.154   3.047   6.512  1.7936  0.4839 -2.3734
 3811TIP3   OH211375   6.254   6.970   3.459 -0.0234  0.0571 -0.6238
 3811TIP3    H111376   6.292   6.883   3.443 -1.0142 -0.1853 -1.8589
 3811TIP3    H211377   6.253   6.979   3.554  0.7185 -0.9940 -0.4955
 3812TIP3   OH211378   6.216   1.285   2.382 -0.9652 -0.5944 -0.1024
 3812TIP3    H111379   6.177   1.314   2.465 -0.7043 -0.4995 -0.0134
 3812TIP3    H211380   6.220   1.363   2.328 -0.6435 -0.5484 -0.0119
 3813TIP3   OH211381   3.071   5.910   3.859 -0.0152 -0.2653 -0.2453
 3813TIP3    H111382   3.103   5.999   3.876 -1.5725  0.0647  1.2205
 3813TIP3    H211383   3.094   5.861   3.937 -1.9415 -0.2991  0.3584
 3814TIP3   OH211384   6.692   6.197   6.623 -0.0996  0.8926  0.3332
 3814TIP3    H111385   6.765   6.144   6.591  0.2276  0.6710  1.3885
 3814TIP3    H211386   6.616   6.139   6.620  0.2511  0.3440  1.4555
 3815TIP3   OH211387   2.765   1.169   3.420  0.2104  0.4550 -0.4025
 3815TIP3    H111388   2.716   1.182   3.339  0.9789  1.2964 -0.7451
 3815TIP3    H211389   2.707   1.203   3.488 -0.5928 -0.5854 -0.5303
 3816TIP3   OH211390   6.574   0.235   4.816  0.0848  0.0620 -0.2201
 3816TIP3    H111391   6.528   0.191   4.744  0.7640  0.1819 -0.7344
 3816TIP3    H211392   6.504   0.263   4.875 -0.3664 -1.7033  0.1363
 3817TIP3   OH211393   6.397   6.274   6.314 -0.4769  0.0815  0.0823
 3817TIP3    H111394   6.348   6.210   6.261  1.6825  0.8567 -3.1426
 3817TIP3    H211395   6.338   6.349   6.320 -1.5942 -0.8065  0.6891
 3818TIP3   OH211396   3.206   4.934   0.720  0.6408  0.2964  0.3720
 3818TIP3    H111397   3.124   4.902   0.682  0.2731  1.4801  0.0955
 3818TIP3    H211398   3.187   4.944   0.813  0.3951  0.7193  0.2846
 3819TIP3   OH211399   2.073   0.998   1.588 -0.3738  0.6608 -0.4609
 3819TIP3    H111400   2.162   0.968   1.571 -0.5619  0.1562 -0.5803
 3819TIP3    H211401   2.080   1.055   1.664 -0.0909 -0.1634  0.1347
 3820TIP3   OH211402   6.911   0.110   0.294 -0.7626 -0.2502  0.3963
 3820TIP3    H111403   6.942   0.050   0.227  0.1414  1.1475 -0.4878
 3820TIP3    H211404   6.816   0.116   0.279 -0.5049  0.4895 -1.1865
 3821TIP3   OH211405   5.147   6.949   4.114 -0.0333  0.2467  0.4736
 3821TIP3    H111406   5.063   6.905   4.110 -0.4170  0.8656  1.3641
 3821TIP3    H211407   5.182   6.925   4.200 -0.2440  1.6415  0.9642
 3822TIP3   OH211408   0.532   3.233   3.458  0.0087 -0.3960  0.3376
 3822TIP3    H111409   0.603   3.297   3.449 -0.1169 -0.2280  0.5456
 3822TIP3    H211410   0.503   3.242   3.549 -0.2710 -0.4711  0.2568
 3823TIP3   OH211411   8.180   6.300   6.640  0.1732  0.0755  0.1196
 3823TIP3    H111412   8.139   6.241   6.577  0.8608 -0.2417 -0.0529
 3823TIP3    H211413   8.274   6.285   6.628  0.3198 -0.7702  1.9282
 3824TIP3   OH211414   6.560   1.225   2.258 -0.0816 -0.3142 -0.3802
 3824TIP3    H111415   6.591   1.296   2.314 -0.8141 -0.4236  0.1756
 3824TIP3    H211416   6.586   1.250   2.170  0.7021  0.0709 -0.0416
 3825TIP3   OH211417   3.492   1.432   5.923  0.2318 -0.9336  0.4574
 3825TIP3    H111418   3.404   1.442   5.960  0.3428 -0.1659  0.5326
 3825TIP3    H211419   3.480   1.442   5.829  0.3198 -0.2392  0.5188
 3826TIP3   OH211420   7.621   7.687   4.675  0.2519 -0.2345  0.1471
 3826TIP3    H111421   7.699   7.632   4.678 -0.8640 -1.9238 -0.5261
 3826TIP3    H211422   7.558   7.643   4.733 -0.9558 -0.1792 -1.0757
 3827TIP3   OH211423   1.883   5.862   4.593 -0.5982  0.2482 -0.1059
 3827TIP3    H111424   1.849   5.864   4.682 -0.3964 -0.9561  0.0117
 3827TIP3    H211425   1.861   5.775   4.560  0.0016  0.4024 -0.9681
 3828TIP3   OH211426   5.047   1.782   3.200 -0.3280  0.1940 -0.4105
 3828TIP3    H111427   4.979   1.842   3.227 -1.4077 -2.0419  2.3246
 3828TIP3    H211428   5.017   1.747   3.116 -1.6141  0.6124 -0.1396
 3829TIP3   OH211429   0.806   6.260   0.874 -0.4084 -0.4959  0.7594
 3829TIP3    H111430   0.815   6.335   0.933  1.9559 -0.8678  0.9947
 3829TIP3    H211431   0.739   6.205   0.915 -1.4183  0.9744  1.1384
 3830TIP3   OH211432   1.861   0.414   2.689 -0.0589 -0.2811 -0.0479
 3830TIP3    H111433   1.921   0.469   2.637  0.5293 -0.2364  0.6713
 3830TIP3    H211434   1.849   0.463   2.770  1.9429 -2.0431  1.3964
 3831TIP3   OH211435   2.460   6.244   0.284  0.1872  0.4661 -0.0647
 3831TIP3    H111436   2.402   6.173   0.257  1.8081 -0.8504 -0.2282
 3831TIP3    H211437   2.496   6.278   0.202  0.5839  0.4525  0.1022
 3832TIP3   OH211438   0.640   0.741   5.274 -0.0974  0.5338  0.3651
 3832TIP3    H111439   0.625   0.835   5.262  0.6698  0.5428 -0.6452
 3832TIP3    H211440   0.649   0.707   5.185 -0.0675 -0.4479  0.7369
 3833TIP3   OH211441   4.133   3.334   3.982 -0.5298 -0.0976 -0.3364
 3833TIP3    H111442   4.101   3.248   4.009 -0.6058  0.6439  2.1961
 3833TIP3    H211443   4.057   3.392   3.992  0.0194  0.6040 -0.1556
 3834TIP3   OH211444   2.404   4.977   4.858  0.1224 -0.6084  0.0649
 3834TIP3    H111445   2.469   4.985   4.928 -0.8560 -0.4239  0.9810
 3834TIP3    H211446   2.449   5.011   4.780  1.0072 -0.1651  0.7389
 3835TIP3   OH211447   6.177   2.041   0.648 -0.5071  0.5826  0.0726
 3835TIP3    H111448   6.167   1.967   0.708  1.1063 -3.1459 -3.7515
 3835TIP3    H211449   6.271   2.049   0.635 -0.7118  2.6810 -0.4672
 3836TIP3   OH211450   7.149   3.818   0.983 -0.0301 -0.0636  0.3295
 3836TIP3    H111451   7.124   3.854   0.897 -3.3909  0.7417  1.4908
 3836TIP3    H211452   7.194   3.736   0.962 -1.0755 -0.0988 -2.1916
 3837TIP3   OH211453   2.134   7.343   6.788 -0.2869  0.3700 -0.4583
 3837TIP3    H111454   2.204   7.315   6.729  0.1843 -1.0918  0.7501
 3837TIP3    H211455   2.114   7.433   6.760  3.0043  1.3907  0.0070
 3838TIP3   OH211456   2.193   2.339   2.322  0.5754  0.6315  0.3605
 3838TIP3    H111457   2.193   2.249   2.354 -1.6172  1.0776  1.8088
 3838TIP3    H211458   2.217   2.392   2.399 -1.3694  1.4802  0.4334
 3839TIP3   OH211459   2.079   4.697   2.429  0.4623  0.1078 -0.5596
 3839TIP3    H111460   2.125   4.639   2.369  0.2243 -1.1222  0.4113
 3839TIP3    H211461   2.008   4.643   2.464  0.6353  0.7790  0.8657
 3840TIP3   OH211462   5.513   1.313   1.570  0.0737  0.1168 -0.6761
 3840TIP3    H111463   5.543   1.385   1.515  0.4362  0.1288 -0.4674
 3840TIP3    H211464   5.426   1.292   1.537  0.4729 -0.1844 -1.5505
 3841TIP3   OH211465   2.209   4.912   3.364  0.4220 -0.3658  0.5403
 3841TIP3    H111466   2.216   4.997   3.320  1.2857 -0.9968 -0.6241
 3841TIP3    H211467   2.119   4.886   3.350 -0.3763  1.1291  2.4706
 3842TIP3   OH211468   1.144   5.383   0.826 -0.1901  0.0954  0.2190
 3842TIP3    H111469   1.056   5.345   0.827 -0.3346  0.4287  0.5021
 3842TIP3    H211470   1.184   5.353   0.907  0.3808 -1.0120 -0.4506
 3843TIP3   OH211471   2.021   1.842   1.345 -0.5470  0.2913 -0.4493
 3843TIP3    H111472   2.001   1.801   1.261 -1.5439  1.0111 -0.5756
 3843TIP3    H211473   2.033   1.768   1.405 -0.6725 -0.2117 -1.0328
 3844TIP3   OH211474   7.098   2.588   0.281  0.2115  0.0437  0.9033
 3844TIP3    H111475   7.150   2.524   0.329 -0.0717 -0.8462  0.0461
 3844TIP3    H211476   7.163   2.636   0.228  0.4291  0.5320  1.5885
 3845TIP3   OH211477   6.157   5.233   0.763 -0.0982  0.1484 -0.3992
 3845TIP3    H111478   6.200   5.302   0.711 -1.2412 -0.5467 -2.3902
 3845TIP3    H211479   6.197   5.152   0.731 -0.0295 -0.2317  0.6402
 3846TIP3   OH211480   3.354   5.193   4.266 -0.1984  0.0352 -0.1456
 3846TIP3    H111481   3.430   5.207   4.210 -0.9263  0.0280 -1.1778
 3846TIP3    H211482   3.390   5.185   4.354  1.1826 -1.7169 -0.7909
 3847TIP3   OH211483   7.875   4.274   2.679  0.3440 -0.3785  0.4235
 3847TIP3    H111484   7.938   4.339   2.710  1.1830 -0.9660 -0.0060
 3847TIP3    H211485   7.822   4.255   2.756  0.1726  0.7073  0.5859
 3848TIP3   OH211486   1.765   4.517   5.466  0.2649  0.0929  0.0246
 3848TIP3    H111487   1.725   4.430   5.467  1.1282 -0.4023 -2.1151
 3848TIP3    H211488   1.774   4.540   5.558 -1.7142 -1.2457  0.6283
 3849TIP3   OH211489   0.443   7.744   1.499  0.6544 -0.2092 -0.0942
 3849TIP3    H111490   0.359   7.776   1.531  0.3409 -0.1400 -0.9495
 3849TIP3    H211491   0.492   7.721   1.578 -0.3306 -0.6709  0.4058
 3850TIP3   OH211492   6.877   3.921   0.613 -0.6663  0.4866  0.8176
 3850TIP3    H111493   6.923   4.003   0.594 -0.0844  0.6209  2.5709
 3850TIP3    H211494   6.859   3.883   0.528  0.2326  1.8042  0.0011
 3851TIP3   OH211495   1.333   7.499   2.693  0.0936 -0.9287 -0.0464
 3851TIP3    H111496   1.374   7.423   2.733  1.3420 -0.2183  0.0782
 3851TIP3    H211497   1.298   7.467   2.610  0.4410 -1.6792  0.0920
 3852TIP3   OH211498   6.834   3.985   4.609  0.0899 -0.7231  0.2677
 3852TIP3    H111499   6.892   3.947   4.675  0.3013  3.2145  2.6318
 3852TIP3    H211500   6.888   3.995   4.531  0.9271 -2.0259  0.6482
 3853TIP3   OH211501   5.082   6.717   4.358  0.0712  0.0781 -0.1526
 3853TIP3    H111502   5.016   6.776   4.323 -0.1008 -0.4745 -0.7898
 3853TIP3    H211503   5.162   6.739   4.310  0.0950  0.0471 -0.1272
 3854TIP3   OH211504   6.068   5.983   3.812 -0.3612  0.4044 -0.8768
 3854TIP3    H111505   6.054   6.023   3.726  3.1095  0.0897 -1.7392
 3854TIP3    H211506   6.071   6.057   3.872 -1.3323  0.7506 -1.2335
 3855TIP3   OH211507   3.908   5.268   5.815 -0.3038 -0.3980  0.0784
 3855TIP3    H111508   3.981   5.274   5.876 -1.8600  0.9149  1.9349
 3855TIP3    H211509   3.910   5.351   5.767 -0.8504 -0.1548  0.4739
 3856TIP3   OH211510   1.999   4.828   0.019 -0.0877  0.3990  0.0819
 3856TIP3    H111511   2.001   4.804   0.112  0.0608 -1.9906 -0.4669
 3856TIP3    H211512   1.906   4.839  -0.000 -0.8236 -4.3983 -0.5368
 3857TIP3   OH211513   3.610   5.718   5.945 -0.3660  0.0633 -0.3635
 3857TIP3    H111514   3.604   5.809   5.914 -0.3301 -0.1102 -0.8816
 3857TIP3    H211515   3.575   5.666   5.873  0.0345 -0.3699 -0.2464
 3858TIP3   OH211516   4.109   4.498   4.491 -0.2277  0.0422 -0.1605
 3858TIP3    H111517   4.127   4.520   4.582 -1.6367  1.1431 -0.1049
 3858TIP3    H211518   4.176   4.435   4.467 -0.7082 -1.4146  2.0885
 3859TIP3   OH211519   1.455   2.477   0.056  0.2010  0.2976  0.8284
 3859TIP3    H111520   1.524   2.412   0.040 -0.9283 -0.1774 -3.1470
 3859TIP3    H211521   1.470   2.506   0.146  0.9883 -5.1480  2.8339
 3860TIP3   OH211522   4.369   3.557   2.025  0.0429  0.8284 -0.2093
 3860TIP3    H111523   4.454   3.540   1.984 -0.6218 -0.5893 -1.0801
 3860TIP3    H211524   4.306   3.518   1.965 -1.1565  0.9996  0.9103
 3861TIP3   OH211525   2.288   6.394   2.802 -0.1984 -0.2851  0.0677
 3861TIP3    H111526   2.371   6.360   2.834 -0.2579 -1.0175 -0.5189
 3861TIP3    H211527   2.273   6.474   2.852  0.4197 -0.6223  0.8018
 3862TIP3   OH211528   1.812   0.932   0.596 -0.0947 -0.2292 -0.4178
 3862TIP3    H111529   1.761   1.012   0.603  0.1909 -0.1175  0.5338
 3862TIP3    H211530   1.747   0.862   0.589 -0.3632 -0.0351  0.1346
 3863TIP3   OH211531   1.165   2.136   1.602  0.0842  0.0399 -0.3974
 3863TIP3    H111532   1.110   2.170   1.673 -2.6894 -3.1736 -0.7337
 3863TIP3    H211533   1.133   2.181   1.523  0.8191  1.1458 -0.0769
 3864TIP3   OH211534   5.024   7.650   0.059 -0.0090  0.1980 -0.0195
 3864TIP3    H111535   5.107   7.627   0.017  0.3640  0.3216  0.6387
 3864TIP3    H211536   5.038   7.632   0.152 -0.5798  0.6314  0.1591
 3865TIP3   OH211537   7.024   3.945   4.425 -0.1648 -0.1103 -0.3742
 3865TIP3    H111538   6.970   3.962   4.348 -0.6107 -0.1605 -0.0833
 3865TIP3    H211539   7.110   3.921   4.390  0.2745  1.9144 -0.8135
 3866TIP3   OH211540   2.003   6.039   0.425  0.3949  0.9482 -0.0635
 3866TIP3    H111541   1.942   6.104   0.389 -0.0819  0.9692  0.7519
 3866TIP3    H211542   1.966   5.955   0.399  1.6382  0.9716 -2.1358
 3867TIP3   OH211543   1.147   7.758   2.446 -0.3233  0.4988 -0.1905
 3867TIP3    H111544   1.170   7.667   2.467 -0.5397  0.4888  0.0089
 3867TIP3    H211545   1.211   7.785   2.381 -0.1513  0.2573 -0.1214
 3868TIP3   OH211546   3.823   3.857   6.749 -0.4781 -0.4619 -0.0218
 3868TIP3    H111547   3.806   3.798   6.676 -1.1092 -2.6011  1.7487
 3868TIP3    H211548   3.899   3.820   6.793  1.4144  2.1370 -0.8323
 3869TIP3   OH211549   7.289   6.260   6.716 -0.4636 -0.1355 -0.5676
 3869TIP3    H111550   7.329   6.175   6.697  1.2473  0.8108 -1.4353
 3869TIP3    H211551   7.269   6.297   6.630  1.5836  1.5601 -0.3877
 3870TIP3   OH211552   2.885   6.799   4.932 -0.1654 -0.8246 -0.0856
 3870TIP3    H111553   2.908   6.804   4.839 -0.6056  1.9764 -0.1370
 3870TIP3    H211554   2.855   6.710   4.945  2.9845 -2.3098 -1.8518
 3871TIP3   OH211555   5.025   5.050   2.922 -0.1976 -0.1376 -0.1430
 3871TIP3    H111556   5.051   4.960   2.903  1.8059  0.4893 -0.6014
 3871TIP3    H211557   4.951   5.066   2.863 -0.5650 -1.4654 -0.0697
 3872TIP3   OH211558   6.628   6.639   3.065 -0.2090 -0.0158  0.3037
 3872TIP3    H111559   6.668   6.563   3.106  0.7978  0.6056  0.5060
 3872TIP3    H211560   6.647   6.628   2.972  0.0599  0.0565  0.3492
 3873TIP3   OH211561   6.800   3.714   2.083 -0.1713  0.5967 -0.6207
 3873TIP3    H111562   6.814   3.730   2.176 -0.5059  1.4747 -0.7133
 3873TIP3    H211563   6.765   3.625   2.079 -0.0292  0.5040  0.0752
 3874TIP3   OH211564   4.998   7.631   2.478  0.2018  0.0045 -0.2425
 3874TIP3    H111565   4.950   7.629   2.561 -0.5538 -0.8939 -0.6830
 3874TIP3    H211566   4.992   7.542   2.445  0.8152  0.2654 -1.0907
 3875TIP3   OH211567   6.305   4.878   4.028  0.2662 -0.0583  0.4135
 3875TIP3    H111568   6.326   4.951   3.970  0.6120  0.2567  0.9245
 3875TIP3    H211569   6.356   4.895   4.107  0.8895 -1.2214  0.2820
 3876TIP3   OH211570   4.017   3.574   4.681  0.8031  0.4224 -0.2160
 3876TIP3    H111571   3.986   3.653   4.636  0.9751  0.3387 -0.4846
 3876TIP3    H211572   3.965   3.503   4.644 -0.4772  0.5920  1.1566
 3877TIP3   OH211573   2.571   1.107   4.950  0.0823 -0.0741  0.4001
 3877TIP3    H111574   2.554   1.170   5.020 -0.9896 -0.0678  0.1425
 3877TIP3    H211575   2.523   1.029   4.976 -2.3318  0.6849 -1.4539
 3878TIP3   OH211576   1.669   2.196   6.120  0.2186  0.0227  0.0297
 3878TIP3    H111577   1.631   2.126   6.174  0.4550  0.9104  1.3938
 3878TIP3    H211578   1.603   2.265   6.120  0.8533  0.6461  0.4919
 3879TIP3   OH211579   2.921   4.805   0.239 -0.6766  0.5347  0.4903
 3879TIP3    H111580   2.934   4.809   0.334 -0.6937  0.3314  0.5014
 3879TIP3    H211581   2.988   4.744   0.208  0.0530  1.4366  0.2333
 3880TIP3   OH211582   1.538   0.817   0.532  0.5558  0.1770 -0.1662
 3880TIP3    H111583   1.500   0.732   0.551  0.3266  0.6792  1.8845
 3880TIP3    H211584   1.478   0.880   0.572  2.1801  1.1333  0.8880
 3881TIP3   OH211585   0.148   1.283   2.284 -0.2499  0.3637 -0.1580
 3881TIP3    H111586   0.062   1.281   2.327  0.3164 -0.7247  0.9695
 3881TIP3    H211587   0.129   1.258   2.193 -1.0399 -0.6486  0.2603
 3882TIP3   OH211588   6.192   2.196   2.461 -0.0740 -0.2273  0.0235
 3882TIP3    H111589   6.221   2.214   2.550  1.0654 -0.9584 -0.1694
 3882TIP3    H211590   6.182   2.282   2.420  0.9131  0.0862  0.4123
 3883TIP3   OH211591   5.428   1.506   5.259 -0.4450 -0.0915  0.3181
 3883TIP3    H111592   5.494   1.475   5.320 -1.0148 -2.2594 -0.1102
 3883TIP3    H211593   5.460   1.592   5.230  1.1131 -0.1842  1.6693
 3884TIP3   OH211594   7.085   6.434   1.300 -0.4662 -0.1521 -0.2523
 3884TIP3    H111595   7.045   6.465   1.218 -1.4838 -0.6344  0.0450
 3884TIP3    H211596   7.014   6.389   1.345 -0.3761  1.4455  1.6237
 3885TIP3   OH211597   0.232   7.852   0.774  0.1742 -0.0034  0.0331
 3885TIP3    H111598   0.300   7.805   0.727 -0.9368 -1.6736  0.0260
 3885TIP3    H211599   0.156   7.793   0.773 -1.4523  1.9763 -0.3911
 3886TIP3   OH211600   1.988   3.952   0.990 -0.1021 -0.2696  0.0008
 3886TIP3    H111601   1.999   3.972   0.897  1.1849  0.1254  0.2154
 3886TIP3    H211602   2.018   4.031   1.035 -0.5927 -0.5053  0.7689
 3887TIP3   OH211603   4.731   5.783   3.489  0.4652 -0.0464  0.0066
 3887TIP3    H111604   4.813   5.749   3.455 -0.2986 -1.0387 -0.9040
 3887TIP3    H211605   4.676   5.796   3.412  0.0280  1.3736  0.5228
 3888TIP3   OH211606   0.608   6.736   5.946  0.1645  0.4604 -0.4973
 3888TIP3    H111607   0.562   6.712   6.026  0.0880 -3.6729 -1.5468
 3888TIP3    H211608   0.547   6.715   5.875  1.9785 -1.0002 -1.7514
 3889TIP3   OH211609   7.263   0.624   5.587  0.1778 -0.2528  0.3051
 3889TIP3    H111610   7.298   0.663   5.507  0.4491 -1.9755 -0.4547
 3889TIP3    H211611   7.315   0.663   5.657  0.2383  0.9373 -0.3735
 3890TIP3   OH211612   1.612   7.097   0.559  0.0990  0.6655 -0.4277
 3890TIP3    H111613   1.688   7.040   0.568  0.7200  1.5025 -0.2612
 3890TIP3    H211614   1.538   7.038   0.546  0.3064 -0.3046  2.2432
 3891TIP3   OH211615   5.311   6.086   3.988  0.0722 -0.2556  0.2177
 3891TIP3    H111616   5.350   6.162   4.031 -0.3358 -0.7949  1.5664
 3891TIP3    H211617   5.266   6.039   4.057 -2.1849 -0.1703 -1.1085
 3892TIP3   OH211618   1.533   2.768   6.797  0.5962 -0.0182 -0.2889
 3892TIP3    H111619   1.516   2.839   6.736 -2.2161 -0.3606 -0.0177
 3892TIP3    H211620   1.523   2.688   6.744 -1.7418 -0.3133  0.4942
 3893TIP3   OH211621   7.726   3.750   4.187  0.3458 -0.4571 -0.1595
 3893TIP3    H111622   7.781   3.760   4.264 -0.2618  1.6289  0.0769
 3893TIP3    H211623   7.708   3.656   4.181  2.3236 -0.9341  0.8398
 3894TIP3   OH211624   2.827   3.234   4.229  0.4554 -0.2248 -0.3412
 3894TIP3    H111625   2.769   3.189   4.168 -0.8452  0.2185  0.5395
 3894TIP3    H211626   2.772   3.299   4.273  1.1202 -1.0370  1.8613
 3895TIP3   OH211627   5.914   7.450   2.169 -0.4766 -0.4819  0.0143
 3895TIP3    H111628   5.931   7.532   2.215 -1.0945 -0.6810  0.6191
 3895TIP3    H211629   5.955   7.462   2.083  1.3744 -0.4010  0.8546
 3896TIP3   OH211630   4.510   2.197   0.226 -0.0233  0.1099 -0.2729
 3896TIP3    H111631   4.547   2.142   0.295  0.4196  1.4353  0.5869
 3896TIP3    H211632   4.419   2.167   0.218  0.3765 -1.1557 -0.2830
 3897TIP3   OH211633   2.495   0.281   3.626  0.1202  0.3330 -0.1371
 3897TIP3    H111634   2.493   0.361   3.679 -0.2158  1.8752 -2.3533
 3897TIP3    H211635   2.444   0.303   3.548 -0.7212 -2.3694 -0.4416
 3898TIP3   OH211636   2.986   6.762   0.944 -0.2781  0.5162  0.3054
 3898TIP3    H111637   2.968   6.668   0.954  1.7569  0.1827  1.4937
 3898TIP3    H211638   3.050   6.767   0.874 -0.4326  1.0408  0.1983
 3899TIP3   OH211639   2.779   7.276   6.248  0.1929  0.2234  0.2961
 3899TIP3    H111640   2.855   7.320   6.287  0.5497 -0.4892  0.4173
 3899TIP3    H211641   2.716   7.347   6.233  1.1000  0.9211 -0.3521
 3900TIP3   OH211642   4.314   6.320   4.696 -0.3225 -0.0512  0.4501
 3900TIP3    H111643   4.303   6.237   4.743 -0.0433  0.0257  0.6488
 3900TIP3    H211644   4.311   6.386   4.764  0.2322  0.0527  0.3730
 3901TIP3   OH211645   2.798   4.793   6.460 -0.5073  0.0194  0.2757
 3901TIP3    H111646   2.796   4.722   6.523 -2.1653  0.0457  0.2937
 3901TIP3    H211647   2.891   4.810   6.445 -0.0789 -0.4574  2.1651
 3902TIP3   OH211648   5.060   1.136   1.709 -0.1059  0.0514  0.5285
 3902TIP3    H111649   5.108   1.212   1.741  1.1351 -0.9029  1.0235
 3902TIP3    H211650   5.105   1.113   1.627 -1.1230  0.4604 -0.1531
 3903TIP3   OH211651   5.901   6.947   3.459 -0.0255 -0.2114  0.0737
 3903TIP3    H111652   5.944   6.972   3.540  2.1731 -1.5668 -0.5680
 3903TIP3    H211653   5.936   7.008   3.394  0.7097 -1.0949 -0.3876
 3904TIP3   OH211654   1.593   1.567   3.100 -0.7382 -0.0573 -0.1677
 3904TIP3    H111655   1.546   1.629   3.043 -0.8108 -1.1091 -1.2799
 3904TIP3    H211656   1.604   1.489   3.047  0.7796 -0.4547  0.6688
 3905TIP3   OH211657   7.699   6.787   3.038  0.0560  0.1300  0.1586
 3905TIP3    H111658   7.616   6.774   2.992 -0.6824  0.6583  1.2747
 3905TIP3    H211659   7.766   6.753   2.979 -0.9034  0.2515 -1.0235
 3906TIP3   OH211660   5.452   4.369   3.729  0.0676 -0.0080  0.3107
 3906TIP3    H111661   5.460   4.274   3.739 -0.4435 -0.2031 -0.8971
 3906TIP3    H211662   5.375   4.380   3.674 -0.0157  1.1258  0.6436
 3907TIP3   OH211663   2.799   1.267   1.272 -0.8585  0.2473 -0.2821
 3907TIP3    H111664   2.806   1.359   1.244 -1.1234  0.2860 -0.2304
 3907TIP3    H211665   2.848   1.263   1.353 -1.2333  0.4526 -0.0415
 3908TIP3   OH211666   4.146   5.171   2.433  0.1123 -0.0537  0.4359
 3908TIP3    H111667   4.108   5.258   2.421  1.8756  0.6977 -0.0652
 3908TIP3    H211668   4.187   5.151   2.348 -1.8474 -2.2257 -0.0841
 3909TIP3   OH211669   5.664   1.907   3.843  0.2357  0.4849  0.2160
 3909TIP3    H111670   5.687   1.848   3.915  2.0558  1.5495  0.5782
 3909TIP3    H211671   5.590   1.958   3.875  0.7899  0.6882  1.2041
 3910TIP3   OH211672   1.405   1.070   6.466  0.3312  0.3412 -0.2646
 3910TIP3    H111673   1.423   1.106   6.553 -0.9492 -0.2361  0.2661
 3910TIP3    H211674   1.347   1.135   6.426 -0.9542 -0.4777  0.2129
 3911TIP3   OH211675   0.626   4.188   2.377  0.0620  0.3023  0.1637
 3911TIP3    H111676   0.718   4.162   2.383  0.7763  1.7940 -2.5023
 3911TIP3    H211677   0.601   4.208   2.467  1.6051 -2.3154  1.2886
 3912TIP3   OH211678   6.073   3.054   5.031 -0.1787 -0.2063  0.4772
 3912TIP3    H111679   6.076   3.144   5.064  0.5808 -0.5100  1.2931
 3912TIP3    H211680   6.061   3.063   4.937 -1.8113  0.7130  0.7314
 3913TIP3   OH211681   1.165   6.200   0.442  0.5412  0.0298  0.5643
 3913TIP3    H111682   1.211   6.265   0.390  0.1458 -0.0380  0.1234
 3913TIP3    H211683   1.111   6.152   0.379 -1.4485  1.2141  1.2689
 3914TIP3   OH211684   4.053   0.751   5.936  0.3027  0.5627  0.3083
 3914TIP3    H111685   4.095   0.666   5.939 -0.2556  0.2981  0.8323
 3914TIP3    H211686   3.985   0.742   5.869 -1.1637 -0.0902  1.8058
 3915TIP3   OH211687   3.574   6.328   0.133  0.0850  0.2848 -0.7014
 3915TIP3    H111688   3.572   6.410   0.083  1.5966  0.2324 -0.9006
 3915TIP3    H211689   3.635   6.345   0.205 -1.2388  0.0041  0.5330
 3916TIP3   OH211690   5.579   5.680   1.531 -0.0041 -0.2613  0.4427
 3916TIP3    H111691   5.575   5.776   1.536  0.5880 -0.0866 -1.4610
 3916TIP3    H211692   5.603   5.662   1.440  1.6743 -2.1848  1.1947
 3917TIP3   OH211693   1.896   4.153   5.051 -0.2096  0.0819  0.2988
 3917TIP3    H111694   1.865   4.064   5.060  1.5833 -0.5618  0.6113
 3917TIP3    H211695   1.913   4.182   5.141  0.8090  0.0969  0.1209
 3918TIP3   OH211696   0.547   7.219   3.949 -0.5098  0.2055  0.9608
 3918TIP3    H111697   0.467   7.171   3.930 -0.3457 -0.0692  0.9467
 3918TIP3    H211698   0.617   7.156   3.931 -0.3316  0.1083  1.9399
 3919TIP3   OH211699   0.889   5.821   2.508 -0.0407 -0.6360  0.0918
 3919TIP3    H111700   0.881   5.732   2.476 -2.1081 -0.2517 -0.6561
 3919TIP3    H211701   0.803   5.841   2.545 -0.0999  1.4749 -1.0070
 3920TIP3   OH211702   4.084   1.536   5.054  0.3323 -0.1816  0.2334
 3920TIP3    H111703   4.005   1.590   5.056 -0.4454 -1.2936  0.7822
 3920TIP3    H211704   4.146   1.582   5.112  0.9687  1.9079 -1.9588
 3921TIP3   OH211705   3.828   1.369   0.754  0.2742  0.3842  0.1794
 3921TIP3    H111706   3.913   1.410   0.763 -0.3513  1.9208 -0.5759
 3921TIP3    H211707   3.847   1.278   0.729  1.6803  0.2323  1.6540
 3922TIP3   OH211708   3.441   2.261   1.424 -0.0086  0.0720 -0.3459
 3922TIP3    H111709   3.471   2.186   1.374 -2.7718 -2.3276  1.2825
 3922TIP3    H211710   3.424   2.329   1.359  3.2171 -0.3583 -1.7976
 3923TIP3   OH211711   0.879   2.337   0.823 -0.1713 -0.0014 -0.2447
 3923TIP3    H111712   0.964   2.354   0.863  0.0937  0.1040 -0.8353
 3923TIP3    H211713   0.852   2.252   0.859 -0.2075  0.3531  0.5816
 3924TIP3   OH211714   1.859   2.305   0.876 -0.2914  0.2141  0.3135
 3924TIP3    H111715   1.785   2.349   0.834  1.1594  1.1818 -1.3780
 3924TIP3    H211716   1.844   2.212   0.861 -0.6351  0.4608 -0.9346
 3925TIP3   OH211717   2.922   6.243   1.553  0.3860 -0.1521 -0.2142
 3925TIP3    H111718   2.893   6.163   1.597 -0.0194 -0.2817 -0.7054
 3925TIP3    H211719   2.912   6.311   1.619  0.9451 -0.5394  0.2785
 3926TIP3   OH211720   6.751   0.278   6.486 -0.0076 -0.6099 -0.5064
 3926TIP3    H111721   6.767   0.322   6.570 -0.0740 -2.8059  0.7162
 3926TIP3    H211722   6.666   0.312   6.458 -0.2519 -0.2590  0.5997
 3927TIP3   OH211723   3.242   4.714   4.551  0.3523  0.1395 -0.0262
 3927TIP3    H111724   3.209   4.643   4.496  0.7689 -0.9182  1.0389
 3927TIP3    H211725   3.323   4.743   4.508  0.3173 -0.2036 -0.3229
 3928TIP3   OH211726   2.564   1.407   3.214  0.8097  0.2992  0.0939
 3928TIP3    H111727   2.543   1.435   3.303  0.4879 -0.1056  0.1503
 3928TIP3    H211728   2.533   1.478   3.158 -0.7932 -0.3059  0.1684
 3929TIP3   OH211729   1.901   3.285   3.406 -0.3947 -0.0272 -0.4288
 3929TIP3    H111730   1.863   3.199   3.420 -0.3797  0.0377  0.0274
 3929TIP3    H211731   1.864   3.315   3.323 -1.1426 -0.0705 -0.1193
 3930TIP3   OH211732   2.359   2.339   6.629  0.1359 -0.2851  0.2491
 3930TIP3    H111733   2.396   2.403   6.689  1.5915 -0.1037 -0.7984
 3930TIP3    H211734   2.269   2.368   6.616 -0.3257 -0.4839  2.5166
 3931TIP3   OH211735   5.966   5.376   2.391  0.6310 -0.1843 -0.0609
 3931TIP3    H111736   5.930   5.417   2.313  0.2507 -1.5943 -0.6728
 3931TIP3    H211737   5.925   5.422   2.464  1.1201  1.2672 -0.6719
 3932TIP3   OH211738   0.535   5.623   1.556  0.0313 -0.2861  0.4204
 3932TIP3    H111739   0.579   5.556   1.607  0.5480 -0.8721 -0.7611
 3932TIP3    H211740   0.584   5.703   1.574  0.2578 -0.5033  0.7723
 3933TIP3   OH211741   2.617   5.334   0.750 -0.2974  0.2898 -0.0369
 3933TIP3    H111742   2.573   5.299   0.673 -0.6402  0.6253  0.0053
 3933TIP3    H211743   2.573   5.417   0.768  0.2953  0.5860  0.0611
 3934TIP3   OH211744   7.691   7.604   3.498  0.0744 -0.6432 -0.3154
 3934TIP3    H111745   7.714   7.696   3.507 -0.5207 -0.5811  0.7870
 3934TIP3    H211746   7.661   7.578   3.586 -0.0188 -1.8089 -0.6728
 3935TIP3   OH211747   3.213   6.609   3.383  0.3987 -0.1788 -0.2803
 3935TIP3    H111748   3.151   6.536   3.387  1.6833 -1.3525 -0.9016
 3935TIP3    H211749   3.175   6.676   3.441 -1.0828 -1.1134 -0.1127
 3936TIP3   OH211750   1.459   1.139   1.642 -0.2608 -0.0362 -0.1520
 3936TIP3    H111751   1.484   1.231   1.638  1.3355 -0.4547 -0.6155
 3936TIP3    H211752   1.535   1.095   1.681 -1.3363 -1.0469  0.8845
 3937TIP3   OH211753   6.204   5.307   5.460  0.3259  0.5039 -0.1205
 3937TIP3    H111754   6.153   5.278   5.384  0.4274  0.0195 -0.0053
 3937TIP3    H211755   6.292   5.320   5.427  1.0622 -2.3684  0.4370
 3938TIP3   OH211756   7.705   5.679   4.890  0.2247  0.6213 -0.4117
 3938TIP3    H111757   7.686   5.738   4.817 -0.0783  1.9082  0.6575
 3938TIP3    H211758   7.620   5.647   4.919  0.3289  0.2624 -0.4929
 3939TIP3   OH211759   0.190   5.042   0.295  0.0872  0.1496  0.0076
 3939TIP3    H111760   0.211   5.016   0.205 -0.4789 -0.6359  0.0883
 3939TIP3    H211761   0.097   5.062   0.293  0.0816  0.1619  0.4102
 3940TIP3   OH211762   0.937   1.601   0.668  0.6771 -0.7846 -0.1117
 3940TIP3    H111763   1.025   1.611   0.631  0.6596 -0.9541 -0.2044
 3940TIP3    H211764   0.939   1.514   0.709 -0.1019 -1.7417 -1.9774
 3941TIP3   OH211765   6.500   6.567   6.678  0.1239  0.3618 -0.4443
 3941TIP3    H111766   6.485   6.599   6.589  0.2379 -2.4695 -1.5901
 3941TIP3    H211767   6.592   6.540   6.679  0.2415  0.7546  0.6849
 3942TIP3   OH211768   2.816   6.750   4.002 -0.4180 -0.3038  0.3568
 3942TIP3    H111769   2.818   6.791   4.089  1.4035 -3.0416  1.7727
 3942TIP3    H211770   2.874   6.674   4.011 -0.2086 -0.7245 -3.2901
 3943TIP3   OH211771   1.211   1.501   2.122 -0.2193 -0.1621 -0.4523
 3943TIP3    H111772   1.210   1.409   2.147  0.3845  0.0915  0.5658
 3943TIP3    H211773   1.207   1.549   2.205  0.7700  0.7197 -0.8793
 3944TIP3   OH211774   6.707   6.746   6.287 -0.4896 -0.3593 -0.3421
 3944TIP3    H111775   6.667   6.753   6.201 -1.3691  3.0404  0.1951
 3944TIP3    H211776   6.638   6.712   6.343 -1.3720  1.5135 -0.2267
 3945TIP3   OH211777   0.178   5.859   4.258 -0.3349 -0.1896  0.2655
 3945TIP3    H111778   0.175   5.868   4.353  1.2772  1.0035  0.2487
 3945TIP3    H211779   0.123   5.931   4.225 -2.5025 -1.7492  0.2489
 3946TIP3   OH211780   6.230   2.494   1.713 -0.0355 -0.0756 -0.8854
 3946TIP3    H111781   6.305   2.532   1.667  0.6252 -1.6555 -1.1479
 3946TIP3    H211782   6.268   2.428   1.771 -1.1052  0.0972  0.0461
 3947TIP3   OH211783   4.350   5.990   0.415 -0.3214 -0.3529 -0.2033
 3947TIP3    H111784   4.402   6.042   0.354 -0.5458 -0.4110 -0.4457
 3947TIP3    H211785   4.265   5.979   0.372 -1.0507  0.9721  0.7963
 3948TIP3   OH211786   1.235   0.157   2.379 -0.1184 -0.0523 -0.2557
 3948TIP3    H111787   1.162   0.095   2.382  0.1926 -0.5110 -1.4430
 3948TIP3    H211788   1.261   0.167   2.471  0.5438 -2.6085 -0.0701
 3949TIP3   OH211789   2.898   6.608   3.412  0.0849 -0.4191 -0.4178
 3949TIP3    H111790   2.888   6.554   3.334  0.3615 -0.7531 -0.2278
 3949TIP3    H211791   2.863   6.554   3.483  0.1504 -0.2552 -0.2595
 3950TIP3   OH211792   3.890   1.461   3.128 -0.2574 -0.0761 -0.0159
 3950TIP3    H111793   3.985   1.468   3.139 -0.4208  1.5531  0.6724
 3950TIP3    H211794   3.878   1.402   3.054  1.2307 -2.0043  1.2131
 3951TIP3   OH211795   8.267   0.747   0.760  0.7143 -0.2841  0.1844
 3951TIP3    H111796   8.238   0.702   0.680  0.9653 -0.5054  0.2148
 3951TIP3    H211797   8.226   0.698   0.831 -0.1391  0.3830  0.1674
 3952TIP3   OH211798   5.903   3.987   6.610  0.7358 -0.0582  0.2937
 3952TIP3    H111799   5.818   4.029   6.620  1.5732  1.6383  0.6555
 3952TIP3    H211800   5.924   3.955   6.698 -0.3588 -2.2725 -0.1797
 3953TIP3   OH211801   4.146   0.595   6.323  0.3878 -0.1876  0.0998
 3953TIP3    H111802   4.199   0.569   6.247  0.7196  0.5682  0.0634
 3953TIP3    H211803   4.177   0.538   6.394 -0.0062 -0.9824 -0.3509
 3954TIP3   OH211804   5.880   3.104   2.840  0.6127  0.2475  0.3717
 3954TIP3    H111805   5.827   3.098   2.760  3.6713 -0.3337 -1.7614
 3954TIP3    H211806   5.873   3.017   2.880  0.5612 -0.0613 -0.2967
 3955TIP3   OH211807   7.019   5.106   6.232 -0.5381  0.1033  0.2423
 3955TIP3    H111808   6.999   5.185   6.182  0.3936  1.8918  2.5564
 3955TIP3    H211809   6.934   5.062   6.241 -1.0930  0.8367 -1.0109
 3956TIP3   OH211810   0.737   5.881   0.159 -0.1696 -0.4817 -0.1439
 3956TIP3    H111811   0.745   5.945   0.088  0.9590 -1.3339 -0.8215
 3956TIP3    H211812   0.737   5.933   0.239  1.6107  0.3433 -0.6391
 3957TIP3   OH211813   4.655   6.500   4.871 -0.3971 -0.0399  0.2141
 3957TIP3    H111814   4.587   6.437   4.894 -1.2535  0.8120  0.0844
 3957TIP3    H211815   4.656   6.501   4.775 -0.7175  0.4729  0.2100
 3958TIP3   OH211816   2.808   4.699   4.649  0.6132 -0.2742  0.0098
 3958TIP3    H111817   2.858   4.778   4.667  0.7754 -0.5719  0.8923
 3958TIP3    H211818   2.720   4.718   4.683  0.1792  0.1450 -1.2863
 3959TIP3   OH211819   2.843   0.280   4.637 -0.1931  0.0322 -0.0945
 3959TIP3    H111820   2.769   0.220   4.627 -1.0902  1.1588 -0.4445
 3959TIP3    H211821   2.902   0.235   4.697 -0.5879 -1.4212 -0.7513
 3960TIP3   OH211822   2.792   6.457   2.063 -1.3839 -0.1146 -0.1604
 3960TIP3    H111823   2.825   6.375   2.027 -3.0079 -1.4552  1.2616
 3960TIP3    H211824   2.843   6.471   2.143 -2.2703 -0.6972  0.5282
 3961TIP3   OH211825   6.070   6.528   3.971  0.4968  0.5956 -0.7166
 3961TIP3    H111826   6.146   6.512   4.027 -0.3747  2.3585  1.1060
 3961TIP3    H211827   6.035   6.612   4.001 -3.0109 -0.7796 -0.4474
 3962TIP3   OH211828   7.321   0.541   5.077  0.2484 -0.0553 -0.1783
 3962TIP3    H111829   7.227   0.530   5.092 -0.0248  2.2605  0.0245
 3962TIP3    H211830   7.329   0.624   5.032  2.0855 -1.1431 -2.0313
 3963TIP3   OH211831   7.950   7.748   0.039 -0.3168 -0.1884  0.1321
 3963TIP3    H111832   7.932   7.724  -0.051 -0.9955 -1.1040  0.4927
 3963TIP3    H211833   8.044   7.770   0.040  0.1992 -2.1543 -0.3915
 3964TIP3   OH211834   4.777   1.236   3.753 -0.0247 -0.0403 -0.2855
 3964TIP3    H111835   4.803   1.145   3.735 -1.7035 -0.5147 -0.5003
 3964TIP3    H211836   4.767   1.276   3.666  0.3499  0.2497 -0.1982
 3965TIP3   OH211837   1.416   6.609   4.649  0.0913 -0.0148  0.9468
 3965TIP3    H111838   1.375   6.563   4.575 -0.6558  2.9344 -0.6505
 3965TIP3    H211839   1.491   6.554   4.673 -0.0879 -1.5027 -1.5115
 3966TIP3   OH211840   6.584   0.499   5.958 -0.2753 -0.5124 -0.3740
 3966TIP3    H111841   6.677   0.490   5.982 -0.0301 -0.7904 -1.4073
 3966TIP3    H211842   6.542   0.530   6.039  1.0459  1.5712 -0.4147
 3967TIP3   OH211843   5.518   4.100   3.734 -0.0317  0.2492 -0.3434
 3967TIP3    H111844   5.483   4.056   3.657 -1.3019 -0.6501  0.7035
 3967TIP3    H211845   5.573   4.034   3.777  1.4156  1.0352 -0.9307
 3968TIP3   OH211846   3.132   4.083   0.214 -0.0963  0.3415  0.3331
 3968TIP3    H111847   3.102   4.015   0.274  1.6962 -0.5866  0.2411
 3968TIP3    H211848   3.215   4.113   0.251 -0.5331  2.0554  0.0214
 3969TIP3   OH211849   6.893   6.134   3.774  0.0907  0.0576  0.1080
 3969TIP3    H111850   6.828   6.117   3.706  0.4312  0.6086 -0.3638
 3969TIP3    H211851   6.878   6.226   3.798  1.0598  0.3645 -0.4163
 3970TIP3   OH211852   2.576   0.574   4.027  0.3105  0.2525 -0.5425
 3970TIP3    H111853   2.613   0.486   4.020  0.2029  0.2330 -0.8948
 3970TIP3    H211854   2.511   0.568   4.097  0.1732  0.0032 -0.6905
 3971TIP3   OH211855   5.944   6.991   0.937 -0.6031 -0.7264 -0.1646
 3971TIP3    H111856   6.010   7.041   0.986 -0.1899 -0.2650 -1.1714
 3971TIP3    H211857   5.861   7.015   0.979 -0.1638 -1.2745  1.0879
 3972TIP3   OH211858   4.632   7.427   3.428  0.9870 -0.6688  0.1439
 3972TIP3    H111859   4.571   7.373   3.479  1.5203  0.1520  1.6949
 3972TIP3    H211860   4.611   7.406   3.337 -1.0018 -1.0821  0.6421
 3973TIP3   OH211861   4.707   1.914   2.069 -0.1171 -0.0487  0.0437
 3973TIP3    H111862   4.661   1.947   1.992 -0.3012  0.7162  0.4745
 3973TIP3    H211863   4.689   1.978   2.137  1.9739  0.5269  0.1192
 3974TIP3   OH211864   1.150   7.163   3.535 -0.9089  0.1995 -0.1609
 3974TIP3    H111865   1.185   7.242   3.494  0.7189 -0.5038 -0.2070
 3974TIP3    H211866   1.089   7.127   3.471  1.0634 -0.4963 -1.7590
 3975TIP3   OH211867   4.720   4.052   6.207  0.1457 -0.0737  0.3775
 3975TIP3    H111868   4.759   4.043   6.294  0.9369  0.5012  0.0951
 3975TIP3    H211869   4.789   4.026   6.146 -0.8833 -1.9408 -0.0537
 3976TIP3   OH211870   6.663   5.054   5.213  0.0917  0.2080  0.1807
 3976TIP3    H111871   6.675   5.057   5.308 -2.0787  1.8439  0.4842
 3976TIP3    H211872   6.570   5.035   5.202  0.3148  0.0582 -1.6314
 3977TIP3   OH211873   5.657   4.599   2.560 -0.1738 -0.2795 -0.4264
 3977TIP3    H111874   5.623   4.512   2.541 -1.3185  0.1754 -0.5724
 3977TIP3    H211875   5.703   4.625   2.480  0.6957 -0.9724 -0.1666
 3978TIP3   OH211876   6.611   0.281   5.411  0.7375 -0.4363 -0.1314
 3978TIP3    H111877   6.623   0.188   5.431 -0.8435 -0.4114  1.2514
 3978TIP3    H211878   6.643   0.327   5.489 -0.0145  0.0663 -0.1048
 3979TIP3   OH211879   1.610   5.063   4.841  0.1034  0.2895  0.3636
 3979TIP3    H111880   1.661   5.008   4.900  1.7553  0.8175 -0.5140
 3979TIP3    H211881   1.627   5.027   4.754 -1.3439  0.2511  0.0801
 3980TIP3   OH211882   5.810   6.884   4.800 -0.2239  0.3753 -0.4557
 3980TIP3    H111883   5.801   6.793   4.772 -1.7989  0.2833  0.2304
 3980TIP3    H211884   5.900   6.908   4.777 -0.0699 -1.0614 -1.4698
 3981TIP3   OH211885   2.598   5.557   1.872 -0.4481 -0.0376  0.1103
 3981TIP3    H111886   2.622   5.591   1.786 -0.6973  1.0103  0.4426
 3981TIP3    H211887   2.671   5.499   1.896 -0.2251 -0.0799 -0.6591
 3982TIP3   OH211888   5.749   1.078   1.780 -0.0831  0.1922  0.3389
 3982TIP3    H111889   5.827   1.114   1.738  0.2974  1.3178  1.9299
 3982TIP3    H211890   5.767   0.984   1.788  0.7898  0.3274  0.0105
 3983TIP3   OH211891   2.724   2.631   3.365  0.3109  0.2349 -0.5682
 3983TIP3    H111892   2.657   2.691   3.397  1.0665  1.0785 -0.5246
 3983TIP3    H211893   2.799   2.645   3.422  0.6722 -0.3878 -0.8736
 3984TIP3   OH211894   7.045   5.832   2.940 -0.3042  0.9762  0.2750
 3984TIP3    H111895   7.063   5.778   3.016  2.4403  0.3523 -0.7144
 3984TIP3    H211896   6.989   5.778   2.885 -1.3485  0.9823  1.2908
 3985TIP3   OH211897   6.962   3.714   3.058  0.0594  0.2153 -0.5880
 3985TIP3    H111898   6.984   3.804   3.085  0.6808 -0.3028  0.7348
 3985TIP3    H211899   7.016   3.699   2.980  0.9704  0.5410 -0.0384
 3986TIP3   OH211900   6.065   3.928   3.459 -0.4214 -0.1092  0.2095
 3986TIP3    H111901   5.971   3.935   3.440 -0.4720 -0.5976  0.2533
 3986TIP3    H211902   6.107   3.958   3.379 -0.6263 -0.7727 -0.1587
 3987TIP3   OH211903   4.654   0.875   5.228  0.1533  0.3068 -0.1650
 3987TIP3    H111904   4.653   0.806   5.294 -2.1358  0.4516  0.0246
 3987TIP3    H211905   4.656   0.957   5.278  0.8680  0.4049 -0.3450
 3988TIP3   OH211906   5.196   5.125   2.483 -0.5022  0.5506 -0.4203
 3988TIP3    H111907   5.203   5.033   2.456  1.0310  0.9006 -1.3477
 3988TIP3    H211908   5.190   5.122   2.578 -0.2909 -0.5119 -0.4284
 3989TIP3   OH211909   1.256   7.055   2.701  0.0475 -0.3965 -0.3120
 3989TIP3    H111910   1.260   6.974   2.651 -1.9355 -0.1348 -1.0035
 3989TIP3    H211911   1.237   7.123   2.637 -0.7376  0.2261  0.5380
 3990TIP3   OH211912   2.772   4.893   2.530 -0.1223  0.3663  0.2495
 3990TIP3    H111913   2.708   4.903   2.601  1.7022  3.1921  1.6849
 3990TIP3    H211914   2.752   4.965   2.469  0.2998 -0.1075 -0.4692
 3991TIP3   OH211915   6.951   4.906   4.845 -0.5019  0.0762 -0.6122
 3991TIP3    H111916   6.871   4.949   4.876 -0.6499 -0.4729 -0.2232
 3991TIP3    H211917   7.011   4.979   4.825 -0.9697  0.4790 -0.5641
 3992TIP3   OH211918   7.974   3.545   3.366 -0.4129 -0.8150 -0.3707
 3992TIP3    H111919   7.989   3.635   3.396  0.6763 -1.4810  1.2328
 3992TIP3    H211920   7.911   3.554   3.295 -0.3751  1.2098 -0.2189
 3993TIP3   OH211921   5.628   0.076   2.426 -0.1173 -0.0284 -0.1205
 3993TIP3    H111922   5.698   0.016   2.402 -0.8049 -0.3124 -1.5261
 3993TIP3    H211923   5.596   0.043   2.510  1.6070  0.2946  0.6946
 3994TIP3   OH211924   3.616   1.273   4.850 -0.1300  0.4204  0.7642
 3994TIP3    H111925   3.564   1.208   4.804  2.0414  0.3350 -1.7933
 3994TIP3    H211926   3.553   1.342   4.873 -2.1885 -1.7674  2.1798
 3995TIP3   OH211927   5.609   0.363   3.563 -0.2586 -0.0855 -0.2995
 3995TIP3    H111928   5.563   0.325   3.489 -2.3372 -1.5342  1.6196
 3995TIP3    H211929   5.540   0.398   3.620  1.0300 -0.9625  1.9666
 3996TIP3   OH211930   6.835   0.791   0.605  0.4420 -0.0353 -0.2238
 3996TIP3    H111931   6.927   0.809   0.623  0.1576  0.2549  1.0744
 3996TIP3    H211932   6.827   0.696   0.610  0.4788  0.0043  0.7611
 3997TIP3   OH211933   2.070   4.474   3.615  0.5947 -0.0582  0.1671
 3997TIP3    H111934   2.057   4.412   3.688  0.7584 -2.1342 -1.4747
 3997TIP3    H211935   2.068   4.560   3.657 -0.7347 -1.0838  2.4334
 3998TIP3   OH211936   7.301   0.111   2.092 -0.4521 -0.0074  0.1526
 3998TIP3    H111937   7.248   0.108   2.171  1.3641 -2.8737  1.4385
 3998TIP3    H211938   7.368   0.177   2.110  0.6050 -1.3921  1.5808
 3999TIP3   OH211939   5.672   5.184   0.895  0.4201  0.1946 -0.3404
 3999TIP3    H111940   5.768   5.183   0.894  0.4854  0.2178  1.3754
 3999TIP3    H211941   5.647   5.091   0.894  0.5359  0.1411  0.5042
 4000TIP3   OH211942   5.711   2.912   6.722  0.6469 -0.1189 -0.1185
 4000TIP3    H111943   5.716   2.849   6.794 -3.8452 -0.1721  0.4556
 4000TIP3    H211944   5.742   2.994   6.761  0.9531 -0.7388  0.9976
 4001TIP3   OH211945   1.693   5.354   5.507  0.6150  0.2224  0.0102
 4001TIP3    H111946   1.675   5.438   5.465 -2.3757 -0.4276 -0.1931
 4001TIP3    H211947   1.780   5.366   5.546  0.6332  3.1199 -0.6583
 4002TIP3   OH211948   0.114   6.133   3.787  0.6252  0.0482  0.3175
 4002TIP3    H111949   0.025   6.163   3.807 -0.2330 -0.4829 -2.2729
 4002TIP3    H211950   0.115   6.041   3.815  0.7154  0.3396  1.2928
 4003TIP3   OH211951   4.215   7.220   6.099  0.8990  0.1896 -0.4271
 4003TIP3    H111952   4.271   7.257   6.167 -0.2115  0.2406  0.4877
 4003TIP3    H211953   4.142   7.282   6.092  0.4572 -0.3710 -0.8978
 4004TIP3   OH211954   5.975   4.206   0.745 -0.2035  0.1946  0.2301
 4004TIP3    H111955   5.963   4.274   0.679 -0.6106 -1.1282 -1.1194
 4004TIP3    H211956   5.887   4.188   0.776 -0.0896  0.3272  0.6283
 4005TIP3   OH211957   0.465   0.937   4.241 -0.5719 -0.0637 -0.2631
 4005TIP3    H111958   0.464   0.926   4.146 -0.0140  1.1941 -0.4413
 4005TIP3    H211959   0.557   0.957   4.261 -0.1943 -2.4896  0.8485
 4006TIP3   OH211960   6.665   7.260   5.780  0.6167 -0.1658 -0.3324
 4006TIP3    H111961   6.661   7.346   5.739  0.6897  0.9774  1.9031
 4006TIP3    H211962   6.757   7.248   5.802  0.7333 -1.1833 -1.2755
 4007TIP3   OH211963   8.151   1.040   0.984 -0.0660 -0.4247 -0.2608
 4007TIP3    H111964   8.222   1.069   0.926  0.1264 -0.9407 -0.2849
 4007TIP3    H211965   8.187   0.964   1.030  0.6969  1.3183  2.3061
 4008TIP3   OH211966   6.655   2.873   3.482 -0.1440  0.4077  0.1832
 4008TIP3    H111967   6.722   2.849   3.418 -0.6185 -1.2181  0.2393
 4008TIP3    H211968   6.606   2.944   3.440  1.1276  1.0908 -0.1664
 4009TIP3   OH211969   2.724   0.613   5.624  0.1868 -0.0034 -0.3136
 4009TIP3    H111970   2.665   0.687   5.608 -0.7068 -0.5958  0.1561
 4009TIP3    H211971   2.706   0.552   5.553 -1.3771 -1.1513  0.9900
 4010TIP3   OH211972   7.349   5.877   3.809 -0.6738  0.3976  0.4445
 4010TIP3    H111973   7.335   5.963   3.848 -0.3445  0.4990  0.3430
 4010TIP3    H211974   7.392   5.826   3.878  1.4779  1.0840 -0.2996
 4011TIP3   OH211975   6.655   1.176   3.044  0.1710  0.1814 -0.1036
 4011TIP3    H111976   6.605   1.138   3.116  0.7696  2.8039  1.8221
 4011TIP3    H211977   6.690   1.101   2.997 -0.4398 -1.6450  2.1896
 4012TIP3   OH211978   8.130   2.410   2.338  0.1175 -0.0093  0.4209
 4012TIP3    H111979   8.086   2.364   2.267 -1.2697 -1.4765  2.1406
 4012TIP3    H211980   8.061   2.461   2.381  0.5620 -0.4130  1.6723
 4013TIP3   OH211981   2.224   7.610   0.395 -0.0908  0.0535  0.6855
 4013TIP3    H111982   2.145   7.621   0.448 -0.4329 -0.5557  0.3145
 4013TIP3    H211983   2.280   7.553   0.449 -1.7801 -3.4225 -0.8880
 4014TIP3   OH211984   5.262   2.884   4.772  0.0073  0.3113  0.1049
 4014TIP3    H111985   5.349   2.871   4.810  0.2727 -0.4919 -0.7283
 4014TIP3    H211986   5.233   2.967   4.807  0.6946  0.1183  1.1864
 4015TIP3   OH211987   7.531   5.767   0.315  0.3749 -0.3075  0.9293
 4015TIP3    H111988   7.578   5.776   0.398  1.3030 -1.0281  0.5012
 4015TIP3    H211989   7.448   5.726   0.339  0.4543 -0.1186  1.5529
 4016TIP3   OH211990   7.511   1.557   5.445  0.3381 -0.4189 -0.3074
 4016TIP3    H111991   7.508   1.541   5.351 -2.5146 -0.6091 -0.2971
 4016TIP3    H211992   7.534   1.473   5.484  0.2122 -0.6901 -0.8125
 4017TIP3   OH211993   1.673   2.691   1.298 -0.3865  0.4853  0.4418
 4017TIP3    H111994   1.651   2.601   1.272  0.4704  0.1037  0.9649
 4017TIP3    H211995   1.689   2.685   1.392 -0.5943  1.2521  0.5327
 4018TIP3   OH211996   3.019   1.670   3.534  0.3091  0.2301  0.4171
 4018TIP3    H111997   2.960   1.604   3.570  1.2670 -0.6977  0.3191
 4018TIP3    H211998   3.072   1.698   3.608 -0.5378  1.4110  0.6095
 4019TIP3   OH211999   6.161   0.789   0.595 -0.4469  0.5735 -0.3925
 4019TIP3    H112000   6.230   0.823   0.653 -0.9768 -0.1217  0.6885
 4019TIP3    H212001   6.172   0.694   0.599 -1.0824  0.4835 -0.6908
 4020TIP3   OH212002   6.858   0.442   5.995  0.5442  0.2351 -0.7909
 4020TIP3    H112003   6.898   0.414   6.077  2.1508 -1.4219 -2.0462
 4020TIP3    H212004   6.902   0.390   5.928 -1.6154  0.5765 -2.6023
 4021TIP3   OH212005   4.135   2.156   5.498  0.2972  0.0794  0.3926
 4021TIP3    H112006   4.095   2.210   5.430  0.9627  1.4679  1.0652
 4021TIP3    H212007   4.228   2.155   5.476  0.3240 -0.6487  0.5030
 4022TIP3   OH212008   6.195   6.202   2.330 -0.2656  0.1879  0.0099
 4022TIP3    H112009   6.258   6.188   2.400 -0.8464 -0.7908  0.3613
 4022TIP3    H212010   6.241   6.255   2.265  0.9710 -0.6657  0.1762
 4023TIP3   OH212011   4.400   5.124   1.218  1.0790 -0.1346 -0.1294
 4023TIP3    H112012   4.327   5.180   1.245  1.3280 -0.0954  0.4772
 4023TIP3    H212013   4.472   5.185   1.199  1.0031 -0.1820 -0.5980
 4024TIP3   OH212014   0.980   4.968   4.093  0.0625 -0.4471 -0.3579
 4024TIP3    H112015   0.885   4.975   4.085 -0.0914 -1.8309  0.0102
 4024TIP3    H212016   1.000   4.998   4.182 -0.0539 -0.3568 -0.3628
 4025TIP3   OH212017   3.816   1.837   0.080 -0.4898 -0.6390 -0.4942
 4025TIP3    H112018   3.818   1.880  -0.005  1.2604 -0.7018 -0.5178
 4025TIP3    H212019   3.760   1.760   0.067  0.4117 -1.0911 -1.8078
 4026TIP3   OH212020   4.065   1.439   1.993 -0.1472  0.0942 -0.5236
 4026TIP3    H112021   3.992   1.490   2.029 -0.9160 -1.2735 -0.0671
 4026TIP3    H212022   4.092   1.488   1.915 -0.1655  1.7245  0.4591
 4027TIP3   OH212023   7.360   1.275   5.371 -0.1025 -0.1173 -0.1159
 4027TIP3    H112024   7.271   1.295   5.399  0.9290  0.9570  2.7462
 4027TIP3    H212025   7.361   1.297   5.278 -2.0982  2.6512  0.3851
 4028TIP3   OH212026   7.134   7.134   4.924  0.3120  0.6089  0.2461
 4028TIP3    H112027   7.170   7.130   5.013  1.0003  2.6220  0.1223
 4028TIP3    H212028   7.057   7.190   4.932  1.9784  3.2626 -0.7901
 4029TIP3   OH212029   4.242   2.739   0.059  0.0772  0.0679  0.2870
 4029TIP3    H112030   4.214   2.649   0.076  0.1438 -0.3124 -1.4477
 4029TIP3    H212031   4.164   2.792   0.073  0.2984 -0.0700  2.4146
 4030TIP3   OH212032   4.663   3.249   3.105  0.2649  0.2695 -0.1216
 4030TIP3    H112033   4.708   3.214   3.182 -0.4154 -3.3806 -1.1482
 4030TIP3    H212034   4.709   3.209   3.031 -1.4593  0.5256 -1.3970
 4031TIP3   OH212035   1.647   2.979   1.221 -0.0121 -0.5353 -0.0812
 4031TIP3    H112036   1.648   2.884   1.233  0.9717 -0.4063  1.0650
 4031TIP3    H212037   1.616   2.991   1.132 -0.7154 -1.9112 -0.0546
 4032TIP3   OH212038   4.751   4.846   1.241 -0.3302  0.1988  0.4515
 4032TIP3    H112039   4.805   4.919   1.270  0.7763 -0.8424  1.0935
 4032TIP3    H212040   4.738   4.862   1.147  0.4259  0.8820  0.4482
 4033TIP3   OH212041   6.098   0.128   4.259 -0.0109 -0.0059  0.1684
 4033TIP3    H112042   6.077   0.217   4.232  0.8564  0.2931  0.4791
 4033TIP3    H212043   6.084   0.127   4.353 -1.9655 -0.7562 -0.0790
 4034TIP3   OH212044   2.434   2.513   0.548  0.3581 -0.2857  0.2371
 4034TIP3    H112045   2.432   2.520   0.643  0.8128  1.2380  0.1613
 4034TIP3    H212046   2.485   2.589   0.519 -0.4987 -0.2304 -1.2641
 4035TIP3   OH212047   1.493   2.103   2.937  0.5352 -0.0807 -0.0516
 4035TIP3    H112048   1.514   2.194   2.955  1.7277 -0.5199  0.9327
 4035TIP3    H212049   1.575   2.056   2.951 -0.6321 -1.6422  2.1604
 4036TIP3   OH212050   1.767   5.131   5.102  0.4348 -0.5437  0.7771
 4036TIP3    H112051   1.687   5.178   5.123  0.6634 -0.3575  1.2461
 4036TIP3    H212052   1.802   5.104   5.186  0.6049 -1.0599  0.5414
 4037TIP3   OH212053   6.289   2.368   0.591 -0.3569 -0.6089 -0.2471
 4037TIP3    H112054   6.323   2.280   0.607  0.8425 -0.0681  0.3298
 4037TIP3    H212055   6.359   2.426   0.621 -1.5110  0.5625  0.2633
 4038TIP3   OH212056   1.213   0.218   1.932  0.5009 -0.7871 -0.4405
 4038TIP3    H112057   1.153   0.206   2.006  0.7727  1.2077  0.1752
 4038TIP3    H212058   1.176   0.291   1.883  1.3658 -0.8255 -1.1743
 4039TIP3   OH212059   3.827   6.832   3.634  0.3874 -0.3889 -0.1199
 4039TIP3    H112060   3.907   6.779   3.630  1.6817  1.2903  1.5260
 4039TIP3    H212061   3.836   6.882   3.715 -2.2934 -0.0118  0.0151
 4040TIP3   OH212062   5.362   0.230   6.245 -0.7517 -0.3916  0.5818
 4040TIP3    H112063   5.421   0.251   6.317 -1.1205 -3.2898  1.8926
 4040TIP3    H212064   5.320   0.313   6.223  2.1902  1.3543  1.0141
 4041TIP3   OH212065   7.479   5.017   0.415  0.2106  0.0952  0.0656
 4041TIP3    H112066   7.481   5.110   0.439  1.8934  0.0422  0.2526
 4041TIP3    H212067   7.386   4.995   0.411 -0.2153  1.2644  2.0684
 4042TIP3   OH212068   0.509   5.235   5.623 -0.0615 -0.2789  0.2345
 4042TIP3    H112069   0.494   5.163   5.562 -2.0047  0.3200 -0.0405
 4042TIP3    H212070   0.573   5.290   5.578  0.9898 -1.4900  0.1848
 4043TIP3   OH212071   6.144   1.934   2.079 -0.1880 -0.0212 -0.2303
 4043TIP3    H112072   6.084   1.977   2.141 -2.1765 -1.5955 -0.9716
 4043TIP3    H212073   6.099   1.855   2.052  2.0164 -1.0137 -1.3073
 4044TIP3   OH212074   3.204   7.579   4.824  0.6853  0.0391  0.1475
 4044TIP3    H112075   3.246   7.581   4.738 -0.5413  1.0887 -0.4758
 4044TIP3    H212076   3.184   7.486   4.839  0.0159 -0.0674 -1.1978
 4045TIP3   OH212077   5.838   7.715   0.844 -0.0658 -0.1006  0.0914
 4045TIP3    H112078   5.876   7.692   0.929 -1.1529 -2.7177 -0.0265
 4045TIP3    H212079   5.856   7.639   0.788 -1.8135  0.3477 -1.1816
 4046TIP3   OH212080   8.198   3.058   1.482 -0.0535 -0.1710 -0.0305
 4046TIP3    H112081   8.173   3.065   1.390 -0.6674  2.0376  0.2383
 4046TIP3    H212082   8.206   2.964   1.498 -4.0556 -0.9187 -1.2675
 4047TIP3   OH212083   4.513   1.843   6.225  0.1652 -0.5402 -0.0499
 4047TIP3    H112084   4.533   1.751   6.211  0.0093 -0.2328 -2.8057
 4047TIP3    H212085   4.423   1.843   6.256  0.0823 -1.3034 -0.2673
 4048TIP3   OH212086   6.208   6.095   5.898 -0.2933  0.1048  0.3230
 4048TIP3    H112087   6.159   6.115   5.819  0.2739  0.2555  0.0014
 4048TIP3    H212088   6.213   6.000   5.900 -0.5079  0.0923  0.3054
 4049TIP3   OH212089   0.914   0.505   2.544 -0.1911 -0.6370 -0.1565
 4049TIP3    H112090   0.824   0.536   2.547 -0.1010 -0.4111  0.3038
 4049TIP3    H212091   0.925   0.472   2.455 -0.7160 -0.6343 -0.2266
 4050TIP3   OH212092   2.979   2.825   5.103  0.1117  0.5541 -0.1778
 4050TIP3    H112093   3.028   2.776   5.169  0.1253  0.4884 -0.2359
 4050TIP3    H212094   2.902   2.857   5.150  1.8349  3.6066  0.8326
 4051TIP3   OH212095   1.890   2.595   6.066  0.9321 -0.3132 -0.0379
 4051TIP3    H112096   1.904   2.573   6.158 -1.5162 -3.9934 -0.3179
 4051TIP3    H212097   1.965   2.557   6.020  0.0832 -2.3671  0.1597
 4052TIP3   OH212098   7.125   4.347   4.432 -0.1960  0.3428 -0.0291
 4052TIP3    H112099   7.137   4.298   4.513 -0.7386  1.0042  0.4601
 4052TIP3    H212100   7.070   4.421   4.456  0.8210  1.3452 -0.6895
 4053TIP3   OH212101   2.619   3.138   3.767  0.3176 -0.4556 -0.2129
 4053TIP3    H112102   2.677   3.162   3.695 -1.4219 -0.2190 -1.5966
 4053TIP3    H212103   2.614   3.043   3.764  0.8967 -0.5024  0.1433
 4054TIP3   OH212104   2.027   2.054   1.035  0.3045 -0.7977 -0.0656
 4054TIP3    H112105   2.080   2.015   0.965  1.8846  0.6216  0.2821
 4054TIP3    H212106   1.938   2.053   1.000  0.7637 -1.8307 -1.3144
 4055TIP3   OH212107   3.138   4.635   1.130  0.0272 -0.3901  0.3444
 4055TIP3    H112108   3.138   4.684   1.212  1.2343 -0.2286  0.2627
 4055TIP3    H212109   3.074   4.681   1.075 -0.7530 -0.4757  1.1670
 4056TIP3   OH212110   2.729   0.109   0.539  0.0104  0.4678  0.1864
 4056TIP3    H112111   2.683   0.066   0.466  1.4721 -2.9151  1.0470
 4056TIP3    H212112   2.800   0.157   0.497  0.8095 -1.4022 -0.7418
 4057TIP3   OH212113   3.260   7.580   3.977  0.0337  0.2515  0.4909
 4057TIP3    H112114   3.271   7.488   4.003  3.6013  0.2637 -0.4004
 4057TIP3    H212115   3.212   7.577   3.895  1.3226 -1.0007 -0.2578
 4058TIP3   OH212116   5.214   0.384   0.321 -0.3004 -0.5137  0.1164
 4058TIP3    H112117   5.196   0.393   0.228  0.8155  2.7278  0.0862
 4058TIP3    H212118   5.152   0.443   0.364  0.9108  0.0627  1.1567
 4059TIP3   OH212119   0.140   2.423   6.117 -0.1239 -0.6445  0.2674
 4059TIP3    H112120   0.106   2.348   6.069 -0.1953 -0.8412  0.6179
 4059TIP3    H212121   0.233   2.403   6.130  0.1006 -0.1837 -0.5459
 4060TIP3   OH212122   3.966   7.064   2.127 -0.1478  0.0138 -0.0636
 4060TIP3    H112123   3.873   7.085   2.136 -0.3602 -0.6415 -0.6398
 4060TIP3    H212124   4.005   7.144   2.092 -0.5351  0.2178 -0.0382
 4061TIP3   OH212125   4.019   3.541   4.255 -0.1314  0.8774 -0.2307
 4061TIP3    H112126   4.038   3.609   4.319 -1.6847  1.9159 -0.8135
 4061TIP3    H212127   3.948   3.490   4.295  1.5541 -0.9769  0.5625
 4062TIP3   OH212128   5.096   3.358   0.639 -0.5339  0.3063  0.0966
 4062TIP3    H112129   5.058   3.276   0.606  1.2974 -0.4046 -0.4294
 4062TIP3    H212130   5.181   3.363   0.595  1.0580  0.5202  2.9622
 4063TIP3   OH212131   2.733   1.468   5.514  0.0685 -0.1514 -0.1554
 4063TIP3    H112132   2.689   1.394   5.555  0.7906  0.0588  1.0646
 4063TIP3    H212133   2.824   1.463   5.546  0.5788  0.2213 -1.4931
 4064TIP3   OH212134   5.781   1.745   4.810  0.0092  0.2137  0.2519
 4064TIP3    H112135   5.852   1.700   4.856 -0.7719 -1.1179  0.2124
 4064TIP3    H212136   5.744   1.678   4.752 -0.3662  1.2828 -0.7851
 4065TIP3   OH212137   2.729   3.456   1.742  0.4881  0.0474 -0.3872
 4065TIP3    H112138   2.689   3.543   1.732  0.4308 -0.0893 -1.5259
 4065TIP3    H212139   2.656   3.399   1.766  0.8050  0.5787  2.1048
 4066TIP3   OH212140   1.856   0.231   4.587  0.5899  0.4174 -0.1053
 4066TIP3    H112141   1.775   0.181   4.572  0.3822  0.9325 -0.7538
 4066TIP3    H212142   1.828   0.322   4.586  1.3996  0.6885 -1.9918
 4067TIP3   OH212143   5.632   6.059   5.313  0.6020 -0.4036 -0.0762
 4067TIP3    H112144   5.584   5.997   5.257  0.4192 -0.7175  0.4125
 4067TIP3    H212145   5.644   6.137   5.259  1.0788 -0.9648 -0.8019
 4068TIP3   OH212146   6.252   3.635   6.378  0.2847  0.2705 -0.2039
 4068TIP3    H112147   6.187   3.662   6.443 -1.3722 -1.0470 -1.2112
 4068TIP3    H212148   6.308   3.573   6.424  0.6801  1.2044  0.6070
 4069TIP3   OH212149   2.275   2.551   2.144  0.0089 -0.0122  0.2084
 4069TIP3    H112150   2.248   2.476   2.196 -1.7022  0.6559  0.3608
 4069TIP3    H212151   2.224   2.624   2.179  0.8340  1.0003 -0.6348
 4070TIP3   OH212152   3.863   0.188   0.788 -0.1885 -0.2156 -0.0387
 4070TIP3    H112153   3.789   0.140   0.825  0.0757 -0.7272 -0.1643
 4070TIP3    H212154   3.878   0.260   0.849 -0.0140 -0.8164  0.6337
 4071TIP3   OH212155   6.158   1.017   5.055  0.0714  0.4545  0.4477
 4071TIP3    H112156   6.249   1.028   5.085  0.1442  0.5492  0.1949
 4071TIP3    H212157   6.143   0.923   5.060  0.4450  0.3531 -0.2647
 4072TIP3   OH212158   1.769   2.903   4.651  0.0109 -0.5082  0.0118
 4072TIP3    H112159   1.768   2.894   4.556  0.0263  1.7728 -0.2472
 4072TIP3    H212160   1.677   2.905   4.676  0.0040 -1.4328  0.1213
 4073TIP3   OH212161   0.994   5.195   0.502  0.1558  0.1344 -0.0930
 4073TIP3    H112162   1.042   5.125   0.546  0.7657 -1.1449 -2.6398
 4073TIP3    H212163   0.902   5.180   0.526  0.3382 -1.2432 -0.2331
 4074TIP3   OH212164   5.453   7.152   2.406  0.7940  0.0072 -0.2387
 4074TIP3    H112165   5.438   7.221   2.470  3.8442  1.4407 -0.8735
 4074TIP3    H212166   5.393   7.173   2.334 -0.6548  0.0066  0.9123
 4075TIP3   OH212167   1.068   5.781   1.860 -0.2501 -0.3196 -0.1734
 4075TIP3    H112168   0.984   5.739   1.881 -1.2654  2.1699  1.2051
 4075TIP3    H212169   1.134   5.722   1.897 -1.4607 -1.6549 -0.0512
 4076TIP3   OH212170   1.632   6.728   1.381  0.5173  0.4469 -0.4055
 4076TIP3    H112171   1.687   6.736   1.303  2.2931 -0.9429  0.6327
 4076TIP3    H212172   1.692   6.745   1.454 -1.0545  1.4923  0.6892
 4077TIP3   OH212173   3.025   0.965   2.607  0.2775 -0.2778  0.3764
 4077TIP3    H112174   3.102   0.935   2.655  0.5167 -0.8974 -0.3751
 4077TIP3    H212175   3.050   0.960   2.515 -0.1003  1.0906  0.1709
 4078TIP3   OH212176   2.351   5.106   1.393 -0.3955 -0.2844 -0.1945
 4078TIP3    H112177   2.390   5.166   1.456  0.8965 -0.4794 -0.7834
 4078TIP3    H212178   2.305   5.162   1.331  0.6011  0.0912 -0.6029
 4079TIP3   OH212179   6.632   2.611   2.476 -0.1649 -0.1944 -0.3976
 4079TIP3    H112180   6.667   2.673   2.540  0.5384 -1.3843  0.4064
 4079TIP3    H212181   6.683   2.531   2.489 -2.0733 -1.4671 -0.3090
 4080TIP3   OH212182   5.896   3.209   3.637 -0.4841 -0.1425 -0.0598
 4080TIP3    H112183   5.864   3.296   3.612 -0.9491 -0.2911  0.0054
 4080TIP3    H212184   5.988   3.223   3.660 -0.4132  0.2329 -0.5658
 4081TIP3   OH212185   6.114   7.340   5.179  0.4319 -0.2489  0.1034
 4081TIP3    H112186   6.176   7.324   5.108 -0.3874 -1.0612 -0.4462
 4081TIP3    H212187   6.155   7.300   5.256 -0.3922 -2.8842 -0.7194
 4082TIP3   OH212188   0.451   0.047   4.300 -0.3524  0.4926  0.5568
 4082TIP3    H112189   0.454  -0.011   4.223  1.7526 -1.0708  1.6935
 4082TIP3    H212190   0.486   0.130   4.269 -0.7098  0.2853 -0.4499
 4083TIP3   OH212191   4.000   2.426   6.440  0.2403  0.8470  0.2589
 4083TIP3    H112192   4.034   2.505   6.398 -0.1656  1.0173  0.2435
 4083TIP3    H212193   4.053   2.355   6.404  1.0185  1.1811  0.7455
 4084TIP3   OH212194   4.449   2.845   2.624  0.3159 -0.2382  0.4625
 4084TIP3    H112195   4.465   2.875   2.535 -0.0389  0.7961  0.7309
 4084TIP3    H212196   4.534   2.811   2.654  0.7747  0.6253  0.1817
 4085TIP3   OH212197   3.046   5.032   0.952  0.0844  0.5420 -0.2261
 4085TIP3    H112198   3.020   5.055   1.041 -1.2496  0.1049 -0.4895
 4085TIP3    H212199   3.102   5.104   0.924 -2.0095  2.2875 -0.1479
 4086TIP3   OH212200   0.265   5.859   4.583 -0.2390 -0.4442  0.0300
 4086TIP3    H112201   0.279   5.951   4.604  1.2800 -0.5000 -0.6069
 4086TIP3    H212202   0.174   5.842   4.609 -1.4176  1.8814 -2.1455
 4087TIP3   OH212203   6.104   3.508   2.706  0.3782  0.0384 -0.3042
 4087TIP3    H112204   6.124   3.427   2.753 -1.1898 -1.2307 -1.7090
 4087TIP3    H212205   6.181   3.563   2.718  1.1303 -1.3222  1.3949
 4088TIP3   OH212206   1.975   5.640   4.834  0.0322 -0.0310  0.3135
 4088TIP3    H112207   1.979   5.548   4.859 -0.8928 -0.0192  0.5527
 4088TIP3    H212208   2.060   5.676   4.860  0.5760 -0.9034 -0.1852
 4089TIP3   OH212209   0.526   3.943   1.818  0.0304 -0.0997  0.9085
 4089TIP3    H112210   0.434   3.951   1.844 -0.4442  0.3405 -0.7955
 4089TIP3    H212211   0.565   3.885   1.884 -1.4780 -0.3738  1.5994
 4090TIP3   OH212212   3.710   6.275   5.685 -0.3047  0.2779 -0.0325
 4090TIP3    H112213   3.696   6.325   5.605 -1.2270  0.0300 -0.0480
 4090TIP3    H212214   3.674   6.188   5.665  0.8318 -0.2421  0.1540
 4091TIP3   OH212215   2.239   3.671   5.701  0.1473  0.5613 -0.4165
 4091TIP3    H112216   2.144   3.668   5.689  0.4728  0.1721 -3.5177
 4091TIP3    H212217   2.254   3.621   5.781 -2.1873 -0.2153 -0.3855
 4092TIP3   OH212218   8.177   6.469   4.321 -0.2183  0.5490 -0.4586
 4092TIP3    H112219   8.165   6.563   4.312  1.6151  0.7558 -1.2156
 4092TIP3    H212220   8.210   6.457   4.410 -2.3490  0.3592  0.3587
 4093TIP3   OH212221   4.824   1.363   1.315 -0.3900 -0.3939 -0.4918
 4093TIP3    H112222   4.784   1.434   1.366 -1.3766  0.5397 -2.4437
 4093TIP3    H212223   4.907   1.399   1.285  0.5792 -1.2328  1.0071
 4094TIP3   OH212224   6.335   6.559   4.431 -0.7103  0.1746  0.6611
 4094TIP3    H112225   6.411   6.583   4.485  0.0141 -0.2391 -0.1546
 4094TIP3    H212226   6.305   6.476   4.468  0.4287 -0.6455 -0.1922
 4095TIP3   OH212227   5.360   6.068   4.676  0.2778  0.2715  0.0547
 4095TIP3    H112228   5.283   6.116   4.707  0.9182  0.8250  0.8092
 4095TIP3    H212229   5.433   6.128   4.688  0.6035  0.4344 -2.3591
 4096TIP3   OH212230   6.597   4.977   5.777  0.1556 -0.0665  0.0486
 4096TIP3    H112231   6.508   5.011   5.774  0.7200  1.4843 -0.1190
 4096TIP3    H212232   6.638   5.023   5.851  1.5214  1.1411 -1.3915
 4097TIP3   OH212233   6.773   7.260   4.024 -0.2918  0.1689  0.1894
 4097TIP3    H112234   6.821   7.250   4.106 -0.2121  0.9862  0.2473
 4097TIP3    H212235   6.689   7.218   4.041 -0.0680 -0.1690  0.4964
 4098TIP3   OH212236   4.934   4.846   5.635  0.4584 -0.1241 -0.5006
 4098TIP3    H112237   4.981   4.773   5.593  3.1658  2.3569 -2.1840
 4098TIP3    H212238   4.908   4.903   5.562 -2.1173  0.3991  0.7101
 4099TIP3   OH212239   7.119   7.246   1.260 -0.2138  0.2378  0.1283
 4099TIP3    H112240   7.036   7.202   1.242 -0.2140  1.1288 -2.4964
 4099TIP3    H212241   7.094   7.329   1.300 -0.5903  0.4246 -0.4843
 4100TIP3   OH212242   4.557   4.140   1.628  0.3281  0.8387 -0.0375
 4100TIP3    H112243   4.627   4.190   1.669  0.5991  1.5213 -1.2933
 4100TIP3    H212244   4.477   4.175   1.666  0.6258 -0.3604  1.8732
 4101TIP3   OH212245   1.551   5.967   4.521 -0.1992 -0.0669  0.0651
 4101TIP3    H112246   1.480   6.013   4.476  1.3451 -0.0583 -2.5974
 4101TIP3    H212247   1.609   5.938   4.450  3.2954  1.3415  2.0740
 4102TIP3   OH212248   8.197   7.595   3.954  0.0417 -0.0123  0.5463
 4102TIP3    H112249   8.276   7.558   3.994  0.7444  0.6380 -0.1830
 4102TIP3    H212250   8.215   7.593   3.860  0.4936  2.8290  0.4703
 4103TIP3   OH212251   4.066   4.017   5.331  0.2718 -0.3276 -0.0660
 4103TIP3    H112252   4.149   3.971   5.342  0.3384 -0.7614 -2.0485
 4103TIP3    H212253   3.999   3.948   5.337  0.0429 -0.0325  1.1547
 4104TIP3   OH212254   6.745   1.477   6.250 -0.1767 -0.4629  1.4660
 4104TIP3    H112255   6.805   1.494   6.323  0.1885 -3.0786  1.8664
 4104TIP3    H212256   6.682   1.414   6.286  0.3983 -2.3439 -0.6123
 4105TIP3   OH212257   4.854   4.285   3.335 -0.3602  0.1998  0.1490
 4105TIP3    H112258   4.876   4.356   3.275  0.2392  0.6769  0.9154
 4105TIP3    H212259   4.858   4.206   3.280 -1.4987  0.7797 -0.8209
 4106TIP3   OH212260   5.768   1.823   5.165 -0.4484 -0.4874  0.6434
 4106TIP3    H112261   5.685   1.870   5.160 -0.3036 -0.2768  0.1765
 4106TIP3    H212262   5.822   1.863   5.097  0.5607  0.4252  1.9379
 4107TIP3   OH212263   7.726   2.586   4.145  0.1667 -0.2216  0.4231
 4107TIP3    H112264   7.820   2.576   4.157  0.3545  0.8325 -0.0566
 4107TIP3    H212265   7.693   2.616   4.230  0.6039  1.4905  0.0259
 4108TIP3   OH212266   3.288   7.018   4.512 -0.6698  0.4639 -0.1537
 4108TIP3    H112267   3.360   7.051   4.457 -0.6440  2.1124  0.7766
 4108TIP3    H212268   3.332   6.980   4.588 -0.6144 -3.4722 -1.9245
 4109TIP3   OH212269   2.605   1.731   0.545  0.0035 -0.3203 -0.1815
 4109TIP3    H112270   2.612   1.781   0.464  2.2256 -0.2342  0.0150
 4109TIP3    H212271   2.590   1.640   0.516  3.1327 -0.7192 -0.8683
 4110TIP3   OH212272   2.936   3.999   6.493  0.4461 -0.1912 -0.0121
 4110TIP3    H112273   2.935   4.095   6.502  0.4458 -0.2127  0.2273
 4110TIP3    H212274   3.026   3.978   6.467  1.2957 -0.3626  2.7346
 4111TIP3   OH212275   5.007   2.795   4.546  0.6069 -0.3743  0.3174
 4111TIP3    H112276   5.004   2.875   4.598  1.7168 -0.1969  0.1517
 4111TIP3    H212277   4.924   2.793   4.499 -0.4927 -0.6390  2.2017
 4112TIP3   OH212278   6.490   0.873   0.134 -0.1836  0.0986  0.2964
 4112TIP3    H112279   6.508   0.788   0.093  0.5508 -0.8620  2.5030
 4112TIP3    H212280   6.411   0.904   0.089 -0.2563 -1.5546 -0.8209
 4113TIP3   OH212281   0.087   7.776   6.425 -0.0613  0.2680 -0.4121
 4113TIP3    H112282   0.145   7.816   6.490 -0.7615  0.8970 -0.1597
 4113TIP3    H212283   0.048   7.701   6.470 -1.2975  1.2764  0.2450
 4114TIP3   OH212284   7.705   0.715   2.606  0.2614 -0.0309  0.3304
 4114TIP3    H112285   7.650   0.791   2.589  0.5369 -0.1608 -1.2799
 4114TIP3    H212286   7.645   0.640   2.601  0.1773 -0.0141  0.9272
 4115TIP3   OH212287   6.055   0.397   1.368 -0.0761 -0.3500 -0.6696
 4115TIP3    H112288   6.140   0.441   1.353  0.1258  0.0948  1.5294
 4115TIP3    H212289   5.993   0.449   1.317  0.5163  1.2155  0.1377
 4116TIP3   OH212290   0.353   0.159   2.251  0.0295  0.0953 -0.2590
 4116TIP3    H112291   0.393   0.104   2.184  1.4605  1.2539 -0.3940
 4116TIP3    H212292   0.388   0.125   2.334  0.3003  0.3259 -0.2818
 4117TIP3   OH212293   7.696   2.389   2.293  0.0328  0.0403 -0.2904
 4117TIP3    H112294   7.730   2.473   2.262  0.0032 -0.1558 -0.8828
 4117TIP3    H212295   7.758   2.361   2.360  0.3296  0.2932 -0.4534
 4118TIP3   OH212296   6.520   6.466   1.469 -0.1211 -0.1610 -0.3633
 4118TIP3    H112297   6.527   6.481   1.563 -0.0962 -0.9727 -0.2260
 4118TIP3    H212298   6.435   6.425   1.457 -0.1122 -0.0905 -0.6897
 4119TIP3   OH212299   7.895   2.498   1.000  0.1287 -0.3081  0.0319
 4119TIP3    H112300   7.841   2.467   1.073 -2.7430  0.4078 -1.6003
 4119TIP3    H212301   7.902   2.592   1.013  0.6209 -0.3401  0.0031
 4120TIP3   OH212302   1.529   3.522   1.309  0.4136  0.1581  0.3443
 4120TIP3    H112303   1.502   3.556   1.224 -1.3889 -0.9907  0.4078
 4120TIP3    H212304   1.565   3.435   1.290 -0.5017 -0.3307  0.7940
 4121TIP3   OH212305   7.218   5.807   1.064 -0.5839  0.4037 -0.6709
 4121TIP3    H112306   7.264   5.740   1.013 -2.1112 -1.7822  0.6796
 4121TIP3    H212307   7.286   5.844   1.120  1.0053  2.4372 -3.6455
 4122TIP3   OH212308   2.258   4.218   1.798 -0.4729 -0.1287 -0.0683
 4122TIP3    H112309   2.294   4.262   1.875 -0.0078 -0.3049 -0.1778
 4122TIP3    H212310   2.325   4.155   1.773 -0.9790 -0.6426 -0.1350
 4123TIP3   OH212311   4.598   6.368   5.641  0.1321  0.0008 -0.0845
 4123TIP3    H112312   4.616   6.360   5.734  0.5618 -0.6152 -0.2096
 4123TIP3    H212313   4.506   6.394   5.636 -0.3010 -1.3397  0.4932
 4124TIP3   OH212314   2.946   6.358   6.648 -0.2528 -0.4475  0.3037
 4124TIP3    H112315   2.864   6.349   6.600 -0.0044  1.2184 -0.5038
 4124TIP3    H212316   2.969   6.268   6.674 -1.0555 -1.2431 -1.5667
 4125TIP3   OH212317   7.450   3.968   5.229 -0.0369  0.1535 -0.8042
 4125TIP3    H112318   7.355   3.959   5.229 -0.1069  0.7968 -1.4087
 4125TIP3    H212319   7.466   4.048   5.179  0.7459  0.8245  0.4536
 4126TIP3   OH212320   7.954   1.802   0.151 -0.3881  0.1869 -0.1282
 4126TIP3    H112321   7.957   1.709   0.173 -0.5760  0.3902  0.8051
 4126TIP3    H212322   8.009   1.810   0.073 -0.9718 -0.8195 -0.6640
 4127TIP3   OH212323   8.055   3.542   4.728  0.5045  0.2095 -0.3317
 4127TIP3    H112324   8.055   3.577   4.639  1.6517 -0.6237 -0.6879
 4127TIP3    H212325   7.967   3.558   4.760  0.6638  2.4390 -0.8341
 4128TIP3   OH212326   1.182   3.825   6.258  0.4363 -0.6266  0.9471
 4128TIP3    H112327   1.221   3.741   6.232  0.8222  0.3231 -1.8891
 4128TIP3    H212328   1.088   3.809   6.257  0.5235 -1.1646  0.9479
 4129TIP3   OH212329   0.941   3.145   2.158  0.1539  0.0174  0.1648
 4129TIP3    H112330   0.850   3.118   2.145  0.4788 -0.9890 -0.1499
 4129TIP3    H212331   0.982   3.070   2.200  0.8352  0.4802  0.3401
 4130TIP3   OH212332   7.340   6.911   3.380 -0.4430  0.8729  0.2285
 4130TIP3    H112333   7.433   6.933   3.388 -0.3567  2.7912 -3.6951
 4130TIP3    H212334   7.296   6.996   3.368 -2.3977 -0.1196 -0.0951
 4131TIP3   OH212335   5.137   2.502   3.104 -0.1180  0.5814 -0.3464
 4131TIP3    H112336   5.048   2.477   3.081  0.0093 -0.6158  0.3833
 4131TIP3    H212337   5.170   2.429   3.157  1.1488  1.1918 -0.2492
 4132TIP3   OH212338   0.308   0.962   5.482 -0.2684 -0.4523 -0.4755
 4132TIP3    H112339   0.402   0.979   5.476 -0.1492 -1.0121 -0.2595
 4132TIP3    H212340   0.273   1.039   5.527  0.1861 -0.5397  0.0503
 4133TIP3   OH212341   3.446   6.203   0.576 -0.3671 -0.4265  0.5971
 4133TIP3    H112342   3.530   6.177   0.539 -0.3837 -0.0119  0.2487
 4133TIP3    H212343   3.410   6.264   0.511 -0.8658 -0.4850  0.8161
 4134TIP3   OH212344   0.491   2.292   2.785 -0.4183 -0.1768  0.1464
 4134TIP3    H112345   0.424   2.224   2.780  0.0762 -0.6769  0.1856
 4134TIP3    H212346   0.487   2.323   2.876  0.5149 -1.3825  0.6392
 4135TIP3   OH212347   1.837   3.595   5.555 -0.2696  0.1498 -0.0489
 4135TIP3    H112348   1.855   3.508   5.521  0.7091  0.1093  0.5322
 4135TIP3    H212349   1.884   3.598   5.639  0.0049  1.3628 -0.2329
 4136TIP3   OH212350   0.708   0.645   0.156 -0.3451  0.3886  1.2137
 4136TIP3    H112351   0.681   0.638   0.247 -0.1515 -0.4166  1.2205
 4136TIP3    H212352   0.629   0.670   0.108 -0.2167  1.8627  1.7267
 4137TIP3   OH212353   0.024   1.162   5.595  0.3082  0.3318  0.1103
 4137TIP3    H112354   0.022   1.210   5.512 -1.6908  0.3325  0.1124
 4137TIP3    H212355   0.098   1.199   5.643  0.4050  1.5706 -0.9525
 4138TIP3   OH212356   1.588   3.847   5.897  0.5225 -0.3295  0.9167
 4138TIP3    H112357   1.643   3.919   5.927  1.6912 -1.0150  0.4777
 4138TIP3    H212358   1.642   3.769   5.907  0.7360 -0.7153 -2.1213
 4139TIP3   OH212359   4.699   3.504   2.814 -0.0734 -0.7829 -0.4585
 4139TIP3    H112360   4.737   3.546   2.737 -2.5301 -0.3769 -1.5385
 4139TIP3    H212361   4.760   3.524   2.885  0.7601  1.3719 -1.6971
 4140TIP3   OH212362   7.355   1.333   6.051 -0.6758  0.0099  0.1329
 4140TIP3    H112363   7.262   1.342   6.071 -0.6584  0.1324  0.1567
 4140TIP3    H212364   7.356   1.296   5.963 -0.7586 -1.2284  0.6327
 4141TIP3   OH212365   2.597   5.157   3.269 -0.5054 -0.3153 -0.1032
 4141TIP3    H112366   2.664   5.090   3.280 -1.7730 -1.7828 -0.9331
 4141TIP3    H212367   2.614   5.194   3.183  0.7676  1.1654  0.7273
 4142TIP3   OH212368   4.632   6.002   0.921 -0.0647 -0.0178 -0.5207
 4142TIP3    H112369   4.702   6.009   0.985 -0.1809  1.2717 -0.5171
 4142TIP3    H212370   4.677   5.983   0.838  0.2915  0.8118 -0.5198
 4143TIP3   OH212371   5.099   7.087   1.887 -0.1311  0.4626  0.1565
 4143TIP3    H112372   5.038   7.154   1.853  0.1257  1.3211  1.3100
 4143TIP3    H212373   5.185   7.128   1.881 -0.0408  0.5068  1.4680
 4144TIP3   OH212374   0.884   0.787   4.846 -0.1533  0.2407 -0.1527
 4144TIP3    H112375   0.832   0.851   4.894  2.2798  2.8708 -0.7769
 4144TIP3    H212376   0.967   0.782   4.894  0.1064 -1.7411 -0.7139
 4145TIP3   OH212377   6.081   6.290   6.092 -0.1271  0.4292 -0.0418
 4145TIP3    H112378   6.131   6.209   6.085 -2.5088 -1.2783  1.1028
 4145TIP3    H212379   6.057   6.311   6.002  1.9831  0.9101 -0.5299
 4146TIP3   OH212380   8.298   2.262   4.759  0.0359 -0.0386  0.2912
 4146TIP3    H112381   8.214   2.220   4.740 -0.8127  0.6159  2.3459
 4146TIP3    H212382   8.281   2.356   4.747  0.9780  0.0053 -0.9279
 4147TIP3   OH212383   1.345   6.453   5.163  0.4496  0.2322 -0.0801
 4147TIP3    H112384   1.354   6.429   5.070  0.2326 -1.0934  0.2229
 4147TIP3    H212385   1.356   6.371   5.210  0.1664  0.8290  1.0542
 4148TIP3   OH212386   4.246   0.837   6.621  0.6122  0.2972  0.3655
 4148TIP3    H112387   4.157   0.864   6.600  0.6510  0.1235 -0.0360
 4148TIP3    H212388   4.301   0.910   6.592  0.7078 -0.1448 -0.6199
 4149TIP3   OH212389   4.024  -0.005   5.516 -0.1718  0.2047 -0.6552
 4149TIP3    H112390   4.098  -0.062   5.537  0.5981  1.2889 -0.3445
 4149TIP3    H212391   4.050   0.081   5.547 -0.8723  0.9578 -2.0507
 4150TIP3   OH212392   1.387   1.177   0.822  0.2053  0.1057 -0.0341
 4150TIP3    H112393   1.473   1.152   0.856 -0.2345  0.1602  1.1442
 4150TIP3    H212394   1.331   1.183   0.899 -0.5035  1.5416 -0.6191
 4151TIP3   OH212395   1.518   6.845   3.542  0.2985 -0.5676 -0.0307
 4151TIP3    H112396   1.528   6.787   3.618 -1.4156 -0.7874  0.0718
 4151TIP3    H212397   1.438   6.894   3.561  0.3479  0.0248 -1.2879
 4152TIP3   OH212398   2.496   6.407   2.029  0.2348 -0.3892  0.2647
 4152TIP3    H112399   2.582   6.397   2.070 -0.4327 -1.3847  1.5109
 4152TIP3    H212400   2.513   6.403   1.935  1.7824  1.5358  0.3948
 4153TIP3   OH212401   5.023   7.305   5.975 -0.3933 -0.1306 -0.2209
 4153TIP3    H112402   5.069   7.285   6.056 -1.2042  0.8544  0.4953
 4153TIP3    H212403   4.948   7.246   5.974  0.9155 -1.8776 -1.4853
 4154TIP3   OH212404   8.199   7.741   2.793 -0.2329 -0.0864 -0.0814
 4154TIP3    H112405   8.200   7.661   2.740 -1.7570  0.5820 -1.2029
 4154TIP3    H212406   8.266   7.797   2.753 -0.0958 -0.2907 -0.1413
 4155TIP3   OH212407   6.705   6.953   6.604  0.3365  0.5175  0.1883
 4155TIP3    H112408   6.624   6.922   6.564  1.4038  0.7806 -2.3723
 4155TIP3    H212409   6.689   6.946   6.698 -1.3523 -2.8202 -0.1780
 4156TIP3   OH212410   0.899   3.196   3.382  0.1136 -0.4317 -0.2613
 4156TIP3    H112411   0.857   3.227   3.462  0.8676 -0.4894  0.1683
 4156TIP3    H212412   0.837   3.135   3.344 -1.2614  1.3140 -0.9481
 4157TIP3   OH212413   4.894   7.577   2.763 -0.9908 -0.1897 -0.2015
 4157TIP3    H112414   4.829   7.640   2.734 -0.8116 -0.3142 -0.8949
 4157TIP3    H212415   4.849   7.493   2.762 -1.1826 -0.1064  0.5656
 4158TIP3   OH212416   8.188   5.826   1.313  0.0537  0.8836  0.2434
 4158TIP3    H112417   8.268   5.829   1.366 -0.2279  0.4593  0.6976
 4158TIP3    H212418   8.121   5.790   1.371 -0.8437  2.6176  0.3227
 4159TIP3   OH212419   3.660   4.582   5.330  0.0817 -0.4412  0.4487
 4159TIP3    H112420   3.637   4.660   5.279 -1.2121  0.6247  2.5305
 4159TIP3    H212421   3.583   4.525   5.324 -0.0056 -0.3907  1.0405
 4160TIP3   OH212422   4.270   0.316   1.029 -0.4204  0.3124 -0.1970
 4160TIP3    H112423   4.302   0.291   1.116  0.6313  0.7906 -0.4322
 4160TIP3    H212424   4.313   0.256   0.969 -2.3855 -1.0924 -0.2972
 4161TIP3   OH212425   8.205   7.310   0.820  0.7249 -0.7110  0.0166
 4161TIP3    H112426   8.162   7.373   0.877  2.5562  1.0360 -0.3934
 4161TIP3    H212427   8.254   7.253   0.879 -2.5724 -3.2584  0.5508
 4162TIP3   OH212428   8.062   1.539   0.574 -0.3141  0.1435  0.3994
 4162TIP3    H112429   8.140   1.566   0.526 -1.2367  0.9265 -0.7306
 4162TIP3    H212430   8.070   1.444   0.583  0.5118  0.1515 -0.1555
 4163TIP3   OH212431   6.909   0.737   5.974 -0.3410  0.5958 -0.1986
 4163TIP3    H112432   6.843   0.744   6.043 -0.1543  1.7699 -0.1178
 4163TIP3    H212433   6.912   0.644   5.953 -2.8914  0.6363 -1.0363
 4164TIP3   OH212434   0.399   0.149   3.582 -0.1654 -0.0404  0.1055
 4164TIP3    H112435   0.467   0.188   3.527 -0.4003 -0.8601 -0.7926
 4164TIP3    H212436   0.434   0.151   3.671  0.3816  0.9599 -0.1259
 4165TIP3   OH212437   0.605   7.448   5.106  0.4665 -0.7199  0.1520
 4165TIP3    H112438   0.587   7.486   5.192 -0.6316  0.2047 -0.4458
 4165TIP3    H212439   0.605   7.524   5.047  1.3962 -1.3199 -0.6319
 4166TIP3   OH212440   8.289   4.736   2.831 -0.5209  0.0539  0.5251
 4166TIP3    H112441   8.216   4.689   2.791 -0.0600 -0.4089  0.2081
 4166TIP3    H212442   8.316   4.799   2.765 -0.2140 -0.2254  0.3826
 4167TIP3   OH212443   0.200   4.738   4.260  0.2104  0.4797 -0.0310
 4167TIP3    H112444   0.192   4.771   4.171  2.8439  0.3383 -0.3869
 4167TIP3    H212445   0.222   4.815   4.313  0.8436  0.2104  0.1038
 4168TIP3   OH212446   3.299   5.724   5.866 -0.3809 -0.4155  0.5973
 4168TIP3    H112447   3.298   5.769   5.950  1.3563  0.7591  0.0297
 4168TIP3    H212448   3.289   5.631   5.888 -3.2136  0.0920  1.8354
 4169TIP3   OH212449   5.705   5.604   3.500  0.8688  0.3707 -0.6310
 4169TIP3    H112450   5.778   5.627   3.441  1.0347  0.5375 -0.3664
 4169TIP3    H212451   5.746   5.599   3.587  0.6089  0.2143 -0.5181
 4170TIP3   OH212452   7.261   0.746   0.545 -0.3952 -0.5059 -0.1863
 4170TIP3    H112453   7.207   0.746   0.466 -0.4607 -1.1193 -0.1493
 4170TIP3    H212454   7.291   0.836   0.554 -1.9845  0.0221  0.1805
 4171TIP3   OH212455   1.794   7.704   5.602  0.5650  0.0353  0.3503
 4171TIP3    H112456   1.878   7.750   5.604  1.5615 -1.6846  2.5430
 4171TIP3    H212457   1.786   7.673   5.512  2.3308  0.1675  0.1148
 4172TIP3   OH212458   3.701   4.032   5.774  0.6793 -0.0189 -0.1665
 4172TIP3    H112459   3.759   4.100   5.808 -0.7683  0.0725  2.4509
 4172TIP3    H212460   3.641   4.079   5.715  0.8531  0.6287  0.1611
 4173TIP3   OH212461   7.589   1.623   6.469 -0.3643  0.2394  0.0546
 4173TIP3    H112462   7.499   1.654   6.461 -1.8653 -3.8249 -1.2685
 4173TIP3    H212463   7.636   1.669   6.398 -1.6549  1.4776 -0.0428
 4174TIP3   OH212464   5.912   7.667   4.074  0.0771  0.4988  0.1764
 4174TIP3    H112465   5.854   7.602   4.033 -0.5309 -1.6327  3.9595
 4174TIP3    H212466   6.000   7.633   4.060  0.0896  0.9895 -1.1168
 4175TIP3   OH212467   0.945   3.666   1.182  0.2407 -0.2397  0.0998
 4175TIP3    H112468   0.928   3.667   1.088  1.3909  0.2319 -0.1236
 4175TIP3    H212469   0.891   3.737   1.217  0.2573 -0.0263 -0.3015
 4176TIP3   OH212470   1.587   4.050   6.334  0.1459  0.1820 -0.0786
 4176TIP3    H112471   1.603   4.001   6.253 -0.2632 -0.7332  0.3748
 4176TIP3    H212472   1.638   4.003   6.400 -1.6290 -0.7468  0.7169
 4177TIP3   OH212473   3.318   4.946   4.144  0.0180 -0.2667  0.0864
 4177TIP3    H112474   3.291   5.032   4.178 -0.7008 -0.4152 -0.0843
 4177TIP3    H212475   3.382   4.965   4.076  0.0873  0.1206  0.2577
 4178TIP3   OH212476   2.476   0.598   0.954 -0.3592 -0.3720 -0.3570
 4178TIP3    H112477   2.489   0.630   1.043 -0.0872  1.6075 -1.0523
 4178TIP3    H212478   2.454   0.506   0.964  0.9949 -0.5264  1.6686
 4179TIP3   OH212479   0.377   1.141   2.420  0.0064 -0.0229  0.4619
 4179TIP3    H112480   0.289   1.175   2.402  0.2713  2.1587  2.6731
 4179TIP3    H212481   0.363   1.074   2.487 -0.3809 -3.7984 -3.0267
 4180TIP3   OH212482   8.269   3.584   1.260 -0.3631  0.5112 -0.5112
 4180TIP3    H112483   8.185   3.541   1.243 -0.1563  0.6863 -2.1120
 4180TIP3    H212484   8.306   3.535   1.333 -1.5514 -0.0082 -0.2291
 4181TIP3   OH212485   3.550   1.434   1.092  0.0733 -0.7133  0.5307
 4181TIP3    H112486   3.549   1.474   1.179 -1.5361  1.3787 -0.3504
 4181TIP3    H212487   3.481   1.480   1.044  0.5240 -2.2037 -1.6900
 4182TIP3   OH212488   0.181   6.700   4.316  0.4462  0.6562 -0.2356
 4182TIP3    H112489   0.088   6.681   4.309  0.4283 -0.1484  1.6592
 4182TIP3    H212490   0.219   6.669   4.234 -0.3852 -2.7314  0.5233
 4183TIP3   OH212491   2.479   0.668   1.208  0.4226  0.7806 -0.0702
 4183TIP3    H112492   2.415   0.740   1.206  0.1474  0.5555  0.2795
 4183TIP3    H212493   2.533   0.687   1.285 -0.5035 -0.0863  0.8265
 4184TIP3   OH212494   7.158   7.817   2.304  0.2099  0.3906 -0.5078
 4184TIP3    H112495   7.122   7.805   2.392  0.7786  0.4360 -0.2639
 4184TIP3    H212496   7.091   7.782   2.246  0.2194 -0.4897 -0.0030
 4185TIP3   OH212497   7.344   1.568   3.062 -0.1612 -0.8384 -0.2467
 4185TIP3    H112498   7.300   1.534   3.140  1.1053  0.2008  0.9804
 4185TIP3    H212499   7.273   1.604   3.008 -1.2265 -2.9543 -0.3440
 4186TIP3   OH212500   4.662   1.482   3.979  0.5900  1.2018  0.2128
 4186TIP3    H112501   4.645   1.568   4.019  0.3273  1.0736  0.3728
 4186TIP3    H212502   4.758   1.480   3.969  0.5460  1.8358 -0.5126
 4187TIP3   OH212503   7.590   1.286   3.250  0.0973  0.0750  0.3917
 4187TIP3    H112504   7.563   1.329   3.169 -1.0906  0.2236  0.8612
 4187TIP3    H212505   7.545   1.201   3.248  1.1695 -0.5173  0.2400
 4188TIP3   OH212506   4.289   0.118   1.962 -0.0309  0.3292 -0.5690
 4188TIP3    H112507   4.352   0.156   1.901  1.0550  0.7696  0.7617
 4188TIP3    H212508   4.338   0.107   2.043 -0.9798 -1.7602 -0.2128
 4189TIP3   OH212509   5.522   2.017   4.183  0.1165  0.3228  0.1498
 4189TIP3    H112510   5.477   1.932   4.188 -0.5526  0.6117 -0.6062
 4189TIP3    H212511   5.551   2.023   4.092 -1.4669  1.6787 -0.3244
 4190TIP3   OH212512   6.385   0.907   3.817 -0.1606 -0.4115 -0.1913
 4190TIP3    H112513   6.433   0.988   3.832 -3.6524  1.6663  1.0043
 4190TIP3    H212514   6.420   0.845   3.881  1.5651  0.6022 -0.1045
 4191TIP3   OH212515   5.368   5.530   0.669 -0.0689  0.0354 -0.0010
 4191TIP3    H112516   5.399   5.455   0.719 -0.5633  0.7602  1.4766
 4191TIP3    H212517   5.447   5.581   0.650  0.0711  0.0428  0.5775
 4192TIP3   OH212518   4.057   4.105   6.102  0.2594 -0.4823  0.6115
 4192TIP3    H112519   4.051   4.190   6.145 -0.3236 -0.3131  0.2131
 4192TIP3    H212520   4.125   4.116   6.036  0.5176 -0.4728  0.8754
 4193TIP3   OH212521   7.144   3.104   4.492  0.0663  0.5793  0.1017
 4193TIP3    H112522   7.159   3.167   4.563 -3.2824 -0.0238  1.5686
 4193TIP3    H212523   7.140   3.019   4.536 -1.0448  0.0648 -0.9288
 4194TIP3   OH212524   7.556   2.926   3.179 -0.8865  0.0483  0.5063
 4194TIP3    H112525   7.548   2.977   3.259 -2.6890 -0.3217  0.6069
 4194TIP3    H212526   7.472   2.937   3.135 -0.7380 -1.5430 -0.2508
 4195TIP3   OH212527   7.112   5.116   0.642 -0.1768 -0.0556  0.2229
 4195TIP3    H112528   7.022   5.138   0.662 -0.4847  0.0026 -1.1632
 4195TIP3    H212529   7.159   5.130   0.725 -1.5898 -1.0808  1.2504
 4196TIP3   OH212530   2.710   1.655   1.641  0.0579  0.1764 -0.6246
 4196TIP3    H112531   2.779   1.602   1.600  0.4129  0.5844 -0.5725
 4196TIP3    H212532   2.685   1.718   1.574 -0.2230  0.0664 -0.6223
 4197TIP3   OH212533   6.161   7.213   0.715  0.1623  0.9974 -0.2872
 4197TIP3    H112534   6.187   7.133   0.762 -0.3072  1.5757  1.0085
 4197TIP3    H212535   6.108   7.181   0.642 -0.2618  0.1302  0.3768
 4198TIP3   OH212536   1.116   6.295   1.387  0.1337 -0.1895 -0.0772
 4198TIP3    H112537   1.029   6.271   1.419  0.3475 -0.4383  0.3333
 4198TIP3    H212538   1.145   6.364   1.448 -0.4333  1.0673 -1.1799
 4199TIP3   OH212539   0.624   5.495   4.681  0.0361 -0.5285  0.4430
 4199TIP3    H112540   0.565   5.522   4.752 -2.3699 -2.3897 -0.6638
 4199TIP3    H212541   0.643   5.403   4.700  0.2835 -0.7291 -0.7055
 4200TIP3   OH212542   8.268   0.100   6.069 -0.0922  0.1019 -0.3200
 4200TIP3    H112543   8.255   0.130   5.979 -0.3739  0.2956 -0.2158
 4200TIP3    H212544   8.180   0.095   6.106  0.1148  1.4226  0.3945
 4201TIP3   OH212545   1.214   4.752   0.825  0.6837 -0.2683 -0.2213
 4201TIP3    H112546   1.282   4.688   0.805  1.0037  0.4364 -1.4511
 4201TIP3    H212547   1.135   4.700   0.839  1.2415 -1.0183  0.2326
 4202TIP3   OH212548   7.000   5.952   1.207 -0.0735  0.1022 -0.3681
 4202TIP3    H112549   7.040   5.946   1.120 -0.8095  2.7576 -0.9920
 4202TIP3    H212550   6.966   5.864   1.224 -2.8647  0.1485 -4.2843
 4203TIP3   OH212551   2.871   3.958   1.871 -0.3493  0.4113  0.3806
 4203TIP3    H112552   2.939   4.026   1.864 -1.1979  1.0874 -2.6147
 4203TIP3    H212553   2.888   3.899   1.798 -2.6718  0.3187 -0.1568
 4204TIP3   OH212554   7.816   0.363   6.402  0.2081  0.7531 -0.5526
 4204TIP3    H112555   7.749   0.315   6.451  2.1346 -0.5942  0.9336
 4204TIP3    H212556   7.800   0.341   6.311  0.4780 -2.1262  0.0129
 4205TIP3   OH212557   3.889   4.228   0.255 -0.3148  0.1072  0.1991
 4205TIP3    H112558   3.864   4.156   0.312  0.7935 -1.5511 -1.3040
 4205TIP3    H212559   3.842   4.304   0.290 -1.0598 -1.1938  2.1890
 4206TIP3   OH212560   2.509   2.820   3.434 -0.5064  0.1924  0.0753
 4206TIP3    H112561   2.460   2.816   3.517 -0.5235  2.1398  0.2028
 4206TIP3    H212562   2.465   2.887   3.383 -0.8762 -1.4269 -1.8206
 4207TIP3   OH212563   8.244   2.526   4.727  0.2563  0.3504 -0.0001
 4207TIP3    H112564   8.266   2.597   4.668  1.9035  0.2733  0.4820
 4207TIP3    H212565   8.167   2.557   4.775  0.5341  1.5160 -0.2906
 4208TIP3   OH212566   6.008   0.358   3.026 -0.0719 -0.0877 -0.1660
 4208TIP3    H112567   6.078   0.404   2.980  0.8877 -1.8370 -0.5020
 4208TIP3    H212568   6.032   0.365   3.119 -0.5753  1.0806 -0.1004
 4209TIP3   OH212569   5.039   3.364   2.773  0.1387  0.0807  0.3063
 4209TIP3    H112570   5.011   3.446   2.813  0.7547 -0.0038  0.9143
 4209TIP3    H212571   5.022   3.298   2.840  0.1808 -0.2133  0.0283
 4210TIP3   OH212572   5.577   5.176   2.976 -0.1260 -0.0735 -0.1447
 4210TIP3    H112573   5.542   5.137   2.896  0.6221 -0.8425 -0.1149
 4210TIP3    H212574   5.671   5.161   2.971 -0.1912 -1.2978  1.4900
 4211TIP3   OH212575   7.901   7.716   6.711 -0.1845  0.0936 -0.2579
 4211TIP3    H112576   7.996   7.702   6.718 -0.5048 -1.9862  0.9370
 4211TIP3    H212577   7.869   7.701   6.800 -1.6744  0.5534 -0.6932
 4212TIP3   OH212578   5.808   2.789   1.470 -0.3635 -0.3070  0.1274
 4212TIP3    H112579   5.865   2.724   1.510 -0.0800 -0.8534 -1.1082
 4212TIP3    H212580   5.724   2.744   1.459 -0.4497 -0.1528  0.1481
 4213TIP3   OH212581   2.203   2.426   1.896 -0.6510 -0.1798 -0.0220
 4213TIP3    H112582   2.208   2.492   1.965 -0.9497  0.3899 -0.5377
 4213TIP3    H212583   2.239   2.347   1.936 -1.1168  0.0526  0.8901
 4214TIP3   OH212584   1.259   2.496   2.742 -0.3962 -0.3872 -0.4353
 4214TIP3    H112585   1.342   2.448   2.737  0.3190  0.7249  0.1469
 4214TIP3    H212586   1.204   2.457   2.675  1.6095  0.7258 -2.9178
 4215TIP3   OH212587   7.811   4.246   5.824  0.2701  0.2847  0.4742
 4215TIP3    H112588   7.895   4.280   5.853  0.1861  0.5868  0.3662
 4215TIP3    H212589   7.786   4.302   5.751 -0.6750  1.0906  1.3739
 4216TIP3   OH212590   1.333   2.979   5.835  0.4518 -0.1174 -0.2798
 4216TIP3    H112591   1.382   2.919   5.778  1.4858 -0.2384  0.7086
 4216TIP3    H212592   1.251   2.934   5.853  0.6022 -0.5810 -0.7364
 4217TIP3   OH212593   2.046   3.740   0.640 -0.2730 -0.0162 -0.0444
 4217TIP3    H112594   1.966   3.765   0.594  0.5582  0.7196 -1.1490
 4217TIP3    H212595   2.016   3.699   0.721 -1.7562  0.3004 -0.4125
 4218TIP3   OH212596   1.629   4.557   3.107 -0.2224 -0.5380 -0.8901
 4218TIP3    H112597   1.661   4.484   3.161 -2.6419 -1.7844 -1.0105
 4218TIP3    H212598   1.604   4.624   3.171  1.8486  0.2112 -0.7727
 4219TIP3   OH212599   1.300   6.002   2.706 -0.1115  0.0638  0.6129
 4219TIP3    H112600   1.253   6.081   2.732 -1.7229 -0.8979  0.7426
 4219TIP3    H212601   1.286   5.941   2.779 -0.0883 -0.8122 -0.0911
 4220TIP3   OH212602   3.211   4.452   4.443  0.1965 -0.6040 -0.3064
 4220TIP3    H112603   3.246   4.385   4.501  0.9749  0.5344  0.5688
 4220TIP3    H212604   3.121   4.464   4.472  1.2767  1.7606  2.4496
 4221TIP3   OH212605   5.606   1.937   0.693 -0.1073 -0.1338  0.2337
 4221TIP3    H112606   5.594   1.910   0.784 -0.9856  1.7010  0.7157
 4221TIP3    H212607   5.536   1.893   0.645 -0.0437 -0.5877  0.5478
 4222TIP3   OH212608   4.381   2.887   3.428 -0.0060  0.1163 -0.0223
 4222TIP3    H112609   4.454   2.844   3.472 -1.9009 -0.6889  2.5934
 4222TIP3    H212610   4.398   2.980   3.438  0.6221 -0.0646  0.6790
 4223TIP3   OH212611   6.336   5.318   3.634  0.7925 -0.3849 -0.0954
 4223TIP3    H112612   6.410   5.323   3.694 -0.2032 -1.9904  1.3602
 4223TIP3    H212613   6.278   5.389   3.662  0.9164 -0.3234  0.0065
 4224TIP3   OH212614   5.147   3.132   6.231 -0.0427  0.5137  0.4894
 4224TIP3    H112615   5.213   3.065   6.215 -0.2096  0.2957  0.7151
 4224TIP3    H212616   5.129   3.169   6.145 -0.0935  0.1348  0.3356
 4225TIP3   OH212617   4.014   7.339   1.515 -0.7755  0.2588 -0.0507
 4225TIP3    H112618   3.973   7.254   1.497  1.7331 -0.9965 -0.3538
 4225TIP3    H212619   4.052   7.365   1.430  0.2951  0.5986  0.5133
 4226TIP3   OH212620   1.880   2.410   3.628 -0.3624  0.0629  0.8918
 4226TIP3    H112621   1.940   2.432   3.699 -0.8922  0.2130  1.2966
 4226TIP3    H212622   1.794   2.438   3.659 -0.5964  0.1569  0.1798
 4227TIP3   OH212623   1.027   3.586   5.941 -0.2654 -0.3363  0.1230
 4227TIP3    H112624   1.122   3.601   5.945 -0.2051 -1.0318  1.7718
 4227TIP3    H212625   0.989   3.674   5.939  0.3501 -0.0083  1.8256
 4228TIP3   OH212626   6.731   1.643   0.099  0.0423 -0.1394 -0.3188
 4228TIP3    H112627   6.798   1.654   0.032 -0.1558 -2.6886 -1.0621
 4228TIP3    H212628   6.752   1.559   0.140 -0.7498  0.6127  1.7975
 4229TIP3   OH212629   7.122   6.842   3.727 -0.0753 -0.2623 -0.2716
 4229TIP3    H112630   7.132   6.916   3.666 -0.4163 -0.9468 -1.1862
 4229TIP3    H212631   7.103   6.883   3.811  1.5168  0.7641 -0.3632
 4230TIP3   OH212632   0.717   5.190   0.572  0.0965 -0.2098 -0.1960
 4230TIP3    H112633   0.695   5.165   0.482 -1.6863 -1.0839  0.4159
 4230TIP3    H212634   0.650   5.254   0.595  0.0431 -0.6013  0.7570
 4231TIP3   OH212635   2.209   5.596   6.036 -0.1595 -0.2725 -0.2878
 4231TIP3    H112636   2.278   5.638   6.088 -0.3924 -0.5121  0.2281
 4231TIP3    H212637   2.221   5.630   5.948 -0.0206  0.4649  0.0118
 4232TIP3   OH212638   3.358   3.137   3.010  0.1102 -0.1088 -0.7411
 4232TIP3    H112639   3.395   3.140   2.922  1.8193 -1.5279 -0.1341
 4232TIP3    H212640   3.302   3.059   3.010 -0.1755  0.0935 -0.6641
 4233TIP3   OH212641   8.120   4.793   5.343 -0.3345 -0.4519 -0.2030
 4233TIP3    H112642   8.116   4.856   5.271  1.0632  0.0183  0.1051
 4233TIP3    H212643   8.049   4.819   5.402 -1.1581 -0.5209 -1.1430
 4234TIP3   OH212644   5.987   5.568   1.801 -0.2229  0.2056 -0.5024
 4234TIP3    H112645   5.902   5.544   1.761 -1.4341 -1.7337  2.8531
 4234TIP3    H212646   6.044   5.493   1.782 -0.7604 -0.6576  1.0839
 4235TIP3   OH212647   3.905   7.501   3.746 -0.0814 -0.1646  0.2545
 4235TIP3    H112648   3.979   7.445   3.724 -1.5440 -1.8414 -0.6873
 4235TIP3    H212649   3.904   7.568   3.678  1.1925  0.5390  0.9070
 4236TIP3   OH212650   3.571   7.381   1.635 -0.2243  0.3862 -0.4449
 4236TIP3    H112651   3.613   7.417   1.557 -0.7276  1.8677 -0.0767
 4236TIP3    H212652   3.644   7.356   1.692  0.1707  1.4178 -0.4751
 4237TIP3   OH212653   8.031   0.713   5.707 -0.4319  0.3027  0.0471
 4237TIP3    H112654   8.001   0.752   5.789 -0.3663  0.0798  0.1780
 4237TIP3    H212655   8.108   0.764   5.683  0.2473 -0.3719  0.7374
 4238TIP3   OH212656   5.351   7.327   5.006 -0.1153 -0.0692 -0.1138
 4238TIP3    H112657   5.294   7.283   5.069 -1.5834 -1.2670 -2.1530
 4238TIP3    H212658   5.396   7.255   4.960  1.6290  0.7932  0.1393
 4239TIP3   OH212659   7.578   6.759   2.263  0.0323 -0.1555  0.0719
 4239TIP3    H112660   7.502   6.803   2.224  0.5319 -0.4924 -1.3116
 4239TIP3    H212661   7.541   6.706   2.333 -1.1919 -1.2613 -1.3585
 4240TIP3   OH212662   5.472   7.637   1.857 -0.7874 -0.3433  0.3107
 4240TIP3    H112663   5.418   7.714   1.874  0.2284  0.3860  0.2943
 4240TIP3    H212664   5.536   7.665   1.792  0.9239 -0.5536  1.8103
 4241TIP3   OH212665   5.028   1.991   2.852  0.1120  0.4508 -0.3480
 4241TIP3    H112666   4.954   2.003   2.792 -1.4894 -1.9185  0.9830
 4241TIP3    H212667   5.017   2.060   2.917 -1.5289 -0.3598  0.3072
 4242TIP3   OH212668   5.574   3.551   1.461 -0.6887 -0.2850 -0.3186
 4242TIP3    H112669   5.650   3.604   1.434 -0.4693  0.3069  1.3289
 4242TIP3    H212670   5.498   3.604   1.437 -0.4921  0.3650  0.4463
 4243TIP3   OH212671   5.171   1.791   2.711  0.5803 -0.2483  0.0661
 4243TIP3    H112672   5.141   1.862   2.767  0.7476 -0.9621  1.0853
 4243TIP3    H212673   5.174   1.829   2.623 -0.9925  0.5102  0.3141
 4244TIP3   OH212674   0.155   7.006   4.753 -0.0680  0.1393  0.6250
 4244TIP3    H112675   0.161   6.936   4.688 -0.6079  0.2342  0.4613
 4244TIP3    H212676   0.106   7.075   4.708  0.3252  0.5614  0.8371
 4245TIP3   OH212677   3.403   3.905   4.138  0.3221 -0.4145 -0.0313
 4245TIP3    H112678   3.425   3.825   4.185  0.1642 -1.2901 -1.3954
 4245TIP3    H212679   3.309   3.917   4.154  0.2871 -0.6554 -0.0456
 4246TIP3   OH212680   0.170   2.033   1.871 -0.3158 -0.4598  0.3771
 4246TIP3    H112681   0.118   2.068   1.799 -1.0572 -0.0534  1.0832
 4246TIP3    H212682   0.117   1.960   1.905  0.4981 -1.2894 -0.1175
 4247TIP3   OH212683   6.213   1.557   2.316  0.2231 -0.3280 -0.3270
 4247TIP3    H112684   6.228   1.556   2.221 -1.1238 -0.8362 -0.5463
 4247TIP3    H212685   6.249   1.642   2.344  0.9568 -0.3182 -1.2242
 4248TIP3   OH212686   7.952   1.127   1.503  0.1130 -0.3059 -0.2614
 4248TIP3    H112687   7.906   1.063   1.558 -0.7173  0.3137 -0.2160
 4248TIP3    H212688   7.884   1.160   1.444  0.6509  0.1690 -0.6161
 4249TIP3   OH212689   6.372   0.728   6.203  0.5911  0.0478 -0.4411
 4249TIP3    H112690   6.314   0.727   6.127  0.3503 -1.1501 -0.2635
 4249TIP3    H212691   6.401   0.638   6.212 -0.7207 -0.2362  1.8615
 4250TIP3   OH212692   1.333   7.692   3.950  0.2705  0.4328 -0.1874
 4250TIP3    H112693   1.402   7.636   3.915  0.2028 -0.2483  0.7236
 4250TIP3    H212694   1.348   7.778   3.910  0.4085 -0.2196 -1.5644
 4251TIP3   OH212695   2.183   6.256   2.220  0.4262 -0.4852  0.5527
 4251TIP3    H112696   2.197   6.235   2.127 -1.0568 -2.1676  0.6641
 4251TIP3    H212697   2.227   6.340   2.232  0.1265  0.0936 -1.8358
 4252TIP3   OH212698   0.357   1.845   5.160  0.1393 -0.0028  0.0703
 4252TIP3    H112699   0.274   1.862   5.203  0.2026 -0.9514  0.5908
 4252TIP3    H212700   0.410   1.923   5.178 -0.0233 -0.1505  1.2579
 4253TIP3   OH212701   1.814   6.474   3.941 -0.6603 -0.5345  0.1113
 4253TIP3    H112702   1.744   6.539   3.932 -1.3294 -1.1413  0.7312
 4253TIP3    H212703   1.885   6.521   3.984 -0.7002  0.0862 -0.4959
 4254TIP3   OH212704   4.969   1.255   3.082 -0.4788  1.1538  0.4750
 4254TIP3    H112705   4.940   1.346   3.074 -1.8512  0.6776 -0.4660
 4254TIP3    H212706   4.941   1.228   3.169 -1.6468  1.1389  0.1147
 4255TIP3   OH212707   3.890   4.737   4.911 -0.4001 -0.0722  0.9241
 4255TIP3    H112708   3.809   4.694   4.884 -0.2421 -1.1102  2.0274
 4255TIP3    H212709   3.908   4.702   4.999  0.8576  0.6843  0.9925
 4256TIP3   OH212710   2.266   2.314   0.432  0.1862 -0.3993  0.5605
 4256TIP3    H112711   2.233   2.379   0.370 -2.0470 -0.6858  1.3694
 4256TIP3    H212712   2.335   2.361   0.480  1.1155  0.1947 -1.2501
 4257TIP3   OH212713   5.147   3.834   4.696  0.2378 -0.4645 -0.3038
 4257TIP3    H112714   5.100   3.868   4.619  0.2854  0.7951  0.1986
 4257TIP3    H212715   5.228   3.797   4.661  0.0519 -0.3068 -0.9059
 4258TIP3   OH212716   0.975   0.569   5.440  0.1858 -0.0178 -0.2611
 4258TIP3    H112717   1.005   0.657   5.416 -1.3050  0.9936  1.3121
 4258TIP3    H212718   0.880   0.578   5.445  0.1446 -1.1769  1.9124
 4259TIP3   OH212719   1.863   0.150   6.365  0.6709  0.2544 -0.1230
 4259TIP3    H112720   1.911   0.191   6.437 -0.0722 -0.5516  0.8563
 4259TIP3    H212721   1.856   0.219   6.299  2.0570  0.7689  0.2296
 4260TIP3   OH212722   4.697   6.429   2.264 -0.0459  0.0500  0.2684
 4260TIP3    H112723   4.663   6.518   2.252 -0.7914 -0.3391 -0.6353
 4260TIP3    H212724   4.682   6.410   2.356 -1.1144  0.3759  0.1745
 4261TIP3   OH212725   5.419   1.497   0.012 -0.0160 -0.6920 -0.1148
 4261TIP3    H112726   5.484   1.429  -0.005  1.2791  0.6207 -0.7103
 4261TIP3    H212727   5.445   1.534   0.097 -1.0466 -1.2724  0.4770
 4262TIP3   OH212728   2.422   2.413   1.097 -0.0300  0.1143 -0.0194
 4262TIP3    H112729   2.361   2.387   1.029  0.6589 -3.1359  0.4193
 4262TIP3    H212730   2.374   2.399   1.179  1.0838 -2.2372  0.3181
 4263TIP3   OH212731   2.133   7.549   0.883 -0.1928 -0.1365  0.4642
 4263TIP3    H112732   2.218   7.543   0.840 -0.3874 -0.5560  0.1371
 4263TIP3    H212733   2.142   7.494   0.961 -0.8265 -1.9281 -0.6660
 4264TIP3   OH212734   1.888   7.000   1.149  0.2306  0.3680 -0.4988
 4264TIP3    H112735   1.885   6.907   1.171  1.4845  0.0150 -1.6542
 4264TIP3    H212736   1.796   7.027   1.149 -0.1282 -0.7533  0.2743
 4265TIP3   OH212737   7.206   0.014   1.557 -0.5623  0.1488 -0.1776
 4265TIP3    H112738   7.132   0.074   1.549 -0.9556  0.0404  2.0665
 4265TIP3    H212739   7.280   0.062   1.519 -1.4338  0.8983 -0.9779
 4266TIP3   OH212740   5.630   3.410   0.084 -0.2232 -0.1914 -0.4689
 4266TIP3    H112741   5.569   3.379   0.017 -0.6012  0.7453 -0.5847
 4266TIP3    H212742   5.716   3.388   0.050 -0.4999 -2.4174  0.1524
 4267TIP3   OH212743   0.732   5.392   5.318 -0.1202 -0.3973  0.2435
 4267TIP3    H112744   0.824   5.366   5.312 -0.2257 -1.2291  1.8393
 4267TIP3    H212745   0.700   5.386   5.228  1.2154 -0.7246 -0.2361
 4268TIP3   OH212746   6.794   5.736   2.821  0.3614  0.5695  0.1193
 4268TIP3    H112747   6.757   5.694   2.743  1.4773  1.0095 -0.6536
 4268TIP3    H212748   6.797   5.829   2.800 -2.1656  1.1614  1.8546
 4269TIP3   OH212749   5.994   6.361   2.083  0.1242 -0.6722 -0.0338
 4269TIP3    H112750   5.911   6.315   2.100 -0.3178 -0.2087 -0.8942
 4269TIP3    H212751   5.992   6.379   1.989 -0.3963  2.3941  0.4719
 4270TIP3   OH212752   2.682   1.790   3.205 -0.0032 -0.1272  0.1555
 4270TIP3    H112753   2.638   1.741   3.136  1.1317  0.2648 -0.8681
 4270TIP3    H212754   2.738   1.726   3.248  0.7840  0.0485 -0.5864
 4271TIP3   OH212755   6.059   7.543   5.947 -0.0052  0.2970  0.1073
 4271TIP3    H112756   6.019   7.576   6.027  0.2818 -0.3065  0.5073
 4271TIP3    H212757   6.035   7.450   5.944  0.4558  0.1820 -0.2115
 4272TIP3   OH212758   3.035   1.706   3.851 -0.3608  0.2328 -0.2709
 4272TIP3    H112759   3.070   1.621   3.824 -0.2697  0.4383 -0.8015
 4272TIP3    H212760   2.979   1.685   3.926  1.1097 -0.0723  0.8034
 4273TIP3   OH212761   4.880   0.117   1.916  0.0680  0.2549 -0.1255
 4273TIP3    H112762   4.911   0.032   1.947  3.1226  2.0790  2.5343
 4273TIP3    H212763   4.937   0.139   1.842  1.1382  1.0203  0.8827
 4274TIP3   OH212764   6.231   0.610   4.856  0.1029  0.2091  0.2007
 4274TIP3    H112765   6.265   0.697   4.877 -0.7091  0.8656 -1.0831
 4274TIP3    H212766   6.187   0.621   4.772  0.1865 -1.5041 -0.1052
 4275TIP3   OH212767   1.286   1.695   5.423 -0.2767 -0.1489  0.4787
 4275TIP3    H112768   1.314   1.669   5.335  0.2384  0.3194  0.4971
 4275TIP3    H212769   1.204   1.647   5.437 -0.6294  0.1436 -0.4561
 4276TIP3   OH212770   3.743   7.170   4.008  0.1733 -0.0517 -0.1990
 4276TIP3    H112771   3.752   7.182   3.914  1.7416  0.0229 -0.0612
 4276TIP3    H212772   3.651   7.145   4.020 -0.2656  0.7321 -1.6477
 4277TIP3   OH212773   2.834   3.899   3.887  0.4409  0.1945  0.5574
 4277TIP3    H112774   2.873   3.839   3.823  0.7176 -0.2522  1.1375
 4277TIP3    H212775   2.829   3.982   3.840  0.0402 -0.2743 -0.2606
 4278TIP3   OH212776   1.103   3.309   0.505 -0.5396 -0.4320  0.1665
 4278TIP3    H112777   1.095   3.246   0.576  0.0626 -0.3419  0.3232
 4278TIP3    H212778   1.069   3.391   0.542  0.3505 -0.2312  0.5730
 4279TIP3   OH212779   3.556   3.709   2.295  1.0221 -0.0571 -0.0861
 4279TIP3    H112780   3.472   3.731   2.336  0.9107 -0.1396 -0.2707
 4279TIP3    H212781   3.533   3.681   2.206  1.0771 -1.8084  0.4246
 4280TIP3   OH212782   7.889   7.625   0.319  0.2327  0.4328 -0.2875
 4280TIP3    H112783   7.941   7.545   0.316 -1.0009 -0.3736 -0.9756
 4280TIP3    H212784   7.887   7.655   0.229  1.3436  1.7210  0.0744
 4281TIP3   OH212785   1.009   0.208   5.886 -0.2574  0.4751 -0.2940
 4281TIP3    H112786   0.922   0.216   5.926 -0.8362  0.2850 -1.4948
 4281TIP3    H212787   1.024   0.114   5.877  0.5784  0.4571  0.9347
 4282TIP3   OH212788   4.641   7.326   5.207 -0.5760 -0.1414  0.5157
 4282TIP3    H112789   4.655   7.255   5.269  3.0400 -0.9646 -0.9850
 4282TIP3    H212790   4.656   7.286   5.121 -0.8704  1.9174 -0.5587
 4283TIP3   OH212791   6.221   4.255   0.888 -0.3494  0.1903  0.6019
 4283TIP3    H112792   6.132   4.251   0.853 -0.2638 -2.3499  0.5237
 4283TIP3    H212793   6.232   4.347   0.915 -3.3934  0.3394  1.6909
 4284TIP3   OH212794   0.624   1.273   0.131  0.1632 -0.2327  0.1313
 4284TIP3    H112795   0.714   1.287   0.160  0.5641 -0.5324 -0.9119
 4284TIP3    H212796   0.632   1.224   0.049 -0.8952  0.7824 -0.6304
 4285TIP3   OH212797   5.734   5.345   3.807 -0.9269 -0.2822 -0.4876
 4285TIP3    H112798   5.773   5.428   3.778 -0.9226  0.1706  0.7709
 4285TIP3    H212799   5.696   5.308   3.727 -1.1380  1.0430 -1.0365
 4286TIP3   OH212800   5.851   6.936   5.807  0.5054 -0.2663 -0.0105
 4286TIP3    H112801   5.863   7.031   5.808  0.6176 -0.2495  1.8594
 4286TIP3    H212802   5.822   6.915   5.896  2.5672 -2.2197  0.3042
 4287TIP3   OH212803   4.351   4.644   1.117  0.3449 -0.1204  0.4475
 4287TIP3    H112804   4.312   4.730   1.103 -0.6056 -0.7118 -0.7847
 4287TIP3    H212805   4.393   4.623   1.033  0.1019 -1.0750  0.5541
 4288TIP3   OH212806   7.106   7.593   6.665 -0.0436 -0.1425  0.0019
 4288TIP3    H112807   7.139   7.515   6.711  2.1630 -0.4440 -1.9106
 4288TIP3    H212808   7.062   7.558   6.588  1.0558  0.4756 -0.9278
 4289TIP3   OH212809   1.401   1.778   4.566 -0.7706  0.6346  0.4015
 4289TIP3    H112810   1.484   1.797   4.524  0.5272 -2.5835  1.2026
 4289TIP3    H212811   1.395   1.841   4.638  0.9436  0.9729  0.2903
 4290TIP3   OH212812   6.569   7.752   3.066  0.0939 -0.3626  0.1348
 4290TIP3    H112813   6.482   7.790   3.070  0.0773 -0.4805  0.9115
 4290TIP3    H212814   6.554   7.664   3.031 -0.2578 -0.8315  1.4066
 4291TIP3   OH212815   0.596   4.932   0.046 -0.2250 -0.9230 -0.5154
 4291TIP3    H112816   0.587   4.977  -0.038  0.1955  0.2769  0.0618
 4291TIP3    H212817   0.691   4.922   0.057 -0.2773 -1.0446 -0.1672
 4292TIP3   OH212818   7.007   7.470   5.666  0.5043 -0.1803  0.2179
 4292TIP3    H112819   6.946   7.539   5.639  2.0004  1.4747  0.8206
 4292TIP3    H212820   7.016   7.415   5.589 -2.2028 -0.8876  0.3059
 4293TIP3   OH212821   8.073   7.424   6.437  0.1843  0.3400  0.3140
 4293TIP3    H112822   8.016   7.377   6.376 -0.3284 -0.3565  1.3054
 4293TIP3    H212823   8.094   7.506   6.392  2.6550 -1.5249 -2.3563
 4294TIP3   OH212824   1.114   3.783   2.914 -0.1169  0.0711 -0.2658
 4294TIP3    H112825   1.171   3.825   2.850  1.0065  0.3739  0.8938
 4294TIP3    H212826   1.174   3.742   2.976 -1.1773 -1.8590 -0.4412
 4295TIP3   OH212827   2.539   7.242   0.982  0.3386 -0.0984  0.0666
 4295TIP3    H112828   2.519   7.159   1.026  2.9959 -1.7713 -1.5907
 4295TIP3    H212829   2.486   7.240   0.902  0.3012 -0.1418  0.0924
 4296TIP3   OH212830   0.158   2.602   2.655  0.1336 -0.6108  0.2379
 4296TIP3    H112831   0.103   2.618   2.578  1.6230 -0.3089 -0.8110
 4296TIP3    H212832   0.170   2.507   2.657  1.6369 -0.4834 -1.0693
 4297TIP3   OH212833   3.142   3.238   1.215 -0.2492 -0.2419  0.0551
 4297TIP3    H112834   3.146   3.143   1.206 -1.1561 -0.2434 -0.4663
 4297TIP3    H212835   3.049   3.257   1.223 -0.1051  0.6433 -0.3124
 4298TIP3   OH212836   1.185   1.594   6.612 -0.2418  0.2907 -0.3852
 4298TIP3    H112837   1.107   1.644   6.636 -0.7267 -0.7481  0.2648
 4298TIP3    H212838   1.205   1.542   6.689 -0.2163 -1.0959 -1.2760
 4299TIP3   OH212839   2.106   3.470   4.748  0.4470 -0.2099 -0.0446
 4299TIP3    H112840   2.120   3.504   4.836 -1.3596  1.1648 -0.2388
 4299TIP3    H212841   2.117   3.546   4.691  0.3621 -0.8175 -0.8945
 4300TIP3   OH212842   7.600   0.928   2.872 -0.2858  0.2616  0.1005
 4300TIP3    H112843   7.688   0.953   2.844  0.4910 -1.1720  1.1255
 4300TIP3    H212844   7.542   0.992   2.831  1.4256  2.8434  1.4582
 4301TIP3   OH212845   1.166   6.238   5.565  0.4845  0.4427  0.0183
 4301TIP3    H112846   1.093   6.249   5.626  1.4093  2.3091  0.8801
 4301TIP3    H212847   1.126   6.245   5.479 -0.6018 -0.4483  0.4277
 4302TIP3   OH212848   3.298   6.280   1.077 -0.4170  0.4768 -0.2711
 4302TIP3    H112849   3.376   6.242   1.118 -0.9384  0.1995  0.5000
 4302TIP3    H212850   3.307   6.374   1.091 -2.3562  0.2414  3.9504
 4303TIP3   OH212851   2.218   0.913   0.317  0.2259 -0.4581  0.0334
 4303TIP3    H112852   2.269   0.866   0.251 -0.8958 -0.3388 -0.9570
 4303TIP3    H212853   2.132   0.873   0.313  0.0405 -0.1807  1.1762
 4304TIP3   OH212854   1.511   4.591   1.270 -0.4036 -0.2033  0.3252
 4304TIP3    H112855   1.568   4.655   1.227  0.3902 -0.7610  0.5331
 4304TIP3    H212856   1.423   4.613   1.238 -0.1046  0.7558  0.1087
 4305TIP3   OH212857   2.527   0.465   2.405  0.3040 -0.1852 -0.2357
 4305TIP3    H112858   2.467   0.449   2.477 -0.6144  0.6075 -0.7940
 4305TIP3    H212859   2.607   0.418   2.428 -0.5714 -1.3568  0.4658
 4306TIP3   OH212860   4.902   1.325   0.230 -0.2589  0.0577 -0.0601
 4306TIP3    H112861   4.897   1.232   0.254  0.0344  0.1337  0.3061
 4306TIP3    H212862   4.810   1.352   0.226 -0.3476 -0.2465 -0.1562
 4307TIP3   OH212863   2.728   0.089   1.279 -0.1580  0.4086 -0.4672
 4307TIP3    H112864   2.717   0.010   1.332  0.5828  0.6207  0.0254
 4307TIP3    H212865   2.706   0.062   1.190 -0.1756 -0.2853 -0.2537
 4308TIP3   OH212866   3.088   3.715   3.173 -0.3737  0.1278 -0.4332
 4308TIP3    H112867   3.151   3.714   3.101  1.1602 -0.6877  0.8702
 4308TIP3    H212868   3.070   3.623   3.191 -1.9955  0.3329 -0.7693
 4309TIP3   OH212869   3.676   5.686   3.710 -0.2261 -0.2865  0.2056
 4309TIP3    H112870   3.736   5.747   3.752  0.6679 -0.3180 -0.9925
 4309TIP3    H212871   3.674   5.610   3.769 -0.6981  0.5266  1.2707
 4310TIP3   OH212872   1.822   5.307   4.619 -0.1907  0.5851  0.3836
 4310TIP3    H112873   1.832   5.272   4.531 -0.8689  0.5515  0.3185
 4310TIP3    H212874   1.907   5.293   4.660 -0.1880 -0.3286  0.0734
 4311TIP3   OH212875   2.928   3.035   2.688 -0.0808  0.1405  0.6074
 4311TIP3    H112876   2.848   3.062   2.733 -0.6484 -1.0501  0.3660
 4311TIP3    H212877   2.939   3.100   2.619 -1.1828  0.0069  0.2787
 4312TIP3   OH212878   5.250   3.676   5.282 -0.3460 -0.5519  0.3523
 4312TIP3    H112879   5.213   3.650   5.366  2.2878 -1.9818  1.2189
 4312TIP3    H212880   5.331   3.721   5.305 -1.3286  2.3475 -1.4016
 4313TIP3   OH212881   0.257   3.898   2.918 -0.3080 -0.1241 -0.0958
 4313TIP3    H112882   0.270   3.838   2.844 -1.2014  0.0784 -0.4220
 4313TIP3    H212883   0.342   3.899   2.961  0.5233  0.4607 -1.6484
 4314TIP3   OH212884   3.610   1.394   6.773 -0.1618  0.5791 -0.1766
 4314TIP3    H112885   3.705   1.388   6.765  0.0951 -1.6562  2.8896
 4314TIP3    H212886   3.576   1.331   6.710  0.7242 -1.9753  1.7088
 4315TIP3   OH212887   7.032   7.342   0.186  0.2757 -0.1277 -0.1783
 4315TIP3    H112888   6.980   7.282   0.240  3.3567 -1.2202  1.8602
 4315TIP3    H212889   7.027   7.426   0.231 -1.8532  0.5930 -1.5691
 4316TIP3   OH212890   2.234   6.017   0.920  0.1059 -0.9297  0.0540
 4316TIP3    H112891   2.241   6.003   1.014 -0.6159 -0.2007  0.2249
 4316TIP3    H212892   2.173   5.949   0.890 -0.2364 -0.6998  0.2307
 4317TIP3   OH212893   7.609   2.163   5.966  0.3627 -0.4346 -0.5212
 4317TIP3    H112894   7.657   2.222   6.024  0.5576  0.2279 -1.3236
 4317TIP3    H212895   7.641   2.186   5.878 -0.4331 -0.9268 -0.9468
 4318TIP3   OH212896   2.666   2.539   4.066  0.6201  0.3451 -0.1828
 4318TIP3    H112897   2.654   2.447   4.088  1.0884  0.1640 -0.6479
 4318TIP3    H212898   2.578   2.571   4.046  0.5348 -0.1876 -0.6996
 4319TIP3   OH212899   7.257   7.081   0.661 -0.6681 -0.6807 -0.7553
 4319TIP3    H112900   7.318   7.008   0.673  0.3001  0.1023 -0.7499
 4319TIP3    H212901   7.197   7.074   0.735  1.5690  0.5560  1.3061
 4320TIP3   OH212902   6.200   7.317   1.247  0.6112 -0.0534  0.1949
 4320TIP3    H112903   6.225   7.226   1.261  1.6662 -0.1243 -1.7592
 4320TIP3    H212904   6.267   7.368   1.292  0.6320 -0.2450  0.3782
 4321TIP3   OH212905   6.904   6.610   5.157  0.2817 -0.0898 -0.0059
 4321TIP3    H112906   6.840   6.547   5.189 -0.5395  1.2729  1.1730
 4321TIP3    H212907   6.967   6.558   5.107 -1.2526 -1.5915 -0.4592
 4322TIP3   OH212908   7.956   4.540   0.509  0.0447  0.8156  0.1666
 4322TIP3    H112909   7.902   4.601   0.459 -0.6762  0.8183  0.9244
 4322TIP3    H212910   8.045   4.557   0.479 -0.5023 -0.4041 -2.4157
 4323TIP3   OH212911   0.182   4.941   5.987 -0.5804  0.2920 -0.0948
 4323TIP3    H112912   0.167   5.023   6.034  1.9970  0.9021 -0.1799
 4323TIP3    H212913   0.250   4.896   6.038  2.6508  1.1613 -3.1945
 4324TIP3   OH212914   6.141   4.493   0.317  0.3545  0.2583  0.0826
 4324TIP3    H112915   6.171   4.519   0.404  1.8820  0.4897 -0.4873
 4324TIP3    H212916   6.089   4.568   0.286 -0.6710 -0.0480  0.9851
 4325TIP3   OH212917   2.227   1.012   2.566 -0.1307  0.3208  0.2300
 4325TIP3    H112918   2.300   0.959   2.532  0.4763  2.0544 -1.3692
 4325TIP3    H212919   2.242   1.015   2.661  2.7085  1.6955 -0.1649
 4326TIP3   OH212920   8.163   7.161   6.358  0.4832  0.4887  0.2711
 4326TIP3    H112921   8.163   7.144   6.263 -1.0890 -2.5515  0.6877
 4326TIP3    H212922   8.248   7.131   6.388  1.0327  1.5650 -0.1452
 4327TIP3   OH212923   4.628   1.737   1.062 -0.2173 -0.0292  0.0666
 4327TIP3    H112924   4.605   1.731   1.155  0.5275 -0.4750  0.2292
 4327TIP3    H212925   4.550   1.707   1.016 -0.6890  0.4602  0.5369
 4328TIP3   OH212926   7.178   2.431   5.314  0.1245 -0.2802 -0.1770
 4328TIP3    H112927   7.178   2.394   5.225 -0.0300  0.3578 -0.4515
 4328TIP3    H212928   7.135   2.364   5.367  0.9337 -1.0143 -0.4278
 4329TIP3   OH212929   1.521   2.801   4.776 -0.3190  0.5440  0.1127
 4329TIP3    H112930   1.568   2.757   4.846 -1.0516  0.6683  0.6889
 4329TIP3    H212931   1.531   2.744   4.700 -0.9503 -0.4457  0.7542
 4330TIP3   OH212932   8.187   3.529   3.016  0.4886 -0.5769  0.1938
 4330TIP3    H112933   8.172   3.559   2.926  0.1923 -0.9093  0.1310
 4330TIP3    H212934   8.172   3.606   3.070 -2.1592 -1.0109  0.2122
 4331TIP3   OH212935   2.452   6.690   1.326  0.0146 -0.2594  0.0789
 4331TIP3    H112936   2.440   6.713   1.234 -1.0525  0.3537  0.3476
 4331TIP3    H212937   2.436   6.596   1.330 -0.1371 -0.2513 -0.3280
 4332TIP3   OH212938   7.859   3.225   1.242 -0.0042  0.1998 -0.1139
 4332TIP3    H112939   7.768   3.235   1.216  0.4757 -0.4837 -2.1830
 4332TIP3    H212940   7.856   3.220   1.338 -2.1488 -0.1070 -0.1632
 4333TIP3   OH212941   6.505   2.106   3.537  0.5648  0.0447  0.3249
 4333TIP3    H112942   6.501   2.200   3.520  0.9993 -0.0835 -0.5760
 4333TIP3    H212943   6.568   2.097   3.608  0.6761  0.4260  0.2761
 4334TIP3   OH212944   7.282   2.306   6.745  0.5454  0.3197  0.2344
 4334TIP3    H112945   7.305   2.309   6.838 -0.2227  2.0133  0.4145
 4334TIP3    H212946   7.331   2.231   6.711  0.7027 -0.4528  2.0245
 4335TIP3   OH212947   2.068   3.684   4.151  0.1994  0.0759  0.2937
 4335TIP3    H112948   2.162   3.688   4.167  0.5982  0.8318 -1.9832
 4335TIP3    H212949   2.029   3.684   4.239  2.3066 -0.8552  1.2976
 4336TIP3   OH212950   0.613   3.834   1.170 -0.3200 -0.0491  0.2515
 4336TIP3    H112951   0.533   3.883   1.192 -1.0452  0.0201 -2.2096
 4336TIP3    H212952   0.679   3.901   1.153 -0.3033 -0.0379  0.3616
 4337TIP3   OH212953   0.037   3.611   0.278 -0.1848 -0.6349 -0.3511
 4337TIP3    H112954  -0.049   3.618   0.238 -0.0598 -0.6182 -0.6165
 4337TIP3    H212955   0.024   3.555   0.354 -0.5754 -0.0561  0.0185
 4338TIP3   OH212956   2.455   0.879   2.508  0.2733 -0.0535  0.2893
 4338TIP3    H112957   2.490   0.836   2.587  1.1324  0.3360  0.1298
 4338TIP3    H212958   2.482   0.822   2.436  0.9431  0.4574  0.1272
 4339TIP3   OH212959   6.334   0.222   5.525 -0.1314  0.1179  0.2845
 4339TIP3    H112960   6.395   0.255   5.459 -0.8468  1.8285  0.4239
 4339TIP3    H212961   6.325   0.129   5.505  1.6410  0.0637 -0.4167
 4340TIP3   OH212962   4.589   6.562   6.762 -0.0647  0.1991 -0.2245
 4340TIP3    H112963   4.572   6.595   6.674 -2.4015  1.0407  0.4570
 4340TIP3    H212964   4.605   6.468   6.749  2.6281  0.7688 -1.7757
 4341TIP3   OH212965   4.441   6.073   6.048  1.1235  0.1524 -0.0035
 4341TIP3    H112966   4.447   6.147   6.108 -0.1918 -0.8137  1.3833
 4341TIP3    H212967   4.414   5.999   6.103 -0.1562 -0.7657 -1.7714
 4342TIP3   OH212968   8.068   6.729   4.836 -0.0386  0.2127 -0.2008
 4342TIP3    H112969   8.003   6.659   4.843  1.1213 -1.2011 -2.4325
 4342TIP3    H212970   8.027   6.804   4.880 -1.7914 -1.5023  1.2985
 4343TIP3   OH212971   3.859   1.169   2.688 -0.2154 -0.3565 -0.6872
 4343TIP3    H112972   3.861   1.077   2.714 -1.4422 -0.6899 -1.7148
 4343TIP3    H212973   3.834   1.168   2.596  1.5367  0.9282 -1.2373
 4344TIP3   OH212974   1.758   6.584   2.113  0.1378  0.1245  0.4596
 4344TIP3    H112975   1.750   6.674   2.144 -0.4790 -0.3500  1.7366
 4344TIP3    H212976   1.846   6.580   2.075  0.2053  1.2293  0.4432
 4345TIP3   OH212977   3.429   4.627   2.807 -0.6382 -0.0041 -0.2359
 4345TIP3    H112978   3.372   4.641   2.732  0.4748  0.5993 -0.9845
 4345TIP3    H212979   3.483   4.552   2.783 -1.6038 -1.0825  0.7937
 4346TIP3   OH212980   4.077   0.219   1.506 -0.8827 -0.7625  0.2747
 4346TIP3    H112981   3.991   0.254   1.533 -0.3135  1.5766 -0.6846
 4346TIP3    H212982   4.140   0.270   1.557 -0.0191 -1.7063  0.1688
 4347TIP3   OH212983   6.979   5.709   6.375 -0.6086 -0.3405  0.0551
 4347TIP3    H112984   7.038   5.643   6.339 -1.1771 -1.4398  1.0761
 4347TIP3    H212985   6.892   5.680   6.348 -0.8795 -0.1491  0.7215
 4348TIP3   OH212986   0.499   3.454   5.476  0.5672  0.7703 -0.3820
 4348TIP3    H112987   0.524   3.495   5.393 -0.1671 -0.4231 -1.2059
 4348TIP3    H212988   0.404   3.465   5.481  0.1556 -1.7660 -1.1886
 4349TIP3   OH212989   6.424   2.331   5.211  0.3780 -0.1924  0.3657
 4349TIP3    H112990   6.439   2.275   5.287  0.0541  1.5676  1.7997
 4349TIP3    H212991   6.354   2.390   5.238  0.2604  0.4887 -1.3117
 4350TIP3   OH212992   2.027   0.097   1.440 -0.3204 -0.4225  0.0981
 4350TIP3    H112993   1.998   0.157   1.509 -0.8275 -1.7526  1.0932
 4350TIP3    H212994   1.997   0.137   1.359  0.9278  1.5636  0.5479
 4351TIP3   OH212995   6.959   4.272   4.158 -0.5906  0.0509 -0.0404
 4351TIP3    H112996   6.977   4.366   4.157  0.6589 -0.1533  0.8589
 4351TIP3    H212997   7.013   4.238   4.229  0.2327 -1.6069 -1.3964
 4352TIP3   OH212998   1.420   4.595   6.095  0.5167 -0.2198 -0.4120
 4352TIP3    H112999   1.394   4.655   6.165 -0.8896  0.4543 -1.4701
 4352TIP3    H213000   1.357   4.523   6.101  0.1076  0.0615 -1.2536
 4353TIP3   OH213001   6.696   6.763   5.819 -0.1327  0.5620  0.7647
 4353TIP3    H113002   6.617   6.781   5.768  0.2660  1.0690  0.3151
 4353TIP3    H213003   6.758   6.830   5.791  0.8439 -0.5120  0.2863
 4354TIP3   OH213004   8.256   3.814   0.948 -0.3049  0.1743  0.3171
 4354TIP3    H113005   8.166   3.843   0.956 -0.2684  0.1230  0.9906
 4354TIP3    H213006   8.266   3.748   1.017  0.1861  0.0351  0.1163
 4355TIP3   OH213007   7.013   1.215   3.556 -0.1141 -0.4740  0.2460
 4355TIP3    H113008   7.106   1.194   3.566  0.9603  2.7946 -1.4275
 4355TIP3    H213009   6.997   1.285   3.620 -2.0290 -2.1912  1.8100
 4356TIP3   OH213010   7.918   2.690   3.815  0.3449 -0.3949  0.2262
 4356TIP3    H113011   7.913   2.764   3.753  1.0467 -0.4259  0.1252
 4356TIP3    H213012   7.831   2.650   3.811 -0.2258  0.7432  0.6795
 4357TIP3   OH213013   8.228   3.983   6.739 -0.0160  0.0784  0.0058
 4357TIP3    H113014   8.246   3.891   6.759  0.3398  0.2341  0.4265
 4357TIP3    H213015   8.157   3.980   6.675  0.2645 -0.4975 -0.2855
 4358TIP3   OH213016   3.592   5.197   6.046 -0.1517  0.0415 -0.1317
 4358TIP3    H113017   3.595   5.267   5.981  2.1831 -0.4684 -0.6715
 4358TIP3    H213018   3.663   5.137   6.021 -0.9716 -1.6274  1.2967
 4359TIP3   OH213019   2.054   0.758   6.531  0.3713 -0.1188  0.2182
 4359TIP3    H113020   1.971   0.714   6.516  0.7243 -1.1075  1.0086
 4359TIP3    H213021   2.116   0.713   6.473  0.5139  0.0598  0.2323
 4360TIP3   OH213022   1.156   3.387   3.810 -0.5386  0.0236 -0.1534
 4360TIP3    H113023   1.148   3.397   3.905 -0.1009 -1.1550  0.0220
 4360TIP3    H213024   1.232   3.441   3.787 -2.5112  2.9752 -0.3631
 4361TIP3   OH213025   2.578   4.909   3.046  0.3589 -0.3578 -0.7631
 4361TIP3    H113026   2.633   4.889   2.970  0.5313  1.1755 -1.0639
 4361TIP3    H213027   2.631   4.969   3.099 -0.0776 -0.7877  0.1783
 4362TIP3   OH213028   2.667   5.069   6.517  0.3788  0.6493  0.2566
 4362TIP3    H113029   2.587   5.045   6.564 -0.4421 -0.2746 -1.4949
 4362TIP3    H213030   2.711   4.985   6.500  0.8153  0.9856 -0.3241
 4363TIP3   OH213031   2.581   4.680   3.745 -0.8528  0.1154  0.5148
 4363TIP3    H113032   2.666   4.719   3.724 -0.7107  1.8611  3.6242
 4363TIP3    H213033   2.526   4.702   3.670  1.1060 -0.0373 -1.0549
 4364TIP3   OH213034   3.202   2.054   6.536  0.1105 -0.6647 -0.2876
 4364TIP3    H113035   3.291   2.027   6.517 -0.2614 -1.8849 -0.3879
 4364TIP3    H213036   3.167   2.083   6.452  0.6732  0.6550 -0.0840
 4365TIP3   OH213037   7.412   2.476   6.147  0.4253  0.2807  0.4507
 4365TIP3    H113038   7.387   2.507   6.060  0.2602  2.0967  1.1067
 4365TIP3    H213039   7.359   2.397   6.161  0.2027  0.1637 -0.9386
 4366TIP3   OH213040   7.716   4.391   5.605 -0.4027 -0.0592  0.2154
 4366TIP3    H113041   7.629   4.431   5.608 -0.0583  0.7512 -0.3973
 4366TIP3    H213042   7.722   4.352   5.518 -0.4538 -0.8444  0.5474
 4367TIP3   OH213043   2.742   1.267   5.955  0.3199 -0.8087  0.1204
 4367TIP3    H113044   2.719   1.273   6.048  1.1533 -0.6165  0.3237
 4367TIP3    H213045   2.750   1.173   5.938 -0.8564 -0.8966 -0.0283
 4368TIP3   OH213046   1.708   2.003   2.795  0.2001  0.7763 -0.0497
 4368TIP3    H113047   1.631   1.991   2.739 -1.6531  1.2957  2.2164
 4368TIP3    H213048   1.777   2.033   2.736 -0.9621 -0.8494 -2.3785
 4369TIP3   OH213049   4.749   7.244   3.862  0.0794 -0.1208 -0.4275
 4369TIP3    H113050   4.766   7.151   3.877 -1.6742 -0.4830 -0.5192
 4369TIP3    H213051   4.750   7.253   3.767 -0.2319 -0.1510 -0.4348
 4370TIP3   OH213052   8.044   3.156   1.882 -0.2944  0.4795  0.7272
 4370TIP3    H113053   8.131   3.190   1.900  0.0953 -0.3578  0.4617
 4370TIP3    H213054   8.018   3.111   1.963 -0.9985  1.7463  1.2437
 4371TIP3   OH213055   6.671   2.775   6.691 -0.1026 -0.0880 -0.2780
 4371TIP3    H113056   6.621   2.844   6.734  1.2676  0.1999  0.9487
 4371TIP3    H213057   6.646   2.780   6.599  1.5578  3.5301 -0.6771
 4372TIP3   OH213058   5.059   4.540   4.862  0.2636  0.6975  0.7898
 4372TIP3    H113059   5.080   4.475   4.930 -1.4001  0.0167  0.7108
 4372TIP3    H213060   5.110   4.512   4.786 -1.2760 -1.2608  0.3956
 4373TIP3   OH213061   7.171   6.058   5.452  0.5676 -0.4471  0.3887
 4373TIP3    H113062   7.086   6.092   5.479  0.1848 -1.4468  0.5064
 4373TIP3    H213063   7.178   6.081   5.359  1.0476  1.3460  0.8454
 4374TIP3   OH213064   3.417   2.201   5.163 -0.4587  0.5805  0.4821
 4374TIP3    H113065   3.365   2.121   5.156  0.8625 -0.2387 -0.3000
 4374TIP3    H213066   3.444   2.221   5.074  1.1488  0.5592  0.9248
 4375TIP3   OH213067   2.260   6.265   1.952 -0.6542 -0.1893 -0.3580
 4375TIP3    H113068   2.348   6.301   1.966  0.0387 -1.5371 -1.0180
 4375TIP3    H213069   2.236   6.295   1.864 -0.8673  0.1785 -0.1780
 4376TIP3   OH213070   5.563   6.169   6.027  0.2227 -0.0785  0.0521
 4376TIP3    H113071   5.598   6.246   6.071  0.4903 -0.3109  0.2544
 4376TIP3    H213072   5.521   6.203   5.949  0.8015  0.2264 -0.1362
 4377TIP3   OH213073   4.817   7.466   4.202  0.0889 -0.2846 -0.5201
 4377TIP3    H113074   4.739   7.442   4.152  0.3547 -1.0187 -0.6086
 4377TIP3    H213075   4.803   7.426   4.288 -0.2224  0.6995 -0.1072
 4378TIP3   OH213076   2.737   7.105   3.942  0.1491 -0.3645 -0.0309
 4378TIP3    H113077   2.691   7.188   3.926  0.1892 -0.2725  0.3245
 4378TIP3    H213078   2.691   7.042   3.887 -1.8134 -0.7331  1.8656
 4379TIP3   OH213079   5.225   4.885   0.541  0.5793  0.4622 -0.0092
 4379TIP3    H113080   5.201   4.976   0.556  0.5009  0.3814  0.3752
 4379TIP3    H213081   5.142   4.837   0.548  0.6617  0.3304  0.0764
 4380TIP3   OH213082   2.630   0.934   0.065 -0.1601 -0.1392  0.4460
 4380TIP3    H113083   2.675   0.947  -0.019 -0.7332 -0.9077  0.0093
 4380TIP3    H213084   2.579   1.014   0.077  2.8637  1.7470  1.9891
 4381TIP3   OH213085   5.444   2.861   2.273  0.1162  0.2422  0.2354
 4381TIP3    H113086   5.464   2.890   2.184  0.8912  0.6481  0.5359
 4381TIP3    H213087   5.383   2.788   2.261  1.3209 -0.6616 -0.6960
 4382TIP3   OH213088   7.234   0.998   5.488  0.9520 -0.2660  0.3280
 4382TIP3    H113089   7.246   0.999   5.583 -1.5106 -1.9313  0.7517
 4382TIP3    H213090   7.265   0.912   5.461 -1.7324 -1.3104  0.2626
 4383TIP3   OH213091   1.212   0.617   6.194  0.2451  0.7836  0.1959
 4383TIP3    H113092   1.197   0.702   6.235 -0.8490 -0.4846  2.6818
 4383TIP3    H213093   1.263   0.636   6.116  0.7398  3.6263  1.1048
 4384TIP3   OH213094   6.071   1.672   6.625  0.0688 -0.0018  0.1677
 4384TIP3    H113095   6.040   1.597   6.574 -1.2220  0.4254  0.2835
 4384TIP3    H213096   5.994   1.703   6.672  0.4344  1.7535 -0.3112
 4385TIP3   OH213097   4.107   1.374   0.302  0.1406 -0.0243 -0.0198
 4385TIP3    H113098   4.114   1.353   0.209 -0.5825 -0.6309  0.0561
 4385TIP3    H213099   4.139   1.464   0.308  0.5143 -0.0963 -0.8019
 4386TIP3   OH213100   1.718   4.161   1.749  0.6883 -0.3836 -0.3557
 4386TIP3    H113101   1.708   4.253   1.772  1.8280  0.1308 -1.7531
 4386TIP3    H213102   1.668   4.152   1.667  2.3954 -0.4408 -1.4268
 4387TIP3   OH213103   0.058   7.796   5.077 -0.1256 -0.1847 -0.4579
 4387TIP3    H113104   0.100   7.787   5.163  1.0084  1.6198 -0.7657
 4387TIP3    H213105   0.102   7.730   5.023  1.1152  0.4895 -0.3149
 4388TIP3   OH213106   0.907   4.690   6.357  0.3828 -0.5799  0.2906
 4388TIP3    H113107   0.857   4.682   6.277  0.8805 -0.9041  0.0054
 4388TIP3    H213108   0.935   4.781   6.359 -0.7620 -0.2237  0.7910
 4389TIP3   OH213109   3.142   2.017   1.257  0.0341 -0.2540 -0.0066
 4389TIP3    H113110   3.203   1.944   1.268  0.8461  0.4515  0.2179
 4389TIP3    H213111   3.193   2.086   1.214 -0.3674  0.6340  0.8984
 4390TIP3   OH213112   3.015   5.415   6.525 -0.7756 -0.5284 -0.1708
 4390TIP3    H113113   2.980   5.437   6.612 -0.9943 -0.9144 -0.1606
 4390TIP3    H213114   3.036   5.322   6.531  0.0700 -0.3522 -0.2412
 4391TIP3   OH213115   7.596   4.464   2.063  0.1338 -0.2630  0.3126
 4391TIP3    H113116   7.663   4.476   1.996 -0.6900  1.3705 -0.2647
 4391TIP3    H213117   7.623   4.385   2.111  2.1504  0.0559 -0.2440
 4392TIP3   OH213118   2.714   3.207   3.450 -0.1716  0.4507 -0.6490
 4392TIP3    H113119   2.792   3.155   3.470 -1.5799 -1.7389 -0.5679
 4392TIP3    H213120   2.737   3.296   3.479  1.7936 -0.3880  0.6033
 4393TIP3   OH213121   1.985   1.519   3.990  0.1233 -0.5616 -0.0235
 4393TIP3    H113122   1.931   1.465   3.932  1.9440 -0.8436 -1.6000
 4393TIP3    H213123   1.940   1.518   4.074 -0.7880 -3.1520 -0.4609
 4394TIP3   OH213124   6.066   0.177   4.813 -0.3082 -0.0515  0.5017
 4394TIP3    H113125   5.987   0.154   4.765 -0.5937 -0.0547  0.9690
 4394TIP3    H213126   6.113   0.237   4.755  0.6439 -2.0368 -0.8960
 4395TIP3   OH213127   4.232   5.782   4.512 -0.0895  0.0627 -0.2279
 4395TIP3    H113128   4.280   5.779   4.430  0.8320  3.2847  0.0581
 4395TIP3    H213129   4.294   5.750   4.577 -0.1099 -0.5616 -0.5104
 4396TIP3   OH213130   3.398   4.653   0.199 -0.2892  0.3429 -0.1119
 4396TIP3    H113131   3.392   4.637   0.293  0.0453  0.6287 -0.0375
 4396TIP3    H213132   3.310   4.634   0.166 -0.2984 -0.1728  0.1904
 4397TIP3   OH213133   2.293   1.453   3.261  0.5150  0.0750 -0.0131
 4397TIP3    H113134   2.288   1.541   3.299 -1.7436  0.0115  0.0033
 4397TIP3    H213135   2.296   1.395   3.337  0.5417  0.1041  0.0078
 4398TIP3   OH213136   4.668   0.400   3.143  0.4619  0.1113  0.2335
 4398TIP3    H113137   4.701   0.464   3.079 -0.0696 -1.8855 -2.1747
 4398TIP3    H213138   4.575   0.421   3.152  0.4676  0.1898  0.1148
 4399TIP3   OH213139   4.449   3.927   0.170 -0.1311 -0.1642  0.4475
 4399TIP3    H113140   4.361   3.896   0.149  0.0389 -1.1582  1.1593
 4399TIP3    H213141   4.504   3.848   0.166  0.3464  0.0505  2.1051
 4400TIP3   OH213142   7.563   5.340   0.732 -0.7439 -0.1020  0.2864
 4400TIP3    H113143   7.644   5.384   0.706 -1.5384  0.2653 -1.7461
 4400TIP3    H213144   7.567   5.337   0.828  1.5189  0.1504  0.2498
 4401TIP3   OH213145   0.986   5.969   2.779  0.5681 -0.0547  0.2104
 4401TIP3    H113146   0.947   6.035   2.722  1.0261 -0.7447 -0.9288
 4401TIP3    H213147   1.042   5.917   2.722  2.9340  0.6783  1.7076
 4402TIP3   OH213148   0.709   6.906   5.099  0.0076  0.0840 -0.2269
 4402TIP3    H113149   0.781   6.920   5.038 -0.3835 -0.4563 -0.8257
 4402TIP3    H213150   0.750   6.909   5.186  0.7110 -0.0015 -0.5519
 4403TIP3   OH213151   6.603   5.064   1.497 -0.5382 -0.4297  0.9980
 4403TIP3    H113152   6.584   5.155   1.520  0.7682 -0.2445  1.4320
 4403TIP3    H213153   6.520   5.030   1.464 -0.4781  1.6214 -1.5793
 4404TIP3   OH213154   6.462   4.007   1.589 -0.3854 -0.3205  0.3137
 4404TIP3    H113155   6.417   3.926   1.563 -2.5039  1.7484 -3.3999
 4404TIP3    H213156   6.512   4.032   1.511  2.5009  0.6084  2.3274
 4405TIP3   OH213157   1.029   2.608   5.849  0.3133 -0.3544  0.0801
 4405TIP3    H113158   0.960   2.639   5.908  0.9509 -3.5229  2.8051
 4405TIP3    H213159   1.108   2.652   5.881 -0.0258  2.0538 -2.0416
 4406TIP3   OH213160   3.097   0.852   2.959  0.3804 -0.8349 -0.7478
 4406TIP3    H113161   3.129   0.874   2.872  0.4023 -0.3143 -0.6112
 4406TIP3    H213162   3.136   0.918   3.016  0.8990 -1.5601 -0.2429
 4407TIP3   OH213163   3.396   0.238   1.796  0.1751  0.0918 -0.0811
 4407TIP3    H113164   3.308   0.209   1.771  0.4291 -0.7971  0.0081
 4407TIP3    H213165   3.432   0.278   1.717 -0.8380  1.8080  0.2848
 4408TIP3   OH213166   1.416   7.194   4.256  0.5662 -0.3910 -0.4874
 4408TIP3    H113167   1.364   7.272   4.275  2.5471  1.2019 -1.2876
 4408TIP3    H213168   1.351   7.127   4.234 -1.2351  0.7403  1.0795
 4409TIP3   OH213169   2.039   2.837   2.868 -0.1058 -0.3709  0.2993
 4409TIP3    H113170   2.034   2.747   2.834 -1.5452 -0.0189 -0.4953
 4409TIP3    H213171   2.035   2.826   2.963  0.1216 -1.1667  0.2276
 4410TIP3   OH213172   5.819   2.482   2.112 -0.1917 -0.4612 -0.4600
 4410TIP3    H113173   5.767   2.495   2.191  0.0715  2.4231 -0.6861
 4410TIP3    H213174   5.768   2.419   2.060 -1.8970 -0.0612  0.6565
 4411TIP3   OH213175   0.570   3.675   3.444  0.1215 -0.1021  0.6783
 4411TIP3    H113176   0.605   3.603   3.496  0.2749 -1.1956 -0.8696
 4411TIP3    H213177   0.560   3.747   3.507  1.3208 -1.0048  1.9808
 4412TIP3   OH213178   1.122   4.155   0.651 -0.5241  0.0584 -0.6622
 4412TIP3    H113179   1.165   4.209   0.717 -0.8016  1.1035 -1.2994
 4412TIP3    H213180   1.185   4.086   0.631  0.7348  1.3528 -1.3228
 4413TIP3   OH213181   5.214   6.366   4.048  0.3888  0.1525 -0.7570
 4413TIP3    H113182   5.251   6.436   3.994 -2.2137  2.2109 -0.0773
 4413TIP3    H213183   5.260   6.373   4.131  1.7305 -0.5004 -1.4171
 4414TIP3   OH213184   0.543   6.602   6.397  0.3228 -0.2762 -0.2259
 4414TIP3    H113185   0.501   6.675   6.443  0.2010  0.0753 -0.8756
 4414TIP3    H213186   0.502   6.602   6.310 -0.3398 -1.6992  0.0642
 4415TIP3   OH213187   6.732   4.125   5.276 -0.1513  0.0703 -0.2003
 4415TIP3    H113188   6.826   4.143   5.270  0.4074 -2.0988  0.9059
 4415TIP3    H213189   6.703   4.176   5.351  0.5009 -0.4118  0.3980
 4416TIP3   OH213190   7.106   6.385   1.982 -0.6137 -0.0459 -0.4849
 4416TIP3    H113191   7.111   6.300   1.937 -2.4122  0.0426 -0.9217
 4416TIP3    H213192   7.066   6.364   2.067 -0.1008  0.2251 -0.1742
 4417TIP3   OH213193   3.415   0.903   6.172 -0.3220  0.0867 -0.0118
 4417TIP3    H113194   3.365   0.829   6.138 -0.5041  0.0183  0.3997
 4417TIP3    H213195   3.452   0.872   6.254  5.0083 -1.8014 -2.6806
 4418TIP3   OH213196   5.535   2.903   5.936 -0.3656  1.0233  0.2099
 4418TIP3    H113197   5.555   2.919   6.028  1.1104  3.0773 -0.3974
 4418TIP3    H213198   5.530   2.990   5.897  1.8755  0.2012 -2.1982
 4419TIP3   OH213199   1.476   4.321   4.017 -0.0334  0.0875 -0.4450
 4419TIP3    H113200   1.400   4.376   4.035 -0.0160  0.3065 -1.0311
 4419TIP3    H213201   1.479   4.259   4.090  1.0502  2.0536  1.3078
 4420TIP3   OH213202   5.409   4.278   2.973  0.2116 -0.1558 -0.6647
 4420TIP3    H113203   5.464   4.205   2.946  0.7229  0.4714 -1.3561
 4420TIP3    H213204   5.468   4.354   2.974 -0.0116  0.0544  1.2010
 4421TIP3   OH213205   2.391   2.561   3.711  0.1847  0.1825 -0.4108
 4421TIP3    H113206   2.317   2.548   3.652  0.4627 -0.0084 -0.7135
 4421TIP3    H213207   2.399   2.656   3.719 -0.8322  0.2102  0.5483
 4422TIP3   OH213208   2.835   7.375   2.947  0.1208 -0.0229  0.4216
 4422TIP3    H113209   2.764   7.356   3.008  1.4020 -3.4782  1.0929
 4422TIP3    H213210   2.912   7.385   3.002  0.7572  0.1035 -0.4662
 4423TIP3   OH213211   6.078   7.342   1.006 -0.0212 -0.3444 -0.1175
 4423TIP3    H113212   6.101   7.322   1.097 -1.2350 -0.5768  0.1599
 4423TIP3    H213213   6.157   7.319   0.956  0.4761 -0.7375  0.8121
 4424TIP3   OH213214   6.251   5.424   0.573  0.9333 -0.5949  0.3648
 4424TIP3    H113215   6.160   5.449   0.591  1.3118 -0.1534  1.7501
 4424TIP3    H213216   6.258   5.427   0.477 -0.4740 -0.5187  0.2474
 4425TIP3   OH213217   0.667   1.228   1.508  0.2895 -0.0034 -0.1417
 4425TIP3    H113218   0.673   1.313   1.553 -0.4523 -0.8562  1.6866
 4425TIP3    H213219   0.754   1.214   1.472  0.7415  1.0419  0.4838
 4426TIP3   OH213220   2.074   1.880   0.363 -0.4879  0.3726  0.1043
 4426TIP3    H113221   2.114   1.794   0.350  0.9056  1.3341 -2.9966
 4426TIP3    H213222   2.148   1.941   0.362 -1.6371  1.8224 -0.8198
 4427TIP3   OH213223   6.596   1.416   2.953  1.0721  0.2300 -0.0248
 4427TIP3    H113224   6.610   1.330   2.992 -0.7472  0.3481  0.9946
 4427TIP3    H213225   6.610   1.402   2.859  1.0716 -1.1104  0.1551
 4428TIP3   OH213226   7.583   0.146   1.059 -0.4835 -0.3280 -0.6327
 4428TIP3    H113227   7.492   0.163   1.081 -0.3844 -0.2640 -0.2609
 4428TIP3    H213228   7.612   0.224   1.012 -0.0691  0.5105  0.9441
 4429TIP3   OH213229   6.261   2.956   5.259  0.8190  0.4014 -0.6224
 4429TIP3    H113230   6.243   3.013   5.334 -0.5942  0.7720 -1.2025
 4429TIP3    H213231   6.196   2.982   5.193  0.0632 -1.9082 -0.8953
 4430TIP3   OH213232   6.319   4.407   6.704 -0.0515 -0.0387 -0.2331
 4430TIP3    H113233   6.383   4.351   6.747 -1.3900 -1.4306  0.0264
 4430TIP3    H213234   6.341   4.496   6.732  0.8826 -0.6347  0.9633
 4431TIP3   OH213235   8.013   2.774   4.380  0.0387 -0.1171  0.3878
 4431TIP3    H113236   8.015   2.866   4.406  1.3094 -0.1138  0.3495
 4431TIP3    H213237   7.946   2.770   4.312  0.7029  1.0026 -0.3731
 4432TIP3   OH213238   0.909   7.044   6.105 -0.5212  0.1743  0.4784
 4432TIP3    H113239   0.923   7.137   6.088  0.7601  0.0967  0.9671
 4432TIP3    H213240   0.947   7.000   6.030 -0.1709  0.0283  0.7350
 4433TIP3   OH213241   5.639   6.991   3.697  0.3194  0.0269  0.3987
 4433TIP3    H113242   5.627   6.994   3.602  0.9487 -1.2702  0.2532
 4433TIP3    H213243   5.550   6.984   3.732  0.0571  0.9420 -0.0596
 4434TIP3   OH213244   1.786   0.520   4.847 -0.7112 -0.2047  0.2819
 4434TIP3    H113245   1.786   0.589   4.913 -1.3827 -1.4488  1.6393
 4434TIP3    H213246   1.814   0.564   4.767  0.4245  1.3063  1.4271
 4435TIP3   OH213247   6.304   4.257   2.865 -0.1626  0.1244  0.1621
 4435TIP3    H113248   6.311   4.171   2.824 -1.6106  0.5814 -1.1458
 4435TIP3    H213249   6.319   4.319   2.794 -1.1848  0.9402  0.6350
 4436TIP3   OH213250   5.780   5.512   3.024 -0.4751 -0.5096  0.0070
 4436TIP3    H113251   5.743   5.500   3.111  0.6680  0.2528  0.6183
 4436TIP3    H213252   5.720   5.573   2.981 -2.4247 -2.7549 -0.6713
 4437TIP3   OH213253   6.571   4.741   6.692 -0.1809 -0.0926 -0.0450
 4437TIP3    H113254   6.524   4.687   6.756 -0.4954 -0.6202 -0.7137
 4437TIP3    H213255   6.661   4.706   6.693 -0.5101 -1.0183 -0.8735
 4438TIP3   OH213256   8.175   7.716   1.681  0.6712 -0.2895 -0.4454
 4438TIP3    H113257   8.209   7.662   1.753  1.1553 -0.0129 -0.4572
 4438TIP3    H213258   8.130   7.655   1.623 -0.1374 -0.4527  0.3308
 4439TIP3   OH213259   1.132   0.891   1.186 -0.1114 -0.3919 -0.7776
 4439TIP3    H113260   1.209   0.867   1.135  0.6759  1.9248 -0.7826
 4439TIP3    H213261   1.119   0.817   1.246  1.2656 -1.4283 -1.6905
 4440TIP3   OH213262   3.266   0.881   2.761 -0.1271  0.2087 -0.1458
 4440TIP3    H113263   3.354   0.918   2.758 -0.4051  1.0294  1.0347
 4440TIP3    H213264   3.271   0.802   2.707  0.9718  0.9580 -1.1814
 4441TIP3   OH213265   2.931   5.810   6.170 -0.0944  0.1402  0.4770
 4441TIP3    H113266   3.006   5.758   6.200 -1.0951 -0.8911  1.2792
 4441TIP3    H213267   2.871   5.746   6.132  0.0843  1.1280 -1.6468
 4442TIP3   OH213268   4.401   6.785   4.614 -0.0390 -0.2190  0.1967
 4442TIP3    H113269   4.305   6.786   4.613 -0.0398  0.0238 -1.3534
 4442TIP3    H213270   4.426   6.774   4.522  1.3973 -2.7756  0.7877
 4443TIP3   OH213271   3.589   5.614   1.181  0.0729 -0.3959 -0.4014
 4443TIP3    H113272   3.519   5.675   1.159  1.0188  0.3632 -1.4966
 4443TIP3    H213273   3.625   5.647   1.263 -0.2562 -0.2371 -0.3231
 4444TIP3   OH213274   1.725   4.042   1.993  0.5046  0.2081  0.1619
 4444TIP3    H113275   1.731   4.077   1.904  3.8709  1.1248  0.6102
 4444TIP3    H213276   1.772   3.959   1.989  0.2189 -0.0031  0.9937
 4445TIP3   OH213277   1.826   7.452   1.256 -0.5418  0.1416 -0.4117
 4445TIP3    H113278   1.896   7.518   1.264  0.6781 -1.0912 -0.5440
 4445TIP3    H213279   1.791   7.444   1.345 -0.4068  0.6657 -0.3062
 4446TIP3   OH213280   4.289   4.529   4.010  0.3836 -0.4196  0.0187
 4446TIP3    H113281   4.284   4.604   3.950  0.6551  1.4249  2.1597
 4446TIP3    H213282   4.346   4.466   3.965  1.0181  1.1109 -1.4268
 4447TIP3   OH213283   3.623   4.716   1.106  0.0484 -0.0744  0.2845
 4447TIP3    H113284   3.715   4.693   1.120 -0.2256 -1.8706 -0.6125
 4447TIP3    H213285   3.574   4.639   1.134 -1.1096  0.3626 -0.4416
 4448TIP3   OH213286   0.739   0.970   4.204 -0.3257  0.4409  0.1113
 4448TIP3    H113287   0.821   0.925   4.188  0.3313  1.9011 -0.8135
 4448TIP3    H213288   0.761   1.063   4.199 -1.8900  0.8696  0.5945
 4449TIP3   OH213289   0.126   5.333   4.038  0.1212 -0.0210 -0.4390
 4449TIP3    H113290   0.198   5.286   4.082  0.8870  1.2717 -0.2656
 4449TIP3    H213291   0.082   5.380   4.108 -0.9678 -0.8452 -0.5385
 4450TIP3   OH213292   3.642   0.785   6.438 -0.6002 -0.0814  0.2275
 4450TIP3    H113293   3.699   0.709   6.445  0.0938  0.4031 -0.0741
 4450TIP3    H213294   3.574   0.770   6.504 -0.5003 -0.9779  0.1366
 4451TIP3   OH213295   0.369   1.186   4.913  0.4990 -0.3490  0.1902
 4451TIP3    H113296   0.397   1.227   4.996 -0.0233  0.8006 -0.1780
 4451TIP3    H213297   0.277   1.212   4.903  0.6874 -0.0690 -0.9802
 4452TIP3   OH213298   4.517   2.974   4.491  0.2365  0.0873  0.7045
 4452TIP3    H113299   4.498   2.882   4.469 -0.1296  0.1444  0.7690
 4452TIP3    H213300   4.435   3.020   4.473  0.7586  0.6054 -0.4375
 4453TIP3   OH213301   6.592   2.360   2.186 -0.2996 -0.9680 -0.0405
 4453TIP3    H113302   6.636   2.367   2.271 -2.1823 -1.4208  1.0423
 4453TIP3    H213303   6.550   2.275   2.189 -2.3357 -0.0276 -0.4217
 4454TIP3   OH213304   3.865   7.731   1.025 -0.4505  0.6313 -0.1199
 4454TIP3    H113305   3.953   7.766   1.010 -0.3290 -0.4923 -2.5047
 4454TIP3    H213306   3.870   7.641   0.993 -2.3090  0.3201  0.3498
 4455TIP3   OH213307   0.705   5.024   4.091 -0.6727  0.2050 -0.0312
 4455TIP3    H113308   0.637   4.996   4.030  0.0756  2.1596 -1.8809
 4455TIP3    H213309   0.672   5.106   4.127 -0.5802 -0.3466  1.3859
 4456TIP3   OH213310   0.427   1.911   2.611 -0.7125 -0.2346  0.0376
 4456TIP3    H113311   0.505   1.937   2.660 -0.0434 -2.1708  0.0846
 4456TIP3    H213312   0.461   1.858   2.539 -2.0155 -1.4639  0.2967
 4457TIP3   OH213313   7.553   4.192   3.891  0.3409 -0.4172 -0.3505
 4457TIP3    H113314   7.597   4.129   3.949  1.4056  1.0239  0.4693
 4457TIP3    H213315   7.502   4.138   3.831  0.9572 -2.0450  0.5374
 4458TIP3   OH213316   4.379   6.315   0.800 -0.0034  0.1081  0.1770
 4458TIP3    H113317   4.338   6.238   0.761 -0.1580 -0.1223  0.7877
 4458TIP3    H213318   4.466   6.286   0.827  0.1115  0.2736 -0.0063
 4459TIP3   OH213319   4.740   0.981   4.925  0.0010 -0.0892  0.5314
 4459TIP3    H113320   4.778   0.957   5.010  1.9252  1.0219  0.0405
 4459TIP3    H213321   4.722   1.075   4.933  0.7077  0.1447 -0.4413
 4460TIP3   OH213322   3.781   1.492   3.378 -0.0151  0.6440  0.1682
 4460TIP3    H113323   3.795   1.470   3.286 -0.5353  2.3406 -0.3490
 4460TIP3    H213324   3.766   1.586   3.378 -2.0022  0.3864  1.7545
 4461TIP3   OH213325   6.303   7.631   2.012  0.2035 -0.2167  0.4088
 4461TIP3    H113326   6.331   7.540   2.004 -0.8022 -0.3654 -2.7204
 4461TIP3    H213327   6.352   7.678   1.944  1.1304  1.7579  2.3218
 4462TIP3   OH213328   2.699   0.446   2.688  0.3972  0.1812  0.0218
 4462TIP3    H113329   2.727   0.399   2.610 -0.3623 -0.2536  0.0049
 4462TIP3    H213330   2.677   0.378   2.751 -1.6370  0.4709 -0.3302
 4463TIP3   OH213331   6.943   5.989   4.981  0.1455  0.1726  1.0030
 4463TIP3    H113332   6.962   6.083   4.977 -2.6130  0.8134 -1.2687
 4463TIP3    H213333   6.848   5.985   4.995 -0.7755 -1.9626 -3.8184
 4464TIP3   OH213334   6.097   7.768   4.884 -0.4918 -0.2181  0.1589
 4464TIP3    H113335   6.055   7.850   4.912  1.3497  0.8998 -0.1753
 4464TIP3    H213336   6.151   7.743   4.958  1.5211  0.7283 -0.9096
 4465TIP3   OH213337   2.159   0.110   5.384 -0.4653 -0.0838 -0.2269
 4465TIP3    H113338   2.242   0.095   5.429 -1.3254 -0.6454  1.2728
 4465TIP3    H213339   2.152   0.206   5.379 -0.0014 -0.0200  0.1766
 4466TIP3   OH213340   5.575   4.033   5.461 -0.3944  0.0414  0.5870
 4466TIP3    H113341   5.533   4.087   5.527 -0.4292  0.1175  0.5024
 4466TIP3    H213342   5.661   4.073   5.449 -0.4856  0.1820  0.3979
 4467TIP3   OH213343   7.093   6.077   3.943 -0.2148  0.2426  0.3264
 4467TIP3    H113344   7.164   6.102   3.884 -0.4370 -1.1312 -0.5849
 4467TIP3    H213345   7.013   6.096   3.893 -0.4811  1.0680  1.0447
 4468TIP3   OH213346   6.070   0.353   5.055 -0.1648  0.0480  0.4685
 4468TIP3    H113347   6.118   0.308   4.985 -1.0070 -1.7104  0.9780
 4468TIP3    H213348   5.991   0.386   5.012  0.3470  0.8783  0.1423
 4469TIP3   OH213349   2.986   0.903   4.416 -0.1507  0.0943  0.5175
 4469TIP3    H113350   2.988   0.839   4.344 -1.5183  1.1821 -0.5430
 4469TIP3    H213351   2.942   0.857   4.488  0.2874 -0.6668  0.3133
 4470TIP3   OH213352   2.911   3.418   3.530  0.3757  0.1265  0.3144
 4470TIP3    H113353   2.968   3.495   3.531  0.8448 -0.1999 -0.2914
 4470TIP3    H213354   2.970   3.345   3.548 -0.2593  0.0054  2.1246
 4471TIP3   OH213355   3.955   0.319   5.342  0.2146  0.6460  0.3099
 4471TIP3    H113356   3.917   0.309   5.429 -0.0601  1.7048  0.3221
 4471TIP3    H213357   3.882   0.303   5.282  0.2971  0.3802  0.2776
 4472TIP3   OH213358   2.596   6.079   3.922  0.4898 -0.2501  0.3475
 4472TIP3    H113359   2.686   6.053   3.901  0.4772 -0.2982  0.3512
 4472TIP3    H213360   2.605   6.148   3.988  0.5954  1.3387 -1.2701
 4473TIP3   OH213361   5.485   4.974   0.024 -0.4136  0.1977  0.7742
 4473TIP3    H113362   5.538   4.931   0.091 -0.2883  1.9481  1.8408
 4473TIP3    H213363   5.423   5.028   0.073  0.0272  1.9307 -0.4819
 4474TIP3   OH213364   3.927   4.517   0.310 -0.0103 -0.1318  0.4973
 4474TIP3    H113365   3.981   4.471   0.375 -0.7434 -0.5664  0.8068
 4474TIP3    H213366   3.958   4.607   0.312 -1.3230  0.3450  2.8943
 4475TIP3   OH213367   0.420   0.052   1.517  0.2074 -0.2660 -0.4155
 4475TIP3    H113368   0.478  -0.008   1.469  0.0991 -0.8863  0.2169
 4475TIP3    H213369   0.340   0.055   1.464  0.8388  0.6772 -1.3476
 4476TIP3   OH213370   5.150   0.321   1.891 -0.1705 -0.0126 -0.3292
 4476TIP3    H113371   5.177   0.294   1.804 -0.7549  0.1548 -0.5665
 4476TIP3    H213372   5.098   0.400   1.877 -0.4585 -0.1124  0.1494
 4477TIP3   OH213373   6.798   4.789   5.991 -0.0473  0.2414 -0.3924
 4477TIP3    H113374   6.822   4.711   5.941 -0.4272 -0.3677  0.3757
 4477TIP3    H213375   6.866   4.796   6.058 -0.9822 -0.4461  0.6444
 4478TIP3   OH213376   1.101   4.741   3.962 -0.1664  0.3547  0.7326
 4478TIP3    H113377   1.099   4.646   3.976  0.4343 -0.3172 -2.6808
 4478TIP3    H213378   1.045   4.777   4.031  0.3500 -2.3544  2.7304
 4479TIP3   OH213379   0.047   3.253   2.297  0.3888 -0.6716 -0.0523
 4479TIP3    H113380   0.101   3.240   2.374  0.9852  0.6153 -0.2326
 4479TIP3    H213381  -0.035   3.207   2.317  0.7938 -0.9395  1.0391
 4480TIP3   OH213382   3.571   1.923   1.730  0.5358 -0.0421  0.1219
 4480TIP3    H113383   3.500   1.986   1.736  0.8594  0.2561  1.0957
 4480TIP3    H213384   3.651   1.974   1.742  1.0090 -0.2312 -1.8901
 4481TIP3   OH213385   2.450   6.360   3.353 -0.0195  0.0925 -0.5563
 4481TIP3    H113386   2.468   6.381   3.444 -1.6765  0.2515 -0.2299
 4481TIP3    H213387   2.514   6.292   3.331  0.1413 -0.2550  0.8555
 4482TIP3   OH213388   7.148   3.022   6.127 -0.1740  0.1913  0.6097
 4482TIP3    H113389   7.200   3.075   6.067 -1.4478  1.9520  0.9772
 4482TIP3    H213390   7.185   3.039   6.213 -0.7829  0.8031  0.7678
 4483TIP3   OH213391   7.767   6.471   2.896  0.4528  0.2156  0.4241
 4483TIP3    H113392   7.676   6.447   2.914  0.2214  0.9628  0.2775
 4483TIP3    H213393   7.795   6.408   2.829 -0.2517  0.5319 -0.1939
 4484TIP3   OH213394   0.895   4.566   2.762  0.0727  0.1022  0.3976
 4484TIP3    H113395   0.929   4.644   2.805  1.1424  0.3397 -0.8259
 4484TIP3    H213396   0.916   4.494   2.822  1.0015  0.4888  0.5524
 4485TIP3   OH213397   7.395   4.581   4.445  0.3158  0.0410  0.1774
 4485TIP3    H113398   7.371   4.490   4.466  0.0528  0.6340  2.7904
 4485TIP3    H213399   7.490   4.579   4.434  0.2309 -0.6495 -0.5666
 4486TIP3   OH213400   2.166   7.334   0.309 -0.4535  0.4545 -0.5110
 4486TIP3    H113401   2.155   7.398   0.379 -1.6137 -0.2239 -0.0521
 4486TIP3    H213402   2.086   7.281   0.311  0.3545 -0.8454 -1.0427
 4487TIP3   OH213403   1.095   0.561   0.345 -0.2685 -0.3579  0.1809
 4487TIP3    H113404   1.045   0.626   0.395 -0.9163  0.2150 -1.1663
 4487TIP3    H213405   1.117   0.605   0.264  0.4733 -1.3851 -0.1949
 4488TIP3   OH213406   2.376   3.898   5.509  0.0733  0.3591  0.3908
 4488TIP3    H113407   2.429   3.876   5.586 -0.0868 -0.2173  0.3426
 4488TIP3    H213408   2.320   3.970   5.538  1.8700  2.0064  0.0341
 4489TIP3   OH213409   3.541   5.029   4.915 -0.3335  0.0476 -0.2540
 4489TIP3    H113410   3.580   4.968   4.853 -1.0086  0.0860 -0.7239
 4489TIP3    H213411   3.610   5.094   4.930 -0.3279  0.3145 -1.3472
 4490TIP3   OH213412   3.116   7.169   6.200  0.0115  0.2919  0.0094
 4490TIP3    H113413   3.068   7.224   6.262  0.8312  0.4145  0.5457
 4490TIP3    H213414   3.201   7.212   6.189 -0.2332  0.4675 -1.4884
 4491TIP3   OH213415   4.577   4.198   5.461 -0.1052 -0.0576  0.3384
 4491TIP3    H113416   4.557   4.290   5.475 -1.4953 -0.4839  1.4525
 4491TIP3    H213417   4.534   4.176   5.378 -0.5281  0.1138  0.5059
 4492TIP3   OH213418   2.298   4.217   3.169  0.2536 -0.0384 -0.5880
 4492TIP3    H113419   2.239   4.291   3.159  0.2942  0.2970  1.2381
 4492TIP3    H213420   2.242   4.140   3.163 -0.0618  0.2055 -0.7712
 4493TIP3   OH213421   4.107   4.223   4.175 -0.4755  0.1371  0.0300
 4493TIP3    H113422   4.199   4.248   4.172 -0.2935 -0.5929 -1.4636
 4493TIP3    H213423   4.060   4.305   4.158 -0.1490  0.6293  1.3972
 4494TIP3   OH213424   5.237   4.749   5.106  0.0053 -0.3105  0.2060
 4494TIP3    H113425   5.226   4.844   5.117  0.2245 -0.1009 -1.2736
 4494TIP3    H213426   5.149   4.716   5.087 -0.2964 -0.6146  1.9378
 4495TIP3   OH213427   0.214   7.195   1.584  0.3235  0.4415  0.3521
 4495TIP3    H113428   0.142   7.241   1.627 -0.3844 -1.2396  1.0733
 4495TIP3    H213429   0.230   7.118   1.640  0.1330 -1.2334 -1.7471
 4496TIP3   OH213430   0.456   2.479   0.603  0.1650  0.5344  0.2053
 4496TIP3    H113431   0.428   2.570   0.615 -0.7193  0.4785 -1.1819
 4496TIP3    H213432   0.412   2.451   0.523  1.0294 -0.8861  0.1926
 4497TIP3   OH213433   5.064   2.620   0.455 -0.2611  0.1437 -0.1978
 4497TIP3    H113434   5.021   2.542   0.420 -0.5298  0.2092 -0.0176
 4497TIP3    H213435   5.094   2.593   0.541  0.3995 -0.0179 -0.4762
 4498TIP3   OH213436   6.430   2.641   6.366 -0.6723  0.0789 -0.0609
 4498TIP3    H113437   6.522   2.649   6.391 -0.5766 -0.8382 -0.0947
 4498TIP3    H213438   6.404   2.554   6.395 -1.0961 -0.2867 -1.4305
 4499TIP3   OH213439   0.196   3.250   2.540  0.0755 -0.5664 -0.0422
 4499TIP3    H113440   0.253   3.225   2.613  0.2115 -0.7825 -0.2195
 4499TIP3    H213441   0.240   3.324   2.499 -0.9471  0.7937  1.2341
 4500TIP3   OH213442   2.335   6.256   0.908 -0.5942 -0.2308 -0.3612
 4500TIP3    H113443   2.299   6.168   0.898 -1.3265  0.0532 -0.2744
 4500TIP3    H213444   2.299   6.286   0.992 -0.0335  0.0052 -0.2052
 4501TIP3   OH213445   6.649   1.505   5.256 -0.4873  0.3429  0.1965
 4501TIP3    H113446   6.591   1.579   5.236 -0.9047  0.0332  0.2552
 4501TIP3    H213447   6.669   1.516   5.349 -3.0946 -1.3475  1.0608
 4502TIP3   OH213448   2.163   4.535   3.345 -0.0180 -0.3935 -0.1503
 4502TIP3    H113449   2.259   4.525   3.347 -0.0689 -1.0500 -0.5983
 4502TIP3    H213450   2.139   4.542   3.438  0.2070 -3.2687  0.2442
 4503TIP3   OH213451   2.413   0.234   4.974 -0.0185 -0.2949  0.4192
 4503TIP3    H113452   2.331   0.271   5.007 -0.2224  0.3208 -0.7462
 4503TIP3    H213453   2.387   0.158   4.922  0.2583 -0.8888  1.1297
 4504TIP3   OH213454   2.426   6.355   4.271  0.3267  0.0523 -0.2973
 4504TIP3    H113455   2.372   6.337   4.348 -1.4366 -2.4567 -1.9636
 4504TIP3    H213456   2.411   6.447   4.252 -2.9056 -0.3533 -0.2417
 4505TIP3   OH213457   7.594   5.293   3.912 -0.0195 -0.4160 -0.0333
 4505TIP3    H113458   7.597   5.217   3.853 -1.2639 -0.2520 -0.3370
 4505TIP3    H213459   7.668   5.280   3.971 -0.2558 -1.9115 -0.0252
 4506TIP3   OH213460   5.402   4.096   6.003  0.1566 -0.0141 -0.4081
 4506TIP3    H113461   5.316   4.137   6.015  0.3174  0.4019 -0.6551
 4506TIP3    H213462   5.465   4.167   6.016  0.5364 -0.6301  1.2818
 4507TIP3   OH213463   5.319   3.366   3.920 -0.9840  0.4463 -0.0484
 4507TIP3    H113464   5.340   3.273   3.930 -0.7595  0.4884 -0.1151
 4507TIP3    H213465   5.250   3.369   3.855 -1.0120  0.3227 -0.0239
 4508TIP3   OH213466   7.341   4.187   6.675 -0.5417  0.2070  0.2043
 4508TIP3    H113467   7.365   4.220   6.588 -0.9224 -1.9955 -0.7938
 4508TIP3    H213468   7.413   4.215   6.731  0.2049  0.8545 -1.0197
 4509TIP3   OH213469   4.874   6.021   6.551 -0.2422  0.1655  0.0741
 4509TIP3    H113470   4.960   6.012   6.593 -0.5811 -0.5013  0.6235
 4509TIP3    H213471   4.841   6.105   6.583 -0.7045 -0.5547  1.5291
 4510TIP3   OH213472   7.136   2.850   0.453 -0.0355  0.2727  0.0137
 4510TIP3    H113473   7.043   2.830   0.458  0.2989 -1.4820 -0.3289
 4510TIP3    H213474   7.161   2.827   0.363  1.0301 -0.6943  0.5398
 4511TIP3   OH213475   0.945   0.779   0.986  0.0232 -0.5223 -0.4321
 4511TIP3    H113476   0.918   0.690   0.966  0.8111 -0.6329 -1.0881
 4511TIP3    H213477   0.899   0.802   1.066 -1.1924 -1.0460 -0.9680
 4512TIP3   OH213478   4.649   3.022   1.771 -0.3475  0.5427  0.0568
 4512TIP3    H113479   4.629   2.982   1.687 -0.5021 -1.2257  0.8964
 4512TIP3    H213480   4.565   3.053   1.803 -0.3375  0.9404 -0.2928
 4513TIP3   OH213481   7.474   3.646   6.157 -0.6787  0.2161  0.2463
 4513TIP3    H113482   7.468   3.684   6.244  0.5840 -0.6695  0.7462
 4513TIP3    H213483   7.568   3.649   6.136 -1.1991  2.9831 -2.2702
 4514TIP3   OH213484   1.300   5.692   1.597  0.0216  0.0598  0.2061
 4514TIP3    H113485   1.386   5.653   1.610 -0.6847 -1.2955  1.1747
 4514TIP3    H213486   1.292   5.757   1.667  0.0079 -0.2858  0.5268
 4515TIP3   OH213487   5.832   0.385   4.908  0.2118 -0.1220  0.2852
 4515TIP3    H113488   5.858   0.423   4.824  0.4964  0.6460  0.7139
 4515TIP3    H213489   5.815   0.293   4.888  0.4960  0.0022 -0.5694
 4516TIP3   OH213490   7.925   0.050   3.959 -0.1150  0.4941 -0.1280
 4516TIP3    H113491   7.929   0.037   4.054  2.3253  1.1267 -0.0799
 4516TIP3    H213492   7.959  -0.031   3.922 -0.0112  0.6700 -0.4228
 4517TIP3   OH213493   8.126   0.321   6.358  0.4967 -0.2252  0.1074
 4517TIP3    H113494   8.129   0.371   6.276 -2.3732 -0.5252 -0.3111
 4517TIP3    H213495   8.090   0.383   6.422  0.6488 -0.6376  0.5958
 4518TIP3   OH213496   5.145   5.152   0.524  0.0445 -0.4817  0.0583
 4518TIP3    H113497   5.095   5.169   0.444 -0.3345  0.9746  0.5734
 4518TIP3    H213498   5.101   5.204   0.591  0.2381 -1.8279  1.2688
 4519TIP3   OH213499   2.433   2.298   5.696  0.0843  0.2473  0.1929
 4519TIP3    H113500   2.434   2.202   5.698 -1.0944  0.2262  0.3389
 4519TIP3    H213501   2.438   2.324   5.788 -2.1670  0.2507  0.3695
 4520TIP3   OH213502   0.792   0.127   6.012  0.0821  0.1819  0.6108
 4520TIP3    H113503   0.786   0.063   5.940  0.0745 -0.9385  1.5642
 4520TIP3    H213504   0.713   0.181   6.002  1.6589  2.2333 -2.1301
 4521TIP3   OH213505   2.700   1.720   3.743 -0.6164  0.1966  0.2823
 4521TIP3    H113506   2.763   1.672   3.796 -0.6453 -1.4091 -1.0608
 4521TIP3    H213507   2.632   1.749   3.805 -0.0853 -0.6476  1.2703
 4522TIP3   OH213508   1.711   7.573   2.434 -0.4253 -0.3908  0.2768
 4522TIP3    H113509   1.773   7.578   2.506  0.3254  0.3640 -0.3937
 4522TIP3    H213510   1.670   7.487   2.443  1.0463 -1.1014  0.4874
 4523TIP3   OH213511   3.604   7.140   6.504  0.1341  0.8582 -0.0366
 4523TIP3    H113512   3.683   7.180   6.468  0.7879 -0.0674  0.3222
 4523TIP3    H213513   3.619   7.139   6.599 -0.5307  1.1298  0.0756
 4524TIP3   OH213514   5.118   2.093   3.602 -0.5250  0.3330  0.0422
 4524TIP3    H113515   5.072   2.016   3.569 -0.3313  0.1011  0.3108
 4524TIP3    H213516   5.209   2.080   3.579 -0.2483 -0.2179  1.3468
 4525TIP3   OH213517   2.060   0.292   1.018  0.2576 -0.4238 -0.5189
 4525TIP3    H113518   2.105   0.262   0.939 -0.0607 -3.9408  0.4667
 4525TIP3    H213519   2.127   0.339   1.068  1.0085  0.0634 -1.9255
 4526TIP3   OH213520   1.225   1.226   1.025  0.0329  0.0783 -0.0539
 4526TIP3    H113521   1.137   1.258   1.042 -0.2351  0.2669 -1.6726
 4526TIP3    H213522   1.273   1.243   1.107 -1.7347 -1.2383  1.3527
 4527TIP3   OH213523   3.350   5.198   2.894  0.2263  0.0855  0.5367
 4527TIP3    H113524   3.441   5.222   2.875  0.2814  0.9430  1.7041
 4527TIP3    H213525   3.336   5.116   2.847  1.9100 -0.5792  1.1006
 4528TIP3   OH213526   0.872   3.346   1.970 -1.0504  0.2052 -0.7057
 4528TIP3    H113527   0.857   3.285   1.898 -1.1024  0.1857 -0.6791
 4528TIP3    H213528   0.892   3.289   2.045 -0.6595  0.2388 -0.7835
 4529TIP3   OH213529   2.272   1.060   5.616  0.8026  0.0557 -0.5462
 4529TIP3    H113530   2.214   1.090   5.546 -0.2064 -1.9508 -0.6412
 4529TIP3    H213531   2.257   1.122   5.688  0.1870  0.8447 -1.3322
 4530TIP3   OH213532   3.721   6.931   0.551  0.1943  0.2875  0.0775
 4530TIP3    H113533   3.710   6.928   0.456 -2.8818 -0.7247  0.3535
 4530TIP3    H213534   3.638   6.898   0.586  0.2429  2.9166  3.1544
 4531TIP3   OH213535   4.614   0.173   6.790 -0.2663 -0.1731  0.7315
 4531TIP3    H113536   4.545   0.115   6.757  0.0572  0.5202 -1.2847
 4531TIP3    H213537   4.619   0.242   6.725  1.8189  0.2008  1.2487
 4532TIP3   OH213538   7.491   6.072   5.388  0.2389 -0.0465 -0.1522
 4532TIP3    H113539   7.540   6.153   5.379  0.3368  0.2822  2.3985
 4532TIP3    H213540   7.459   6.074   5.479 -1.8752 -1.6950 -0.7900
 4533TIP3   OH213541   0.152   0.624   4.256 -0.1138  0.5088 -0.1762
 4533TIP3    H113542   0.195   0.694   4.305 -1.2149  1.9629 -1.1995
 4533TIP3    H213543   0.193   0.627   4.170  0.8843 -1.1614  0.1885
 4534TIP3   OH213544   5.373   0.072   1.560  0.1600  0.6245 -0.1269
 4534TIP3    H113545   5.398   0.036   1.475  0.0719  0.3929 -0.0571
 4534TIP3    H213546   5.399   0.004   1.623 -2.3107 -0.4684 -0.1867
 4535TIP3   OH213547   0.672   6.497   6.642 -0.1271  0.0740 -0.1357
 4535TIP3    H113548   0.627   6.431   6.588  1.8557  0.5932 -2.5887
 4535TIP3    H213549   0.614   6.573   6.639 -0.4209 -0.1611 -0.9489
 4536TIP3   OH213550   6.185   3.342   0.926  0.0921 -0.4210 -0.0541
 4536TIP3    H113551   6.277   3.339   0.899  0.4410 -1.4390  1.1682
 4536TIP3    H213552   6.158   3.250   0.929 -0.6129 -0.1950  0.7384
 4537TIP3   OH213553   4.547   4.507   4.192 -0.1575  0.1379 -0.2516
 4537TIP3    H113554   4.452   4.502   4.178 -0.3552  0.5699  0.8355
 4537TIP3    H213555   4.569   4.599   4.177  0.5674 -0.3888 -3.0816
 4538TIP3   OH213556   3.267   1.962   2.935 -0.7128 -0.2148  0.6375
 4538TIP3    H113557   3.313   1.912   2.867  0.8272  0.5305  1.0927
 4538TIP3    H213558   3.196   1.904   2.963 -0.0174 -1.4374 -0.0439
 4539TIP3   OH213559   1.279   0.018   0.355  0.3255  0.7137  0.2699
 4539TIP3    H113560   1.272   0.021   0.451 -2.5571 -0.1721  0.1834
 4539TIP3    H213561   1.250   0.104   0.326 -1.6997  0.0645  0.1858
 4540TIP3   OH213562   1.277   6.670   5.802  0.1179 -0.1008 -0.2884
 4540TIP3    H113563   1.277   6.577   5.780 -2.6038 -0.0632 -0.8227
 4540TIP3    H213564   1.291   6.673   5.897  0.3854 -1.0364 -0.2929
 4541TIP3   OH213565   0.998   6.638   5.783 -0.3333 -0.3261 -0.1678
 4541TIP3    H113566   1.091   6.662   5.790 -0.9557  1.8568  1.7137
 4541TIP3    H213567   0.960   6.704   5.726 -0.5449 -2.0169 -2.0815
 4542TIP3   OH213568   2.596   4.027   1.687  0.1116 -0.0926 -0.3415
 4542TIP3    H113569   2.581   4.100   1.747 -1.8533 -0.7251 -0.0145
 4542TIP3    H213570   2.669   4.057   1.632  0.9090  1.1403  1.2896
 4543TIP3   OH213571   4.716   4.965   0.444 -0.7467  0.3721 -0.0190
 4543TIP3    H113572   4.739   5.032   0.380  0.1724 -1.3205 -1.5899
 4543TIP3    H213573   4.642   4.919   0.405  0.8549 -1.7527 -0.8176
 4544TIP3   OH213574   1.417   0.153   1.706 -0.8566 -0.1324  0.3516
 4544TIP3    H113575   1.358   0.125   1.776 -2.1581  1.7327  0.0748
 4544TIP3    H213576   1.503   0.121   1.732 -1.5091 -0.4476  2.2271
 4545TIP3   OH213577   1.125   5.419   2.471 -0.0627  0.0064 -0.2389
 4545TIP3    H113578   1.070   5.432   2.548 -1.5653  0.3442 -1.3164
 4545TIP3    H213579   1.076   5.358   2.417  1.7096 -1.4866 -0.2554
 4546TIP3   OH213580   5.812   5.622   4.074  0.3814 -0.3890  0.2165
 4546TIP3    H113581   5.877   5.692   4.076  0.2737 -0.3041  1.3651
 4546TIP3    H213582   5.731   5.665   4.046  0.7453 -0.4596 -1.0274
 4547TIP3   OH213583   6.991   6.595   6.156 -0.8276  0.0335 -0.0273
 4547TIP3    H113584   7.059   6.611   6.221 -0.1905  1.8560 -1.0774
 4547TIP3    H213585   6.916   6.646   6.187  0.1792  2.7666 -1.7375
 4548TIP3   OH213586   6.873   0.386   3.787 -0.0441  0.5947 -0.4224
 4548TIP3    H113587   6.806   0.351   3.846  1.2419  0.7543  1.1973
 4548TIP3    H213588   6.954   0.384   3.838  1.0908  0.9630 -2.1220
 4549TIP3   OH213589   0.021   4.679   0.047 -0.2216 -0.2984  0.1953
 4549TIP3    H113590   0.047   4.595   0.008 -1.0056 -1.1451  1.4139
 4549TIP3    H213591  -0.061   4.701   0.004  0.6254  0.5479 -1.0667
 4550TIP3   OH213592   7.702   6.771   3.483 -0.3936 -0.4969 -0.1855
 4550TIP3    H113593   7.661   6.856   3.466  2.0981  0.4894 -1.6795
 4550TIP3    H213594   7.789   6.778   3.445  0.5233 -3.1481  1.1919
 4551TIP3   OH213595   4.001   6.218   4.253  0.0917 -0.0997  0.2550
 4551TIP3    H113596   4.041   6.223   4.340 -0.0936  1.4251  0.2710
 4551TIP3    H213597   4.069   6.248   4.193 -0.0380 -0.3989 -0.0482
 4552TIP3   OH213598   0.346   2.047   4.377 -0.7860 -0.2083  0.0670
 4552TIP3    H113599   0.274   1.994   4.342 -1.8208  1.5780 -0.6215
 4552TIP3    H213600   0.315   2.080   4.461 -1.5768  2.0316 -1.0292
 4553TIP3   OH213601   3.408   1.836   6.777 -0.3909  0.1595 -0.4138
 4553TIP3    H113602   3.497   1.833   6.813 -0.4578  0.9081 -0.1828
 4553TIP3    H213603   3.419   1.869   6.688 -0.3892 -0.2447 -0.5677
 4554TIP3   OH213604   8.213   2.344   3.120 -0.3561  0.2947  0.0222
 4554TIP3    H113605   8.126   2.359   3.084 -0.6355 -0.3106  0.4217
 4554TIP3    H213606   8.236   2.256   3.089 -0.5357 -0.1692  1.1812
 4555TIP3   OH213607   0.187   0.819   5.024  0.2035 -0.6806  0.1657
 4555TIP3    H113608   0.231   0.815   4.940 -0.9530 -1.4995 -0.4291
 4555TIP3    H213609   0.257   0.810   5.089  1.0979 -0.0551 -0.6878
 4556TIP3   OH213610   3.351   2.041   3.300  0.2819 -0.3407  0.0374
 4556TIP3    H113611   3.368   2.111   3.237 -0.1280  1.9513  2.3041
 4556TIP3    H213612   3.304   1.974   3.250  1.1193  0.7483 -2.3418
 4557TIP3   OH213613   8.268   2.426   1.639 -0.1126 -0.1651  0.0647
 4557TIP3    H113614   8.189   2.383   1.605  0.3057 -1.9378  1.2225
 4557TIP3    H213615   8.340   2.382   1.596  0.3013  0.1244  0.4545
 4558TIP3   OH213616   1.617   2.942   5.738  1.0860 -0.6577  0.8486
 4558TIP3    H113617   1.682   2.877   5.765  1.1508 -0.3431  1.4735
 4558TIP3    H213618   1.618   3.007   5.808 -1.4584 -1.7527  2.0834
 4559TIP3   OH213619   7.537   6.149   3.416 -0.2578  0.0607 -0.5050
 4559TIP3    H113620   7.525   6.062   3.453  1.3703 -0.0579 -0.2030
 4559TIP3    H213621   7.455   6.195   3.435 -0.4952 -0.8631  0.8365
 4560TIP3   OH213622   6.930   6.831   1.361 -0.2373  0.0851 -0.2645
 4560TIP3    H113623   7.023   6.816   1.376 -0.3124  0.0934  0.2324
 4560TIP3    H213624   6.890   6.818   1.447 -0.8673 -1.2974 -0.7261
 4561TIP3   OH213625   6.549   6.656   1.237 -0.3373 -0.0768  0.9419
 4561TIP3    H113626   6.600   6.737   1.236  0.1991 -0.3956  1.6120
 4561TIP3    H213627   6.549   6.629   1.328 -0.9882 -0.5432  0.8085
 4562TIP3   OH213628   4.512   5.809   3.652  0.1550  0.3871  0.3305
 4562TIP3    H113629   4.548   5.750   3.717  3.7530  0.6929 -1.1625
 4562TIP3    H213630   4.579   5.814   3.584 -2.2770  2.0742 -2.1843
 4563TIP3   OH213631   6.532   5.961   0.223 -0.2064  0.5988  0.1840
 4563TIP3    H113632   6.506   5.968   0.315 -0.3754  0.0251  0.1836
 4563TIP3    H213633   6.469   6.015   0.176  0.1692  1.2776  0.4537
 4564TIP3   OH213634   6.524   2.913   2.964  0.3275  0.2995  0.4609
 4564TIP3    H113635   6.483   2.975   2.904 -0.0309 -0.3482  0.0291
 4564TIP3    H213636   6.450   2.872   3.011  0.3391 -1.6613 -1.0847
 4565TIP3   OH213637   1.909   4.078   4.207  0.3369 -0.0115 -0.0637
 4565TIP3    H113638   1.899   4.166   4.169  2.5960  0.3642  0.0869
 4565TIP3    H213639   1.921   4.020   4.131 -2.0479 -0.3952 -0.2187
 4566TIP3   OH213640   3.287   0.656   6.115  0.2022 -0.3788  0.1658
 4566TIP3    H113641   3.352   0.597   6.077 -0.6646 -0.9696 -0.4377
 4566TIP3    H213642   3.220   0.666   6.047 -0.1818  0.4903  0.6437
 4567TIP3   OH213643   2.341   4.221   4.837 -0.7718 -0.7202  0.0565
 4567TIP3    H113644   2.294   4.178   4.766 -0.0307  0.7763 -1.4027
 4567TIP3    H213645   2.272   4.262   4.889 -1.2173  1.3476 -1.9869
 4568TIP3   OH213646   0.187   7.038   1.838 -0.2278  0.1029  0.3425
 4568TIP3    H113647   0.206   6.977   1.909 -0.8570  0.2571  0.6457
 4568TIP3    H213648   0.093   7.050   1.841 -0.4066 -0.6294 -1.1289
 4569TIP3   OH213649   0.860   6.234   1.505 -0.2044  0.0058 -0.4515
 4569TIP3    H113650   0.782   6.199   1.462 -1.1243  1.3360  0.0929
 4569TIP3    H213651   0.854   6.204   1.595  0.4706 -0.7517 -0.6448
 4570TIP3   OH213652   5.066   1.168   2.804 -0.2523  0.0062 -0.3855
 4570TIP3    H113653   5.045   1.176   2.897 -0.2794  0.3010 -0.4147
 4570TIP3    H213654   4.997   1.113   2.768 -1.1278  1.1713 -0.5326
 4571TIP3   OH213655   3.276   7.202   1.217 -0.1117 -0.2718 -0.0154
 4571TIP3    H113656   3.228   7.246   1.148  1.0496 -1.7118 -1.8269
 4571TIP3    H213657   3.211   7.149   1.263 -0.9152  0.8231  0.1384
 4572TIP3   OH213658   3.886   4.609   1.183 -0.3668 -0.1108  0.2049
 4572TIP3    H113659   3.938   4.678   1.141  0.4908 -0.0275  1.3726
 4572TIP3    H213660   3.907   4.530   1.134  2.9238 -0.6194  2.1859
 4573TIP3   OH213661   0.242   0.863   0.507 -0.0450 -0.0510  0.1817
 4573TIP3    H113662   0.182   0.815   0.565 -1.7783  0.2285 -1.3057
 4573TIP3    H213663   0.271   0.937   0.560 -0.7227 -0.3885  1.0632
 4574TIP3   OH213664   5.603   5.044   5.342 -0.4896 -0.0206  0.1319
 4574TIP3    H113665   5.523   5.072   5.386  0.0459 -1.2266  2.0147
 4574TIP3    H213666   5.610   5.101   5.266 -3.7985 -0.6822 -0.8519
 4575TIP3   OH213667   8.186   0.853   2.817 -0.3086  0.0114  0.2778
 4575TIP3    H113668   8.117   0.799   2.778  1.1207 -1.3126 -0.5073
 4575TIP3    H213669   8.255   0.791   2.840  0.7739  1.3441  0.7519
 4576TIP3   OH213670   1.821   3.124   5.047  0.6923 -0.2484  0.7232
 4576TIP3    H113671   1.836   3.029   5.047  0.6586 -0.2564  0.2647
 4576TIP3    H213672   1.809   3.146   5.140  1.1221 -0.6221  0.8709
 4577TIP3   OH213673   3.672   1.202   5.846  0.1280 -0.0060 -0.1007
 4577TIP3    H113674   3.700   1.162   5.928  0.0530  1.7414  0.8466
 4577TIP3    H213675   3.631   1.285   5.874  1.1638  1.1979 -1.9697
 4578TIP3   OH213676   6.707   1.020   2.640 -0.2800  0.3860  0.6281
 4578TIP3    H113677   6.728   1.110   2.615 -1.3710  1.2530  2.5688
 4578TIP3    H213678   6.631   0.998   2.587 -0.8359  1.1523  1.0635
 4579TIP3   OH213679   2.332   0.466   1.438 -0.3687 -0.1500 -0.3041
 4579TIP3    H113680   2.296   0.380   1.419 -2.0597  0.6061 -0.6630
 4579TIP3    H213681   2.407   0.475   1.379  0.4343 -1.7144  0.4016
 4580TIP3   OH213682   4.987   7.205   4.475  0.4980 -0.6399 -0.2781
 4580TIP3    H113683   5.022   7.206   4.386 -1.2537  1.0829 -1.0167
 4580TIP3    H213684   4.912   7.264   4.472  0.9125  0.1625  2.5719
 4581TIP3   OH213685   1.696   0.060   4.950 -0.3447 -0.2238 -0.5136
 4581TIP3    H113686   1.714   0.149   4.980  0.1570 -1.0780  1.9505
 4581TIP3    H213687   1.602   0.048   4.965 -0.4692 -0.0444 -1.1102
 4582TIP3   OH213688   6.108   7.657   3.521  0.0220 -0.4463 -0.0923
 4582TIP3    H113689   6.080   7.719   3.453  0.4679 -0.7583 -0.5665
 4582TIP3    H213690   6.183   7.611   3.483 -0.4497 -1.4574  0.1530
 4583TIP3   OH213691   1.004   6.739   4.287  0.3151 -0.4288  0.5416
 4583TIP3    H113692   1.001   6.815   4.345  0.5904 -0.5772  0.7557
 4583TIP3    H213693   1.030   6.774   4.202 -0.6124 -0.1331  0.3712
 4584TIP3   OH213694   4.782   5.475   4.020  0.2398  0.3593 -0.0444
 4584TIP3    H113695   4.692   5.474   3.990  0.5836  0.3726 -1.1285
 4584TIP3    H213696   4.821   5.396   3.983  0.8240  0.6519 -0.0754
 4585TIP3   OH213697   1.216   3.908   5.133  0.3053  0.1011 -0.1928
 4585TIP3    H113698   1.144   3.917   5.195  0.1446 -0.0439 -0.3539
 4585TIP3    H213699   1.293   3.937   5.180  0.6814 -2.6261  1.0355
 4586TIP3   OH213700   6.711   1.750   6.682  0.5656 -0.8798  0.7218
 4586TIP3    H113701   6.795   1.795   6.673 -0.0431 -0.0150 -1.2234
 4586TIP3    H213702   6.691   1.756   6.775  1.7967  0.5381  0.9448
 4587TIP3   OH213703   5.556   0.180   1.894 -0.1238 -0.1118  0.3824
 4587TIP3    H113704   5.648   0.174   1.921 -0.4258 -3.7947  1.2136
 4587TIP3    H213705   5.559   0.190   1.799  1.1165  0.5315  0.4732
 4588TIP3   OH213706   2.326   1.208   3.117  0.0531  0.4853 -0.6535
 4588TIP3    H113707   2.347   1.293   3.155 -0.1726  0.1542  0.2300
 4588TIP3    H213708   2.250   1.225   3.060 -1.0443  0.5976  0.7838
 4589TIP3   OH213709   1.106   0.348   0.735  0.2589  0.6908 -0.2252
 4589TIP3    H113710   1.094   0.338   0.830 -1.2084  3.1751 -0.0585
 4589TIP3    H213711   1.019   0.373   0.703  1.1713  1.8696 -1.8985
 4590TIP3   OH213712   2.624   7.629   2.272 -0.1784 -0.0932 -0.0403
 4590TIP3    H113713   2.652   7.690   2.204  1.0582 -2.0126 -1.3396
 4590TIP3    H213714   2.565   7.680   2.327 -1.0691  1.6242 -2.4119
 4591TIP3   OH213715   5.220   3.954   3.964 -0.1811  0.0197  0.3271
 4591TIP3    H113716   5.228   3.956   3.869 -1.5977 -0.1950  0.1826
 4591TIP3    H213717   5.242   3.864   3.988 -1.3469 -0.3487  0.0377
 4592TIP3   OH213718   1.890   0.315   1.236 -0.1223 -0.0598 -0.2235
 4592TIP3    H113719   1.818   0.253   1.225  1.2092 -1.4731 -1.4163
 4592TIP3    H213720   1.938   0.311   1.154  1.5898  0.4875  0.6989
 4593TIP3   OH213721   1.094   3.187   5.981  0.3533 -0.7221  0.1861
 4593TIP3    H113722   1.166   3.212   5.923 -0.6542  2.4545  0.1266
 4593TIP3    H213723   1.050   3.116   5.933  2.1876 -1.3332 -0.7215
 4594TIP3   OH213724   7.317   6.985   6.297  0.1811 -0.4038 -0.0636
 4594TIP3    H113725   7.344   6.970   6.388  0.0659 -0.2637 -0.0051
 4594TIP3    H213726   7.346   7.075   6.279 -1.0170  0.0652  0.2825
 4595TIP3   OH213727   1.946   5.125   5.353  0.5202 -0.4309  0.1982
 4595TIP3    H113728   1.942   5.030   5.361 -2.8275 -0.3604  0.4937
 4595TIP3    H213729   1.970   5.156   5.440 -0.6922 -0.9596  0.7428
 4596TIP3   OH213730   3.908   3.232   1.674  0.3645 -0.0064  0.4637
 4596TIP3    H113731   3.829   3.273   1.710  0.2396 -0.2548  0.4744
 4596TIP3    H213732   3.920   3.273   1.588  0.1390 -0.0753  0.3990
 4597TIP3   OH213733   0.432   3.284   0.312 -0.0063 -0.4380  0.1249
 4597TIP3    H113734   0.409   3.373   0.340 -1.5520 -0.7261 -0.1177
 4597TIP3    H213735   0.431   3.289   0.216  1.9582 -0.2501  0.0829
 4598TIP3   OH213736   1.348   2.672   1.421 -0.2311 -0.4543  0.6246
 4598TIP3    H113737   1.270   2.692   1.473 -0.8140  1.7992 -0.9533
 4598TIP3    H213738   1.421   2.699   1.477 -0.6666 -0.9765  1.4604
 4599TIP3   OH213739   4.198   1.294   6.474  0.4665  0.2618  0.0782
 4599TIP3    H113740   4.156   1.211   6.449 -1.1617  0.5598  1.5598
 4599TIP3    H213741   4.225   1.333   6.392 -0.5149 -0.8551 -0.8210
 4600TIP3   OH213742   4.978   7.701   3.620  0.3824 -0.1474 -0.9216
 4600TIP3    H113743   5.054   7.654   3.584  1.9163 -0.7847  2.7302
 4600TIP3    H213744   4.929   7.634   3.668 -0.4670  0.9456 -0.2280
 4601TIP3   OH213745   2.264   3.058   1.304  0.4368  0.1205  0.5199
 4601TIP3    H113746   2.313   3.021   1.378 -1.9141 -0.7952  1.7325
 4601TIP3    H213747   2.318   3.038   1.227  1.0526 -2.6620  1.5398
 4602TIP3   OH213748   2.245   1.036   3.603 -0.3432  0.2460  0.2692
 4602TIP3    H113749   2.231   1.061   3.694  0.1905 -0.2983  0.5071
 4602TIP3    H213750   2.334   1.065   3.583 -0.8305  1.3100 -0.4098
 4603TIP3   OH213751   7.430   3.399   5.984  0.4555 -0.4503 -0.0388
 4603TIP3    H113752   7.375   3.405   5.906 -0.1736 -1.7753  0.2757
 4603TIP3    H213753   7.425   3.486   6.023 -1.5534 -0.5397  0.0438
 4604TIP3   OH213754   1.995   1.448   3.459  0.0560  0.1588 -1.0398
 4604TIP3    H113755   1.970   1.484   3.374  1.0685  1.2630 -0.9038
 4604TIP3    H213756   2.036   1.521   3.505 -1.4159 -0.1122  0.8358
 4605TIP3   OH213757   2.939   7.013   3.746  0.3064 -0.3201  0.4122
 4605TIP3    H113758   2.890   6.944   3.702  0.6807 -0.3975  0.1134
 4605TIP3    H213759   2.874   7.057   3.801 -0.3703  0.3199 -0.8485
 4606TIP3   OH213760   6.629   5.962   5.462 -0.3643  0.1081  0.4295
 4606TIP3    H113761   6.571   5.960   5.386 -1.7247  0.8017  1.4024
 4606TIP3    H213762   6.690   5.890   5.447 -0.4059  0.4060 -1.4439
 4607TIP3   OH213763   4.216   7.776   4.990  0.4282 -0.3748 -0.2847
 4607TIP3    H113764   4.265   7.838   4.936 -0.1526 -0.3793 -0.8208
 4607TIP3    H213765   4.211   7.819   5.076 -0.3234  0.5155 -0.7558
 4608TIP3   OH213766   0.106   2.848   6.399 -0.0638 -0.2844 -0.4447
 4608TIP3    H113767   0.119   2.932   6.356  0.3650 -0.1709 -0.0989
 4608TIP3    H213768   0.014   2.826   6.382 -0.1362  0.1803 -0.6597
 4609TIP3   OH213769   7.906   4.110   3.556 -0.1582  0.5053 -0.1076
 4609TIP3    H113770   7.866   4.152   3.632  0.8626 -2.0860  2.0070
 4609TIP3    H213771   7.997   4.097   3.580 -0.5839 -3.7413 -0.0669
 4610TIP3   OH213772   1.935   1.331   2.547  0.3273  0.0631 -0.8755
 4610TIP3    H113773   1.877   1.286   2.486  1.0240 -1.7928 -0.2411
 4610TIP3    H213774   2.022   1.295   2.529  0.5128 -0.8197  1.3830
 4611TIP3   OH213775   7.190   5.970   6.545  0.1992 -0.1632  0.0314
 4611TIP3    H113776   7.260   6.033   6.531  0.0738  0.2327  1.0500
 4611TIP3    H213777   7.229   5.885   6.523  0.5598  0.1947 -0.7489
 4612TIP3   OH213778   6.417   1.881   3.142  0.2172 -0.2021 -0.3000
 4612TIP3    H113779   6.421   1.791   3.110 -1.5926  0.0189 -1.2660
 4612TIP3    H213780   6.361   1.878   3.219 -1.7139  0.3868 -1.6270
 4613TIP3   OH213781   3.644   1.538   4.991 -0.0540  0.5487  0.1547
 4613TIP3    H113782   3.577   1.519   5.056 -0.5395  0.6634 -0.3035
 4613TIP3    H213783   3.608   1.610   4.939 -1.5611 -2.1523 -2.8953
 4614TIP3   OH213784   4.030   4.991   5.040  0.1226 -0.4731  0.0862
 4614TIP3    H113785   4.041   4.921   4.976  1.1980 -0.3544  0.1148
 4614TIP3    H213786   3.966   4.957   5.103 -1.0166 -0.5563 -1.0743
 4615TIP3   OH213787   3.939   2.203   4.383  0.1140  0.2202  0.0977
 4615TIP3    H113788   3.930   2.296   4.407 -0.0728 -0.2239  1.9064
 4615TIP3    H213789   3.967   2.205   4.291 -0.8378  2.0394 -0.2061
 4616TIP3   OH213790   1.128   6.313   3.649 -0.8054 -0.7206 -0.5288
 4616TIP3    H113791   1.142   6.339   3.558 -0.0973 -1.4699 -0.6477
 4616TIP3    H213792   1.047   6.261   3.646  0.3983 -2.6401 -1.1393
 4617TIP3   OH213793   3.806   2.367   4.816 -0.4900  0.1285  0.3697
 4617TIP3    H113794   3.729   2.349   4.870 -0.0471 -2.7578  0.1811
 4617TIP3    H213795   3.772   2.419   4.743 -2.0165 -0.0247  0.9237
 4618TIP3   OH213796   0.685   4.424   5.150 -0.2968 -0.1283  0.4932
 4618TIP3    H113797   0.590   4.409   5.146 -0.2145 -1.2754  2.1802
 4618TIP3    H213798   0.722   4.338   5.166  0.9757  0.4689  0.8199
 4619TIP3   OH213799   7.935   3.098   3.054 -0.0397 -0.3073 -0.2191
 4619TIP3    H113800   7.981   3.177   3.082 -0.3616  0.1413 -0.9282
 4619TIP3    H213801   7.989   3.062   2.984 -0.4022 -0.1538 -0.5855
 4620TIP3   OH213802   2.010   2.695   0.985  0.8307  0.0022  0.2331
 4620TIP3    H113803   2.103   2.703   0.962  1.2089  0.3243  1.7021
 4620TIP3    H213804   1.963   2.697   0.902  2.1532 -0.3349 -0.5487
 4621TIP3   OH213805   3.037   5.712   1.812 -0.3627 -0.1202 -0.2428
 4621TIP3    H113806   3.032   5.719   1.908  1.4516  0.9670 -0.1944
 4621TIP3    H213807   2.958   5.757   1.781 -0.5631  0.2123  0.7108
 4622TIP3   OH213808   0.873   7.726   2.987  0.2734  0.1065 -0.6472
 4622TIP3    H113809   0.815   7.695   2.917 -1.2297 -1.5785  1.2108
 4622TIP3    H213810   0.818   7.785   3.038  1.1000  0.6966 -0.4323
 4623TIP3   OH213811   1.018   0.801   5.803  0.1729 -0.5309 -0.7239
 4623TIP3    H113812   0.955   0.802   5.731  0.8741  0.7880 -1.3399
 4623TIP3    H213813   0.964   0.805   5.882 -0.5362  1.2918 -1.2516
 4624TIP3   OH213814   3.299   0.057   5.221  0.3902  0.7966  0.4256
 4624TIP3    H113815   3.305   0.132   5.280  0.1685 -0.4898  2.1768
 4624TIP3    H213816   3.386   0.016   5.226  0.7243  1.2578 -1.0368
 4625TIP3   OH213817   1.411   6.742   1.926 -0.3825 -0.1964  0.5170
 4625TIP3    H113818   1.490   6.690   1.912 -0.4124  0.1521 -1.1380
 4625TIP3    H213819   1.343   6.678   1.947 -0.1554 -0.7201 -0.3021
 4626TIP3   OH213820   1.845   5.106   0.117 -0.3499  0.3659  0.2379
 4626TIP3    H113821   1.935   5.101   0.085 -0.6643  2.8649 -1.2948
 4626TIP3    H213822   1.853   5.128   0.210  0.6670  2.0358 -0.2097
 4627TIP3   OH213823   5.282   1.837   6.207 -0.0597  0.1014 -0.0913
 4627TIP3    H113824   5.193   1.857   6.237  0.3443  0.1171  1.1476
 4627TIP3    H213825   5.272   1.754   6.158 -0.6398 -0.2952  0.6789
 4628TIP3   OH213826   1.635   4.798   2.281  0.3766 -0.1761  0.1212
 4628TIP3    H113827   1.639   4.778   2.188 -0.1949  1.3932 -0.2732
 4628TIP3    H213828   1.723   4.831   2.302  0.9436 -1.8538  0.4916
 4629TIP3   OH213829   3.393   7.348   5.077 -0.3779  0.8464 -0.3002
 4629TIP3    H113830   3.329   7.355   5.006  0.6477  2.6491 -1.1126
 4629TIP3    H213831   3.466   7.299   5.039 -0.6738  0.0325  0.1705
 4630TIP3   OH213832   0.547   5.357   1.678 -0.1618  0.4151  0.6344
 4630TIP3    H113833   0.583   5.274   1.708 -0.3430  0.4491  0.9473
 4630TIP3    H213834   0.458   5.360   1.714 -0.2590  0.6145  0.3873
 4631TIP3   OH213835   7.674   4.489   2.483  0.0915  0.6710  0.2754
 4631TIP3    H113836   7.588   4.484   2.525 -0.3723 -2.1221 -0.7845
 4631TIP3    H213837   7.714   4.404   2.499  0.9149  0.3694 -2.6939
 4632TIP3   OH213838   7.227   2.097   0.497  0.6930 -0.0038 -0.9438
 4632TIP3    H113839   7.314   2.075   0.531  0.6051  0.4156 -0.4287
 4632TIP3    H213840   7.193   2.013   0.465  1.3715 -0.1287 -1.3608
 4633TIP3   OH213841   4.720   7.789   1.742 -0.0283  0.7400 -0.1976
 4633TIP3    H113842   4.670   7.744   1.810 -1.1592  0.5335 -1.1332
 4633TIP3    H213843   4.738   7.721   1.677 -0.2056  1.2328 -0.7700
 4634TIP3   OH213844   3.538   4.457   1.176 -0.3095  0.0739 -0.2993
 4634TIP3    H113845   3.467   4.475   1.237  0.4541  1.4674  0.2395
 4634TIP3    H213846   3.581   4.378   1.210 -0.0641  0.6799  0.8189
 4635TIP3   OH213847   7.666   6.448   4.261  0.6046  0.0488  0.4579
 4635TIP3    H113848   7.585   6.409   4.295 -0.0465  1.3618  0.5027
 4635TIP3    H213849   7.646   6.542   4.256  2.1157  0.3865  0.4124
 4636TIP3   OH213850   7.137   0.336   3.885 -0.0657  0.1586  0.2441
 4636TIP3    H113851   7.173   0.337   3.796 -0.8370  2.0932 -0.0899
 4636TIP3    H213852   7.155   0.247   3.917  2.6784  0.2322 -0.8237
 4637TIP3   OH213853   5.599   2.820   4.079 -0.1902 -0.6217  0.6340
 4637TIP3    H113854   5.605   2.767   4.158  2.3918  0.2551  1.1084
 4637TIP3    H213855   5.581   2.756   4.009 -0.5453 -1.6510  1.6317
 4638TIP3   OH213856   3.988   7.548   3.464  0.1087  0.0157 -0.1457
 4638TIP3    H113857   4.062   7.597   3.429  0.4692 -1.1838 -1.1270
 4638TIP3    H213858   3.913   7.575   3.410  0.2838 -0.4190 -0.6111
 4639TIP3   OH213859   2.748   5.713   0.119  0.9688  0.0835 -0.0372
 4639TIP3    H113860   2.712   5.791   0.079  0.1624 -0.0975  0.3234
 4639TIP3    H213861   2.813   5.681   0.055 -0.7471 -0.5773 -1.5430
 4640TIP3   OH213862   5.397   6.091   5.001 -0.1130  0.7347 -0.0518
 4640TIP3    H113863   5.366   6.001   5.006  2.5116 -0.2530 -0.0144
 4640TIP3    H213864   5.336   6.141   5.056 -2.6482 -0.6177 -1.4166
 4641TIP3   OH213865   0.259   7.308   0.625  0.3976  0.0729 -0.0080
 4641TIP3    H113866   0.221   7.355   0.699  1.0999 -0.3303  0.6246
 4641TIP3    H213867   0.189   7.249   0.596  0.1227  0.2199  0.3432
 4642TIP3   OH213868   5.951   1.882   1.361 -0.0625  0.3704 -0.3492
 4642TIP3    H113869   5.908   1.942   1.422 -1.5189 -0.3844 -0.5880
 4642TIP3    H213870   5.967   1.802   1.412  1.6627  0.8413 -0.0929
 4643TIP3   OH213871   1.321   5.583   4.694 -0.3073  0.0874 -0.0817
 4643TIP3    H113872   1.292   5.495   4.668  1.2995 -0.1452 -1.2665
 4643TIP3    H213873   1.388   5.606   4.629  0.5769  1.4521  1.2509
 4644TIP3   OH213874   8.161   6.499   6.332 -0.1249  0.2108 -0.4670
 4644TIP3    H113875   8.117   6.426   6.375 -0.7441  0.1721 -1.1423
 4644TIP3    H213876   8.107   6.575   6.350 -0.8466  0.0549 -1.8176
 4645TIP3   OH213877   0.713   6.629   4.545 -0.0920 -0.0503 -0.5575
 4645TIP3    H113878   0.808   6.632   4.555 -0.1052  1.6940 -0.5204
 4645TIP3    H213879   0.679   6.657   4.631 -0.6230 -0.2127 -0.7110
 4646TIP3   OH213880   4.347   2.507   5.478 -0.0050 -0.2864 -0.2926
 4646TIP3    H113881   4.259   2.539   5.457  0.3100  1.5080  0.8734
 4646TIP3    H213882   4.362   2.536   5.568  1.7908 -0.5216 -0.4829
 4647TIP3   OH213883   4.878   7.688   1.139 -0.0356  0.7676  0.0367
 4647TIP3    H113884   4.858   7.764   1.085  1.6120  0.5795 -0.8907
 4647TIP3    H213885   4.826   7.617   1.101  0.2894  0.8829 -0.6406
 4648TIP3   OH213886   7.942   4.378   6.550 -0.4093 -0.1444  0.2102
 4648TIP3    H113887   7.863   4.335   6.516 -0.5844  0.8067 -0.6443
 4648TIP3    H213888   7.991   4.308   6.593 -0.9210 -1.1001 -0.7131
 4649TIP3   OH213889   7.829   6.810   2.360 -0.4427  0.0580 -0.1069
 4649TIP3    H113890   7.795   6.815   2.449 -0.2619  1.4167 -0.1020
 4649TIP3    H213891   7.754   6.782   2.307 -0.3286 -1.6929  0.5617
 4650TIP3   OH213892   6.379   4.025   6.651  0.7045  0.2577 -0.3034
 4650TIP3    H113893   6.302   3.997   6.701  0.5930 -0.3358 -0.7805
 4650TIP3    H213894   6.454   3.995   6.702  0.6082  0.4522 -0.0491
 4651TIP3   OH213895   2.331   0.896   1.549 -0.0906  0.2199  0.1421
 4651TIP3    H113896   2.388   0.945   1.489  0.3019 -0.6624 -0.2408
 4651TIP3    H213897   2.279   0.839   1.491  0.1351 -0.4832  0.6117
 4652TIP3   OH213898   8.097   0.306   1.670  0.3110 -0.0174  0.1963
 4652TIP3    H113899   8.059   0.391   1.692  0.1835  0.8224 -2.8874
 4652TIP3    H213900   8.022   0.247   1.665 -0.0566  0.5339 -1.1352
 4653TIP3   OH213901   1.549   0.672   5.784 -0.3626  0.0871 -0.1413
 4653TIP3    H113902   1.620   0.728   5.752 -1.4714  0.9481 -1.1937
 4653TIP3    H213903   1.544   0.601   5.719  0.1272 -0.4824  0.4341
 4654TIP3   OH213904   3.980   7.756   1.633  0.1878  0.0240  0.3191
 4654TIP3    H113905   3.990   7.669   1.672 -0.6295  0.4731  1.6132
 4654TIP3    H213906   4.003   7.817   1.703 -0.1009  0.8560 -0.2880
 4655TIP3   OH213907   8.227   4.726   3.642  0.7648 -0.4118 -0.7906
 4655TIP3    H113908   8.273   4.810   3.636 -0.6644  0.4109 -0.7801
 4655TIP3    H213909   8.134   4.749   3.632  0.1778 -1.7796  0.9396
 4656TIP3   OH213910   0.733   7.437   3.053  0.1054 -0.2063  0.2185
 4656TIP3    H113911   0.755   7.483   2.972  0.9790  0.5402  0.8544
 4656TIP3    H213912   0.688   7.502   3.106  0.7921 -0.2616  0.8804
 4657TIP3   OH213913   5.007   0.083   0.389 -0.2249  0.6414 -0.1584
 4657TIP3    H113914   5.066   0.086   0.465 -0.2711 -0.9402 -0.0210
 4657TIP3    H213915   4.993  -0.011   0.374 -2.5939  0.9724 -0.2762
 4658TIP3   OH213916   7.341   4.523   3.562  0.1080 -0.0227  0.4521
 4658TIP3    H113917   7.433   4.530   3.587  0.2046  0.8881 -0.1043
 4658TIP3    H213918   7.317   4.610   3.530 -1.4370  0.2333  2.1413
 4659TIP3   OH213919   1.210   3.332   6.676 -0.4068  0.0156  0.3729
 4659TIP3    H113920   1.135   3.335   6.617 -1.6334  1.3787  1.9186
 4659TIP3    H213921   1.285   3.320   6.618 -1.6194  0.4777 -1.3850
 4660TIP3   OH213922   5.961   6.200   2.542 -0.0973  0.2780 -0.4319
 4660TIP3    H113923   6.032   6.237   2.488  0.4207 -0.9176 -0.6038
 4660TIP3    H213924   5.896   6.269   2.545  0.5630  0.9750 -1.2738
 4661TIP3   OH213925   7.332   2.264   0.142 -0.1061  0.3685  0.6113
 4661TIP3    H113926   7.350   2.353   0.112  1.3620  0.2628  1.0838
 4661TIP3    H213927   7.367   2.261   0.231 -0.3973 -0.6021  0.7103
 4662TIP3   OH213928   0.153   1.415   2.702 -0.0480  0.0256  0.6661
 4662TIP3    H113929   0.229   1.409   2.645 -0.7873  1.9069 -0.6328
 4662TIP3    H213930   0.119   1.326   2.707  0.8464 -0.4198 -0.6969
 4663TIP3   OH213931   4.456   7.041   2.088 -0.0864  0.0493  0.5435
 4663TIP3    H113932   4.502   6.963   2.057 -0.1209  0.3725 -0.3294
 4663TIP3    H213933   4.519   7.112   2.080 -0.6329  0.4430 -0.3905
 4664TIP3   OH213934   5.514   1.980   1.106 -0.4584 -0.2226 -0.1581
 4664TIP3    H113935   5.536   2.066   1.069 -2.5500  0.1460 -0.7038
 4664TIP3    H213936   5.432   1.956   1.062 -2.8037 -0.0583  3.6448
 4665TIP3   OH213937   3.724   3.729   3.424 -0.0100 -0.4979  0.0567
 4665TIP3    H113938   3.723   3.651   3.369  0.6869  0.6522 -1.7092
 4665TIP3    H213939   3.790   3.710   3.492  1.2867 -0.9014 -1.2560
 4666TIP3   OH213940   4.924   5.989   3.584  0.1748  0.2832 -0.1143
 4666TIP3    H113941   4.875   5.918   3.543  1.5311 -0.3857 -0.6208
 4666TIP3    H213942   4.953   6.045   3.512  1.8769 -0.4581 -0.0608
 4667TIP3   OH213943   7.753   4.104   3.048  0.2044  0.1504  0.4029
 4667TIP3    H113944   7.791   4.090   2.961  0.3077  0.0904  0.4569
 4667TIP3    H213945   7.827   4.132   3.102  0.2512 -0.3357  0.6008
 4668TIP3   OH213946   2.875   2.869   4.263 -1.0237 -0.5009  0.0278
 4668TIP3    H113947   2.827   2.952   4.262 -1.4193 -0.7313 -0.1352
 4668TIP3    H213948   2.945   2.882   4.327 -2.0185 -0.5756  1.1408
 4669TIP3   OH213949   6.463   6.768   5.052 -0.1130  0.7091 -0.7783
 4669TIP3    H113950   6.396   6.807   5.108 -0.3089 -0.6537 -0.0003
 4669TIP3    H213951   6.533   6.833   5.048 -0.0337  0.7872  1.1816
 4670TIP3   OH213952   6.811   0.976   5.867 -0.2727 -0.2651 -0.0789
 4670TIP3    H113953   6.874   0.905   5.882 -1.2266 -1.6105 -1.9568
 4670TIP3    H213954   6.728   0.941   5.899 -1.0338 -0.6453 -2.2650
 4671TIP3   OH213955   2.890   2.053   2.688 -0.4499 -0.1678  0.2265
 4671TIP3    H113956   2.799   2.052   2.715 -0.5900  2.1917  0.0266
 4671TIP3    H213957   2.939   2.081   2.765 -0.0458 -0.0930 -0.0490
 4672TIP3   OH213958   4.308   6.330   3.528  0.0111 -0.2884  0.0805
 4672TIP3    H113959   4.212   6.327   3.536  0.0530  1.7196  2.2531
 4672TIP3    H213960   4.323   6.372   3.443 -1.1919  2.8899  1.3003
 4673TIP3   OH213961   4.591   5.196   3.860  0.1728 -0.6847 -0.1988
 4673TIP3    H113962   4.534   5.243   3.921  0.7031  3.3568 -2.4416
 4673TIP3    H213963   4.535   5.180   3.784  0.9496 -0.2673 -0.8743
 4674TIP3   OH213964   5.398   0.896   2.259 -0.3113  0.4147 -0.0372
 4674TIP3    H113965   5.465   0.944   2.309  1.7103 -3.0736  0.9270
 4674TIP3    H213966   5.448   0.850   2.192 -2.0860 -0.6088 -0.7034
 4675TIP3   OH213967   5.052   3.565   4.478 -0.2966 -0.6073 -0.2052
 4675TIP3    H113968   5.105   3.631   4.434 -1.1154 -0.5917 -1.2144
 4675TIP3    H213969   5.034   3.602   4.564  2.0945 -1.0335  0.5474
 4676TIP3   OH213970   2.286   0.249   4.081 -0.1552  0.8724 -0.0638
 4676TIP3    H113971   2.256   0.192   4.152  0.0934  1.6711  0.6932
 4676TIP3    H213972   2.216   0.243   4.015 -1.2817  1.5570  1.0381
 4677TIP3   OH213973   6.443   4.079   2.256 -0.0706 -0.5984  0.0221
 4677TIP3    H113974   6.420   4.143   2.190 -0.6137 -0.2144  0.5708
 4677TIP3    H213975   6.491   4.128   2.323  0.3183 -0.9443  0.0059
 4678TIP3   OH213976   6.402   0.324   0.143  0.5087  0.6779 -0.0822
 4678TIP3    H113977   6.366   0.242   0.177 -0.4576  1.2212  0.2316
 4678TIP3    H213978   6.346   0.392   0.180  1.7008  1.5365  0.2011
 4679TIP3   OH213979   7.890   7.069   2.273 -0.4013 -0.1050  0.4338
 4679TIP3    H113980   7.907   6.983   2.311  1.9035  0.3593  0.5977
 4679TIP3    H213981   7.818   7.055   2.212  1.5751 -2.7705 -1.5265
 4680TIP3   OH213982   8.087   4.059   2.411  0.2954 -0.3350  0.4332
 4680TIP3    H113983   8.080   4.132   2.349 -0.7387 -0.5518  0.2791
 4680TIP3    H213984   8.055   4.095   2.494 -0.0959 -0.5674  0.3872
 4681TIP3   OH213985   6.761   5.813   2.296  0.2285 -0.0790 -0.0956
 4681TIP3    H113986   6.822   5.749   2.261  1.0890  0.2886  0.6849
 4681TIP3    H213987   6.816   5.886   2.325 -0.8348  1.8937 -2.6617
 4682TIP3   OH213988   6.283   4.134   1.744  0.5896 -0.1872 -0.2044
 4682TIP3    H113989   6.307   4.127   1.837  1.7661 -0.0874 -0.4844
 4682TIP3    H213990   6.358   4.098   1.697  0.1246  0.0190 -1.1306
 4683TIP3   OH213991   6.554   3.171   4.463  0.0102  0.1141  0.1905
 4683TIP3    H113992   6.626   3.108   4.460 -1.7448 -2.0354  0.4700
 4683TIP3    H213993   6.518   3.162   4.551 -0.6413  1.1095  0.0443
 4684TIP3   OH213994   7.926   5.007   1.525 -0.2032 -0.4306 -0.0023
 4684TIP3    H113995   7.977   5.031   1.448  0.2871 -0.4397  0.3143
 4684TIP3    H213996   7.939   4.913   1.534 -0.1931 -0.4154  0.1391
 4685TIP3   OH213997   0.241   3.211   6.478  0.1165 -0.5427 -0.7982
 4685TIP3    H113998   0.199   3.165   6.550  0.1296  0.6671  0.0160
 4685TIP3    H213999   0.208   3.169   6.399 -0.8411 -1.1029 -0.1091
 4686TIP3   OH214000   5.272   5.265   2.019 -0.0242 -0.0868 -0.4295
 4686TIP3    H114001   5.303   5.177   2.036  1.5657  0.6123  0.4515
 4686TIP3    H214002   5.347   5.322   2.039 -0.6479  1.3883 -2.0189
 4687TIP3   OH214003   4.494   6.753   4.366  0.0205  0.4559  0.5578
 4687TIP3    H114004   4.584   6.731   4.391 -0.1093 -1.0199 -0.1572
 4687TIP3    H214005   4.500   6.775   4.273 -0.4960 -0.6784  0.2397
 4688TIP3   OH214006   5.609   0.978   0.986 -0.1731  0.2249 -0.4911
 4688TIP3    H114007   5.546   0.910   0.961  0.6797 -0.3997 -0.9821
 4688TIP3    H214008   5.587   1.053   0.930 -0.7508  0.1650 -0.3510
 4689TIP3   OH214009   7.918   0.597   2.354  0.2018 -1.1390  0.6870
 4689TIP3    H114010   7.880   0.587   2.441 -2.7963 -1.0260 -0.4778
 4689TIP3    H214011   7.962   0.514   2.336 -0.3802 -1.6841  1.7558
 4690TIP3   OH214012   7.586   6.721   3.839 -0.1245 -0.1013 -0.5462
 4690TIP3    H114013   7.513   6.687   3.788 -1.3096  0.3101  0.8157
 4690TIP3    H214014   7.630   6.643   3.874 -0.0344 -0.3448 -1.2062
 4691TIP3   OH214015   3.518   2.641   3.297  0.1307  0.0495 -0.0649
 4691TIP3    H114016   3.460   2.669   3.369  0.6573  0.5536  0.1717
 4691TIP3    H214017   3.471   2.667   3.217 -0.2132 -0.0307  0.1102
 4692TIP3   OH214018   7.211   6.888   4.406  0.3741  0.6868  0.3848
 4692TIP3    H114019   7.138   6.826   4.406  1.1687 -0.2858 -0.2378
 4692TIP3    H214020   7.173   6.970   4.439 -0.6822 -0.1372  1.2981
 4693TIP3   OH214021   0.307   6.120   4.639 -0.3810 -0.1407  0.1321
 4693TIP3    H114022   0.333   6.199   4.591  0.2641 -0.2350  0.3211
 4693TIP3    H214023   0.249   6.153   4.708 -1.1635  0.0128 -0.5801
 4694TIP3   OH214024   6.890   5.680   1.888 -0.3628 -0.2512  0.1081
 4694TIP3    H114025   6.838   5.637   1.956  0.6234 -1.2404  0.2528
 4694TIP3    H214026   6.899   5.614   1.820  1.5176 -0.4522  0.5057
 4695TIP3   OH214027   2.104   4.296   4.952  0.3471 -0.6751 -0.2012
 4695TIP3    H114028   2.023   4.254   4.980  1.1778 -0.1075  3.5961
 4695TIP3    H214029   2.082   4.389   4.945  0.3952 -0.6713 -0.3034
 4696TIP3   OH214030   3.681   2.487   4.583 -0.5167  0.1235 -0.3305
 4696TIP3    H114031   3.629   2.548   4.532  0.3370  0.9946 -0.1866
 4696TIP3    H214032   3.707   2.419   4.520 -2.8695 -1.0641 -0.1272
 4697TIP3   OH214033   7.249   0.091   1.091  0.2588  0.2141  0.2252
 4697TIP3    H114034   7.259   0.086   0.996  3.4324  1.5663  0.3725
 4697TIP3    H214035   7.275   0.181   1.113  0.2526 -0.2597  2.4354
 4698TIP3   OH214036   3.640   5.382   3.469  0.1435 -0.1826 -0.2706
 4698TIP3    H114037   3.639   5.475   3.448  0.2005 -0.2823 -0.7072
 4698TIP3    H214038   3.611   5.338   3.389  1.6586 -0.6513 -0.5913
 4699TIP3   OH214039   6.940   4.546   4.163 -0.9989 -0.5397  0.2371
 4699TIP3    H114040   6.892   4.617   4.120 -0.3431 -0.1218  0.1725
 4699TIP3    H214041   7.029   4.581   4.174 -0.5251 -1.5436 -0.2536
 4700TIP3   OH214042   1.347   4.726   5.859 -0.2633 -0.1676  0.4102
 4700TIP3    H114043   1.384   4.709   5.946 -0.3801  0.7412  0.6561
 4700TIP3    H214044   1.350   4.642   5.814  1.4034 -0.3010  0.6909
 4701TIP3   OH214045   3.003   1.808   1.897  0.1769 -0.1438  0.0275
 4701TIP3    H114046   3.085   1.803   1.947  0.2691  1.3871  0.0911
 4701TIP3    H214047   2.975   1.899   1.907 -0.6937 -0.2342 -1.3366
 4702TIP3   OH214048   3.809   3.693   1.217 -0.1553  0.1119  0.1049
 4702TIP3    H114049   3.835   3.687   1.125 -0.2010 -0.6718  0.1339
 4702TIP3    H214050   3.714   3.706   1.215 -0.1169  0.3829  0.0381
 4703TIP3   OH214051   7.911   2.113   2.085 -0.1660  0.1545 -0.5408
 4703TIP3    H114052   7.835   2.100   2.142  0.5565 -3.0021 -0.1313
 4703TIP3    H214053   7.883   2.078   2.000  0.4413  0.1364 -0.7390
 4704TIP3   OH214054   5.724   4.985   3.889  0.4371  0.3181 -0.2058
 4704TIP3    H114055   5.763   4.966   3.804 -0.7796 -0.3067 -0.6508
 4704TIP3    H214056   5.666   5.059   3.872 -1.0043 -0.7909 -0.3064
 4705TIP3   OH214057   5.130   3.381   5.535  0.0938 -0.1936  0.1274
 4705TIP3    H114058   5.123   3.323   5.459  1.6060  0.1361 -0.2972
 4705TIP3    H214059   5.147   3.322   5.608 -1.7505 -0.5463  0.3051
 4706TIP3   OH214060   4.259   2.651   3.057 -0.6084 -0.6381  0.2363
 4706TIP3    H114061   4.280   2.720   2.995  1.0923  1.0862  2.5446
 4706TIP3    H214062   4.164   2.642   3.052 -0.8096  1.4430 -0.5734
 4707TIP3   OH214063   0.949   2.431   0.456 -0.4388  0.0494 -0.0436
 4707TIP3    H114064   0.856   2.450   0.464 -0.1165  2.6796 -1.5688
 4707TIP3    H214065   0.953   2.362   0.390 -1.2667  0.8868 -1.0033
 4708TIP3   OH214066   5.128   7.706   5.259  0.2026 -0.0910 -0.7334
 4708TIP3    H114067   5.041   7.711   5.221 -0.1792 -0.1821  0.1124
 4708TIP3    H214068   5.158   7.797   5.263 -0.5147  0.1208  0.4466
 4709TIP3   OH214069   1.559   6.335   2.807 -0.2282 -0.1993 -0.0899
 4709TIP3    H114070   1.558   6.361   2.900 -1.2254  2.4849 -0.7431
 4709TIP3    H214071   1.535   6.242   2.808 -0.7417 -0.1143  2.3099
 4710TIP3   OH214072   4.667   4.123   0.693  0.1210 -0.0343 -0.5395
 4710TIP3    H114073   4.662   4.103   0.787  3.2924  2.0636  0.2653
 4710TIP3    H214074   4.626   4.048   0.650  0.3982 -2.1074  2.4770
 4711TIP3   OH214075   4.696   1.844   4.624  0.4351 -0.6175 -0.2859
 4711TIP3    H114076   4.749   1.767   4.643  0.4735 -0.4824  0.1645
 4711TIP3    H214077   4.608   1.822   4.655  0.4304 -0.5027 -0.2178
 4712TIP3   OH214078   3.276   2.152   1.076  0.5177 -0.1133 -0.1810
 4712TIP3    H114079   3.371   2.164   1.070  0.4675 -0.2161 -1.4569
 4712TIP3    H214080   3.239   2.234   1.044  0.1577  0.1896  0.9592
 4713TIP3   OH214081   2.965   7.539   4.509  0.2371  0.4464 -0.0025
 4713TIP3    H114082   2.988   7.632   4.520 -0.5856  0.8632 -1.5590
 4713TIP3    H214083   2.918   7.517   4.589  0.4321  1.3716  0.3864
 4714TIP3   OH214084   4.242   5.570   4.825  0.1642 -0.2841  0.2941
 4714TIP3    H114085   4.299   5.614   4.762 -2.2100  2.4740 -0.1638
 4714TIP3    H214086   4.232   5.481   4.791  0.6121  0.5139 -2.1089
 4715TIP3   OH214087   4.289   4.388   5.112 -0.6631 -0.1245  0.1457
 4715TIP3    H114088   4.310   4.324   5.044 -1.4436  1.7097 -1.9352
 4715TIP3    H214089   4.210   4.355   5.153 -0.0732 -1.3596  0.3285
 4716TIP3   OH214090   7.847   2.978   0.593  0.0368 -0.5695  0.1469
 4716TIP3    H114091   7.787   2.907   0.570  0.1808 -0.8875  0.7360
 4716TIP3    H214092   7.791   3.045   0.632  0.2253 -1.4691  2.0523
 4717TIP3   OH214093   4.726   2.562   4.115  0.1419 -0.2736 -0.2541
 4717TIP3    H114094   4.768   2.539   4.198  2.2633  1.6469 -0.7166
 4717TIP3    H214095   4.787   2.532   4.048 -1.0395 -0.8203 -1.1184
 4718TIP3   OH214096   5.498   4.774   5.105  0.2509 -0.1016 -0.2858
 4718TIP3    H114097   5.403   4.773   5.091  0.4426 -0.9482 -1.7223
 4718TIP3    H214098   5.527   4.856   5.065  0.4208 -1.1250 -2.4122
 4719TIP3   OH214099   3.892   3.386   0.264  0.3549 -0.4338 -0.6894
 4719TIP3    H114100   3.860   3.458   0.318  0.9398 -0.0304 -0.8598
 4719TIP3    H214101   3.843   3.393   0.182  1.2060  0.5024 -1.1501
 4720TIP3   OH214102   2.179   1.758   1.105 -0.1973  0.1791  0.0239
 4720TIP3    H114103   2.271   1.736   1.089 -0.8392 -1.2688 -2.1374
 4720TIP3    H214104   2.181   1.851   1.130  1.9517 -0.1984  1.5943
 4721TIP3   OH214105   0.880   2.588   5.326 -0.0678 -0.0564  0.0369
 4721TIP3    H114106   0.859   2.632   5.409  1.2211 -0.4124  0.5810
 4721TIP3    H214107   0.900   2.498   5.351 -0.0577 -0.2701 -0.7186
 4722TIP3   OH214108   1.746   4.282   3.396  0.3994  0.3712  0.1923
 4722TIP3    H114109   1.681   4.212   3.411 -1.0871  1.2112 -1.8536
 4722TIP3    H214110   1.804   4.246   3.329  0.6227  0.5167  0.3076
 4723TIP3   OH214111   6.582   4.510   2.815 -0.0324 -0.6475  0.2296
 4723TIP3    H114112   6.598   4.492   2.723 -1.1784  0.6205 -0.2573
 4723TIP3    H214113   6.668   4.501   2.857  0.4171 -1.6758 -0.8694
 4724TIP3   OH214114   6.744   0.743   2.495  0.3357  0.7851 -0.0321
 4724TIP3    H114115   6.779   0.656   2.479  0.2766  0.4269  1.5966
 4724TIP3    H214116   6.791   0.773   2.573 -1.3076  1.2403  0.8176
 4725TIP3   OH214117   5.425   3.959   0.281  0.3165 -0.8570 -0.0002
 4725TIP3    H114118   5.349   3.932   0.332  0.3624  0.3652  0.7463
 4725TIP3    H214119   5.451   4.043   0.319  1.2340 -0.6193 -1.1067
 4726TIP3   OH214120   1.072   6.487   5.364 -0.0754  0.1300 -0.4052
 4726TIP3    H114121   1.118   6.542   5.428 -0.4794  0.6162 -0.5275
 4726TIP3    H214122   1.142   6.452   5.309  0.2057  0.3397 -0.1855
 4727TIP3   OH214123   4.766   2.737   2.450 -0.1168  1.1315  0.4832
 4727TIP3    H114124   4.813   2.662   2.415 -0.0074  0.2640  2.3736
 4727TIP3    H214125   4.714   2.770   2.376 -0.7319 -1.2388 -0.2216
 4728TIP3   OH214126   6.875   3.486   6.267  0.8218  0.3717  0.2469
 4728TIP3    H114127   6.853   3.543   6.341  1.6196  2.0827 -0.7621
 4728TIP3    H214128   6.960   3.448   6.290  0.1667 -0.6854  1.0396
 4729TIP3   OH214129   1.456   6.793   3.149  0.2298 -0.6812 -0.8607
 4729TIP3    H114130   1.551   6.792   3.156  0.1494 -1.7950  0.6366
 4729TIP3    H214131   1.426   6.771   3.237 -1.4547  1.5455 -0.7949
 4730TIP3   OH214132   3.226   4.619   3.644 -0.2506  0.0748 -0.3486
 4730TIP3    H114133   3.197   4.539   3.600 -1.5235  0.6571 -0.6374
 4730TIP3    H214134   3.259   4.675   3.574 -0.1248  0.1150 -0.2576
 4731TIP3   OH214135   5.787   7.725   3.547 -0.3729  0.1121 -0.2403
 4731TIP3    H114136   5.838   7.806   3.536  2.6220 -1.7923 -1.7662
 4731TIP3    H214137   5.812   7.694   3.634  0.3052 -0.2745 -0.5608
 4732TIP3   OH214138   8.202   7.006   4.405  0.1889  0.1152  0.4308
 4732TIP3    H114139   8.150   7.085   4.397 -2.0310 -1.3401 -0.3025
 4732TIP3    H214140   8.181   6.971   4.491  2.6581  1.2358  1.5950
 4733TIP3   OH214141   1.715   1.278   3.388  0.7234  0.2998  0.4489
 4733TIP3    H114142   1.785   1.253   3.448  0.7000  0.6858  0.6432
 4733TIP3    H214143   1.660   1.337   3.439  1.4183  1.6709 -0.3289
 4734TIP3   OH214144   6.423   2.398   3.531 -0.1006 -0.2732  0.6311
 4734TIP3    H114145   6.353   2.380   3.594 -1.6383 -0.4241 -1.0104
 4734TIP3    H214146   6.476   2.465   3.572 -0.1996 -1.3690  2.6536
 4735TIP3   OH214147   0.157   3.083   1.599  0.1737  0.3104  0.0564
 4735TIP3    H114148   0.072   3.086   1.555  0.2086  1.4609  0.0387
 4735TIP3    H214149   0.214   3.035   1.538  0.2617  2.0107 -1.2897
 4736TIP3   OH214150   7.444   6.081   6.565  0.5750  0.4133  0.2790
 4736TIP3    H114151   7.526   6.129   6.557  0.9990 -0.0999  1.3494
 4736TIP3    H214152   7.456   6.025   6.642 -0.4658 -0.2902 -0.0461
 4737TIP3   OH214153   1.509   1.232   0.344 -0.4522  0.2435  0.5595
 4737TIP3    H114154   1.426   1.268   0.314 -0.8113  1.1863  2.4906
 4737TIP3    H214155   1.572   1.302   0.330 -0.3172  0.1283  0.5929
 4738TIP3   OH214156   4.127   7.463   4.137  0.0285  0.1346  0.2429
 4738TIP3    H114157   4.151   7.553   4.112 -1.0719  0.6231  0.9033
 4738TIP3    H214158   4.111   7.468   4.231  1.3609 -1.0832  0.5705
 4739TIP3   OH214159   0.710   2.533   6.639 -0.1365 -0.4711  0.0420
 4739TIP3    H114160   0.645   2.465   6.654 -1.9228  0.8900 -1.0874
 4739TIP3    H214161   0.660   2.614   6.634  1.5410  0.5615 -1.5996
 4740TIP3   OH214162   2.086   4.990   6.548 -0.3003 -0.0983 -0.3148
 4740TIP3    H114163   2.067   4.911   6.597  1.7423 -2.5916 -3.1604
 4740TIP3    H214164   2.013   5.000   6.487  0.6010 -1.3828 -1.6701
 4741TIP3   OH214165   1.703   3.031   3.698 -0.1526  0.7536 -0.8459
 4741TIP3    H114166   1.683   3.123   3.679 -0.8787  0.8547  0.3364
 4741TIP3    H214167   1.650   3.010   3.774 -1.3841 -1.2048 -2.1576
 4742TIP3   OH214168   1.614   3.553   0.587 -0.7490 -0.1724  0.0220
 4742TIP3    H114169   1.642   3.628   0.640 -1.3081  0.5713 -0.7123
 4742TIP3    H214170   1.587   3.488   0.652  0.7766 -0.1825  0.7031
 4743TIP3   OH214171   8.232   4.526   1.567 -0.1020 -0.2101  0.1142
 4743TIP3    H114172   8.187   4.499   1.647  0.6733 -0.2520  0.5388
 4743TIP3    H214173   8.258   4.617   1.584  2.5696 -1.0774  1.0559
 4744TIP3   OH214174   0.889   2.088   6.003  0.0990  0.3535  0.2642
 4744TIP3    H114175   0.897   2.069   5.909  0.1905 -1.7076  0.6459
 4744TIP3    H214176   0.801   2.124   6.013 -0.1098  0.0874 -0.5545
 4745TIP3   OH214177   4.342   0.988   3.788 -0.3083  0.2287 -0.1075
 4745TIP3    H114178   4.294   0.914   3.749  1.1522 -1.5602  1.3072
 4745TIP3    H214179   4.434   0.966   3.775  0.2025  0.6273  2.3550
 4746TIP3   OH214180   6.106   1.769   3.351  0.0559  0.0747 -0.0993
 4746TIP3    H114181   6.187   1.782   3.400 -0.6076 -2.1220  1.7803
 4746TIP3    H214182   6.044   1.831   3.390  0.2124  0.0770  0.1510
 4747TIP3   OH214183   0.750   1.510   1.578 -0.7975  0.5694  0.2635
 4747TIP3    H114184   0.746   1.468   1.664  0.9249  1.0066  0.5836
 4747TIP3    H214185   0.701   1.592   1.589 -0.5544  0.6421  0.8373
 4748TIP3   OH214186   0.503   0.978   5.190  0.0603 -0.0918 -0.1941
 4748TIP3    H114187   0.439   1.041   5.225 -0.1937 -1.3504  1.7773
 4748TIP3    H214188   0.570   1.033   5.148 -1.3674  1.3459 -0.6845
 4749TIP3   OH214189   1.447   3.424   2.393  0.2563 -0.6945  0.4177
 4749TIP3    H114190   1.540   3.413   2.414  0.5345 -0.9581 -0.8672
 4749TIP3    H214191   1.410   3.336   2.402 -0.1648 -0.3974  2.0973
 4750TIP3   OH214192   2.542   5.068   5.622 -0.3459 -0.6250 -0.1046
 4750TIP3    H114193   2.519   5.057   5.530  0.7602  0.5861 -0.5468
 4750TIP3    H214194   2.587   5.152   5.626 -0.1456 -0.7755  1.5086
 4751TIP3   OH214195   2.800   0.455   4.348 -0.1938 -0.8135  0.2152
 4751TIP3    H114196   2.741   0.419   4.282  0.0454 -1.3378  0.2863
 4751TIP3    H214197   2.794   0.395   4.422 -0.0306 -0.5385  0.4559
 4752TIP3   OH214198   3.748   0.813   3.472  0.5386  0.1112 -0.0201
 4752TIP3    H114199   3.668   0.853   3.507 -0.4216  3.1770 -4.7895
 4752TIP3    H214200   3.813   0.884   3.474  0.6992  0.1939 -3.1027
 4753TIP3   OH214201   0.650   5.917   2.608  0.0480 -0.1418  0.0876
 4753TIP3    H114202   0.569   5.964   2.626 -0.2917 -0.7597  0.2175
 4753TIP3    H214203   0.650   5.905   2.513  0.3384  0.4728  0.0082
 4754TIP3   OH214204   2.332   5.456   2.525 -0.3714  0.3907 -0.0635
 4754TIP3    H114205   2.310   5.364   2.536 -1.4172  0.6674  0.3078
 4754TIP3    H214206   2.339   5.468   2.430  1.6512 -0.4630 -0.0623
 4755TIP3   OH214207   5.041   7.756   1.476 -0.2341 -0.2902  0.3388
 4755TIP3    H114208   5.046   7.708   1.393 -0.8734  2.3615 -1.3504
 4755TIP3    H214209   4.999   7.839   1.453 -0.3016  0.6075  3.3238
 4756TIP3   OH214210   1.777   0.861   4.151 -0.0232 -0.9431  0.8026
 4756TIP3    H114211   1.833   0.802   4.202  0.6657 -0.3942  0.7048
 4756TIP3    H214212   1.789   0.833   4.060  0.6967 -0.3612  0.7025
 4757TIP3   OH214213   2.208   7.634   4.120 -0.5303 -0.1636  0.3478
 4757TIP3    H114214   2.289   7.676   4.091 -0.8530  0.5758  0.5011
 4757TIP3    H214215   2.236   7.577   4.192 -0.3298  1.1866  1.3959
 4758TIP3   OH214216   6.013   4.223   3.988  0.0389 -0.0122 -0.5947
 4758TIP3    H114217   6.023   4.270   3.905 -1.7329 -0.2320 -0.9718
 4758TIP3    H214218   6.084   4.159   3.987  0.2431  0.1898 -1.8019
 4759TIP3   OH214219   6.920   5.970   1.775 -0.1764 -0.1227 -0.0718
 4759TIP3    H114220   6.903   5.886   1.817 -3.0877 -0.4403 -1.6129
 4759TIP3    H214221   6.906   5.954   1.682  0.3217  1.8236 -0.5350
 4760TIP3   OH214222   7.179   3.722   2.346  0.2714 -0.0604  0.0807
 4760TIP3    H114223   7.185   3.805   2.298  1.8708 -0.0028  0.3037
 4760TIP3    H214224   7.259   3.675   2.322 -0.2148 -1.1936  0.6041
 4761TIP3   OH214225   0.654   5.041   0.315  0.7020  0.4802 -0.3060
 4761TIP3    H114226   0.570   5.034   0.360  0.7617 -3.3667 -0.4168
 4761TIP3    H214227   0.632   5.039   0.222  0.8602 -0.5496 -0.3355
 4762TIP3   OH214228   6.765   7.778   2.799  0.2819  0.3365  0.2158
 4762TIP3    H114229   6.796   7.816   2.881 -1.1783  0.6245  0.6749
 4762TIP3    H214230   6.721   7.697   2.825 -1.3430  1.0819 -0.0923
 4763TIP3   OH214231   7.443   3.529   5.188  0.4577 -0.1500  0.8722
 4763TIP3    H114232   7.538   3.523   5.197  0.5591  0.5278  0.3361
 4763TIP3    H214233   7.417   3.594   5.254  0.1512 -1.5471  2.1762
 4764TIP3   OH214234   7.721   3.185   1.746 -0.2141  0.3700  0.5575
 4764TIP3    H114235   7.767   3.160   1.826 -0.5977 -0.1732  0.6089
 4764TIP3    H214236   7.681   3.269   1.767 -3.3605 -1.3569  2.2137
 4765TIP3   OH214237   2.280   2.508   6.083 -0.3158 -0.2966  0.3948
 4765TIP3    H114238   2.212   2.464   6.032  1.2444 -3.8834  1.1248
 4765TIP3    H214239   2.351   2.445   6.088  2.2239  2.4205  1.5762
 4766TIP3   OH214240   6.492   7.181   3.314  0.0849 -0.3982  0.2305
 4766TIP3    H114241   6.488   7.151   3.223  0.3972  0.9385 -0.2584
 4766TIP3    H214242   6.434   7.122   3.361  1.1436 -2.1311 -0.5281
 4767TIP3   OH214243   3.907   5.249   3.355 -0.3490 -0.1530 -0.0878
 4767TIP3    H114244   3.940   5.159   3.355 -2.1630 -0.8732 -1.0753
 4767TIP3    H214245   3.873   5.262   3.444  1.1181  0.0486  0.4589
 4768TIP3   OH214246   0.712   6.941   0.144  0.0402 -0.3454 -0.2507
 4768TIP3    H114247   0.692   7.034   0.131 -1.5815 -0.1932  2.6671
 4768TIP3    H214248   0.707   6.903   0.056 -2.2978  1.8034 -1.1505
 4769TIP3   OH214249   1.459   1.702   6.463 -0.1679 -0.2944  0.1643
 4769TIP3    H114250   1.539   1.658   6.493  0.4430 -0.1881 -1.2175
 4769TIP3    H214251   1.459   1.786   6.508  1.5974  0.5527 -1.3195
 4770TIP3   OH214252   2.288   7.057   3.719  0.3144  0.7541 -0.2502
 4770TIP3    H114253   2.331   6.972   3.707  0.8913  1.1431 -1.0466
 4770TIP3    H214254   2.273   7.089   3.630  0.9045  1.8755  0.0389
 4771TIP3   OH214255   0.432   1.077   4.486 -0.0578  0.1660  0.2902
 4771TIP3    H114256   0.518   1.038   4.501 -0.2420 -0.4245 -0.1362
 4771TIP3    H214257   0.394   1.025   4.415 -0.5741  0.7270  0.1454
 4772TIP3   OH214258   5.277   4.024   1.290 -0.3888  0.3651  0.4525
 4772TIP3    H114259   5.200   3.970   1.272  1.2719 -1.0364 -3.5514
 4772TIP3    H214260   5.324   3.977   1.359 -2.1024  0.2085  1.5543
 4773TIP3   OH214261   7.368   4.604   2.094 -0.3256 -0.4776 -0.3115
 4773TIP3    H114262   7.289   4.552   2.103 -0.0374 -1.4788 -2.7478
 4773TIP3    H214263   7.437   4.541   2.073  0.4246  0.6479 -1.4700
 4774TIP3   OH214264   0.613   0.339   2.733  0.4216 -0.1560  0.0116
 4774TIP3    H114265   0.707   0.342   2.749  0.1130  0.8496  1.8812
 4774TIP3    H214266   0.605   0.339   2.638  2.3094 -0.5395 -0.1788
 4775TIP3   OH214267   5.863   1.156   4.371  0.0227 -0.2047 -0.4162
 4775TIP3    H114268   5.768   1.151   4.354 -0.2076 -1.1514  1.0024
 4775TIP3    H214269   5.895   1.068   4.351  0.6120  0.1000 -0.8430
 4776TIP3   OH214270   4.147   7.431   2.169 -0.3067 -0.0900  0.0981
 4776TIP3    H114271   4.166   7.360   2.108 -0.9677  0.2782 -0.5514
 4776TIP3    H214272   4.058   7.415   2.199  0.2397 -0.6336  1.4955
 4777TIP3   OH214273   5.995   3.104   4.747 -0.7299  0.1413  0.0638
 4777TIP3    H114274   6.019   3.177   4.689  0.2672  0.2120  0.5384
 4777TIP3    H214275   5.955   3.040   4.689  2.0800 -0.6844 -1.1679
 4778TIP3   OH214276   0.390   1.400   3.558 -0.0592  0.2116  0.0110
 4778TIP3    H114277   0.472   1.388   3.510 -0.8961  0.4412 -1.5318
 4778TIP3    H214278   0.413   1.384   3.649  1.6609  0.0988 -0.4157
 4779TIP3   OH214279   0.509   3.565   1.303  0.2064  0.2495  0.0924
 4779TIP3    H114280   0.499   3.654   1.270 -0.3130 -0.0629 -0.5943
 4779TIP3    H214281   0.601   3.561   1.332 -0.0817  1.3793  1.2838
 4780TIP3   OH214282   1.004   5.781   6.486  0.0332 -0.1963  0.1863
 4780TIP3    H114283   0.951   5.812   6.560  1.0830  1.7508  0.1704
 4780TIP3    H214284   0.994   5.849   6.419 -0.8969 -1.9137 -1.5235
 4781TIP3   OH214285   7.396   3.137   5.107 -0.7461 -0.0723 -0.0430
 4781TIP3    H114286   7.360   3.108   5.023 -1.9819  0.3323  0.3351
 4781TIP3    H214287   7.323   3.180   5.151  0.1525  0.6133  0.8232
 4782TIP3   OH214288   7.352   5.738   6.463  0.0893  0.2441  0.4458
 4782TIP3    H114289   7.447   5.728   6.467 -0.0196 -0.7810  1.1267
 4782TIP3    H214290   7.331   5.741   6.370  0.5217 -3.0381  0.1122
 4783TIP3   OH214291   6.585   1.601   3.622  0.2871 -0.2573  0.0395
 4783TIP3    H114292   6.662   1.585   3.567 -0.0840 -0.9212 -0.3062
 4783TIP3    H214293   6.620   1.608   3.711  0.6723 -1.3866 -0.0084
 4784TIP3   OH214294   1.536   1.460   5.519  0.1888 -0.4669  0.0064
 4784TIP3    H114295   1.495   1.388   5.566  0.3406 -0.1462  0.6483
 4784TIP3    H214296   1.522   1.440   5.426 -3.1024  0.6044  0.1742
 4785TIP3   OH214297   5.919   0.449   3.871  0.0714  0.7177 -0.1766
 4785TIP3    H114298   5.986   0.482   3.811  0.7074 -0.6533 -0.2510
 4785TIP3    H214299   5.883   0.527   3.912  0.7544  1.5691 -1.1550
 4786TIP3   OH214300   0.332   0.494   5.898 -0.7405 -0.0766 -0.2364
 4786TIP3    H114301   0.322   0.401   5.879  0.2021 -0.2158 -0.0879
 4786TIP3    H214302   0.356   0.497   5.991  0.1980  0.2367 -0.4742
 4787TIP3   OH214303   1.786   3.623   0.371 -0.0000 -0.0518 -0.3463
 4787TIP3    H114304   1.701   3.633   0.415  0.3476  1.9395 -0.0281
 4787TIP3    H214305   1.850   3.636   0.440  0.5934 -1.1469 -0.6666
 4788TIP3   OH214306   7.506   2.104   1.519  0.3303  0.4423 -0.0319
 4788TIP3    H114307   7.455   2.038   1.566  2.4817 -0.6450  0.9127
 4788TIP3    H214308   7.518   2.067   1.432  0.3880  0.2063  0.0741
 4789TIP3   OH214309   3.582   2.473   0.099 -0.0195 -0.7091 -0.0496
 4789TIP3    H114310   3.614   2.540   0.038 -0.7821  0.4605  0.7827
 4789TIP3    H214311   3.601   2.390   0.056  1.5753  0.0137 -0.8153
 4790TIP3   OH214312   1.375   7.139   6.113 -0.6207  0.1473  0.7662
 4790TIP3    H114313   1.459   7.094   6.123 -0.5481  0.1649  0.2712
 4790TIP3    H214314   1.380   7.212   6.174 -0.2299  0.2062  0.6716
 4791TIP3   OH214315   1.392   3.495   0.287  0.8229  0.1553  0.4575
 4791TIP3    H114316   1.430   3.571   0.330  0.5430 -1.3822  3.7285
 4791TIP3    H214317   1.449   3.422   0.313  0.4370 -0.9701 -1.6272
 4792TIP3   OH214318   6.777   4.513   1.226  0.3021  0.0127  0.0294
 4792TIP3    H114319   6.707   4.464   1.183  1.5291  0.5888 -2.8174
 4792TIP3    H214320   6.831   4.446   1.269 -0.1697 -0.7527 -0.5569
 4793TIP3   OH214321   3.421   2.511   4.250  0.1604  0.0815 -0.3898
 4793TIP3    H114322   3.325   2.506   4.242  0.2350 -2.0703 -0.5467
 4793TIP3    H214323   3.451   2.525   4.160  0.0529 -1.5646 -0.7142
 4794TIP3   OH214324   4.039   0.400   1.219 -0.2364 -0.9728 -0.1425
 4794TIP3    H114325   4.114   0.369   1.168  0.1272 -0.0094 -0.1986
 4794TIP3    H214326   4.011   0.323   1.269  1.0947 -1.2156  0.2613
 4795TIP3   OH214327   2.501   4.767   5.964 -0.1468  0.6201  0.0137
 4795TIP3    H114328   2.518   4.849   6.009 -1.7469  1.0713 -0.1592
 4795TIP3    H214329   2.567   4.764   5.894  0.5436  1.2612  0.6214
 4796TIP3   OH214330   3.845   4.788   5.618  0.6830 -0.1662 -0.8663
 4796TIP3    H114331   3.894   4.708   5.631  0.6621 -0.3414 -1.7692
 4796TIP3    H214332   3.799   4.803   5.701 -1.6760 -2.7077 -1.5443
 4797TIP3   OH214333   1.269   6.470   0.323 -0.0028 -0.5667  0.2369
 4797TIP3    H114334   1.235   6.501   0.239  1.1966 -0.8061 -0.3667
 4797TIP3    H214335   1.347   6.420   0.300 -0.4847 -1.9261  1.3830
 4798TIP3   OH214336   1.300   4.446   6.385  0.6077  0.7316 -0.0932
 4798TIP3    H114337   1.231   4.511   6.393  1.3163  1.5582 -0.5133
 4798TIP3    H214338   1.318   4.418   6.474  0.2372  1.0585  0.0842
 4799TIP3   OH214339   3.211   0.922   1.538 -0.0796 -0.1123 -0.4202
 4799TIP3    H114340   3.183   1.000   1.585 -0.0438  0.2196 -0.9451
 4799TIP3    H214341   3.230   0.858   1.607  1.7911  0.9470  0.1129
 4800TIP3   OH214342   8.106   1.260   0.493 -0.0630 -0.2645 -0.7515
 4800TIP3    H114343   8.153   1.242   0.574 -0.6363  0.8338 -0.1524
 4800TIP3    H214344   8.169   1.240   0.424  0.9040  0.0884 -0.0034
 4801TIP3   OH214345   6.686   5.305   2.127  0.3572 -0.6843  0.0678
 4801TIP3    H114346   6.672   5.215   2.099 -2.6126 -0.5493  0.8717
 4801TIP3    H214347   6.602   5.334   2.161  1.7000  1.8057  1.6074
 4802TIP3   OH214348   7.853   0.982   2.296 -0.2839  0.0594  0.0156
 4802TIP3    H114349   7.889   1.067   2.318 -0.8507  0.3430 -0.1403
 4802TIP3    H214350   7.776   0.972   2.353 -0.1588 -0.3904  0.1106
 4803TIP3   OH214351   3.959   1.370   5.707  0.2700 -0.0869  0.1140
 4803TIP3    H114352   3.872   1.342   5.736  0.7666 -3.4933 -1.2404
 4803TIP3    H214353   4.011   1.375   5.788 -0.4144 -1.0913  0.6328
 4804TIP3   OH214354   4.587   7.131   3.630  0.3941 -0.0173 -0.1936
 4804TIP3    H114355   4.530   7.205   3.609  0.4011  0.1114  0.2314
 4804TIP3    H214356   4.585   7.125   3.725  0.1176 -0.7892 -0.2416
 4805TIP3   OH214357   5.796   1.464   1.992 -0.5227 -0.8684  0.2154
 4805TIP3    H114358   5.709   1.436   1.964 -1.5086  1.3155  0.8174
 4805TIP3    H214359   5.787   1.476   2.087  0.4593 -0.6884  0.2891
 4806TIP3   OH214360   7.675   2.701   4.417  0.0419  0.2072 -0.5652
 4806TIP3    H114361   7.615   2.774   4.402 -0.0365  0.2301 -0.1364
 4806TIP3    H214362   7.737   2.733   4.482  0.2532  0.0311 -0.6786
 4807TIP3   OH214363   8.070   2.806   2.569 -0.2272 -0.2987 -0.7288
 4807TIP3    H114364   8.132   2.801   2.642  0.6977 -0.2843 -1.4892
 4807TIP3    H214365   7.986   2.822   2.610  0.2123 -0.6734  0.3626
 4808TIP3   OH214366   3.035   5.735   2.101 -0.3557  0.2906  0.0172
 4808TIP3    H114367   3.007   5.793   2.171  1.1464 -1.1601  1.9238
 4808TIP3    H214368   3.130   5.725   2.114 -0.3187 -1.3461 -1.1752
 4809TIP3   OH214369   1.412   7.433   1.172  0.3983 -0.4352 -0.2959
 4809TIP3    H114370   1.460   7.516   1.165  0.9230 -0.5157  1.6581
 4809TIP3    H214371   1.325   7.458   1.205 -0.4595 -0.4361 -2.4082
 4810TIP3   OH214372   1.979   2.527   6.338 -0.9732  0.2412 -0.1393
 4810TIP3    H114373   2.053   2.467   6.332 -0.7210  0.2513  2.0561
 4810TIP3    H214374   2.015   2.604   6.382 -1.9909  0.7837 -0.2385
 4811TIP3   OH214375   7.808   7.284   4.666 -0.2601 -0.6624 -0.1137
 4811TIP3    H114376   7.827   7.377   4.681  1.0148 -0.7965 -0.7502
 4811TIP3    H214377   7.713   7.280   4.659 -0.3711  0.5093  0.4654
 4812TIP3   OH214378   2.069   2.921   4.974  0.2110 -0.5754 -0.6808
 4812TIP3    H114379   2.049   2.916   5.068  1.1394  2.1866 -0.2617
 4812TIP3    H214380   2.117   2.840   4.956 -1.9864 -2.2956  0.6338
 4813TIP3   OH214381   6.412   6.296   5.784  0.1878  0.2917  0.3922
 4813TIP3    H114382   6.461   6.229   5.832 -0.0824 -0.7215 -0.6996
 4813TIP3    H214383   6.430   6.278   5.692 -0.9059  0.9316  0.0316
 4814TIP3   OH214384   1.053   7.706   4.679  0.0207  0.1217 -0.4649
 4814TIP3    H114385   1.029   7.619   4.710  0.7113  0.3260  0.7203
 4814TIP3    H214386   0.971   7.755   4.677 -0.0708  0.0519  0.9451
 4815TIP3   OH214387   4.220   4.611   6.335  0.0886 -0.1363  0.2780
 4815TIP3    H114388   4.260   4.540   6.285 -1.2625 -0.5643 -0.2370
 4815TIP3    H214389   4.209   4.575   6.423  0.3535 -0.1962  0.2886
 4816TIP3   OH214390   0.868   5.640   1.970  0.2564  0.1683 -0.2606
 4816TIP3    H114391   0.847   5.557   1.926  2.1200 -0.2082 -0.5069
 4816TIP3    H214392   0.932   5.615   2.038 -0.1598  1.2197  0.5456
 4817TIP3   OH214393   6.263   2.966   0.843 -0.1061 -0.1772 -0.4364
 4817TIP3    H114394   6.228   3.017   0.771 -1.3893  0.4052  0.5640
 4817TIP3    H214395   6.187   2.923   0.882  0.3093  0.6785  1.4496
 4818TIP3   OH214396   7.906   1.084   4.772 -0.0632 -0.4685  0.2313
 4818TIP3    H114397   7.989   1.041   4.756  0.2714  0.6979 -1.4248
 4818TIP3    H214398   7.929   1.165   4.819 -0.1727  0.1676 -0.7886
 4819TIP3   OH214399   5.448   1.343   2.619  0.2194  0.3512  0.2805
 4819TIP3    H114400   5.400   1.314   2.542 -0.5891 -1.5767  1.4433
 4819TIP3    H214401   5.417   1.431   2.636 -1.0611  0.0536 -0.4487
 4820TIP3   OH214402   1.086   4.490   3.127  0.0756  0.2482 -0.3783
 4820TIP3    H114403   1.111   4.544   3.202  0.4657 -1.4969  0.8126
 4820TIP3    H214404   1.069   4.404   3.165  1.6357 -1.0569 -2.4647
 4821TIP3   OH214405   3.704   5.508   3.927  0.6858  0.2112  0.3221
 4821TIP3    H114406   3.674   5.419   3.945 -0.7887  0.3319 -1.2939
 4821TIP3    H214407   3.641   5.564   3.973 -0.3108  0.4373 -1.2568
 4822TIP3   OH214408   3.219   7.015   3.891  0.0242 -0.3877  0.3054
 4822TIP3    H114409   3.132   7.019   3.852  0.3183  0.6462 -0.2929
 4822TIP3    H214410   3.266   6.949   3.841 -0.4650 -1.0891  0.7563
 4823TIP3   OH214411   8.035   2.348   2.105 -0.5329  0.0330  0.4030
 4823TIP3    H114412   7.994   2.268   2.072  0.8205 -0.1937 -0.8353
 4823TIP3    H214413   7.998   2.418   2.050  0.8812 -0.2087 -0.9272
 4824TIP3   OH214414   7.228   6.356   1.651 -0.2678 -0.6588  0.0371
 4824TIP3    H114415   7.318   6.325   1.657 -0.1535 -0.5705 -0.9665
 4824TIP3    H214416   7.179   6.299   1.710  0.1649 -1.8742 -0.7331
 4825TIP3   OH214417   3.454   2.642   6.072 -0.7493 -0.7246 -0.6296
 4825TIP3    H114418   3.460   2.727   6.116 -0.6557 -1.2964  0.5149
 4825TIP3    H214419   3.503   2.653   5.991  0.8802 -0.2232  0.3744
 4826TIP3   OH214420   2.176   6.329   1.690 -0.2301  0.3612  0.5199
 4826TIP3    H114421   2.081   6.341   1.688 -0.3168  0.0014  1.8504
 4826TIP3    H214422   2.210   6.411   1.726 -0.0308  0.4832  0.0612
 4827TIP3   OH214423   0.185   2.935   0.975  0.2481 -0.1264 -0.5020
 4827TIP3    H114424   0.266   2.906   1.017  0.9368  0.9189 -1.0636
 4827TIP3    H214425   0.214   2.983   0.898 -0.8758  0.8127 -0.3604
 4828TIP3   OH214426   7.244   3.105   5.741  0.1399 -0.1358  0.6520
 4828TIP3    H114427   7.262   3.198   5.745 -0.7015  0.3309 -3.0369
 4828TIP3    H214428   7.151   3.099   5.719  0.5267 -1.7096 -0.7955
 4829TIP3   OH214429   5.976   4.161   2.686  0.0079 -0.0941  0.9699
 4829TIP3    H114430   5.951   4.069   2.676 -0.3277  0.0113  0.8333
 4829TIP3    H214431   6.057   4.168   2.636 -1.3746  0.3011 -1.3410
 4830TIP3   OH214432   8.081   5.450   2.764  0.1569  0.1077 -1.0983
 4830TIP3    H114433   7.985   5.449   2.767  0.1845 -1.6190  0.6755
 4830TIP3    H214434   8.107   5.504   2.839  0.5273 -3.4475  1.5445
 4831TIP3   OH214435   1.653   7.433   3.266 -0.0606  0.4888 -0.3400
 4831TIP3    H114436   1.649   7.356   3.209  0.3988  0.0475  0.2137
 4831TIP3    H214437   1.646   7.397   3.354 -0.7222  1.1616 -0.1124
 4832TIP3   OH214438   6.327   6.288   4.063  0.3479  0.4005  0.1802
 4832TIP3    H114439   6.337   6.383   4.061 -0.2053  0.7331  4.3313
 4832TIP3    H214440   6.392   6.258   4.126 -0.7661 -1.7257  0.4159
 4833TIP3   OH214441   7.890   6.001   4.831 -0.5049  0.0375  0.1002
 4833TIP3    H114442   7.871   6.040   4.746  0.9167  1.3268  0.3180
 4833TIP3    H214443   7.831   6.046   4.892 -0.5613  0.1126 -0.0095
 4834TIP3   OH214444   7.264   3.327   1.164 -0.4223  0.4313  0.6531
 4834TIP3    H114445   7.296   3.287   1.244  2.0040  0.3753 -0.2617
 4834TIP3    H214446   7.274   3.260   1.097  0.8960  1.5403 -0.3280
 4835TIP3   OH214447   7.989   5.405   2.153 -0.1131 -0.6850 -0.1469
 4835TIP3    H114448   7.948   5.340   2.096 -0.3418  0.5288 -1.4327
 4835TIP3    H214449   7.918   5.436   2.209 -0.2549 -0.7689 -0.2815
 4836TIP3   OH214450   3.750   4.596   2.979  0.3090 -0.3673 -0.5136
 4836TIP3    H114451   3.711   4.655   2.915 -2.0843 -1.1893  0.0632
 4836TIP3    H214452   3.730   4.508   2.946 -0.3555 -0.8101  0.9364
 4837TIP3   OH214453   0.773   5.270   1.459 -0.0751 -0.0116 -0.3990
 4837TIP3    H114454   0.863   5.239   1.470 -0.1969  0.1745  1.4937
 4837TIP3    H214455   0.731   5.254   1.544 -1.8424 -0.0834 -1.2256
 4838TIP3   OH214456   4.873   2.907   2.048  0.5732  0.1113  0.1348
 4838TIP3    H114457   4.968   2.906   2.043  0.6766  0.7945  1.6097
 4838TIP3    H214458   4.849   2.999   2.053 -0.1878 -0.0455 -0.3091
 4839TIP3   OH214459   4.093   5.095   3.546  0.1365  0.8487 -0.2324
 4839TIP3    H114460   4.153   5.026   3.576  0.0905  1.5944  1.7378
 4839TIP3    H214461   4.129   5.123   3.462  1.4142 -0.0675 -0.0236
 4840TIP3   OH214462   0.158   7.535   4.946  0.3608 -0.1334  0.2090
 4840TIP3    H114463   0.159   7.517   4.852  2.1840  1.6284 -0.1693
 4840TIP3    H214464   0.212   7.466   4.984 -0.6842 -1.0676  0.0421
 4841TIP3   OH214465   6.926   5.860   0.904 -0.3502 -0.2093 -0.0380
 4841TIP3    H114466   6.900   5.790   0.964 -2.0757  1.2085  0.9670
 4841TIP3    H214467   6.846   5.882   0.857 -0.4750  2.5484  1.2895
 4842TIP3   OH214468   3.568   6.030   6.159  0.4169  0.2022 -0.3789
 4842TIP3    H114469   3.500   6.085   6.198  0.2169  0.3694 -0.9493
 4842TIP3    H214470   3.553   5.943   6.196  0.2254  0.3548 -0.0976
 4843TIP3   OH214471   4.066   6.533   4.863  0.0194  0.3389 -0.3162
 4843TIP3    H114472   4.054   6.627   4.852 -0.1299  0.2144 -1.3013
 4843TIP3    H214473   4.160   6.523   4.879  0.0709  0.6414 -0.4103
 4844TIP3   OH214474   6.549   0.397   3.867  0.0009 -0.1596  0.1689
 4844TIP3    H114475   6.563   0.355   3.952 -0.2167  1.7445  1.2268
 4844TIP3    H214476   6.597   0.480   3.874 -2.6779  1.5526 -0.2427
 4845TIP3   OH214477   0.356   4.288   4.131 -0.3433 -0.0417 -0.2648
 4845TIP3    H114478   0.300   4.268   4.205  0.8159 -0.2744  0.5780
 4845TIP3    H214479   0.444   4.260   4.158 -0.2988 -2.9103 -2.7772
 4846TIP3   OH214480   3.970   4.861   1.440  0.3091  0.5324  0.4045
 4846TIP3    H114481   3.995   4.769   1.435 -0.6728  0.2555  0.4103
 4846TIP3    H214482   4.025   4.898   1.510  0.7186 -0.0324  0.3858
 4847TIP3   OH214483   5.564   6.344   0.783 -0.6130  0.0920  0.2295
 4847TIP3    H114484   5.580   6.395   0.703 -2.9594 -0.6746 -0.8067
 4847TIP3    H214485   5.518   6.403   0.841 -0.9004 -0.0178  0.1150
 4848TIP3   OH214486   8.027   4.891   6.389 -0.3549 -0.2107 -0.2465
 4848TIP3    H114487   7.939   4.862   6.412  0.0258 -1.4175 -0.2323
 4848TIP3    H214488   8.067   4.915   6.473 -0.7224  0.4883 -0.2722
 4849TIP3   OH214489   1.629   2.073   0.055  0.0402  0.1348  0.4435
 4849TIP3    H114490   1.595   2.006   0.114  0.6414  0.2232  0.9092
 4849TIP3    H214491   1.584   2.058  -0.028  1.2200 -1.7935  0.0799
 4850TIP3   OH214492   2.380   3.506   5.364  0.8527 -0.4449 -0.7455
 4850TIP3    H114493   2.342   3.444   5.302 -0.3257 -0.2903 -0.2111
 4850TIP3    H214494   2.323   3.583   5.357  2.1433  0.4962 -1.2209
 4851TIP3   OH214495   4.999   7.447   3.076  0.2608 -0.5841  0.3254
 4851TIP3    H114496   4.979   7.539   3.059  0.2411 -0.7893 -0.8202
 4851TIP3    H214497   4.917   7.401   3.061  0.0436 -0.7043  1.7592
 4852TIP3   OH214498   0.360   0.615   6.747 -0.6464  0.3110 -0.1235
 4852TIP3    H114499   0.403   0.683   6.695  1.4219  0.1220  1.2255
 4852TIP3    H214500   0.400   0.533   6.716 -1.9628 -0.1714 -0.6281
 4853TIP3   OH214501   1.594   6.010   2.004  0.0297 -0.1766  0.2099
 4853TIP3    H114502   1.541   6.050   2.074 -1.1852 -0.5704 -0.4440
 4853TIP3    H214503   1.634   6.085   1.959  0.8920  0.0704  1.3740
 4854TIP3   OH214504   3.566   5.673   0.706 -0.2042  0.1451 -0.2487
 4854TIP3    H114505   3.554   5.714   0.621 -0.3172 -1.1021 -0.8530
 4854TIP3    H214506   3.525   5.733   0.768  0.8733  1.6302 -0.9241
 4855TIP3   OH214507   0.929   7.664   1.013  0.1139  0.5233  0.3285
 4855TIP3    H114508   0.928   7.757   0.990 -2.7934  0.4922 -0.0708
 4855TIP3    H214509   0.916   7.663   1.108 -2.5680  0.5924  0.0334
 4856TIP3   OH214510   7.660   7.728   3.941  0.0116  0.1929 -0.6551
 4856TIP3    H114511   7.594   7.702   4.005  0.8687 -0.1511  0.1313
 4856TIP3    H214512   7.743   7.716   3.988  0.6806 -0.4036 -1.9623
 4857TIP3   OH214513   7.018   4.105   5.282 -0.2697 -0.0424 -0.4355
 4857TIP3    H114514   7.095   4.049   5.270 -0.0238 -0.0056  0.7882
 4857TIP3    H214515   7.045   4.190   5.246 -0.0350 -0.2527 -0.7606
 4858TIP3   OH214516   0.203   7.596   0.045  0.2035 -0.0129  0.5973
 4858TIP3    H114517   0.255   7.533  -0.005 -1.1514 -1.5001  0.9743
 4858TIP3    H214518   0.143   7.634  -0.019 -1.4378 -1.8161  0.9829
 4859TIP3   OH214519   1.759   5.733   1.124 -0.2951  0.4722  0.0226
 4859TIP3    H114520   1.710   5.681   1.060 -0.2427  1.4168 -0.8076
 4859TIP3    H214521   1.714   5.717   1.207 -0.7155 -0.3210 -0.3471
 4860TIP3   OH214522   0.750   2.552   4.756  0.0758 -0.3600  0.4116
 4860TIP3    H114523   0.831   2.535   4.804  1.1730  1.1004 -0.8136
 4860TIP3    H214524   0.689   2.485   4.787  1.1955 -0.4528  2.6537
 4861TIP3   OH214525   2.552   4.736   4.751  0.3125 -0.0840  0.2274
 4861TIP3    H114526   2.545   4.827   4.724  0.1763  0.4424  1.9787
 4861TIP3    H214527   2.465   4.699   4.732  0.2579  0.2245 -0.1530
 4862TIP3   OH214528   5.519   5.841   5.184 -0.0012  0.0611 -0.2820
 4862TIP3    H114529   5.556   5.767   5.135 -1.5893 -2.9960  2.7535
 4862TIP3    H214530   5.427   5.844   5.158  0.1442  1.3491 -0.7185
 4863TIP3   OH214531   3.616   7.407   0.312 -0.1376 -0.0212  0.5460
 4863TIP3    H114532   3.676   7.392   0.385 -0.6275  0.5410  1.0788
 4863TIP3    H214533   3.554   7.334   0.315 -0.5829  0.3717  1.1417
 4864TIP3   OH214534   6.891   6.437   5.470  0.0620 -0.1679  0.2749
 4864TIP3    H114535   6.805   6.432   5.430 -0.6773  1.2374  1.6056
 4864TIP3    H214536   6.908   6.531   5.479  2.0070 -0.3974 -0.5034
 4865TIP3   OH214537   7.533   0.066   5.627  0.0934 -0.1839  0.5522
 4865TIP3    H114538   7.514   0.071   5.721 -0.9185  1.0927  0.3125
 4865TIP3    H214539   7.629   0.069   5.622  0.2322 -1.8248  1.5946
 4866TIP3   OH214540   0.026   4.167   5.411 -0.4300  0.0224 -1.1149
 4866TIP3    H114541  -0.049   4.107   5.414 -0.3959  0.0016 -0.3192
 4866TIP3    H214542   0.097   4.119   5.452 -0.7253  1.0156  0.6624
 4867TIP3   OH214543   2.094   0.377   2.191 -0.5615 -0.1157  0.2184
 4867TIP3    H114544   2.019   0.368   2.132 -1.6293  3.1200  0.8907
 4867TIP3    H214545   2.067   0.331   2.270 -0.5273 -1.5410 -0.5566
 4868TIP3   OH214546   2.574   6.178   1.685  0.1884 -0.0970 -0.0740
 4868TIP3    H114547   2.519   6.192   1.608  1.1402 -0.8243 -0.9315
 4868TIP3    H214548   2.610   6.264   1.705 -1.2608  0.3931  0.5219
 4869TIP3   OH214549   4.991   6.208   0.140 -0.4891 -0.2516 -0.3793
 4869TIP3    H114550   4.937   6.284   0.118 -0.3814  0.2057  0.8317
 4869TIP3    H214551   4.942   6.133   0.108 -2.3111  0.0707  1.4376
 4870TIP3   OH214552   1.010   5.650   4.314 -0.2909  0.1760 -0.1838
 4870TIP3    H114553   0.916   5.659   4.299 -0.1020  0.3496 -1.3851
 4870TIP3    H214554   1.048   5.732   4.282  0.2847  0.0517  0.1593
 4871TIP3   OH214555   3.592   6.066   2.000 -0.4728  0.1836 -0.0197
 4871TIP3    H114556   3.549   6.023   1.925 -1.0965 -1.0543  1.0000
 4871TIP3    H214557   3.547   6.149   2.009  0.1350  0.7199 -1.4791
 4872TIP3   OH214558   1.286   2.805   0.346 -0.0337  0.1780 -0.1705
 4872TIP3    H114559   1.231   2.805   0.424 -0.2338  2.6640 -0.2126
 4872TIP3    H214560   1.263   2.886   0.301  1.8972  0.0789 -1.4754
 4873TIP3   OH214561   3.283   1.076   2.068  0.0863  0.0387  0.2313
 4873TIP3    H114562   3.292   1.147   2.131  0.6651  0.6673 -0.5404
 4873TIP3    H214563   3.342   1.007   2.101 -0.8610 -0.3142  1.2577
 4874TIP3   OH214564   0.174   1.802   2.533  0.3655 -0.5010 -0.2947
 4874TIP3    H114565   0.125   1.780   2.612 -0.6611 -0.0188 -0.7860
 4874TIP3    H214566   0.248   1.853   2.564 -0.2742  0.0664  0.3208
 4875TIP3   OH214567   5.647   0.987   2.484 -0.2259 -0.0966  0.1892
 4875TIP3    H114568   5.721   1.001   2.425 -0.8008  2.1192 -0.1001
 4875TIP3    H214569   5.641   1.068   2.535 -2.0291 -0.4945  0.6828
 4876TIP3   OH214570   1.878   2.363   4.037  0.1866  0.0975 -0.2075
 4876TIP3    H114571   1.865   2.457   4.020 -1.6183 -0.0363  0.2290
 4876TIP3    H214572   1.971   2.348   4.019  0.5397  1.9881 -0.1856
 4877TIP3   OH214573   0.638   6.105   0.996 -0.0910  0.3130 -0.1618
 4877TIP3    H114574   0.551   6.080   0.965 -0.6359  0.2333  1.3537
 4877TIP3    H214575   0.662   6.035   1.058  1.5870 -0.3146 -1.4369
 4878TIP3   OH214576   3.703   0.362   0.116 -0.1522  0.1055 -0.3847
 4878TIP3    H114577   3.749   0.278   0.117  1.0145  0.7149 -0.9397
 4878TIP3    H214578   3.746   0.413   0.185  0.9784  1.1633 -1.8117
 4879TIP3   OH214579   2.336   2.041   5.810  0.2763  0.1919 -0.4802
 4879TIP3    H114580   2.286   1.982   5.754 -0.0049  0.4691 -0.5257
 4879TIP3    H214581   2.385   1.983   5.868  0.1923 -0.0887 -0.6866
 4880TIP3   OH214582   1.871   3.277   0.288  0.8302  0.5784  1.0255
 4880TIP3    H114583   1.928   3.229   0.228 -0.6808 -0.2864  0.2285
 4880TIP3    H214584   1.836   3.349   0.235 -1.9364 -1.2319  0.2097
 4881TIP3   OH214585   4.251   4.901   1.077  0.3694  0.6120 -0.3942
 4881TIP3    H114586   4.305   4.964   1.126  1.3512  0.6484 -1.4814
 4881TIP3    H214587   4.208   4.953   1.009  0.3212  0.2921 -0.6104
 4882TIP3   OH214588   4.326   0.122   5.805 -0.7486  0.0806 -0.4778
 4882TIP3    H114589   4.303   0.152   5.893  0.8458  1.6911 -0.5644
 4882TIP3    H214590   4.296   0.032   5.802 -1.6148  0.2644  1.4151
 4883TIP3   OH214591   1.901   7.419   3.132  0.4896  0.2575 -0.3596
 4883TIP3    H114592   1.819   7.468   3.144  0.6386  0.8231 -1.5216
 4883TIP3    H214593   1.874   7.338   3.090  0.4245  0.0318  0.1126
 4884TIP3   OH214594   3.071   2.295   5.651  0.5522 -0.6528  0.0445
 4884TIP3    H114595   3.076   2.239   5.573  0.5107  0.3272 -0.6863
 4884TIP3    H214596   3.154   2.343   5.652 -0.9425  2.2912 -1.7435
 4885TIP3   OH214597   5.617   0.518   6.731 -0.2659 -0.1564 -0.2090
 4885TIP3    H114598   5.708   0.511   6.704 -0.0911  1.6725 -0.2443
 4885TIP3    H214599   5.600   0.439   6.782  1.9460  0.3566  1.4894
 4886TIP3   OH214600   5.932   7.151   2.152  0.5963 -0.5755  0.0930
 4886TIP3    H114601   5.990   7.225   2.140  1.1272 -0.6846  1.7834
 4886TIP3    H214602   5.882   7.171   2.231 -0.5134 -1.2258 -0.4136
 4887TIP3   OH214603   3.347   5.063   0.512  0.2185  0.0530  0.2430
 4887TIP3    H114604   3.371   5.000   0.444 -0.4950 -0.3815  0.3835
 4887TIP3    H214605   3.298   5.011   0.576  0.0695  0.6511  0.6164
 4888TIP3   OH214606   2.237   4.201   4.553  0.3176  0.1499 -0.2432
 4888TIP3    H114607   2.207   4.169   4.468  0.2341  0.2113 -0.2367
 4888TIP3    H214608   2.248   4.295   4.542  0.5159  0.1280 -0.2479
 4889TIP3   OH214609   2.107   2.212   3.456  0.6006 -0.3119  0.0476
 4889TIP3    H114610   2.109   2.265   3.376 -0.2247  0.2331  0.3747
 4889TIP3    H214611   2.021   2.170   3.454  0.9336 -1.0253  0.1982
 4890TIP3   OH214612   7.734   1.807   3.484  0.2284 -0.6602  0.0443
 4890TIP3    H114613   7.723   1.870   3.413 -2.3992 -0.3286  0.6364
 4890TIP3    H214614   7.828   1.804   3.499  0.6986  0.5620 -2.2628
 4891TIP3   OH214615   4.272   1.193   2.209 -0.4917  0.0994  0.2991
 4891TIP3    H114616   4.269   1.288   2.223 -0.4142  0.1724 -0.1615
 4891TIP3    H214617   4.228   1.180   2.125  0.1701 -0.1869 -0.0134
 4892TIP3   OH214618   2.824   4.373   0.680  0.6540 -0.5900  0.2764
 4892TIP3    H114619   2.777   4.290   0.686  1.5737 -1.0423  1.5945
 4892TIP3    H214620   2.795   4.411   0.596 -2.7386 -0.4123  1.3590
 4893TIP3   OH214621   1.112   3.708   1.439 -0.3677  0.3326 -0.7711
 4893TIP3    H114622   1.072   3.637   1.490  1.2947 -0.1774 -0.1121
 4893TIP3    H214623   1.161   3.663   1.370  0.0225  0.8847 -0.8589
 4894TIP3   OH214624   2.285   4.473   6.588  0.1127  0.2064 -0.2718
 4894TIP3    H114625   2.315   4.477   6.679  0.9310  1.3521 -0.5629
 4894TIP3    H214626   2.299   4.382   6.562 -1.2020 -0.4269  1.0767
 4895TIP3   OH214627   0.817   2.109   4.042  0.3803  0.4882 -0.1299
 4895TIP3    H114628   0.763   2.030   4.042 -0.8971  1.3358 -0.3678
 4895TIP3    H214629   0.881   2.095   3.972  0.1533 -0.3151 -0.1841
 4896TIP3   OH214630   6.757   5.641   0.701  0.0206  0.3081  0.4411
 4896TIP3    H114631   6.749   5.659   0.795 -0.7140  0.6973  0.3052
 4896TIP3    H214632   6.672   5.665   0.664 -0.7071 -2.5303  0.0888
 4897TIP3   OH214633   7.047   5.067   0.223  0.3123 -0.1476 -0.3389
 4897TIP3    H114634   7.013   4.982   0.195 -0.5800  0.0700  0.0513
 4897TIP3    H214635   7.057   5.116   0.142  1.0369 -0.6928 -0.5881
 4898TIP3   OH214636   1.187   4.306   0.880 -0.2275 -0.7959  0.1336
 4898TIP3    H114637   1.203   4.311   0.974  0.9010  0.2024 -0.0867
 4898TIP3    H214638   1.181   4.397   0.852 -1.1927 -1.0903 -0.6761
 4899TIP3   OH214639   6.990   5.731   2.561 -0.1623 -0.2057 -0.0127
 4899TIP3    H114640   6.932   5.655   2.566 -0.1120 -0.1755  2.9241
 4899TIP3    H214641   7.077   5.695   2.579 -0.1033  0.4533  1.1369
 4900TIP3   OH214642   0.821   1.445   6.610  0.0150  0.1618 -0.3180
 4900TIP3    H114643   0.733   1.481   6.617  0.7192  1.8735  0.2358
 4900TIP3    H214644   0.868   1.481   6.685  0.7584 -2.0709  0.3695
 4901TIP3   OH214645   7.804   6.540   5.485  0.5054  0.0227 -0.0721
 4901TIP3    H114646   7.866   6.587   5.540 -1.1909  1.3158  0.8442
 4901TIP3    H214647   7.821   6.573   5.397  0.3699  1.2403  0.3366
 4902TIP3   OH214648   7.812   2.040   2.553 -0.4550 -0.2003 -0.0277
 4902TIP3    H114649   7.719   2.021   2.550 -0.5404  0.0748  0.8087
 4902TIP3    H214650   7.817   2.136   2.556 -0.1749 -0.2396  0.8521
 4903TIP3   OH214651   3.063   3.036   6.727 -0.2394 -0.0380 -0.6144
 4903TIP3    H114652   3.047   2.949   6.763 -2.8418 -0.0325 -1.5650
 4903TIP3    H214653   3.153   3.031   6.694 -0.1797 -2.2366 -0.3224
 4904TIP3   OH214654   2.507   5.840   4.167  0.3549 -0.6506  0.2790
 4904TIP3    H114655   2.544   5.916   4.211  2.6123 -1.1098 -0.6601
 4904TIP3    H214656   2.497   5.774   4.236  2.1209 -0.7603  0.4819
 4905TIP3   OH214657   7.628   1.226   5.033  0.1086 -0.0028 -0.0024
 4905TIP3    H114658   7.667   1.151   5.076 -0.2497  0.2170  0.7153
 4905TIP3    H214659   7.702   1.281   5.007  0.2953  1.6818  3.5937
 4906TIP3   OH214660   3.501   0.770   2.932 -0.4861 -0.4652 -0.5136
 4906TIP3    H114661   3.474   0.679   2.941  1.3959 -1.0259 -0.0732
 4906TIP3    H214662   3.463   0.814   3.008 -0.7405 -1.0620 -0.2881
 4907TIP3   OH214663   1.954   0.725   3.874  0.0578 -0.6846  0.3432
 4907TIP3    H114664   2.041   0.707   3.909  0.3591  1.3024  0.7102
 4907TIP3    H214665   1.962   0.810   3.830 -1.6565 -0.5233  0.2530
 4908TIP3   OH214666   4.698   5.307   3.555 -0.2557  0.0162  0.5740
 4908TIP3    H114667   4.789   5.310   3.585 -0.5586 -0.9271  1.6697
 4908TIP3    H214668   4.688   5.218   3.520  0.2720  1.2184 -3.1182
 4909TIP3   OH214669   3.912   3.164   5.124  0.0241  0.0077  0.4041
 4909TIP3    H114670   3.880   3.233   5.066 -0.3118 -1.3963 -1.1722
 4909TIP3    H214671   3.912   3.203   5.211 -0.3435  1.9104 -0.4055
 4910TIP3   OH214672   4.830   3.542   0.493 -0.4354 -0.5999 -0.1548
 4910TIP3    H114673   4.862   3.580   0.575  1.0366 -0.8744 -0.5722
 4910TIP3    H214674   4.776   3.468   0.521 -0.3413 -0.3990  0.5864
 4911TIP3   OH214675   0.727   6.042   5.887 -0.1777 -0.1119 -0.5144
 4911TIP3    H114676   0.703   6.135   5.894  0.8353  0.0945  0.3399
 4911TIP3    H214677   0.644   5.998   5.866 -0.7235  0.9398 -0.6456
 4912TIP3   OH214678   0.448   2.731   3.109 -0.4929  0.5714  0.2572
 4912TIP3    H114679   0.367   2.680   3.118 -0.6041  0.9011  1.2278
 4912TIP3    H214680   0.513   2.668   3.078 -1.2959  0.4730 -1.3130
 4913TIP3   OH214681   4.009   6.698   5.347 -0.2039  0.1085 -0.2091
 4913TIP3    H114682   4.014   6.662   5.258  3.1407 -0.9227  0.2383
 4913TIP3    H214683   4.007   6.621   5.404  2.4281  0.5291  0.6280
 4914TIP3   OH214684   7.627   3.384   4.973 -0.3088  0.1502  0.3440
 4914TIP3    H114685   7.636   3.291   4.950 -0.4750  0.3880 -0.7437
 4914TIP3    H214686   7.677   3.393   5.055 -0.5530 -0.9533  0.6358
 4915TIP3   OH214687   5.393   5.512   4.301 -0.2690 -0.0347 -0.3132
 4915TIP3    H114688   5.363   5.423   4.321  0.4058 -0.3030 -0.4639
 4915TIP3    H214689   5.368   5.563   4.377  1.2250 -0.7985  0.7472
 4916TIP3   OH214690   6.017   3.730   2.213  0.5795 -0.0073  0.7709
 4916TIP3    H114691   6.039   3.658   2.273  0.4162 -0.2141  0.5852
 4916TIP3    H214692   5.979   3.686   2.137 -1.1819  0.3773  1.3866
 4917TIP3   OH214693   4.087   2.782   3.934 -0.6077  0.0762  0.3492
 4917TIP3    H114694   4.134   2.792   3.851 -0.3311  0.2492  0.5239
 4917TIP3    H214695   4.153   2.799   4.001 -0.1972 -2.5256  0.6875
 4918TIP3   OH214696   5.765   6.435   1.039  0.4595  0.2032 -0.0036
 4918TIP3    H114697   5.720   6.373   0.982 -0.5660  0.0372  0.9461
 4918TIP3    H214698   5.763   6.394   1.125  0.4078  1.2285  0.5019
 4919TIP3   OH214699   0.116   5.869   3.864  0.3549 -0.2100  0.1491
 4919TIP3    H114700   0.184   5.806   3.885  0.6328  0.4235  1.2077
 4919TIP3    H214701   0.060   5.823   3.801  1.9061 -0.6373 -1.0033
 4920TIP3   OH214702   3.333   6.865   3.700 -0.3270 -0.1710 -0.1735
 4920TIP3    H114703   3.298   6.776   3.699  2.6253 -1.4229  0.1537
 4920TIP3    H214704   3.420   6.858   3.661  0.9807  2.1213  2.0350
 4921TIP3   OH214705   4.026   3.596   5.283 -0.0804 -0.5965 -0.6085
 4921TIP3    H114706   4.110   3.633   5.256  0.2345 -0.1741  0.8445
 4921TIP3    H214707   3.964   3.668   5.273  0.4403  0.2756  1.7437
 4922TIP3   OH214708   3.024   4.822   6.096 -0.0395 -0.1175  0.4352
 4922TIP3    H114709   2.974   4.899   6.123  0.3095 -0.6856  2.9926
 4922TIP3    H214710   2.964   4.749   6.108  0.3519 -0.4672  0.2639
 4923TIP3   OH214711   4.305   2.551   1.847 -0.4220 -0.0302  0.5009
 4923TIP3    H114712   4.231   2.494   1.867 -1.1873  1.3506  1.8063
 4923TIP3    H214713   4.319   2.540   1.753 -0.1133 -2.8089  0.7915
 4924TIP3   OH214714   3.682   2.409   3.215  0.6223 -0.1517  0.3105
 4924TIP3    H114715   3.610   2.453   3.259  0.4323  0.6692 -0.7665
 4924TIP3    H214716   3.746   2.479   3.200  0.5698 -0.3485 -0.9195
 4925TIP3   OH214717   6.725   2.697   5.111  0.4821  0.4694  0.0456
 4925TIP3    H114718   6.635   2.730   5.108  0.7568  1.1715 -1.0959
 4925TIP3    H214719   6.715   2.602   5.118 -0.4015  0.3502 -2.0727
 4926TIP3   OH214720   0.117   6.684   3.644  0.2953  0.4341 -0.1951
 4926TIP3    H114721   0.100   6.652   3.732  3.4285  0.4553  0.5109
 4926TIP3    H214722   0.093   6.612   3.587 -1.5098  0.3197  0.6402
 4927TIP3   OH214723   4.062   2.529   6.703  0.0455 -0.1787 -0.5097
 4927TIP3    H114724   3.981   2.577   6.714  0.7194  1.1128 -0.9968
 4927TIP3    H214725   4.053   2.485   6.618 -0.4757 -0.7334 -0.1712
 4928TIP3   OH214726   0.157   2.698   1.358 -0.0514 -0.4594  0.1886
 4928TIP3    H114727   0.104   2.688   1.279 -2.4321 -0.7042  1.7114
 4928TIP3    H214728   0.245   2.670   1.331 -1.5190 -4.3167 -1.4632
 4929TIP3   OH214729   0.819   2.039   1.669 -0.5341 -0.4387  0.2049
 4929TIP3    H114730   0.904   2.003   1.694 -0.5317 -0.5422  0.0474
 4929TIP3    H214731   0.762   2.021   1.743  0.3283  2.3530  1.7274
 4930TIP3   OH214732   3.121   1.603   2.715  0.2171 -0.0321 -0.4252
 4930TIP3    H114733   3.108   1.697   2.706  0.7431 -0.0990 -2.4169
 4930TIP3    H214734   3.091   1.582   2.803  1.1339  2.1735  0.4768
 4931TIP3   OH214735   4.000   5.644   1.658 -0.0419  0.0343  0.3186
 4931TIP3    H114736   3.955   5.560   1.654 -0.2835  0.0555  1.7958
 4931TIP3    H214737   3.929   5.709   1.657  0.1284  0.2174 -0.4993
 4932TIP3   OH214738   0.950   6.866   6.664  0.1409 -0.6584 -0.1298
 4932TIP3    H114739   0.961   6.886   6.571 -0.0425 -0.5228 -0.1231
 4932TIP3    H214740   1.016   6.919   6.708 -0.7868  0.4825 -0.0537
 4933TIP3   OH214741   3.949   1.234   1.860 -0.0420  0.7666  0.6614
 4933TIP3    H114742   3.988   1.295   1.923  1.1851 -0.0955  0.7813
 4933TIP3    H214743   3.868   1.277   1.833 -1.7626  0.3060  4.3574
 4934TIP3   OH214744   5.153   1.049   5.757  0.3322 -0.3600 -0.2039
 4934TIP3    H114745   5.137   0.999   5.677  0.2849 -2.3391  0.9856
 4934TIP3    H214746   5.073   1.038   5.809  0.4549  0.6985  0.2492
 4935TIP3   OH214747   4.240   1.407   4.415  0.2938 -0.2412 -0.0953
 4935TIP3    H114748   4.190   1.466   4.359  1.3607  1.0436  0.2455
 4935TIP3    H214749   4.294   1.465   4.469  0.3430 -1.4944  1.2705
 4936TIP3   OH214750   2.416   3.029   6.214 -0.7113  0.1361  0.0881
 4936TIP3    H114751   2.468   2.963   6.168  1.1015  1.8699 -0.5376
 4936TIP3    H214752   2.412   3.103   6.152 -3.4499  0.3234  0.3798
 4937TIP3   OH214753   0.382   7.333   4.925  0.0811 -0.1766 -0.3036
 4937TIP3    H114754   0.411   7.377   4.845 -0.1694  1.7560  0.6227
 4937TIP3    H214755   0.440   7.366   4.994 -0.3182 -1.0794  0.4982
 4938TIP3   OH214756   3.035   7.473   3.111  0.2371 -0.1725 -0.1129
 4938TIP3    H114757   3.098   7.539   3.081  0.6235 -0.7824 -0.6699
 4938TIP3    H214758   3.090   7.399   3.137 -0.1968 -0.2998  0.4585
 4939TIP3   OH214759   6.079   7.404   3.311  0.1688 -0.4761  0.8273
 4939TIP3    H114760   5.991   7.405   3.348  0.4025 -0.9037  1.4172
 4939TIP3    H214761   6.095   7.312   3.289  0.7658 -0.5371  1.4818
 4940TIP3   OH214762   3.958   7.065   1.751 -0.0295  0.0131  0.6380
 4940TIP3    H114763   4.001   7.015   1.820  1.2255  0.9535  0.5854
 4940TIP3    H214764   4.024   7.129   1.724 -1.1806  0.9420 -0.0715
 4941TIP3   OH214765   1.774   0.674   6.556  0.6660  0.1214 -0.3313
 4941TIP3    H114766   1.743   0.764   6.545 -0.3504 -0.3336 -1.3633
 4941TIP3    H214767   1.770   0.659   6.650 -1.9016  0.2433 -0.3550
 4942TIP3   OH214768   6.345   0.548   3.762 -0.1002 -0.4285 -0.3836
 4942TIP3    H114769   6.411   0.482   3.781  1.2824  1.2425  0.8672
 4942TIP3    H214770   6.372   0.586   3.678 -0.3417 -0.7393 -0.6085
 4943TIP3   OH214771   4.815   5.310   1.675  0.0773  0.5864  0.3740
 4943TIP3    H114772   4.885   5.364   1.713 -0.7715  2.6158 -0.7791
 4943TIP3    H214773   4.783   5.258   1.748  1.4957  1.0465  1.3740
 4944TIP3   OH214774   3.192   6.317   1.502  0.3208  0.6747  0.4085
 4944TIP3    H114775   3.223   6.375   1.433 -0.8236  0.8599  0.0342
 4944TIP3    H214776   3.107   6.286   1.471  0.6060 -0.6708  0.9121
 4945TIP3   OH214777   2.753   4.151   5.928 -0.3571 -0.0394 -0.3067
 4945TIP3    H114778   2.736   4.128   5.837 -0.0691 -0.0093 -0.3684
 4945TIP3    H214779   2.831   4.101   5.951  1.3877  2.2255 -0.9904
 4946TIP3   OH214780   3.562   3.944   0.995 -0.2766 -0.2691 -0.3949
 4946TIP3    H114781   3.484   3.997   1.012  0.5208  0.5812  0.7184
 4946TIP3    H214782   3.620   4.002   0.946 -0.6355 -1.1603 -1.9319
 4947TIP3   OH214783   1.692   6.936   4.845  0.4892  0.1419 -0.4730
 4947TIP3    H114784   1.745   6.860   4.869 -0.9463 -0.2225  1.8144
 4947TIP3    H214785   1.645   6.960   4.925 -4.7366 -1.0822 -2.7589
 4948TIP3   OH214786   1.805   2.453   1.145 -0.2984 -0.6179 -0.1247
 4948TIP3    H114787   1.874   2.418   1.089  0.1785  1.8095 -1.2097
 4948TIP3    H214788   1.757   2.514   1.088 -1.6969 -0.2979  1.3221
 4949TIP3   OH214789   0.112   1.978   0.424 -0.0445 -0.6670  0.8201
 4949TIP3    H114790   0.070   2.050   0.376 -0.6218  0.3646  2.7629
 4949TIP3    H214791   0.199   2.011   0.445 -0.0940 -0.7606  1.1805
 4950TIP3   OH214792   4.998   5.416   0.980 -0.1924  0.4430 -0.6267
 4950TIP3    H114793   4.941   5.480   0.938  0.6574  1.4354 -0.3193
 4950TIP3    H214794   5.057   5.387   0.911  0.2273  0.9331 -0.4750
 4951TIP3   OH214795   1.624   7.041   1.021 -0.1516  0.0414  0.5140
 4951TIP3    H114796   1.565   6.997   0.960  3.5275 -1.1599 -2.5470
 4951TIP3    H214797   1.609   7.135   1.005 -1.5185 -0.2154  0.1625
 4952TIP3   OH214798   0.993   6.321   2.953  0.5376 -0.5121  0.1163
 4952TIP3    H114799   0.960   6.411   2.951  2.0373  0.0602 -0.1335
 4952TIP3    H214800   1.027   6.310   3.041  2.0995 -0.1520 -0.4148
 4953TIP3   OH214801   2.624   0.883   0.328  0.1881  0.3193 -1.0908
 4953TIP3    H114802   2.611   0.791   0.352 -1.4316  0.8617  0.2904
 4953TIP3    H214803   2.634   0.881   0.233 -0.7333 -1.2067 -1.1960
 4954TIP3   OH214804   5.876   3.769   6.128 -0.2428  0.2802 -0.2843
 4954TIP3    H114805   5.808   3.768   6.061 -0.0184 -0.3696 -0.5117
 4954TIP3    H214806   5.864   3.852   6.173 -0.4319  0.6990 -1.0891
 4955TIP3   OH214807   4.580   1.124   1.387  0.3331  0.2346  0.0115
 4955TIP3    H114808   4.515   1.064   1.350 -0.6350  0.9920  0.4326
 4955TIP3    H214809   4.618   1.168   1.310 -0.9652  1.0929 -0.1620
 4956TIP3   OH214810   8.304   3.151   3.663 -0.2170 -0.3127 -0.5280
 4956TIP3    H114811   8.214   3.120   3.661  0.4449 -2.3528 -2.6390
 4956TIP3    H214812   8.309   3.216   3.593  0.0354 -0.5077 -0.6944
 4957TIP3   OH214813   6.948   3.641   0.800 -0.2275 -0.2140 -0.0658
 4957TIP3    H114814   6.953   3.629   0.895  0.0041 -0.5316 -0.1142
 4957TIP3    H214815   7.029   3.688   0.778  0.9964 -2.3569 -0.4184
 4958TIP3   OH214816   7.522   7.392   4.272  0.1840 -0.0861  0.1682
 4958TIP3    H114817   7.465   7.337   4.326  0.2420 -0.6335 -0.3106
 4958TIP3    H214818   7.518   7.352   4.185  0.3302  0.6006 -0.1628
 4959TIP3   OH214819   8.004   6.209   0.356 -0.6162  0.0959  0.0941
 4959TIP3    H114820   7.965   6.180   0.273 -1.5098  2.5204 -0.4329
 4959TIP3    H214821   8.093   6.174   0.354 -1.1911 -1.4322 -1.0148
 4960TIP3   OH214822   3.452   6.415   4.476 -0.1959  0.2117 -0.1962
 4960TIP3    H114823   3.384   6.351   4.454 -0.3135  0.3948 -0.3604
 4960TIP3    H214824   3.527   6.389   4.423 -0.5258  0.7448 -0.9411
 4961TIP3   OH214825   7.633   1.820   2.859  0.2265  0.1383 -0.6024
 4961TIP3    H114826   7.661   1.734   2.889  1.4983  0.7290  0.0146
 4961TIP3    H214827   7.541   1.809   2.836  0.6963 -1.6717 -1.7646
 4962TIP3   OH214828   0.531   5.605   0.844 -0.2643 -0.2042  0.9169
 4962TIP3    H114829   0.498   5.694   0.858 -0.2540  0.5726 -2.7700
 4962TIP3    H214830   0.626   5.614   0.842 -0.2702 -0.1847  0.2557
 4963TIP3   OH214831   1.267   0.953   0.228 -0.1648 -0.1934  1.2822
 4963TIP3    H114832   1.334   0.969   0.162  0.5577 -0.5575  1.9054
 4963TIP3    H214833   1.226   0.871   0.202 -1.0621  0.5402  0.3470
 4964TIP3   OH214834   6.005   0.980   0.128  0.3636  0.0170  1.0224
 4964TIP3    H114835   5.971   0.988   0.038  0.6762  0.4759  0.9388
 4964TIP3    H214836   5.970   0.897   0.160  0.2170 -0.1321  0.4859
 4965TIP3   OH214837   3.666   1.600   0.025  0.1526 -0.0617 -0.0228
 4965TIP3    H114838   3.672   1.585   0.120  1.7826 -0.8646 -0.2224
 4965TIP3    H214839   3.575   1.583   0.004  0.1987 -1.9213  1.0805
 4966TIP3   OH214840   1.797   4.898   5.984 -0.2576 -0.2266 -0.2144
 4966TIP3    H114841   1.873   4.950   6.013 -0.3080  0.2521 -0.9130
 4966TIP3    H214842   1.835   4.815   5.956  0.1681  0.3819 -1.5501
 4967TIP3   OH214843   5.583   5.823   0.514 -0.1901  0.3855 -0.1683
 4967TIP3    H114844   5.580   5.881   0.590  1.3826 -1.0836  1.0765
 4967TIP3    H214845   5.666   5.845   0.471  1.2761 -1.9238  1.2418
 4968TIP3   OH214846   4.539   7.275   1.363  0.3173 -0.5170  0.1808
 4968TIP3    H114847   4.500   7.352   1.322  0.4724  0.2214  1.3851
 4968TIP3    H214848   4.465   7.230   1.403  0.3941 -0.3625  0.4925
 4969TIP3   OH214849   2.140   3.099   2.755 -0.6243 -0.2566 -0.1972
 4969TIP3    H114850   2.151   3.176   2.811  1.8733  0.0606 -0.9977
 4969TIP3    H214851   2.109   3.030   2.813  0.5731  0.4215  1.2884
 4970TIP3   OH214852   3.690   0.151   4.344  0.1531  0.1523  0.6725
 4970TIP3    H114853   3.757   0.108   4.290 -0.7961 -1.7353  0.9068
 4970TIP3    H214854   3.610   0.102   4.325 -1.2319  2.4364  0.2831
 4971TIP3   OH214855   2.588   0.059   3.800 -0.3765  0.0632  0.4262
 4971TIP3    H114856   2.542   0.130   3.755 -0.7510  0.4362  1.3852
 4971TIP3    H214857   2.577  -0.017   3.742 -0.9855  0.4941 -0.0315
 4972TIP3   OH214858   5.951   1.739   2.727 -0.3256  0.4034 -0.1154
 4972TIP3    H114859   5.967   1.822   2.771 -0.4739  1.1209 -1.3747
 4972TIP3    H214860   5.904   1.762   2.647  0.4315 -0.7892 -0.9512
 4973TIP3   OH214861   5.617   6.105   2.417  0.2117 -0.2730  0.5352
 4973TIP3    H114862   5.525   6.130   2.422 -0.0375 -0.4241 -2.1489
 4973TIP3    H214863   5.615   6.011   2.400  0.8581 -0.1782 -0.0743
 4974TIP3   OH214864   1.298   0.587   3.967 -0.1604 -0.2800 -0.4464
 4974TIP3    H114865   1.360   0.656   3.989 -1.0154  0.6534 -0.8743
 4974TIP3    H214866   1.351   0.522   3.921  0.4790  0.5836 -0.9834
 4975TIP3   OH214867   1.795   5.824   5.785  0.5395 -0.1677  0.3847
 4975TIP3    H114868   1.813   5.779   5.868 -1.6523 -1.5184  0.2060
 4975TIP3    H214869   1.717   5.780   5.750  0.3616  1.5231 -1.5415
 4976TIP3   OH214870   6.079   3.588   0.996 -0.1597 -0.3490 -0.2026
 4976TIP3    H114871   6.085   3.641   0.916  0.8556  1.6328  1.0837
 4976TIP3    H214872   6.107   3.501   0.970 -1.7611 -0.2797 -2.4082
 4977TIP3   OH214873   6.656   1.591   1.216 -0.0713 -0.3517 -0.1380
 4977TIP3    H114874   6.684   1.607   1.125  1.2684 -0.3599  0.2524
 4977TIP3    H214875   6.588   1.525   1.209 -0.9884  0.6695 -1.2545
 4978TIP3   OH214876   3.155   2.078   1.559  0.1004  0.1305 -0.4525
 4978TIP3    H114877   3.073   2.031   1.577  1.3594 -2.0415 -0.0670
 4978TIP3    H214878   3.174   2.057   1.467 -0.0486  1.1304 -0.7267
 4979TIP3   OH214879   3.668   1.247   3.976  0.5981  0.2060  0.0766
 4979TIP3    H114880   3.582   1.275   3.943  0.6110  0.6467  0.4229
 4979TIP3    H214881   3.724   1.324   3.967  0.0122  1.1642  3.3555
 4980TIP3   OH214882   0.475   5.962   5.552  0.1007 -0.4368  0.0524
 4980TIP3    H114883   0.543   6.022   5.520 -2.2899  2.3815 -0.1213
 4980TIP3    H214884   0.475   5.975   5.647  0.0025 -0.6655  0.0838
 4981TIP3   OH214885   1.431   5.506   5.972  0.2581 -0.2642  0.0353
 4981TIP3    H114886   1.354   5.454   5.948 -0.8594  1.9395 -1.6183
 4981TIP3    H214887   1.411   5.539   6.060 -0.5791  0.0260 -0.2474
 4982TIP3   OH214888   1.102   2.771   4.273  0.3466  0.1950 -0.7059
 4982TIP3    H114889   1.033   2.722   4.229 -2.7132  2.8573  0.6518
 4982TIP3    H214890   1.096   2.743   4.365  1.8635 -0.3108 -0.7410
 4983TIP3   OH214891   4.464   0.108   0.562 -0.2417 -0.2048  0.0374
 4983TIP3    H114892   4.481   0.019   0.593 -0.4666  0.4505  2.1689
 4983TIP3    H214893   4.416   0.096   0.480 -2.5763 -2.1052  1.5662
 4984TIP3   OH214894   0.714   2.814   4.834 -1.1038  0.1018  0.0436
 4984TIP3    H114895   0.703   2.773   4.920  0.0532 -0.8326 -0.2210
 4984TIP3    H214896   0.784   2.763   4.793  0.7313  2.6030 -0.1598
 4985TIP3   OH214897   1.642   3.728   1.495  0.2930  0.3180  0.3171
 4985TIP3    H114898   1.618   3.802   1.440 -2.7662 -0.0205  1.0588
 4985TIP3    H214899   1.603   3.652   1.452  1.1344 -0.5073  0.9618
 4986TIP3   OH214900   3.582   5.665   3.461 -0.1629 -0.0568 -0.0834
 4986TIP3    H114901   3.557   5.755   3.440  2.5180  0.5657 -1.0243
 4986TIP3    H214902   3.604   5.667   3.554  1.2440  0.6594 -0.4068
 4987TIP3   OH214903   4.323   0.951   1.713 -0.5479  0.1178 -0.5740
 4987TIP3    H114904   4.308   0.865   1.752  1.0896 -0.0872 -0.3332
 4987TIP3    H214905   4.249   1.004   1.743 -1.4533 -1.1156 -0.5279
 4988TIP3   OH214906   1.757   5.200   2.294  0.0507  0.3738  0.2033
 4988TIP3    H114907   1.749   5.150   2.213  1.6349  2.0863 -1.0792
 4988TIP3    H214908   1.851   5.212   2.306 -0.2022  1.2833  1.5889
 4989TIP3   OH214909   4.267   6.936   2.593  0.0748  0.5881 -0.0152
 4989TIP3    H114910   4.258   6.841   2.598 -0.9810  0.7323  1.9796
 4989TIP3    H214911   4.296   6.962   2.680 -1.1945  2.2058 -0.0251
 4990TIP3   OH214912   7.987   2.397   2.986 -0.2584  0.2920  0.0800
 4990TIP3    H114913   7.980   2.492   2.977 -0.0549  0.3735  0.7730
 4990TIP3    H214914   7.931   2.363   2.916  0.2482  0.9093 -0.6469
 4991TIP3   OH214915   7.438   3.311   2.440  0.0463  0.1404  0.4162
 4991TIP3    H114916   7.478   3.315   2.528 -1.4750  2.4499  1.1214
 4991TIP3    H214917   7.372   3.380   2.442 -0.8641 -0.5656 -2.1916
 4992TIP3   OH214918   5.887   4.500   0.897  0.3844 -0.3244  0.1248
 4992TIP3    H114919   5.964   4.552   0.923  0.8250 -0.8347 -0.1309
 4992TIP3    H214920   5.868   4.445   0.972  1.0956 -1.1478 -0.2853
 4993TIP3   OH214921   1.547   0.068   0.707 -0.0695 -0.1906  0.0593
 4993TIP3    H114922   1.619   0.020   0.668 -0.2353  0.1852 -0.7220
 4993TIP3    H214923   1.578   0.091   0.794 -0.1913 -2.1803  0.6838
 4994TIP3   OH214924   1.690   4.951   3.232  0.2450  1.1657 -0.2194
 4994TIP3    H114925   1.670   4.977   3.142 -0.1573  3.1852  0.3857
 4994TIP3    H214926   1.786   4.956   3.238  0.4781 -1.2664 -1.1239
 4995TIP3   OH214927   0.832   1.621   5.497 -0.9097  0.1556  0.5093
 4995TIP3    H114928   0.814   1.628   5.403  0.0733 -1.0102  0.1969
 4995TIP3    H214929   0.755   1.578   5.533 -1.2053  0.4217  0.2034
 4996TIP3   OH214930   2.382   2.766   4.725 -0.0881 -0.2561  0.0303
 4996TIP3    H114931   2.425   2.820   4.791 -3.0809 -1.8884  3.7072
 4996TIP3    H214932   2.298   2.810   4.709 -0.9354 -1.7509  0.1702
 4997TIP3   OH214933   7.646   1.082   4.663  0.0115  0.3625  0.4630
 4997TIP3    H114934   7.737   1.074   4.692 -0.5217 -0.6233  1.9925
 4997TIP3    H214935   7.613   1.159   4.710 -0.9886 -1.5095  3.0189
 4998TIP3   OH214936   1.652   2.006   5.339 -0.0231 -0.4340 -0.0078
 4998TIP3    H114937   1.670   1.926   5.290  1.4334 -0.0266 -0.1704
 4998TIP3    H214938   1.575   1.984   5.392  0.6542 -2.1069  0.3474
 4999TIP3   OH214939   1.559   7.106   3.723 -0.4437  0.2132  0.6934
 4999TIP3    H114940   1.614   7.145   3.791  0.8066  0.4125 -0.3911
 4999TIP3    H214941   1.566   7.012   3.737  0.0622  0.2435  0.6495
 5000TIP3   OH214942   6.018   7.048   6.233 -0.9172 -0.2443  0.3687
 5000TIP3    H114943   5.942   7.056   6.174 -1.0085 -0.0944  0.5055
 5000TIP3    H214944   6.084   7.002   6.180 -1.1594 -0.5224  0.2999
 5001TIP3   OH214945   2.733   5.935   2.667  0.2090  0.1143  0.1343
 5001TIP3    H114946   2.668   5.921   2.599  1.4303 -1.7413 -0.7480
 5001TIP3    H214947   2.683   5.967   2.742 -1.4844  0.1010 -0.9358
 5002TIP3   OH214948   8.033   1.203   1.181  0.4451  0.6851  0.3388
 5002TIP3    H114949   8.003   1.287   1.148  0.5570  0.5064 -0.2357
 5002TIP3    H214950   8.060   1.155   1.102  0.4814  0.1560  0.6691
 5003TIP3   OH214951   7.911   7.444   6.676  0.1830 -0.3994 -0.0959
 5003TIP3    H114952   7.883   7.535   6.688 -1.4999 -0.6803 -1.4541
 5003TIP3    H214953   7.946   7.442   6.587 -0.1563 -1.1492 -0.2173
 5004TIP3   OH214954   1.753   1.298   3.975  0.1867  0.3209  0.0166
 5004TIP3    H114955   1.721   1.209   3.957  0.0447  0.6019 -1.2153
 5004TIP3    H214956   1.841   1.299   3.937  0.2175  0.6936  0.0944
 5005TIP3   OH214957   3.073   6.851   3.551  0.4925  0.2678  0.2627
 5005TIP3    H114958   3.063   6.924   3.613 -0.7660 -0.2016  0.6427
 5005TIP3    H214959   3.042   6.774   3.599  0.2246 -0.2405 -0.7003
 5006TIP3   OH214960   7.359   3.041   0.488  0.4153  0.2118 -0.2981
 5006TIP3    H114961   7.291   2.974   0.497  1.3617 -0.8049 -0.4801
 5006TIP3    H214962   7.312   3.124   0.496 -0.6297 -0.4699  1.0111
 5007TIP3   OH214963   0.451   6.497   4.870 -0.2369  0.6690 -0.1049
 5007TIP3    H114964   0.372   6.551   4.867  0.5117  1.8017 -0.2281
 5007TIP3    H214965   0.508   6.542   4.932  1.4230  1.5154 -2.1212
 5008TIP3   OH214966   6.851   4.797   1.302 -0.3741  0.1538 -0.0161
 5008TIP3    H114967   6.822   4.706   1.301 -0.2875  0.0936  1.2787
 5008TIP3    H214968   6.789   4.843   1.246 -1.0894 -0.5083  0.2180
 5009TIP3   OH214969   3.626   0.174   4.947  0.1136  0.2024 -0.7212
 5009TIP3    H114970   3.595   0.084   4.940  1.2113 -0.4242  1.3677
 5009TIP3    H214971   3.549   0.228   4.931 -0.9324 -1.1609 -0.4664
 5010TIP3   OH214972   6.995   3.147   1.805 -0.3594  0.0334  0.3043
 5010TIP3    H114973   7.010   3.207   1.877 -0.2301 -0.1422  0.4230
 5010TIP3    H214974   6.900   3.146   1.794 -0.4446 -0.6150  1.0457
 5011TIP3   OH214975   2.019   6.495   5.911 -0.5388  0.5248  0.3958
 5011TIP3    H114976   2.092   6.432   5.914 -0.6629  0.4294  1.6132
 5011TIP3    H214977   1.953   6.451   5.857  0.6607  1.0409 -1.6284
 5012TIP3   OH214978   7.658   6.579   0.734  0.0411  0.5282  0.4365
 5012TIP3    H114979   7.634   6.488   0.714 -0.5785  0.7340  0.1966
 5012TIP3    H214980   7.697   6.612   0.654  0.0838  0.5312  0.4588
 5013TIP3   OH214981   7.000   6.538   4.524 -0.0646 -0.2587  0.4385
 5013TIP3    H114982   7.054   6.461   4.538 -0.3178 -0.4088  0.5889
 5013TIP3    H214983   6.960   6.556   4.609 -2.3333 -1.7155 -0.2333
 5014TIP3   OH214984   0.098   4.010   4.906  0.1401  0.0191  0.0147
 5014TIP3    H114985   0.047   4.071   4.959  2.2436  1.0683  0.9561
 5014TIP3    H214986   0.055   3.926   4.919 -1.1502  0.7792  0.9908
 5015TIP3   OH214987   3.695   3.436   5.557  0.0890  0.3790 -0.3026
 5015TIP3    H114988   3.685   3.420   5.463  1.2747  1.6106 -0.6751
 5015TIP3    H214989   3.734   3.523   5.562  0.1789  0.2728  1.3404
 5016TIP3   OH214990   5.464   7.353   0.024  0.0204 -0.2417  0.9035
 5016TIP3    H114991   5.480   7.387   0.112  2.7647 -1.3841  0.9394
 5016TIP3    H214992   5.479   7.259   0.031 -1.5769 -0.6328 -0.4167
 5017TIP3   OH214993   8.098   2.132   1.800 -0.1520 -0.2379  0.3949
 5017TIP3    H114994   8.127   2.193   1.867 -0.8416 -0.3503  0.8066
 5017TIP3    H214995   8.171   2.126   1.739  0.9077 -0.9248  1.6895
 5018TIP3   OH214996   3.341   7.347   5.377 -0.4262 -0.1917  0.4127
 5018TIP3    H114997   3.350   7.290   5.301 -0.3554  0.6984 -0.2550
 5018TIP3    H214998   3.427   7.390   5.385 -0.8257  0.6715  0.2102
 5019TIP3   OH214999   3.297   4.466   1.342 -0.2775 -0.1091  0.1855
 5019TIP3    H115000   3.228   4.517   1.299 -0.2750  0.6409  1.0367
 5019TIP3    H215001   3.285   4.377   1.309 -2.3799 -0.2448  1.1521
 5020TIP3   OH215002   4.809   7.277   2.990  0.3821 -0.0638 -0.5648
 5020TIP3    H115003   4.781   7.288   2.900 -0.8324 -0.4500 -0.2536
 5020TIP3    H215004   4.856   7.194   2.991  1.3503  0.4673 -1.0467
 5021TIP3   OH215005   2.883   0.639   2.822 -0.0510 -0.1190 -0.6581
 5021TIP3    H115006   2.819   0.572   2.798 -1.7644  1.8608 -1.8580
 5021TIP3    H215007   2.888   0.634   2.917 -0.8540 -1.3092 -0.6563
 5022TIP3   OH215008   2.534   2.353   4.366 -0.0943  0.0552  0.2925
 5022TIP3    H115009   2.536   2.316   4.454 -1.0538  0.9490  0.7185
 5022TIP3    H215010   2.492   2.438   4.377  3.9166  2.3283 -0.2887
 5023TIP3   OH215011   7.604   0.504   0.091  0.0668  0.2281  0.4254
 5023TIP3    H115012   7.661   0.433   0.061 -1.1476 -1.1562  1.2606
 5023TIP3    H215013   7.570   0.542   0.010  1.5139  0.5640 -0.0690
 5024TIP3   OH215014   4.974   0.208   4.021 -0.3275 -0.1517 -0.1979
 5024TIP3    H115015   5.064   0.198   3.991 -0.1798  1.1506 -0.2498
 5024TIP3    H215016   4.924   0.225   3.941 -0.6655 -0.9916 -0.1876
 5025TIP3   OH215017   6.784   1.335   3.298 -0.1544  0.0939  0.6635
 5025TIP3    H115018   6.690   1.338   3.281 -0.1678 -0.8351  0.5307
 5025TIP3    H215019   6.823   1.308   3.216  0.3606  1.6101  0.3733
 5026TIP3   OH215020   4.485   6.952   4.154 -0.0704  0.0295  0.4187
 5026TIP3    H115021   4.453   6.897   4.083 -0.1725  0.2372  0.3034
 5026TIP3    H215022   4.580   6.952   4.144 -0.0345 -0.5266  0.7155
 5027TIP3   OH215023   2.266   4.743   6.090 -0.0771 -0.2891 -0.5544
 5027TIP3    H115024   2.319   4.761   6.168 -0.2959 -3.9630  0.6491
 5027TIP3    H215025   2.328   4.745   6.017  0.5559  1.0683 -0.0132
 5028TIP3   OH215026   2.726   7.017   6.295 -0.2512  0.3275 -0.0133
 5028TIP3    H115027   2.745   7.106   6.263  1.4439  0.1945  0.5008
 5028TIP3    H215028   2.772   6.959   6.234 -3.2796 -0.4242 -1.7718
 5029TIP3   OH215029   7.279   5.003   4.778 -0.0114 -0.1867  0.3283
 5029TIP3    H115030   7.212   5.052   4.826  0.9766  1.7046 -0.1200
 5029TIP3    H215031   7.269   5.033   4.687  1.3632  0.0528  0.2402
 5030TIP3   OH215032   1.797   5.746   2.956 -0.4053 -0.1320 -0.0622
 5030TIP3    H115033   1.859   5.684   2.994 -0.0264  0.0708 -0.3414
 5030TIP3    H215034   1.852   5.808   2.909 -0.8979 -0.5762 -1.2405
 5031TIP3   OH215035   4.951   2.465   3.681  0.0182  0.0325  0.2886
 5031TIP3    H115036   4.944   2.508   3.595 -1.0838  1.1525  0.9132
 5031TIP3    H215037   4.886   2.394   3.677 -0.3252  0.3432  0.3470
 5032TIP3   OH215038   7.682   7.099   2.080  0.2973 -0.2699  0.1390
 5032TIP3    H115039   7.591   7.087   2.106 -0.7093  0.0449 -2.8458
 5032TIP3    H215040   7.688   7.192   2.057  0.7331 -0.7372 -1.7384
 5033TIP3   OH215041   1.961   3.866   3.214 -0.4026 -0.2657  0.2626
 5033TIP3    H115042   2.035   3.810   3.238 -0.6519 -0.8656 -0.3340
 5033TIP3    H215043   1.935   3.907   3.297  1.4608  1.0630  0.2618
 5034TIP3   OH215044   4.495   1.329   3.244 -0.1620  0.1356 -0.3525
 5034TIP3    H115045   4.491   1.355   3.336  1.3124 -1.3519  0.1690
 5034TIP3    H215046   4.424   1.265   3.234  1.6514 -2.2020  0.6775
 5035TIP3   OH215047   4.954   7.589   5.057  0.2408  0.2802  0.2900
 5035TIP3    H115048   5.026   7.624   5.005  1.8436 -0.1615  2.1063
 5035TIP3    H215049   4.896   7.547   4.993  2.3317 -0.6397 -1.1156
 5036TIP3   OH215050   5.568   2.746   3.150  0.0997  0.2976 -0.4113
 5036TIP3    H115051   5.569   2.803   3.072 -0.2485  0.6904 -0.1332
 5036TIP3    H215052   5.521   2.668   3.121  0.1517  0.3545 -0.6565
 5037TIP3   OH215053   6.174   1.782   5.106 -0.3597 -0.0461  0.2442
 5037TIP3    H115054   6.191   1.806   5.015  0.3021 -1.9376 -0.1625
 5037TIP3    H215055   6.260   1.787   5.149 -0.3833 -0.7205  0.3751
 5038TIP3   OH215056   5.406   2.462   2.187  0.2491 -0.1702  0.1503
 5038TIP3    H115057   5.393   2.368   2.185 -1.4136 -0.0208  1.4056
 5038TIP3    H215058   5.484   2.477   2.134  1.2603 -2.3488  0.9352
 5039TIP3   OH215059   5.479   3.232   4.189  0.3608  0.0847 -0.2215
 5039TIP3    H115060   5.442   3.284   4.260 -0.1474 -0.3740 -0.1410
 5039TIP3    H215061   5.534   3.293   4.140 -3.3582  1.9147 -2.6317
 5040TIP3   OH215062   1.028  -0.001   0.699  0.5006  0.0381  0.5335
 5040TIP3    H115063   1.120   0.019   0.713  0.4067  1.4604 -0.6536
 5040TIP3    H215064   1.007   0.040   0.615 -0.3798 -3.0886 -0.9151
 5041TIP3   OH215065   8.194   2.696   0.083 -0.0543  0.4570 -0.1295
 5041TIP3    H115066   8.152   2.754   0.020 -0.2489  0.8128  0.3227
 5041TIP3    H215067   8.152   2.717   0.167  1.6419  1.4612  0.5250
 5042TIP3   OH215068   6.354   1.380   5.126 -0.8051 -0.2308 -0.2387
 5042TIP3    H115069   6.391   1.395   5.039  0.6398 -0.9034  0.2342
 5042TIP3    H215070   6.394   1.299   5.157 -1.9921 -0.5043  0.7042
 5043TIP3   OH215071   1.773   5.568   2.408  0.1463  0.2127 -0.2892
 5043TIP3    H115072   1.748   5.653   2.372  1.0164  0.9062  0.6802
 5043TIP3    H215073   1.700   5.543   2.464 -0.5267 -0.1379 -1.3005
 5044TIP3   OH215074   0.431   1.744   4.225 -0.1516  0.0270 -0.5673
 5044TIP3    H115075   0.426   1.774   4.134 -0.2227  1.6504 -0.0548
 5044TIP3    H215076   0.344   1.761   4.261 -0.2922 -1.1200 -0.3242
 5045TIP3   OH215077   0.162   7.253   3.503  0.2788  0.1946 -0.2505
 5045TIP3    H115078   0.139   7.336   3.460 -1.7231  0.6053  1.4429
 5045TIP3    H215079   0.252   7.236   3.475  0.3013  2.2538 -1.6928
 5046TIP3   OH215080   0.626   1.508   2.239  0.5748  0.3250 -0.1021
 5046TIP3    H115081   0.571   1.527   2.163  0.7883 -0.3878 -0.4423
 5046TIP3    H215082   0.636   1.413   2.239 -0.6521  0.1525  1.6791
 5047TIP3   OH215083   3.351   2.300   0.671  0.3279 -0.0280 -0.3686
 5047TIP3    H115084   3.383   2.255   0.593 -1.3128 -1.4310 -0.3117
 5047TIP3    H215085   3.375   2.392   0.658 -0.1109 -0.1770 -2.6368
 5048TIP3   OH215086   7.776   2.732   1.659  0.2243 -0.4121 -0.4484
 5048TIP3    H115087   7.843   2.799   1.644 -0.7326  0.5759 -0.4370
 5048TIP3    H215088   7.787   2.670   1.587  1.4984 -0.5703 -0.1374
 5049TIP3   OH215089   3.058   2.185   0.102  0.1104 -0.1449  0.4884
 5049TIP3    H115090   3.068   2.103   0.151 -1.6371 -0.5191  0.2850
 5049TIP3    H215091   3.141   2.232   0.117  1.1671 -1.9353  0.5855
 5050TIP3   OH215092   1.651   6.391   3.075 -0.3803  0.5307 -0.2609
 5050TIP3    H115093   1.623   6.439   3.153 -0.7027 -0.8283  0.5013
 5050TIP3    H215094   1.657   6.300   3.104 -2.0415 -0.2782 -2.1916
 5051TIP3   OH215095   3.187   1.194   3.366  0.2875  0.2913 -0.3648
 5051TIP3    H115096   3.213   1.138   3.293  0.1081  0.8033 -0.8256
 5051TIP3    H215097   3.106   1.155   3.399 -0.4931  0.9546 -1.4518
 5052TIP3   OH215098   3.053   5.083   0.265  0.7304 -0.4194  0.0321
 5052TIP3    H115099   2.961   5.068   0.243  0.8186 -0.7848 -0.0896
 5052TIP3    H215100   3.062   5.049   0.354  0.0541  2.2500  1.2216
 5053TIP3   OH215101   0.199   3.349   1.608 -0.2196  0.3822  0.1085
 5053TIP3    H115102   0.168   3.367   1.519  0.3976  0.6361 -0.0602
 5053TIP3    H215103   0.185   3.255   1.620  2.3046 -0.2909 -1.3385
 5054TIP3   OH215104   3.120   1.035   1.293  0.6069 -0.2805 -0.4076
 5054TIP3    H115105   3.150   0.963   1.348  0.3548 -0.0089  0.0963
 5054TIP3    H215106   3.107   1.108   1.354 -0.0154 -0.0784 -0.7683
 5055TIP3   OH215107   7.662   5.968   0.034 -0.0011 -0.1487  0.4946
 5055TIP3    H115108   7.707   5.888   0.062  1.4331  0.1395 -0.8925
 5055TIP3    H215109   7.671   6.028   0.109  0.2659 -0.7403  0.9420
 5056TIP3   OH215110   3.473   4.974   5.167 -0.1993 -0.1163 -0.1566
 5056TIP3    H115111   3.469   4.974   5.071  0.4004 -1.5255 -0.2014
 5056TIP3    H215112   3.508   5.060   5.189  0.7260 -0.1890 -1.2629
 5057TIP3   OH215113   4.595   7.378   3.129 -0.1055 -0.1592  0.0388
 5057TIP3    H115114   4.674   7.348   3.084  0.8268  1.1657  0.7271
 5057TIP3    H215115   4.542   7.418   3.060  0.0206 -0.6354 -0.3437
 5058TIP3   OH215116   0.290   0.081   3.936 -0.1474 -0.3581  0.2987
 5058TIP3    H115117   0.315  -0.011   3.948  0.3919 -0.6653 -2.5749
 5058TIP3    H215118   0.365   0.131   3.968 -0.7540 -0.8051  2.6230
 5059TIP3   OH215119   2.892   5.998   5.011  0.3310  0.4914 -0.0690
 5059TIP3    H115120   2.969   5.950   5.043  0.4717 -0.9231 -2.2708
 5059TIP3    H215121   2.928   6.070   4.960  0.1895  0.4598 -0.2154
 5060TIP3   OH215122   4.426   4.827   6.713  0.3296 -0.4479 -0.1049
 5060TIP3    H115123   4.340   4.866   6.732  0.2493 -0.5741 -0.2086
 5060TIP3    H215124   4.448   4.780   6.793  0.3004 -0.4186 -0.0795
 5061TIP3   OH215125   6.021   5.309   2.767 -0.5190 -0.4052  0.4323
 5061TIP3    H115126   6.113   5.308   2.741 -0.6345  1.1177 -0.1199
 5061TIP3    H215127   5.980   5.372   2.707 -2.1403 -1.8266 -0.0398
 5062TIP3   OH215128   0.047   2.214   5.974  0.8867  0.2946  0.0401
 5062TIP3    H115129   0.121   2.153   5.979  1.1443  0.5041 -1.0033
 5062TIP3    H215130  -0.025   2.161   5.940  1.3796  0.7680 -1.8476
 5063TIP3   OH215131   1.944   4.464   2.050  0.4563  0.3111 -0.0268
 5063TIP3    H115132   1.994   4.397   2.097 -1.6755 -0.0290  1.9045
 5063TIP3    H215133   2.008   4.532   2.029  2.3030 -1.4417 -0.3952
 5064TIP3   OH215134   3.631   3.583   2.809 -0.1175 -0.0262  0.0686
 5064TIP3    H115135   3.653   3.675   2.821  0.0474 -0.1989  1.2590
 5064TIP3    H215136   3.672   3.559   2.725 -1.0499  1.2292 -0.7750
 5065TIP3   OH215137   3.964   1.098   1.321 -0.3381 -0.2046 -0.0711
 5065TIP3    H115138   4.042   1.148   1.299 -0.4959 -0.5330 -1.4748
 5065TIP3    H215139   3.894   1.164   1.326 -0.8850 -0.3147 -3.5368
 5066TIP3   OH215140   2.583   1.262   3.655 -0.5255 -0.4737  0.5095
 5066TIP3    H115141   2.564   1.334   3.715 -2.0508 -1.2583  1.0001
 5066TIP3    H215142   2.567   1.183   3.706  1.2581 -1.2039  0.0226
 5067TIP3   OH215143   5.340   7.497   4.297 -0.5763 -0.4855 -0.4020
 5067TIP3    H115144   5.254   7.476   4.261 -0.0776 -0.3355 -1.7418
 5067TIP3    H215145   5.383   7.549   4.230  0.9912 -1.5029 -0.2666
 5068TIP3   OH215146   6.867   7.743   0.891 -0.2573 -0.2979 -0.1681
 5068TIP3    H115147   6.913   7.771   0.812  1.3165 -1.6237  0.2212
 5068TIP3    H215148   6.835   7.656   0.870  0.5901 -0.8601  0.7737
 5069TIP3   OH215149   0.692   0.311   0.399 -0.7654 -0.4087  0.2612
 5069TIP3    H115150   0.645   0.232   0.372 -0.9829 -0.3210  0.3751
 5069TIP3    H215151   0.623   0.378   0.403 -0.6517 -0.3138  0.5823
 5070TIP3   OH215152   2.012   6.368   6.522 -0.6052 -0.2055  0.4377
 5070TIP3    H115153   2.060   6.312   6.584  2.2384  1.4643 -0.1273
 5070TIP3    H215154   2.014   6.455   6.562  1.1800  0.8871 -1.8621
 5071TIP3   OH215155   3.920   0.646   4.365 -0.0843 -0.3310  0.0277
 5071TIP3    H115156   3.861   0.574   4.344  0.4445 -1.1321  1.2093
 5071TIP3    H215157   3.953   0.627   4.452 -1.1836  2.1824  1.0956
 5072TIP3   OH215158   5.111   6.192   3.030  0.6829  0.3614 -0.7073
 5072TIP3    H115159   5.184   6.242   3.068  0.7039 -0.5053  0.4428
 5072TIP3    H215160   5.049   6.259   3.002  0.8059  1.0683  0.5968
 5073TIP3   OH215161   0.984   1.315   3.921  0.1416  0.1276 -0.4665
 5073TIP3    H115162   1.039   1.393   3.931 -1.4506  1.4628 -1.7203
 5073TIP3    H215163   1.016   1.274   3.841  0.0036  0.3151 -0.6175
 5074TIP3   OH215164   7.062   5.439   3.847  0.1410  0.1463 -0.2086
 5074TIP3    H115165   6.999   5.455   3.778 -0.0218  0.1901 -0.0516
 5074TIP3    H215166   7.145   5.423   3.802  0.0970  0.4593 -0.3987
 5075TIP3   OH215167   7.969   0.807   1.692  0.3022  0.0946  0.4680
 5075TIP3    H115168   7.917   0.868   1.745  0.8213  2.4716 -1.5611
 5075TIP3    H215169   8.059   0.841   1.698  0.2900  0.9386 -2.3498
 5076TIP3   OH215170   5.645   1.200   2.018 -0.3199 -0.0154  0.0214
 5076TIP3    H115171   5.704   1.168   1.949  0.7650  0.5314  0.6686
 5076TIP3    H215172   5.558   1.196   1.978  0.2921  0.4256 -1.4404
 5077TIP3   OH215173   5.609   3.536   0.530  0.1732  0.4598 -0.2342
 5077TIP3    H115174   5.515   3.521   0.543  0.1712  0.5464 -0.1441
 5077TIP3    H215175   5.619   3.631   0.540  0.5368  0.2780  1.5978
 5078TIP3   OH215176   1.696   4.795   6.476 -0.2787 -0.1302 -0.0870
 5078TIP3    H115177   1.625   4.736   6.502 -0.1690 -0.3467 -0.2772
 5078TIP3    H215178   1.728   4.831   6.559 -1.4758  0.9852 -0.0727
 5079TIP3   OH215179   5.268   4.587   5.390 -0.6525  0.5630  0.3052
 5079TIP3    H115180   5.216   4.579   5.310  0.8773 -0.1968 -0.6583
 5079TIP3    H215181   5.239   4.669   5.430 -0.7260  1.4747 -1.5556
 5080TIP3   OH215182   5.366   3.090   1.941  0.0070  0.2249  0.4775
 5080TIP3    H115183   5.289   3.142   1.920  0.4546  1.0510  0.8149
 5080TIP3    H215184   5.383   3.039   1.862 -0.4817  0.5443  0.1588
 5081TIP3   OH215185   7.563   3.296   3.377  0.1631  0.1752  0.0687
 5081TIP3    H115186   7.614   3.345   3.312 -0.1576  0.9431  0.3773
 5081TIP3    H215187   7.472   3.308   3.349  0.0957 -0.5644 -0.0559
 5082TIP3   OH215188   2.840   7.796   4.092 -0.4329 -0.0280  0.0435
 5082TIP3    H115189   2.928   7.760   4.083  0.3048  1.3840  1.2507
 5082TIP3    H215190   2.838   7.871   4.032  0.4491  2.0875  2.4822
 5083TIP3   OH215191   0.532   1.959   3.304 -0.0822  0.1809 -0.3058
 5083TIP3    H115192   0.548   2.040   3.351  0.4292 -0.3445  0.4522
 5083TIP3    H215193   0.562   1.890   3.363 -0.4494 -0.5621 -0.9543
 5084TIP3   OH215194   4.969   7.495   0.776  0.4664  0.7868 -0.1034
 5084TIP3    H115195   4.919   7.459   0.702 -3.2663  2.9152  1.1190
 5084TIP3    H215196   4.986   7.420   0.832 -1.6278 -0.0894 -0.5298
 5085TIP3   OH215197   0.249   1.016   0.279 -0.0539  0.5010 -0.0399
 5085TIP3    H115198   0.341   1.003   0.257 -0.4257 -0.6671 -1.0298
 5085TIP3    H215199   0.232   0.954   0.349  0.1295  1.4159  0.8470
 5086TIP3   OH215200   5.930   7.020   2.826 -0.2750  0.5496  0.5333
 5086TIP3    H115201   5.931   7.025   2.921  1.2764 -0.1317  0.5749
 5086TIP3    H215202   5.852   7.070   2.800  0.1645  2.1141  2.0667
 5087TIP3   OH215203   0.769   1.822   3.938  0.3775  0.3658  0.2389
 5087TIP3    H115204   0.771   1.765   4.015  1.4193  1.8431  1.3432
 5087TIP3    H215205   0.681   1.812   3.904  0.8219 -2.8643 -0.3799
 5088TIP3   OH215206   7.531   0.756   5.357  0.3050  0.0261  0.1139
 5088TIP3    H115207   7.577   0.826   5.404  0.1605 -0.4128  0.9267
 5088TIP3    H215208   7.582   0.677   5.374 -0.1230 -0.2614  0.0930
 5089TIP3   OH215209   3.498   4.045   1.335 -0.4118  0.2938  0.2930
 5089TIP3    H115210   3.570   4.109   1.336 -0.6516  0.6374 -1.2058
 5089TIP3    H215211   3.538   3.966   1.298 -0.4510  0.0065  0.8604
 5090TIP3   OH215212   0.172   6.270   0.348  0.2676  0.4005  0.0710
 5090TIP3    H115213   0.183   6.261   0.443 -0.5713  1.6049  0.3007
 5090TIP3    H215214   0.241   6.215   0.311  1.1463  0.5692  1.3822
 5091TIP3   OH215215   8.063   4.305   4.883  0.1460 -0.1787 -0.0589
 5091TIP3    H115216   8.000   4.269   4.945 -1.3416 -0.5260 -1.6816
 5091TIP3    H215217   8.022   4.386   4.852  0.1971 -0.7123 -1.5894
 5092TIP3   OH215218   2.606   3.419   5.812  0.2966 -0.4923 -0.0898
 5092TIP3    H115219   2.568   3.393   5.728 -0.3776  0.3570 -0.0602
 5092TIP3    H215220   2.675   3.482   5.790  1.1725 -1.4215 -0.0901
 5093TIP3   OH215221   2.752   4.849   2.820  0.3374  0.4044  0.0497
 5093TIP3    H115222   2.824   4.786   2.814  0.1679  0.1794  0.3588
 5093TIP3    H215223   2.789   4.931   2.787  0.4063  0.0194 -0.8310
 5094TIP3   OH215224   6.805   7.648   0.097 -0.1167  0.0245  0.7977
 5094TIP3    H115225   6.878   7.593   0.067  0.4131 -0.1168  2.2354
 5094TIP3    H215226   6.841   7.695   0.173 -1.2610  0.6277  0.9814
 5095TIP3   OH215227   4.728   3.273   1.819  0.2604 -0.1901  0.3561
 5095TIP3    H115228   4.705   3.285   1.727 -4.7496 -2.3205  1.0254
 5095TIP3    H215229   4.746   3.180   1.828 -1.2712 -0.4133  1.7305
 5096TIP3   OH215230   1.771   1.891   6.674 -0.8572  0.2694 -0.7368
 5096TIP3    H115231   1.685   1.850   6.661 -0.2211 -1.2403 -0.2988
 5096TIP3    H215232   1.811   1.842   6.745 -1.5481  4.0199  2.6182
 5097TIP3   OH215233   5.665   4.570   1.563 -0.0632  0.3908  0.6396
 5097TIP3    H115234   5.674   4.479   1.537  0.9071  1.0824 -1.7141
 5097TIP3    H215235   5.617   4.567   1.646 -0.1689 -2.2155  0.5595
 5098TIP3   OH215236   1.938   6.934   2.432 -0.4960 -0.4408  0.6726
 5098TIP3    H115237   1.998   6.918   2.359 -1.2072  1.1743 -0.3278
 5098TIP3    H215238   1.932   6.849   2.477  0.6652 -1.2468 -0.6041
 5099TIP3   OH215239   7.975   1.238   5.260  0.1054 -0.4103 -0.3923
 5099TIP3    H115240   7.963   1.264   5.169  2.4174 -0.0161 -0.6342
 5099TIP3    H215241   7.991   1.143   5.257 -1.0780 -0.6418 -0.2210
 5100TIP3   OH215242   1.840   5.317   6.739  0.4530 -0.0667  0.1163
 5100TIP3    H115243   1.920   5.303   6.790  0.7904  0.3579 -0.2886
 5100TIP3    H215244   1.870   5.343   6.653 -0.1221 -0.3899 -0.1925
 5101TIP3   OH215245   0.381   7.000   5.612 -0.0969  0.4929 -0.6492
 5101TIP3    H115246   0.446   7.060   5.575 -0.1911 -0.3824 -2.3042
 5101TIP3    H215247   0.334   7.053   5.677  2.4936  1.0261  0.9035
 5102TIP3   OH215248   0.103   5.600   0.636 -0.1593 -0.0620 -0.4023
 5102TIP3    H115249   0.021   5.589   0.588 -1.3751 -2.2176  1.8961
 5102TIP3    H215250   0.079   5.645   0.716  1.4325  1.5652 -0.7600
 5103TIP3   OH215251   0.078   7.529   5.339  0.2091 -0.1923 -0.1354
 5103TIP3    H115252   0.076   7.533   5.435 -0.6674  0.6782 -0.1709
 5103TIP3    H215253   0.139   7.598   5.313  0.8447 -0.7695 -0.1991
 5104TIP3   OH215254   6.333   3.747   4.857  0.1071  0.0781  0.4163
 5104TIP3    H115255   6.411   3.738   4.912  1.0242 -0.8696 -0.9676
 5104TIP3    H215256   6.356   3.813   4.793  0.2974 -1.1179 -0.7933
 5105TIP3   OH215257   3.121   2.272   3.127  0.0112 -0.2828 -0.1529
 5105TIP3    H115258   3.213   2.250   3.141 -0.6259 -2.5695  0.9994
 5105TIP3    H215259   3.077   2.236   3.204 -2.0067 -0.4233 -1.3228
 5106TIP3   OH215260   7.426   0.619   2.287 -0.1461  0.2608  0.3566
 5106TIP3    H115261   7.395   0.619   2.377  2.8801 -1.3610  1.5785
 5106TIP3    H215262   7.357   0.576   2.237 -1.4897  0.3229  2.0792
 5107TIP3   OH215263   0.445   5.565   4.880 -0.3239  0.1173 -0.0555
 5107TIP3    H115264   0.365   5.522   4.912 -1.0112  1.3103 -0.0787
 5107TIP3    H215265   0.430   5.658   4.898  1.5049  0.2882  0.8659
 5108TIP3   OH215266   6.626   7.683   3.853  0.2938 -0.8826  1.0149
 5108TIP3    H115267   6.603   7.769   3.889  1.6351 -0.2071  0.3298
 5108TIP3    H215268   6.692   7.648   3.914 -0.6568 -1.7145  1.6097
 5109TIP3   OH215269   3.823   4.930   5.189 -0.3380  0.0104 -0.0191
 5109TIP3    H115270   3.759   4.867   5.157  0.9264 -0.6611 -1.3377
 5109TIP3    H215271   3.858   4.889   5.269 -0.1767 -0.5328 -0.3631
 5110TIP3   OH215272   1.598   2.302   4.087  0.0950  0.2400  0.2962
 5110TIP3    H115273   1.680   2.276   4.044  0.5281  0.8416  0.7439
 5110TIP3    H215274   1.625   2.332   4.174 -0.6357  0.1818  0.5517
 5111TIP3   OH215275   7.447   7.126   5.701 -0.1010  0.2527  0.2283
 5111TIP3    H115276   7.541   7.137   5.692 -0.2614  0.7203 -1.0569
 5111TIP3    H215277   7.436   7.037   5.733  0.7537 -0.0722 -0.3518
 5112TIP3   OH215278   5.478   1.843   2.552  0.3044  0.0868  0.5741
 5112TIP3    H115279   5.534   1.766   2.544  2.2497  1.4595  0.2483
 5112TIP3    H215280   5.393   1.814   2.520  1.0036 -1.8827  0.3521
 5113TIP3   OH215281   5.373   4.642   6.452  0.0961  0.3386  0.0753
 5113TIP3    H115282   5.385   4.577   6.382 -0.2579 -0.5667  0.8406
 5113TIP3    H215283   5.445   4.624   6.513 -0.4564  0.1611  0.6751
 5114TIP3   OH215284   0.154   6.610   1.340 -0.2144 -0.5710  0.4298
 5114TIP3    H115285   0.090   6.649   1.281 -0.5763 -0.6012  0.7926
 5114TIP3    H215286   0.101   6.567   1.407  0.1117  1.6443  2.2552
 5115TIP3   OH215287   3.575   3.742   0.802 -0.1937 -0.0506  0.1752
 5115TIP3    H115288   3.569   3.816   0.862  0.5149  1.2054 -1.2283
 5115TIP3    H215289   3.487   3.703   0.803 -0.3761  0.3385  1.4860
 5116TIP3   OH215290   1.872   7.264   1.529  0.0137  0.0162  0.3815
 5116TIP3    H115291   1.902   7.354   1.514  0.8365 -0.2611  0.3426
 5116TIP3    H215292   1.818   7.270   1.608  0.9982  0.3523  1.0457
 5117TIP3   OH215293   4.870   5.272   3.009 -0.1087 -0.1484 -0.2255
 5117TIP3    H115294   4.901   5.182   3.016  1.0448  0.2154 -0.5051
 5117TIP3    H215295   4.949   5.326   3.011 -0.8426  0.9404  1.0448
 5118TIP3   OH215296   2.644   4.773   4.380 -0.3903  0.2530  0.1105
 5118TIP3    H115297   2.652   4.824   4.460 -2.0465  0.5717  0.1210
 5118TIP3    H215298   2.698   4.820   4.316 -0.9469  1.3894  0.4351
 5119TIP3   OH215299   5.894   4.517   5.954 -0.1164 -0.0723 -0.5542
 5119TIP3    H115300   5.884   4.430   5.916 -0.7403  0.1508 -0.9339
 5119TIP3    H215301   5.875   4.505   6.047 -1.6917 -0.1039 -0.8486
 5120TIP3   OH215302   7.283   3.582   0.893 -0.6861 -0.1224  0.4794
 5120TIP3    H115303   7.308   3.565   0.803 -2.6512 -0.3758 -0.0626
 5120TIP3    H215304   7.342   3.528   0.945  0.0350 -0.4845 -0.6825
 5121TIP3   OH215305   5.018   3.097   0.545  0.2469 -0.0232 -0.4271
 5121TIP3    H115306   5.059   3.037   0.483  0.9061 -1.8031  1.6287
 5121TIP3    H215307   4.926   3.072   0.545  0.7530 -2.1604  1.5026
 5122TIP3   OH215308   0.087   0.151   2.634  0.0507  0.1073 -0.0875
 5122TIP3    H115309   0.177   0.124   2.616  0.4259  1.5162 -0.4001
 5122TIP3    H215310   0.046   0.074   2.674  1.6354 -0.2665  0.8825
 5123TIP3   OH215311   1.686   2.328   0.119 -0.8718  0.1337 -0.2556
 5123TIP3    H115312   1.650   2.240   0.113 -0.4554  0.0244 -1.2901
 5123TIP3    H215313   1.703   2.341   0.213  0.3248 -1.3959 -0.2298
 5124TIP3   OH215314   5.617   3.944   4.205  0.1685  0.0424 -0.1000
 5124TIP3    H115315   5.685   3.999   4.167  0.9586 -0.9145 -0.1119
 5124TIP3    H215316   5.535   3.981   4.172  0.7776 -0.2102 -2.0270
 5125TIP3   OH215317   5.880   5.712   4.591  0.4615  0.1425  0.2170
 5125TIP3    H115318   5.905   5.647   4.657 -2.7611  0.5718  2.0415
 5125TIP3    H215319   5.805   5.673   4.546  0.5142  1.2586 -0.9005
 5126TIP3   OH215320   3.131   0.420   1.216 -0.1531  0.2331  0.2416
 5126TIP3    H115321   3.099   0.333   1.190 -0.5636 -0.0634  1.6474
 5126TIP3    H215322   3.067   0.450   1.281  0.1825  1.4493  0.0355
 5127TIP3   OH215323   2.745   5.677   2.397 -0.2427 -0.0603  0.1523
 5127TIP3    H115324   2.833   5.703   2.424 -0.8378  1.3166  0.8697
 5127TIP3    H215325   2.750   5.670   2.301  0.1053  2.3450 -0.0631
 5128TIP3   OH215326   8.219   7.804   1.036 -0.1282  0.0758 -0.2749
 5128TIP3    H115327   8.232   7.710   1.022 -1.1966 -0.3608  1.3418
 5128TIP3    H215328   8.175   7.834   0.956  3.2628  0.0215 -2.3722
 5129TIP3   OH215329   1.777   3.064   2.191  0.0861 -0.1957 -0.2419
 5129TIP3    H115330   1.691   3.085   2.156 -0.5233 -0.7766  0.8383
 5129TIP3    H215331   1.793   3.133   2.256  0.6352  0.1573 -0.7465
 5130TIP3   OH215332   6.517   4.736   5.351 -0.6601 -0.0105  0.2884
 5130TIP3    H115333   6.438   4.754   5.402  0.0478  1.8184  0.8035
 5130TIP3    H215334   6.589   4.771   5.404  0.1974  1.0329 -1.4867
 5131TIP3   OH215335   1.874   7.595   2.655 -0.1033 -0.1151 -0.0186
 5131TIP3    H115336   1.951   7.646   2.680  1.2911 -1.0063 -2.1855
 5131TIP3    H215337   1.898   7.504   2.672 -2.5153 -0.2670  3.6701
 5132TIP3   OH215338   1.933   0.272   5.991  0.2098  0.1411  0.9861
 5132TIP3    H115339   1.843   0.283   5.961  1.1496 -0.3332 -2.3980
 5132TIP3    H215340   1.931   0.301   6.083 -2.7119  3.2583  0.1646
 5133TIP3   OH215341   3.905   4.437   5.727 -0.3960 -0.3047  0.1758
 5133TIP3    H115342   3.865   4.403   5.807 -4.5491  0.4367 -1.3089
 5133TIP3    H215343   3.916   4.361   5.671 -0.0558 -0.4712  0.4668
 5134TIP3   OH215344   2.462   1.647   0.266  0.2717 -0.6539 -0.3170
 5134TIP3    H115345   2.490   1.570   0.217 -0.1792  0.6016 -2.7096
 5134TIP3    H215346   2.494   1.722   0.214 -2.4514  0.7729 -0.1426
 5135TIP3   OH215347   1.225   4.656   2.089 -0.2629 -0.6531 -0.5627
 5135TIP3    H115348   1.249   4.571   2.053  1.3671 -0.1234 -0.7996
 5135TIP3    H215349   1.236   4.646   2.183  2.1076 -0.1229 -0.7208
 5136TIP3   OH215350   7.632   6.560   2.030 -0.3104 -0.0376 -0.2814
 5136TIP3    H115351   7.665   6.630   1.973 -0.8403 -0.5416 -1.2400
 5136TIP3    H215352   7.575   6.605   2.092 -0.2717  0.4427 -0.5833
 5137TIP3   OH215353   0.947   6.661   0.464  0.2804  0.4157 -0.3072
 5137TIP3    H115354   0.900   6.616   0.534  0.2497  1.8150  0.6073
 5137TIP3    H215355   0.890   6.734   0.440  0.7815  0.5748 -1.0601
 5138TIP3   OH215356   6.543   4.568   3.360 -0.0133 -0.3572  0.4852
 5138TIP3    H115357   6.514   4.549   3.449  0.4183 -0.7872  0.5360
 5138TIP3    H215358   6.462   4.581   3.310 -0.2494  0.1075  0.9874
 5139TIP3   OH215359   3.832   6.702   4.712  0.5599 -0.0645 -0.1382
 5139TIP3    H115360   3.809   6.720   4.620  2.0952 -0.1748 -0.5726
 5139TIP3    H215361   3.793   6.616   4.729 -0.3800  0.2858 -0.4367
 5140TIP3   OH215362   5.198   2.098   1.192 -0.0642  0.0923 -0.2246
 5140TIP3    H115363   5.203   2.186   1.153  0.0502 -0.9597 -2.7849
 5140TIP3    H215364   5.202   2.039   1.117  0.1214 -2.1332  1.4556
 5141TIP3   OH215365   8.170   3.417   3.490 -0.2343  0.0766 -0.1986
 5141TIP3    H115366   8.119   3.472   3.430  0.4163  0.6072 -0.2846
 5141TIP3    H215367   8.249   3.396   3.442  0.0255  0.0004  0.2551
 5142TIP3   OH215368   2.776   7.477   2.459 -0.1147  0.1936 -0.6812
 5142TIP3    H115369   2.707   7.529   2.417 -1.2962 -2.1236 -1.7937
 5142TIP3    H215370   2.857   7.509   2.420 -0.5756  2.4568  0.0926
 5143TIP3   OH215371   8.245   4.217   5.064 -0.0456 -0.0902 -0.5863
 5143TIP3    H115372   8.209   4.271   4.993  1.6558  1.2860 -0.4748
 5143TIP3    H215373   8.201   4.249   5.143 -1.1103 -0.8461 -0.8530
 5144TIP3   OH215374   2.639   0.649   6.479  0.4104 -0.4416 -0.0129
 5144TIP3    H115375   2.710   0.589   6.455  1.1875 -0.5444  2.3530
 5144TIP3    H215376   2.682   0.733   6.491 -0.3284  0.1197 -1.0833
 5145TIP3   OH215377   6.106   6.063   6.439 -0.2039  0.4301  0.1231
 5145TIP3    H115378   6.141   6.087   6.524 -0.1708  0.4605  0.1008
 5145TIP3    H215379   6.017   6.098   6.439 -0.9673 -1.3711  0.9764
 5146TIP3   OH215380   1.573   1.618   0.025  0.1012  0.0224  0.8077
 5146TIP3    H115381   1.536   1.701   0.054 -0.3419 -0.4056  1.5122
 5146TIP3    H215382   1.667   1.626   0.042 -0.0768 -0.0174  1.9253
 5147TIP3   OH215383   6.078   7.161   3.661  0.4775  0.1707 -0.0681
 5147TIP3    H115384   6.066   7.075   3.702  2.7811  1.2580  3.2918
 5147TIP3    H215385   5.989   7.197   3.655 -0.3609 -1.7689 -0.0534
 5148TIP3   OH215386   4.530   0.296   4.079  0.2660 -0.2341 -0.3036
 5148TIP3    H115387   4.484   0.214   4.092  0.9852 -0.5681  0.1812
 5148TIP3    H215388   4.468   0.351   4.030 -0.3146 -0.9623 -0.3980
 5149TIP3   OH215389   2.945   2.465   2.735  0.0183  0.4311  0.3878
 5149TIP3    H115390   2.887   2.443   2.808  0.0971  0.8430  0.5811
 5149TIP3    H215391   2.921   2.556   2.713 -0.4355  0.1080 -0.5078
 5150TIP3   OH215392   5.755   0.959   2.769 -0.4384 -0.4920 -0.4320
 5150TIP3    H115393   5.720   1.039   2.731 -1.3159 -0.9746 -0.6716
 5150TIP3    H215394   5.807   0.920   2.699 -0.5044 -0.4323 -0.5148
 5151TIP3   OH215395   2.010   2.467   4.584 -0.2129 -0.1857  0.3269
 5151TIP3    H115396   1.949   2.519   4.637 -0.1563 -1.9226  2.2691
 5151TIP3    H215397   2.096   2.503   4.605 -0.2283 -0.5892  1.1403
 5152TIP3   OH215398   6.371   0.517   0.637 -0.1790 -0.6012  0.4958
 5152TIP3    H115399   6.453   0.552   0.603 -1.1698 -0.3395 -1.7892
 5152TIP3    H215400   6.378   0.422   0.622 -0.9242 -0.4067 -1.2498
 5153TIP3   OH215401   5.745   2.671   1.918  0.2081  0.1701  0.1647
 5153TIP3    H115402   5.784   2.653   2.003  1.4631 -1.0735 -0.6357
 5153TIP3    H215403   5.789   2.751   1.888 -0.7534  1.0334  0.9451
 5154TIP3   OH215404   6.903   7.189   0.362  0.5386 -0.0193 -0.0470
 5154TIP3    H115405   6.905   7.098   0.391  1.2660 -0.3754 -1.1328
 5154TIP3    H215406   6.879   7.239   0.440  0.5274 -1.0976  0.6619
 5155TIP3   OH215407   7.509   2.669   2.217  0.1570  0.3530  0.1763
 5155TIP3    H115408   7.534   2.604   2.152 -0.1864 -0.0976  0.4894
 5155TIP3    H215409   7.448   2.623   2.275 -0.1328  0.9703  0.3662
 5156TIP3   OH215410   6.085   5.104   0.203 -0.2085  0.3919  0.0057
 5156TIP3    H115411   6.047   5.123   0.117 -1.0859  2.2874  0.7743
 5156TIP3    H215412   6.025   5.143   0.266  1.3085  0.5785  1.4190
 5157TIP3   OH215413   0.353   0.052   2.594 -0.0948  0.7464  0.0807
 5157TIP3    H115414   0.391  -0.036   2.583 -0.3900  0.2024  2.7013
 5157TIP3    H215415   0.421   0.101   2.640 -0.7158  1.2518  0.4701
 5158TIP3   OH215416   0.789   0.787   5.624 -0.0531  0.5748 -0.7198
 5158TIP3    H115417   0.741   0.862   5.590 -0.2301  0.8044  0.0024
 5158TIP3    H215418   0.746   0.711   5.585 -2.1661  0.6758  1.2009
 5159TIP3   OH215419   4.088   1.625   4.661 -0.3090 -0.7155 -0.2497
 5159TIP3    H115420   4.129   1.572   4.730 -0.3215 -0.8523 -0.3473
 5159TIP3    H215421   4.123   1.713   4.674 -0.4135 -0.7110  0.0165
 5160TIP3   OH215422   0.538   1.636   1.869 -0.3137  0.1299 -0.8055
 5160TIP3    H115423   0.552   1.587   1.787  2.5631 -1.9771  0.7564
 5160TIP3    H215424   0.492   1.574   1.926  1.5069 -0.0923  0.5136
 5161TIP3   OH215425   0.170   3.243   4.181 -0.3156 -1.1698 -0.3183
 5161TIP3    H115426   0.256   3.281   4.194 -0.7647 -1.2125  4.0843
 5161TIP3    H215427   0.109   3.315   4.199 -1.1705 -2.1023  0.6182
 5162TIP3   OH215428   2.563   1.034   6.531  0.8067  0.0264 -0.1114
 5162TIP3    H115429   2.644   1.021   6.482  1.4023  0.5497  0.7088
 5162TIP3    H215430   2.587   1.018   6.622  0.6370  2.6408  0.4741
 5163TIP3   OH215431   4.254   3.706   2.218 -0.2424 -0.1780 -0.2321
 5163TIP3    H115432   4.315   3.774   2.246  0.1311  0.2052 -1.8514
 5163TIP3    H215433   4.309   3.643   2.171 -1.0549  0.2771 -1.9069
 5164TIP3   OH215434   4.981   6.978   1.611 -0.2330  0.2918  0.0916
 5164TIP3    H115435   5.012   7.018   1.692 -1.2846  2.2171 -0.4048
 5164TIP3    H215436   4.887   6.992   1.611 -0.6492 -2.0977 -0.2278
 5165TIP3   OH215437   1.124   1.732   6.007  0.5933  0.4112 -0.5781
 5165TIP3    H115438   1.198   1.777   6.048  0.4622  0.2933 -0.2095
 5165TIP3    H215439   1.163   1.661   5.957  0.6063 -1.0654  1.4142
 5166TIP3   OH215440   7.620   3.793   5.375 -0.1774 -0.4224  0.1489
 5166TIP3    H115441   7.590   3.866   5.321 -0.9328  1.3736  2.7952
 5166TIP3    H215442   7.539   3.756   5.411  0.3437 -1.0138  0.7149
 5167TIP3   OH215443   0.612   7.448   6.006 -0.1336  0.5439  0.0024
 5167TIP3    H115444   0.696   7.406   5.987  0.3237  1.8175 -0.8668
 5167TIP3    H215445   0.554   7.375   6.029  0.8239 -0.4854 -0.7422
 5168TIP3   OH215446   3.694   2.174   4.505 -0.2466  0.3035  0.2713
 5168TIP3    H115447   3.647   2.101   4.464  0.4047 -1.3513  2.2728
 5168TIP3    H215448   3.785   2.162   4.479  0.0716 -0.4038  1.6004
 5169TIP3   OH215449   4.761   6.753   0.866 -0.0827 -0.7847  0.4206
 5169TIP3    H115450   4.682   6.701   0.881 -0.3032 -0.1059  1.6892
 5169TIP3    H215451   4.736   6.813   0.795 -0.7484 -0.5058  0.8769
 5170TIP3   OH215452   1.696   1.818   3.900 -0.3007 -0.3294  0.1552
 5170TIP3    H115453   1.711   1.759   3.974  0.8794  0.1482  0.3175
 5170TIP3    H215454   1.608   1.853   3.916 -0.5046 -1.0574  0.7390
 5171TIP3   OH215455   1.534   4.024   5.433  0.2287  0.8518  0.4820
 5171TIP3    H115456   1.521   3.945   5.485  2.2108  1.2625  1.6939
 5171TIP3    H215457   1.529   3.995   5.342 -1.2057 -0.2473  0.8798
 5172TIP3   OH215458   5.214   4.457   1.165  0.4368 -0.2747  0.3021
 5172TIP3    H115459   5.154   4.444   1.239 -0.1741  1.1873  0.1018
 5172TIP3    H215460   5.159   4.495   1.096  1.4662  0.5539 -0.0855
 5173TIP3   OH215461   5.391   0.883   5.939 -0.0672 -0.2578  0.4623
 5173TIP3    H115462   5.426   0.967   5.968  0.5677 -1.2168  2.6468
 5173TIP3    H215463   5.375   0.895   5.845 -1.6838  2.8456  1.0214
 5174TIP3   OH215464   1.559   0.481   4.575 -0.6828  0.0017  0.0993
 5174TIP3    H115465   1.610   0.525   4.507 -1.3170 -0.3397 -0.6214
 5174TIP3    H215466   1.477   0.532   4.579 -0.6302  0.0442  0.6377
 5175TIP3   OH215467   4.547   6.339   0.466  0.1662 -0.1803 -0.7477
 5175TIP3    H115468   4.521   6.375   0.381  0.7420  0.1662 -0.7797
 5175TIP3    H215469   4.564   6.417   0.519 -1.5088 -0.3426  0.1164
 5176TIP3   OH215470   7.371   2.735   0.287  0.1069 -0.0203 -0.3575
 5176TIP3    H115471   7.462   2.741   0.259  0.0556  0.2225 -0.4788
 5176TIP3    H215472   7.375   2.708   0.379  0.3315  0.8048 -0.1119
 5177TIP3   OH215473   2.987   7.529   4.243  0.1763 -0.6081 -0.1159
 5177TIP3    H115474   3.037   7.610   4.244 -0.2490 -0.3373 -0.6293
 5177TIP3    H215475   2.965   7.513   4.335  0.6204 -0.3743  0.0350
 5178TIP3   OH215476   0.436   4.615   1.301  0.6844 -0.2811  0.1270
 5178TIP3    H115477   0.397   4.577   1.222  1.2875 -0.6412 -0.0014
 5178TIP3    H215478   0.507   4.671   1.268 -0.2753  1.1049  0.2986
 5179TIP3   OH215479   5.074   2.432   2.485 -0.2428 -0.0785  0.2748
 5179TIP3    H115480   4.999   2.456   2.430  0.7515  0.9237 -0.7225
 5179TIP3    H215481   5.039   2.425   2.573 -2.0218 -2.2951 -0.5123
 5180TIP3   OH215482   3.726   2.887   0.819 -0.3938 -0.1949  0.0923
 5180TIP3    H115483   3.791   2.952   0.795 -0.0522 -0.4491  0.3075
 5180TIP3    H215484   3.643   2.921   0.785 -0.2621  0.4693  0.4182
 5181TIP3   OH215485   6.250   3.945   2.532 -0.2655 -0.6441 -0.3021
 5181TIP3    H115486   6.216   4.033   2.516 -2.8426 -1.6077 -0.5164
 5181TIP3    H215487   6.281   3.948   2.623  0.7998  0.7657 -0.6737
 5182TIP3   OH215488   5.714   4.525   3.969  0.0040 -0.5718 -0.0253
 5182TIP3    H115489   5.688   4.492   4.055  1.2162 -1.2975  0.0819
 5182TIP3    H215490   5.753   4.450   3.925  1.4389  0.3385 -0.3599
 5183TIP3   OH215491   1.629   3.781   2.843  0.2182 -0.6030 -0.5522
 5183TIP3    H115492   1.692   3.839   2.800  1.4672 -2.2929 -1.1364
 5183TIP3    H215493   1.612   3.712   2.778 -1.0839 -0.9871  0.1591
 5184TIP3   OH215494   6.830   3.190   5.900 -0.4478  0.0311  0.2539
 5184TIP3    H115495   6.803   3.200   5.991  0.0767  1.2686  0.2916
 5184TIP3    H215496   6.826   3.278   5.864 -1.7640 -0.5860 -1.2569
 5185TIP3   OH215497   2.505   1.126   5.283 -0.3691  0.1646 -0.4254
 5185TIP3    H115498   2.411   1.128   5.261 -1.1478 -0.5313  2.3938
 5185TIP3    H215499   2.511   1.174   5.366  1.5570 -0.8126  0.0532
 5186TIP3   OH215500   2.540   1.994   2.363 -0.3347 -0.0253 -0.0570
 5186TIP3    H115501   2.531   1.900   2.373  1.2372 -0.5889 -2.8481
 5186TIP3    H215502   2.561   2.027   2.450 -0.8352 -2.2319  0.9440
 5187TIP3   OH215503   6.784   5.308   4.766 -0.3827 -0.2745 -0.3580
 5187TIP3    H115504   6.801   5.243   4.698 -0.5677  1.5220 -2.1967
 5187TIP3    H215505   6.839   5.383   4.743 -2.0299  1.2019  0.2108
 5188TIP3   OH215506   4.090   0.741   3.965 -0.0191 -0.3741  0.1576
 5188TIP3    H115507   4.095   0.837   3.962  1.7859 -0.4203  0.7048
 5188TIP3    H215508   4.013   0.723   4.018 -0.4735  0.7702 -0.0863
 5189TIP3   OH215509   2.447   0.403   5.206  0.6546 -0.1187  0.3403
 5189TIP3    H115510   2.420   0.468   5.141 -0.2294  0.0760  0.8807
 5189TIP3    H215511   2.464   0.324   5.156  0.7258  0.2402 -0.2116
 5190TIP3   OH215512   4.133   4.622   5.750 -0.1351 -0.7133 -0.0623
 5190TIP3    H115513   4.190   4.625   5.674 -1.4452 -2.2355 -1.1590
 5190TIP3    H215514   4.067   4.557   5.729 -1.0599 -0.5501  2.0319
 5191TIP3   OH215515   6.361   2.974   3.657  0.7306 -0.1637  0.3160
 5191TIP3    H115516   6.371   3.068   3.642 -1.4221  0.1920  0.8486
 5191TIP3    H215517   6.449   2.944   3.679  1.2915  1.9047  1.1155
 5192TIP3   OH215518   8.225   3.902   2.773 -0.1836  0.1870 -0.5681
 5192TIP3    H115519   8.245   3.996   2.773  0.0523  0.2443 -3.6504
 5192TIP3    H215520   8.310   3.859   2.769 -0.3024  0.0248 -2.3595
 5193TIP3   OH215521   4.526   1.592   0.516  0.2401  0.4115 -0.3079
 5193TIP3    H115522   4.492   1.641   0.591 -0.9741  0.4333 -0.8485
 5193TIP3    H215523   4.534   1.657   0.446 -1.0160 -0.0706 -0.9159
 5194TIP3   OH215524   4.143   0.091   0.543  0.5321  0.3013 -0.3196
 5194TIP3    H115525   4.087   0.055   0.474  0.7619 -0.3559 -0.1657
 5194TIP3    H215526   4.202   0.019   0.566  1.2717  0.9063 -0.2988
 5195TIP3   OH215527   4.393   6.188   3.075 -0.3421  0.2570  0.0204
 5195TIP3    H115528   4.366   6.279   3.086  1.6322  0.8653  0.2588
 5195TIP3    H215529   4.377   6.148   3.160 -0.1299  0.7058  0.2788
 5196TIP3   OH215530   1.920   6.705   1.564  0.3501 -0.1080  0.1909
 5196TIP3    H115531   1.916   6.790   1.522 -1.0072  0.1103  0.6972
 5196TIP3    H215532   1.980   6.653   1.509  1.5346  1.2750  0.1244
 5197TIP3   OH215533   7.292   7.037   2.431  0.0252 -0.3644  0.0065
 5197TIP3    H115534   7.344   7.003   2.358  0.2768  0.0325 -0.0017
 5197TIP3    H215535   7.299   6.971   2.499  0.1687 -0.5203 -0.1600
 5198TIP3   OH215536   3.590   0.897   4.383  0.1067  0.0702  0.1575
 5198TIP3    H115537   3.622   0.981   4.353 -2.2245  1.4388  1.2159
 5198TIP3    H215538   3.633   0.882   4.467  0.7510  0.0475 -0.1766
 5199TIP3   OH215539   8.041   3.067   0.317  0.7408 -0.1411  0.2009
 5199TIP3    H115540   7.988   3.009   0.262  0.4664 -0.2289  0.5549
 5199TIP3    H215541   8.013   3.048   0.406  0.1412  1.0335  0.2873
 5200TIP3   OH215542   7.806   0.352   2.583 -0.2212  0.0187 -0.3078
 5200TIP3    H115543   7.743   0.374   2.514 -0.8205 -1.9385 -0.4491
 5200TIP3    H215544   7.891   0.355   2.540 -0.4576  0.2701 -0.7635
 5201TIP3   OH215545   1.865   7.569   0.849  0.0598  0.4921 -0.0914
 5201TIP3    H115546   1.960   7.558   0.855  0.3856  2.1077 -1.5046
 5201TIP3    H215547   1.836   7.497   0.792  0.1747 -0.8990  1.5273
 5202TIP3   OH215548   5.793   4.243   2.863  0.0928 -0.4745 -0.1718
 5202TIP3    H115549   5.848   4.262   2.939 -0.1733 -0.0130 -0.0923
 5202TIP3    H215550   5.855   4.218   2.795  0.4873  0.9227 -0.3590
 5203TIP3   OH215551   0.240   0.838   4.405 -0.2718  0.0658  0.5031
 5203TIP3    H115552   0.205   0.905   4.346 -0.6655  0.6559  1.3912
 5203TIP3    H215553   0.335   0.852   4.403 -0.2870  0.1205  0.0600
 5204TIP3   OH215554   7.942   7.131   3.095 -0.2138  0.6536  0.5681
 5204TIP3    H115555   7.980   7.218   3.080 -0.3757  0.5907 -0.2666
 5204TIP3    H215556   8.011   7.081   3.137  1.1804  0.1221 -2.1422
 5205TIP3   OH215557   1.677   1.251   1.389  0.4033  0.2956  0.0567
 5205TIP3    H115558   1.694   1.343   1.410  1.4458  0.0766  0.2479
 5205TIP3    H215559   1.737   1.202   1.446  0.3622 -0.4721 -0.5392
 5206TIP3   OH215560   7.612   0.825   3.581 -0.3345 -0.0005  0.3311
 5206TIP3    H115561   7.533   0.809   3.530  0.6298 -1.0468 -0.8891
 5206TIP3    H215562   7.680   0.773   3.538  0.8749  0.3283  1.7568
 5207TIP3   OH215563   6.311   4.562   0.889  0.7210  0.1487  0.3305
 5207TIP3    H115564   6.394   4.540   0.934  0.4784 -0.7295  0.3702
 5207TIP3    H215565   6.264   4.617   0.952  0.8423 -0.1982  0.7344
 5208TIP3   OH215566   5.205   4.936   5.818 -0.0005  0.3822 -0.4693
 5208TIP3    H115567   5.264   4.868   5.851 -1.6149 -1.3754 -1.0664
 5208TIP3    H215568   5.120   4.915   5.855 -0.2922  3.0841  0.6681
 5209TIP3   OH215569   2.239   4.455   0.020  0.1200  0.1366 -0.0383
 5209TIP3    H115570   2.199   4.418   0.099  0.3798  2.0406  1.0425
 5209TIP3    H215571   2.224   4.550   0.028  1.7148  0.5429 -1.3968
 5210TIP3   OH215572   5.204   3.304   4.503  0.3889 -0.2797  0.1312
 5210TIP3    H115573   5.297   3.325   4.489 -0.0195  1.4486 -0.2120
 5210TIP3    H215574   5.158   3.385   4.484 -1.3185 -1.4062 -0.7819
 5211TIP3   OH215575   5.712   2.619   3.476  0.3689 -0.0939 -0.3599
 5211TIP3    H115576   5.694   2.635   3.384 -0.1110  1.2233 -0.0644
 5211TIP3    H215577   5.751   2.701   3.508  0.4151 -0.4818  0.6274
 5212TIP3   OH215578   5.313   7.445   4.753 -0.1200 -0.2215 -0.3733
 5212TIP3    H115579   5.311   7.410   4.842 -0.3108 -0.7709 -0.5858
 5212TIP3    H215580   5.405   7.466   4.737 -0.1273  0.1386  0.0480
 5213TIP3   OH215581   4.268   6.799   1.763  0.1841  0.7511  0.0293
 5213TIP3    H115582   4.266   6.723   1.704  1.5758 -0.1382  1.0818
 5213TIP3    H215583   4.205   6.778   1.832 -0.2132  1.0444 -0.2391
 5214TIP3   OH215584   4.524   4.555   3.099  0.6639 -0.7837 -0.2920
 5214TIP3    H115585   4.524   4.634   3.045  1.2656 -0.9111 -0.4813
 5214TIP3    H215586   4.443   4.510   3.075  0.0943 -0.0216  0.1253
 5215TIP3   OH215587   2.347   3.739   0.799 -0.0331 -0.2976  1.2570
 5215TIP3    H115588   2.341   3.796   0.722  3.3422 -2.1655 -0.6827
 5215TIP3    H215589   2.369   3.798   0.871  0.7839  1.1782 -0.1263
 5216TIP3   OH215590   2.674   1.962   5.104  0.2308 -0.1045 -0.0472
 5216TIP3    H115591   2.704   1.964   5.195  2.1025  0.9569 -0.6399
 5216TIP3    H215592   2.595   1.908   5.106  0.5136 -0.5193  2.1156
 5217TIP3   OH215593   5.832   0.724   2.902 -0.7773 -0.0304 -0.2807
 5217TIP3    H115594   5.806   0.809   2.938 -1.3363 -0.1908 -0.2975
 5217TIP3    H215595   5.761   0.700   2.842 -2.6233 -2.2484  2.4884
 5218TIP3   OH215596   6.778   2.243   4.674 -0.3444  0.1360  0.0480
 5218TIP3    H115597   6.869   2.215   4.682 -0.7882 -1.2591  0.4724
 5218TIP3    H215598   6.765   2.304   4.747 -0.4508 -1.6865  1.6063
 5219TIP3   OH215599   4.560   1.625   5.567 -0.4338  0.0836  0.3496
 5219TIP3    H115600   4.511   1.695   5.523 -0.7160  0.0752  0.6505
 5219TIP3    H215601   4.518   1.544   5.538  0.8439 -0.0684 -1.2112
 5220TIP3   OH215602   5.225   2.681   5.946  0.0711  0.7033  0.2118
 5220TIP3    H115603   5.320   2.679   5.954 -0.0193  1.5908  2.2627
 5220TIP3    H215604   5.205   2.622   5.874  2.1647  0.4980 -0.2503
 5221TIP3   OH215605   7.992   1.244   2.300 -0.1515 -0.1156  0.6740
 5221TIP3    H115606   8.016   1.324   2.253 -0.8357  0.5130  1.3809
 5221TIP3    H215607   8.069   1.224   2.354 -0.3568  0.6464  1.2665
 5222TIP3   OH215608   5.571   6.388   2.019 -0.0806 -0.2651 -0.1649
 5222TIP3    H115609   5.541   6.452   2.083 -0.2760 -1.1303  0.6479
 5222TIP3    H215610   5.637   6.434   1.968 -0.9269  0.8713 -0.2682
 5223TIP3   OH215611   1.543   5.023   1.228  0.2948  0.1697  0.0568
 5223TIP3    H115612   1.472   5.083   1.208  0.1220  0.6740  1.9956
 5223TIP3    H215613   1.528   4.948   1.170 -1.0336  0.8370 -0.5041
 5224TIP3   OH215614   5.685   0.768   1.176  0.2214 -0.5563  0.3163
 5224TIP3    H115615   5.688   0.863   1.190 -0.6714 -0.8237  2.7684
 5224TIP3    H215616   5.726   0.756   1.090  0.1311  2.0535 -0.1974
 5225TIP3   OH215617   1.279   4.675   3.750  0.4452 -0.1522  0.2011
 5225TIP3    H115618   1.203   4.699   3.803  0.8574 -1.2438  1.3236
 5225TIP3    H215619   1.281   4.741   3.680 -0.8890  0.5300  0.7694
 5226TIP3   OH215620   3.039   2.461   5.943 -0.1793 -0.0663 -0.5489
 5226TIP3    H115621   3.112   2.462   6.005  0.1208  1.9056 -0.8365
 5226TIP3    H215622   2.991   2.542   5.963 -1.9551 -1.0175 -0.7787
 5227TIP3   OH215623   5.979   6.487   3.004 -0.3187  0.1512  0.9981
 5227TIP3    H115624   5.985   6.566   2.951  2.2057 -0.9645 -0.5928
 5227TIP3    H215625   5.908   6.436   2.965 -0.5121  0.6805  0.6593
 5228TIP3   OH215626   4.340   0.882   5.384  0.2507  0.2209  0.2672
 5228TIP3    H115627   4.396   0.845   5.317 -0.4954 -0.7167  0.1429
 5228TIP3    H215628   4.252   0.880   5.347 -0.0284  0.6484  0.8730
 5229TIP3   OH215629   2.103   6.235   5.281  0.2596  0.7696 -0.3648
 5229TIP3    H115630   2.185   6.211   5.324 -1.3405  1.1667  3.3016
 5229TIP3    H215631   2.101   6.331   5.286 -0.4991  0.7531 -0.1677
 5230TIP3   OH215632   0.352   3.625   1.956  0.0796 -0.5156 -0.4812
 5230TIP3    H115633   0.348   3.607   2.050  0.7235 -3.0264 -0.8773
 5230TIP3    H215634   0.299   3.705   1.946 -0.6114 -0.5713  1.8929
 5231TIP3   OH215635   2.004   0.286   3.934  0.0766  0.1733 -0.1467
 5231TIP3    H115636   2.010   0.200   3.892 -0.4098 -0.1768  0.4909
 5231TIP3    H215637   1.997   0.348   3.861  1.2575 -0.2485 -0.6282
 5232TIP3   OH215638   7.610   5.006   1.156  0.2314 -0.1790  0.1402
 5232TIP3    H115639   7.617   4.951   1.234  0.3987 -2.1779 -1.1955
 5232TIP3    H215640   7.691   4.989   1.108 -0.7075 -0.5461 -1.3903
 5233TIP3   OH215641   7.116   4.703   5.837 -0.0127 -0.3826  0.0985
 5233TIP3    H115642   7.110   4.758   5.915 -1.7834  0.3675 -0.5022
 5233TIP3    H215643   7.134   4.615   5.871 -0.8138 -0.0855  1.3672
 5234TIP3   OH215644   6.407   6.303   5.058  0.1743  0.0899 -0.2510
 5234TIP3    H115645   6.464   6.246   5.007  0.7377  2.2461 -2.1696
 5234TIP3    H215646   6.327   6.251   5.071  0.9481 -1.3999 -1.1995
 5235TIP3   OH215647   0.149   6.531   2.189  0.2513  0.4045 -0.1777
 5235TIP3    H115648   0.168   6.601   2.127  0.9358  0.4509  0.0753
 5235TIP3    H215649   0.191   6.558   2.270  1.5219 -0.8074 -0.3853
 5236TIP3   OH215650   5.464   6.477   3.450 -0.1230 -0.0358  0.2132
 5236TIP3    H115651   5.536   6.464   3.511  0.4063 -0.5955 -0.5216
 5236TIP3    H215652   5.437   6.389   3.426 -1.2594  0.1528  0.6950
 5237TIP3   OH215653   1.324   0.400   1.655 -0.2337  0.3635  0.6362
 5237TIP3    H115654   1.352   0.309   1.665  3.5951  1.2947 -0.1197
 5237TIP3    H215655   1.288   0.423   1.741 -0.3528 -1.5267  1.1461
 5238TIP3   OH215656   5.110   1.499   4.292 -0.1754 -0.8917  0.0395
 5238TIP3    H115657   5.166   1.421   4.298  0.1953 -0.6628 -0.3979
 5238TIP3    H215658   5.021   1.464   4.287  0.0686 -1.3519 -1.6482
 5239TIP3   OH215659   4.749   4.389   4.077 -0.2212 -0.0819  0.3425
 5239TIP3    H115660   4.686   4.429   4.137  0.8014  1.0713  0.7050
 5239TIP3    H215661   4.810   4.460   4.057 -1.1580 -0.0747 -2.9855
 5240TIP3   OH215662   5.850   3.445   3.473 -0.1381  0.1103  0.3168
 5240TIP3    H115663   5.776   3.505   3.461 -0.9090 -0.0649  3.3399
 5240TIP3    H215664   5.927   3.502   3.470 -0.6489  0.8251  0.4406
 5241TIP3   OH215665   0.498   4.542   2.401  0.3792 -0.0091 -0.6807
 5241TIP3    H115666   0.534   4.602   2.465  0.2718  0.1522 -0.7709
 5241TIP3    H215667   0.551   4.554   2.323  2.0568 -1.8831  0.0581
 5242TIP3   OH215668   2.679   7.319   3.171  0.0101  0.6309 -0.3410
 5242TIP3    H115669   2.723   7.301   3.254  0.0263  1.2183 -0.2241
 5242TIP3    H215670   2.590   7.285   3.183 -0.5312  2.2996  0.5514
 5243TIP3   OH215671   5.579   4.723   5.799  0.2786  0.3967  0.0916
 5243TIP3    H115672   5.558   4.814   5.775  0.6911  0.3993 -0.2963
 5243TIP3    H215673   5.538   4.710   5.884 -1.2708  0.3891 -0.6171
 5244TIP3   OH215674   6.397   3.524   5.540  0.4324  0.2546  0.2573
 5244TIP3    H115675   6.349   3.603   5.518 -1.3314 -0.5843  0.9518
 5244TIP3    H215676   6.433   3.541   5.627  0.1381  0.3317  0.3642
 5245TIP3   OH215677   4.380   4.244   4.154  0.4631 -0.2701 -0.2029
 5245TIP3    H115678   4.420   4.284   4.076  1.8071  0.4516  0.8112
 5245TIP3    H215679   4.409   4.153   4.153  0.4360 -0.2746 -0.5696
 5246TIP3   OH215680   6.271   5.664   3.398 -0.4935  0.3382 -0.0564
 5246TIP3    H115681   6.292   5.688   3.308  0.2197  0.7344  0.2091
 5246TIP3    H215682   6.206   5.594   3.390 -0.0543  0.0153 -0.8795
 5247TIP3   OH215683   0.118   1.375   3.530 -0.6019 -0.4030  0.3540
 5247TIP3    H115684   0.115   1.465   3.498 -0.1405 -1.0214 -1.5484
 5247TIP3    H215685   0.187   1.375   3.597 -1.0299  0.7573  0.8188
 5248TIP3   OH215686   6.377   6.663   6.160 -0.7918  0.2035  0.9907
 5248TIP3    H115687   6.467   6.654   6.127 -0.6116 -2.3964  1.9982
 5248TIP3    H215688   6.322   6.636   6.087 -0.6692 -0.0506  0.9922
 5249TIP3   OH215689   6.562   1.106   1.527  0.5098  0.6553  0.4831
 5249TIP3    H115690   6.477   1.114   1.484 -0.6034  1.9549  2.6775
 5249TIP3    H215691   6.555   1.026   1.579  1.4003 -0.2893 -0.8256
 5250TIP3   OH215692   0.051   2.273   2.075  0.8937  0.0905  0.0359
 5250TIP3    H115693  -0.021   2.240   2.129 -0.2627  2.1113 -0.1753
 5250TIP3    H215694   0.099   2.194   2.048 -0.7373 -1.2485  0.8529
 5251TIP3   OH215695   4.526   1.281   5.224  0.4920 -0.0867 -0.4152
 5251TIP3    H115696   4.479   1.206   5.187 -1.7572  1.3983 -0.8032
 5251TIP3    H215697   4.459   1.329   5.273  2.2775  0.7112  1.3655
 5252TIP3   OH215698   6.553   6.374   1.199  0.1411 -0.1167 -0.0977
 5252TIP3    H115699   6.479   6.410   1.151  1.8606  2.4422 -1.0601
 5252TIP3    H215700   6.555   6.423   1.281  0.1272 -0.9676  0.4206
 5253TIP3   OH215701   6.352   7.653   0.055  0.1003  0.7893  0.2787
 5253TIP3    H115702   6.294   7.649  -0.022 -1.2964 -0.7739  1.3415
 5253TIP3    H215703   6.428   7.702   0.025 -0.0785 -0.3487 -2.3269
 5254TIP3   OH215704   3.153   0.739   0.545  0.1671 -0.3372 -0.7840
 5254TIP3    H115705   3.134   0.702   0.631 -0.7252  0.3980 -0.6570
 5254TIP3    H215706   3.116   0.827   0.548  0.9181  0.0215 -1.6154
 5255TIP3   OH215707   7.445   6.264   2.222 -0.0537  0.4059  0.1145
 5255TIP3    H115708   7.431   6.217   2.140  1.2297  1.4670 -0.7468
 5255TIP3    H215709   7.540   6.268   2.233 -0.1692  1.2274  1.0874
 5256TIP3   OH215710   0.455   6.631   6.136 -0.7758  0.1736  0.2692
 5256TIP3    H115711   0.365   6.662   6.126 -0.4687  0.4414 -2.3157
 5256TIP3    H215712   0.458   6.548   6.088 -0.0619 -0.8132  1.9225
 5257TIP3   OH215713   5.972   1.714   4.091  0.2101  0.3382 -0.2770
 5257TIP3    H115714   5.892   1.713   4.038  0.0622  0.1635 -0.0535
 5257TIP3    H215715   6.028   1.649   4.050  0.3275  0.6200 -0.5689
 5258TIP3   OH215716   7.112   3.785   2.620  0.3446 -0.2385 -0.0379
 5258TIP3    H115717   7.057   3.850   2.576 -0.9890 -1.2664  0.0674
 5258TIP3    H215718   7.174   3.757   2.553  0.7157  0.8581 -0.1892
 5259TIP3   OH215719   7.945   5.720   2.878  0.5588 -0.6955  0.1157
 5259TIP3    H115720   8.016   5.772   2.915 -0.8633  0.4239  1.3657
 5259TIP3    H215721   7.881   5.712   2.949 -0.3714 -2.0898 -0.8194
 5260TIP3   OH215722   5.831   0.600   2.462 -0.1444  0.3726 -0.4148
 5260TIP3    H115723   5.757   0.648   2.499  1.4153  1.7159  1.1325
 5260TIP3    H215724   5.794   0.516   2.433 -2.1339  0.7358  0.9171
 5261TIP3   OH215725   6.589   4.421   1.981 -0.2147  0.4332  0.5460
 5261TIP3    H115726   6.524   4.490   1.973  0.2981  0.7902 -0.8392
 5261TIP3    H215727   6.606   4.393   1.891 -0.7938 -1.8717  1.0912
 5262TIP3   OH215728   6.009   2.006   2.331 -0.2296 -0.0140 -0.3538
 5262TIP3    H115729   5.940   2.073   2.339 -1.2093 -0.9622 -0.7022
 5262TIP3    H215730   6.089   2.052   2.357 -1.3630  0.3788  3.0317
 5263TIP3   OH215731   1.679   7.051   2.519  0.0027  0.2935 -0.0701
 5263TIP3    H115732   1.640   7.026   2.603 -1.0230 -0.4102 -0.7244
 5263TIP3    H215733   1.764   7.009   2.519 -0.4925 -0.7360  0.1081
 5264TIP3   OH215734   6.640   0.145   0.229  0.1576  0.1368 -0.0286
 5264TIP3    H115735   6.642   0.062   0.183 -2.5749 -0.9060  1.4993
 5264TIP3    H215736   6.627   0.210   0.160  0.9973 -0.8140 -1.1209
 5265TIP3   OH215737   5.706   0.556   0.289 -0.4657  0.0213 -0.2193
 5265TIP3    H115738   5.728   0.491   0.355  1.7077  1.0056  0.0950
 5265TIP3    H215739   5.611   0.567   0.297 -0.4556 -0.9305  1.7382
 5266TIP3   OH215740   6.315   0.525   2.944  0.1588  0.7302  0.1514
 5266TIP3    H115741   6.359   0.607   2.968 -2.0281  1.6567  1.2147
 5266TIP3    H215742   6.226   0.551   2.923 -0.2207 -1.2359 -0.8328
 5267TIP3   OH215743   1.138   0.190   1.028  0.7774 -0.3082  0.3311
 5267TIP3    H115744   1.072   0.135   0.986  0.0308  1.7527 -1.3501
 5267TIP3    H215745   1.212   0.131   1.044 -0.8769 -2.3337  0.9272
 5268TIP3   OH215746   2.503   3.499   4.571  0.7656  0.2511  0.2757
 5268TIP3    H115747   2.514   3.444   4.649  3.3243  0.6028  0.2499
 5268TIP3    H215748   2.515   3.588   4.603 -0.7981  0.6307 -0.1204
 5269TIP3   OH215749   5.115   7.436   1.618 -0.1332 -0.2985  0.2571
 5269TIP3    H115750   5.089   7.474   1.534  0.3512  0.5869  0.4910
 5269TIP3    H215751   5.205   7.406   1.604 -0.1812 -0.4820  0.3477
 5270TIP3   OH215752   6.712   6.391   6.391 -0.0274 -0.3483  0.2627
 5270TIP3    H115753   6.689   6.367   6.481  0.2874  0.5150  0.5930
 5270TIP3    H215754   6.807   6.406   6.393 -0.2152  1.0550  0.1489
 5271TIP3   OH215755   2.496   5.655   0.471  0.0190  0.3316 -0.2540
 5271TIP3    H115756   2.497   5.742   0.430 -0.4820  1.2771  1.6019
 5271TIP3    H215757   2.424   5.660   0.535  0.8723 -0.9815  0.8605
 5272TIP3   OH215758   7.999   6.121   1.624 -0.0473  0.2350  0.2807
 5272TIP3    H115759   8.006   6.086   1.535 -1.0672  1.6212 -0.3833
 5272TIP3    H215760   7.905   6.118   1.643 -0.0688  1.8049  0.5132
 5273TIP3   OH215761   0.009   2.811   1.560 -0.5263  0.9633 -0.0736
 5273TIP3    H115762   0.059   2.767   1.492 -0.2348  0.4685  0.4468
 5273TIP3    H215763   0.059   2.796   1.640 -1.6338  0.2157  0.5129
 5274TIP3   OH215764   4.381   6.504   4.183 -0.0420 -0.1776  0.0535
 5274TIP3    H115765   4.413   6.483   4.271 -0.6086 -1.6237 -0.0609
 5274TIP3    H215766   4.447   6.564   4.148  0.3346  0.2165  1.3460
 5275TIP3   OH215767   3.103   0.552   3.785 -0.4443  0.2626  0.4768
 5275TIP3    H115768   3.059   0.510   3.712  1.1476  0.7329 -0.8023
 5275TIP3    H215769   3.089   0.646   3.771  0.7208  0.4039  0.1969
 5276TIP3   OH215770   3.885   3.446   2.910  0.0368 -0.3282  0.3984
 5276TIP3    H115771   3.869   3.492   2.828  0.6140  0.3356  0.6445
 5276TIP3    H215772   3.810   3.469   2.965 -0.0351 -0.2650  0.2741
 5277TIP3   OH215773   0.800   7.781   5.202 -0.5920  0.0744  0.2861
 5277TIP3    H115774   0.874   7.754   5.257  0.4530  0.4598 -0.8692
 5277TIP3    H215775   0.819   7.741   5.117 -1.0515  1.2165 -0.3700
 5278TIP3   OH215776   1.002   0.940   1.866 -0.2892 -0.4068 -0.1041
 5278TIP3    H115777   1.085   0.916   1.823  0.8857  1.0648  1.2319
 5278TIP3    H215778   1.010   1.034   1.882 -1.3897 -0.5920  1.7713
 5279TIP3   OH215779   0.839   3.905   1.953  0.4738  0.0920  0.0770
 5279TIP3    H115780   0.793   3.900   2.037  1.0469 -0.7562  0.3595
 5279TIP3    H215781   0.769   3.903   1.887  0.0332  0.4908  0.5249
 5280TIP3   OH215782   5.133   4.235   1.999  0.5126  0.0892 -0.4911
 5280TIP3    H115783   5.107   4.211   2.088  1.2092  1.1774  0.0299
 5280TIP3    H215784   5.075   4.307   1.976  0.0848 -0.4341 -1.0744
 5281TIP3   OH215785   7.255   3.147   1.688  0.5455 -0.0046 -0.0189
 5281TIP3    H115786   7.166   3.125   1.715  0.8407 -0.7771  0.3486
 5281TIP3    H215787   7.285   3.210   1.754  0.1197  0.6284 -0.4091
 5282TIP3   OH215788   7.134   4.291   2.874 -0.4660  0.5271 -0.0891
 5282TIP3    H115789   7.077   4.291   2.797 -0.2535  0.5238 -0.2462
 5282TIP3    H215790   7.152   4.199   2.891  0.9108  0.5808 -1.0931
 5283TIP3   OH215791   6.482   0.924   1.715  0.9897  0.1192  0.5080
 5283TIP3    H115792   6.533   0.843   1.714  2.7014  1.1371  0.1969
 5283TIP3    H215793   6.466   0.943   1.807  1.1817 -0.2140  0.6079
 5284TIP3   OH215794   0.944   3.903   1.351  0.3477 -0.0564  0.6234
 5284TIP3    H115795   1.025   3.853   1.360  0.2335 -0.3098  0.2760
 5284TIP3    H215796   0.913   3.917   1.440  0.6956 -0.0902  0.7484
 5285TIP3   OH215797   2.573   1.078   0.531 -0.1338  0.0194 -0.2485
 5285TIP3    H115798   2.623   1.068   0.612  0.2368 -0.1944 -0.5014
 5285TIP3    H215799   2.597   1.002   0.478  0.9726  1.0254 -1.2750
 5286TIP3   OH215800   0.172   6.285   6.581  0.1793  0.5353 -0.2361
 5286TIP3    H115801   0.232   6.335   6.637 -0.2441  0.5628  0.1979
 5286TIP3    H215802   0.222   6.207   6.556  1.4537  1.8920 -2.2347
 5287TIP3   OH215803   6.193   5.672   4.391 -0.0805  0.3811  0.1795
 5287TIP3    H115804   6.204   5.624   4.473 -1.0087  0.2744  0.2427
 5287TIP3    H215805   6.157   5.757   4.417 -0.5470  0.2808 -0.1310
 5288TIP3   OH215806   3.335   3.637   4.217 -0.3540 -0.0778  0.4206
 5288TIP3    H115807   3.301   3.550   4.193  0.8439 -0.2413 -0.8453
 5288TIP3    H215808   3.264   3.679   4.264 -1.7720 -0.9345 -0.8716
 5289TIP3   OH215809   7.682   5.236   5.087  0.6993 -0.3900  0.0980
 5289TIP3    H115810   7.614   5.179   5.050 -0.4455  2.6928 -3.0621
 5289TIP3    H215811   7.754   5.232   5.024  0.6101  1.5297 -0.1839
 5290TIP3   OH215812   2.829   6.682   6.596 -0.3155 -0.5854  0.1011
 5290TIP3    H115813   2.779   6.662   6.517 -0.0582 -0.6656 -0.0403
 5290TIP3    H215814   2.856   6.597   6.630 -0.6394 -0.5673  0.4174
 5291TIP3   OH215815   5.861   5.514   2.646 -0.5170 -0.1898 -0.0224
 5291TIP3    H115816   5.889   5.581   2.709 -0.4869  0.2914 -0.5447
 5291TIP3    H215817   5.774   5.487   2.678 -1.4511  1.5551 -0.9108
 5292TIP3   OH215818   5.224   7.658   2.682  0.0084  0.2725  0.1049
 5292TIP3    H115819   5.150   7.718   2.684  0.6910  1.1354  0.1483
 5292TIP3    H215820   5.186   7.573   2.659 -0.8212  0.9568 -1.1922
 5293TIP3   OH215821   0.073   1.621   4.171  0.1853  0.4201  0.0069
 5293TIP3    H115822   0.093   1.572   4.091 -1.0768 -0.3539  0.1396
 5293TIP3    H215823  -0.017   1.596   4.192 -0.1229  1.9937  0.6840
 5294TIP3   OH215824   3.271   7.513   4.549 -0.0862 -0.3899 -0.1291
 5294TIP3    H115825   3.188   7.549   4.518  0.3621 -0.1972 -1.1479
 5294TIP3    H215826   3.323   7.501   4.469  0.6264 -1.1220  0.4284
 5295TIP3   OH215827   2.284   1.363   1.774  0.0929 -0.2844  0.4995
 5295TIP3    H115828   2.372   1.402   1.769 -0.6415  1.4593  0.2683
 5295TIP3    H215829   2.248   1.376   1.686 -0.6990 -0.1782  0.8368
 5296TIP3   OH215830   2.546   0.158   1.593 -0.2646 -0.1079  0.7617
 5296TIP3    H115831   2.493   0.079   1.606 -0.1286 -0.5927 -1.2964
 5296TIP3    H215832   2.636   0.130   1.611 -0.0962 -0.7226 -0.8444
 5297TIP3   OH215833   5.047   1.991   6.570  0.0247  0.3663  0.1568
 5297TIP3    H115834   5.043   1.966   6.662  1.4129 -0.3208  0.0492
 5297TIP3    H215835   5.033   2.086   6.570 -1.3856  0.1828  0.9258
 5298TIP3   OH215836   7.456   4.107   5.998  0.5747 -0.0387  0.0482
 5298TIP3    H115837   7.424   4.034   5.945  0.8437  0.9613 -1.5695
 5298TIP3    H215838   7.471   4.178   5.935 -1.2016  1.9719  1.7239
 5299TIP3   OH215839   4.889   7.092   3.523 -0.5916  0.3745  0.6102
 5299TIP3    H115840   4.957   7.027   3.538  0.8884  1.7662  0.3068
 5299TIP3    H215841   4.812   7.059   3.568  0.8329 -0.3389  2.6504
 5300TIP3   OH215842   7.882   3.573   3.083  0.2687  0.1893  0.1963
 5300TIP3    H115843   7.914   3.543   2.998  1.5988 -1.1010  1.1133
 5300TIP3    H215844   7.929   3.655   3.098  1.1024 -0.2904  0.2896
 5301TIP3   OH215845   7.448   2.264   5.461  0.1775  0.4757 -0.4024
 5301TIP3    H115846   7.471   2.310   5.380 -2.5926 -0.5934 -1.8954
 5301TIP3    H215847   7.430   2.174   5.434  1.9103 -0.6863  1.9093
 5302TIP3   OH215848   3.942   5.302   6.531 -0.6080 -0.3601  0.1653
 5302TIP3    H115849   4.035   5.294   6.511 -0.6698  1.9447 -1.4453
 5302TIP3    H215850   3.902   5.331   6.449 -2.2563  1.5694  1.5422
 5303TIP3   OH215851   6.040   3.319   1.392 -0.0521  0.7887 -0.2044
 5303TIP3    H115852   5.965   3.261   1.382  0.5330  0.3682 -2.8970
 5303TIP3    H215853   6.114   3.260   1.405  0.1531  1.0790 -0.0403
 5304TIP3   OH215854   6.938   3.734   0.100  0.4359 -0.2093  0.3109
 5304TIP3    H115855   6.886   3.806   0.064  1.3290 -0.2427 -1.1166
 5304TIP3    H215856   6.911   3.657   0.049 -0.4038 -0.8824  1.7201
 5305TIP3   OH215857   7.635   4.030   3.496 -0.8339 -0.1404  0.0408
 5305TIP3    H115858   7.602   4.119   3.492 -1.6695 -0.3307  1.9838
 5305TIP3    H215859   7.719   4.037   3.542 -1.6223 -0.5088  1.5836
 5306TIP3   OH215860   3.721   3.503   0.076 -0.1750 -0.5774 -0.0791
 5306TIP3    H115861   3.714   3.589   0.117  1.3839  0.0302 -1.0226
 5306TIP3    H215862   3.673   3.512  -0.006  0.1095 -0.5712 -0.2440
 5307TIP3   OH215863   2.281   6.930   4.208  0.5951  0.7222  0.1375
 5307TIP3    H115864   2.351   6.925   4.143  0.8967  1.6440  0.3638
 5307TIP3    H215865   2.325   6.962   4.287 -0.2021  2.1329  0.0527
 5308TIP3   OH215866   6.292   6.556   4.163  0.1310 -0.2484 -0.2970
 5308TIP3    H115867   6.301   6.651   4.156  0.0160 -0.2720 -0.8494
 5308TIP3    H215868   6.330   6.534   4.248 -0.3084  0.3478  0.0596
 5309TIP3   OH215869   7.645   4.641   0.800 -0.4490  0.1220  0.2455
 5309TIP3    H115870   7.603   4.661   0.716 -4.6903 -1.6761  1.6804
 5309TIP3    H215871   7.717   4.582   0.776 -1.5048 -0.3364 -2.1523
 5310TIP3   OH215872   0.292   5.614   3.295 -0.6254  0.0643  0.0806
 5310TIP3    H115873   0.241   5.579   3.368  0.2871 -0.4122  0.5034
 5310TIP3    H215874   0.366   5.659   3.336  0.0237 -0.4052 -0.5387
 5311TIP3   OH215875   6.961   3.283   0.921  0.1071 -0.4335  0.6517
 5311TIP3    H115876   6.947   3.361   0.975  0.9229 -1.0629  1.8070
 5311TIP3    H215877   7.017   3.315   0.849 -1.0796  0.4292  0.0636
 5312TIP3   OH215878   3.171   7.362   3.477 -0.3119  0.1229  0.7229
 5312TIP3    H115879   3.243   7.378   3.416 -2.0157 -0.0727 -1.4631
 5312TIP3    H215880   3.175   7.268   3.496 -1.4593 -0.4275 -1.4679
 5313TIP3   OH215881   0.811   6.136   6.177 -0.3734 -0.8431  0.0309
 5313TIP3    H115882   0.721   6.109   6.195 -0.0988 -1.1892  0.9195
 5313TIP3    H215883   0.804   6.187   6.096 -1.3237 -1.0970 -0.0679
 5314TIP3   OH215884   3.894   3.128   6.479 -0.2467  0.3266 -0.6168
 5314TIP3    H115885   3.896   3.110   6.573  0.1746 -0.3500 -0.7533
 5314TIP3    H215886   3.985   3.147   6.456  0.0040 -1.4301 -1.2393
 5315TIP3   OH215887   7.357   1.477   2.713  0.6667 -0.1285 -0.3625
 5315TIP3    H115888   7.451   1.488   2.700  0.5336 -0.2084 -1.4305
 5315TIP3    H215889   7.328   1.561   2.750  0.8086  0.7168 -2.0717
 5316TIP3   OH215890   5.729   0.952   6.040  0.1928 -0.5197  0.6626
 5316TIP3    H115891   5.783   1.028   6.063  1.6195 -1.2369 -0.1760
 5316TIP3    H215892   5.775   0.912   5.966 -1.3991 -1.2924  0.0551
 5317TIP3   OH215893   4.436   1.405   3.512 -0.0209  0.2817  0.3530
 5317TIP3    H115894   4.447   1.447   3.597 -1.4853  0.8574  0.2765
 5317TIP3    H215895   4.354   1.356   3.520 -0.4140  0.7191 -0.8800
 5318TIP3   OH215896   8.237   0.220   2.058  0.5671  0.3991 -0.0974
 5318TIP3    H115897   8.291   0.212   2.137  1.1521  1.0526 -0.4306
 5318TIP3    H215898   8.148   0.236   2.092  1.0601  2.2315  0.4437
 5319TIP3   OH215899   0.246   1.617   0.633 -0.3735  0.2813  0.1120
 5319TIP3    H115900   0.161   1.591   0.596 -0.5643  0.9485  0.0599
 5319TIP3    H215901   0.250   1.573   0.718 -0.6363  0.0036 -0.0145
 5320TIP3   OH215902   8.195   1.621   5.990 -0.4940  0.2734  0.2887
 5320TIP3    H115903   8.102   1.643   5.984 -0.7066 -0.6056  0.1285
 5320TIP3    H215904   8.214   1.574   5.909 -0.0699 -0.1086  0.6028
 5321TIP3   OH215905   4.929   1.004   2.149 -0.3589 -0.2361  0.4372
 5321TIP3    H115906   4.910   0.976   2.059  1.9604  0.6299 -0.4047
 5321TIP3    H215907   4.845   1.000   2.194 -1.4147 -1.5867 -1.5186
 5322TIP3   OH215908   2.852   7.272   5.362  0.3192  0.2577  0.3092
 5322TIP3    H115909   2.932   7.224   5.340  0.5795  0.1154  1.4956
 5322TIP3    H215910   2.800   7.271   5.282  0.3711 -1.8756  0.2532
 5323TIP3   OH215911   7.810   7.544   1.720 -0.6831  0.5121 -0.2733
 5323TIP3    H115912   7.768   7.604   1.781 -0.6019  0.4807 -0.1866
 5323TIP3    H215913   7.785   7.576   1.633  0.2675  1.3357 -0.2624
 5324TIP3   OH215914   0.129   2.893   4.396  0.1626  0.1897 -0.2153
 5324TIP3    H115915   0.125   2.970   4.452  2.2652  0.0971  0.1359
 5324TIP3    H215916   0.223   2.882   4.377 -0.3159 -0.7948 -2.3292
 5325TIP3   OH215917   3.463   7.365   4.125  0.0246  0.2135 -0.0657
 5325TIP3    H115918   3.401   7.329   4.061  0.3615  1.6663 -1.2664
 5325TIP3    H215919   3.534   7.301   4.128 -0.9688 -0.9017  0.4689
 5326TIP3   OH215920   0.077   2.805   5.468  0.1938 -0.0067  0.4662
 5326TIP3    H115921   0.142   2.735   5.471  1.2255  0.6250 -2.8304
 5326TIP3    H215922   0.002   2.765   5.425 -0.5933  0.0274  1.7594
 5327TIP3   OH215923   5.633   7.241   0.612  0.2185 -0.1976  0.3876
 5327TIP3    H115924   5.692   7.172   0.583 -0.3432 -0.4433 -0.1645
 5327TIP3    H215925   5.584   7.203   0.684 -1.8941 -1.2620 -1.5178
 5328TIP3   OH215926   7.555   4.484   6.080  0.7254 -0.1127 -0.3420
 5328TIP3    H115927   7.635   4.443   6.113  0.5197  0.3207  0.7117
 5328TIP3    H215928   7.489   4.415   6.082  0.3033  0.3047  1.7090
 5329TIP3   OH215929   1.409   0.616   4.298  0.4026  0.3571  0.4001
 5329TIP3    H115930   1.367   0.540   4.258  1.4785  0.7831 -1.6761
 5329TIP3    H215931   1.342   0.652   4.356 -0.7285 -1.1683  0.1123
 5330TIP3   OH215932   6.761   3.602   5.329  0.0599 -0.0856  0.1438
 5330TIP3    H115933   6.855   3.618   5.324 -0.0134  0.3873  0.2520
 5330TIP3    H215934   6.722   3.671   5.276 -0.3155  0.6098  1.2934
 5331TIP3   OH215935   1.386   0.661   4.977 -0.6262 -0.2567  0.0383
 5331TIP3    H115936   1.300   0.621   4.986  0.4340 -2.5637  0.7877
 5331TIP3    H215937   1.440   0.592   4.938  0.9022  1.0971 -0.3430
 5332TIP3   OH215938   5.273   3.586   1.923 -0.2110 -0.4974  0.0070
 5332TIP3    H115939   5.263   3.661   1.864 -1.1624 -0.6234 -0.0002
 5332TIP3    H215940   5.339   3.614   1.987 -1.1549  0.6549  0.4991
 5333TIP3   OH215941   1.694   1.591   6.550  0.7279 -0.0503  0.3461
 5333TIP3    H115942   1.685   1.551   6.636  0.5648  0.3401  0.5110
 5333TIP3    H215943   1.690   1.517   6.489 -0.8173 -0.1864  0.5705
 5334TIP3   OH215944   7.979   4.134   3.187 -0.6405  0.1105 -0.1413
 5334TIP3    H115945   8.072   4.153   3.202 -0.4605 -1.2423  0.6441
 5334TIP3    H215946   7.954   4.079   3.262 -1.8520 -0.2191 -0.7712
 5335TIP3   OH215947   2.333   5.306   0.129 -0.4911  0.3216  0.3684
 5335TIP3    H115948   2.424   5.310   0.100 -0.1812 -1.2755  0.9750
 5335TIP3    H215949   2.330   5.361   0.207  0.4489 -1.0150  1.4157
 5336TIP3   OH215950   8.148   5.290   6.399 -0.0990 -0.4978  0.2791
 5336TIP3    H115951   8.077   5.351   6.420 -1.8967 -2.5262  0.3843
 5336TIP3    H215952   8.147   5.284   6.304 -0.1132 -0.5978  0.2862
 5337TIP3   OH215953   6.514   0.988   2.427  0.2161 -0.0171 -0.3405
 5337TIP3    H115954   6.527   1.068   2.376 -0.7056 -0.8420 -1.9692
 5337TIP3    H215955   6.419   0.981   2.437  0.2220 -1.3061 -0.9493
 5338TIP3   OH215956   3.002   1.006   2.057 -0.1026 -0.0896 -0.0427
 5338TIP3    H115957   3.077   1.053   2.022 -1.2277  0.4967 -1.7521
 5338TIP3    H215958   3.017   0.914   2.033  0.5377 -0.1454  0.5287
 5339TIP3   OH215959   0.376   0.842   2.892  0.4300  0.1083 -0.0590
 5339TIP3    H115960   0.366   0.759   2.937  0.1916 -0.1380 -0.5578
 5339TIP3    H215961   0.396   0.905   2.962  1.6511 -0.5425  0.2117
 5340TIP3   OH215962   1.293   2.842   2.971 -0.2546 -0.5305  0.2699
 5340TIP3    H115963   1.361   2.797   2.920  0.5748  0.4744  0.4694
 5340TIP3    H215964   1.280   2.786   3.048 -0.1502 -1.0770 -0.1047
 5341TIP3   OH215965   4.945   1.218   5.492  0.1408  0.7504  0.2989
 5341TIP3    H115966   4.851   1.201   5.504  0.4722 -0.0181  2.2502
 5341TIP3    H215967   4.982   1.133   5.469  0.3835  1.0283 -0.3539
 5342TIP3   OH215968   2.551   5.644   2.623  0.0195 -0.5313  0.1424
 5342TIP3    H115969   2.477   5.587   2.604 -0.7816 -0.0311  1.5907
 5342TIP3    H215970   2.591   5.661   2.538 -1.7831 -0.4924 -0.7478
 5343TIP3   OH215971   0.694   3.218   6.114 -0.1945 -0.2979  0.6937
 5343TIP3    H115972   0.745   3.283   6.163 -0.2211 -0.4222  0.8897
 5343TIP3    H215973   0.606   3.256   6.109 -0.0607 -0.0421  0.2760
 5344TIP3   OH215974   4.356   6.082   3.341 -0.1690  0.3399  1.1989
 5344TIP3    H115975   4.276   6.033   3.360 -0.3572  0.4290  0.6462
 5344TIP3    H215976   4.396   6.096   3.427  0.4603 -1.7120  1.2808
 5345TIP3   OH215977   3.561   3.130   2.347 -0.4410  0.5879 -0.3754
 5345TIP3    H115978   3.636   3.082   2.310 -0.2192  0.3544  0.3575
 5345TIP3    H215979   3.596   3.172   2.425 -1.1311  0.3062  0.0915
 5346TIP3   OH215980   7.393   7.388   0.307 -0.3312  0.5723  0.1434
 5346TIP3    H115981   7.486   7.397   0.328 -0.0434 -0.5589 -0.5825
 5346TIP3    H215982   7.372   7.468   0.259  0.3045  0.7445  0.1394
 5347TIP3   OH215983   7.823   2.034   6.591  0.3345  0.1468  0.2632
 5347TIP3    H115984   7.781   1.998   6.513 -0.5542 -0.4888  1.0214
 5347TIP3    H215985   7.753   2.040   6.655  1.6623 -2.4404  2.1079
 5348TIP3   OH215986   7.233   6.818   0.863 -0.1593 -0.1513 -0.0567
 5348TIP3    H115987   7.194   6.873   0.931  1.0019  0.8780 -0.1755
 5348TIP3    H215988   7.164   6.757   0.839 -1.4958  1.2175  0.1303
 5349TIP3   OH215989   4.653   2.770   1.884 -0.0927  0.2930 -0.7076
 5349TIP3    H115990   4.710   2.846   1.874 -0.0773  0.5061  0.7117
 5349TIP3    H215991   4.577   2.789   1.830 -0.8662  2.1482  0.9056
 5350TIP3   OH215992   3.781   2.965   1.978  0.0824  0.1650 -0.4382
 5350TIP3    H115993   3.777   3.046   1.928  1.7012 -0.6848 -2.0411
 5350TIP3    H215994   3.766   2.896   1.914 -0.5520 -0.8690  0.7676
 5351TIP3   OH215995   2.933   0.836   3.720  0.7436 -0.0840  0.4730
 5351TIP3    H115996   2.952   0.790   3.638  1.1166  0.5818  0.1786
 5351TIP3    H215997   2.840   0.818   3.736  1.2248 -2.1924  1.1720
 5352TIP3   OH215998   3.148   6.217   2.152 -1.1036  0.3526  0.0735
 5352TIP3    H115999   3.122   6.309   2.161 -2.2132 -0.0710  1.5566
 5352TIP3    H216000   3.229   6.209   2.202 -1.4290  0.3555  0.6016
 5353TIP3   OH216001   7.288   4.340   4.886  0.0495 -0.3856  0.1299
 5353TIP3    H116002   7.366   4.306   4.843  1.2823 -0.2899  2.1452
 5353TIP3    H216003   7.243   4.261   4.918 -0.0479 -0.3891 -0.0179
 5354TIP3   OH216004   5.510   1.927   3.289 -0.1034  0.1993 -0.0248
 5354TIP3    H116005   5.418   1.953   3.282 -0.6174 -1.4686  0.2921
 5354TIP3    H216006   5.558   2.009   3.276 -1.5929  0.9736 -0.9844
 5355TIP3   OH216007   3.057   5.294   5.386 -0.0869 -0.2657 -0.2723
 5355TIP3    H116008   3.141   5.284   5.342 -0.9869 -0.3772 -2.0391
 5355TIP3    H216009   3.018   5.206   5.385 -1.4816  0.3214 -2.1800
 5356TIP3   OH216010   8.026   1.731   5.598 -0.0979  0.0991  0.2589
 5356TIP3    H116011   8.072   1.649   5.581  1.1230  0.7659  0.2058
 5356TIP3    H216012   7.959   1.735   5.530 -0.7996 -1.2821  0.8330
 5357TIP3   OH216013   1.772   4.584   0.867 -0.1753  0.2199 -0.1891
 5357TIP3    H116014   1.699   4.533   0.832 -1.7102  1.4102  1.1231
 5357TIP3    H216015   1.802   4.637   0.794 -2.0999  1.3055 -0.2471
 5358TIP3   OH216016   6.550   6.735   4.325 -0.3080 -0.9336  0.3197
 5358TIP3    H116017   6.463   6.701   4.304 -0.0048 -1.1189 -0.6883
 5358TIP3    H216018   6.538   6.780   4.409 -1.4818 -0.5316 -0.0377
 5359TIP3   OH216019   2.916   5.778   1.123 -0.0676 -0.1122 -0.2954
 5359TIP3    H116020   2.918   5.693   1.080  1.0569 -0.2673  0.0108
 5359TIP3    H216021   2.938   5.841   1.054  0.8316 -0.2676 -0.1674
 5360TIP3   OH216022   5.862   2.227   6.732 -0.2462 -0.1965 -0.3393
 5360TIP3    H116023   5.860   2.279   6.652  0.6080 -0.6880 -0.6903
 5360TIP3    H216024   5.812   2.148   6.710 -3.0177  1.1238  0.7113
 5361TIP3   OH216025   0.573   2.198   5.502 -0.7173 -0.0293 -0.2947
 5361TIP3    H116026   0.500   2.233   5.553  0.1670  1.2237  0.1259
 5361TIP3    H216027   0.584   2.260   5.430  0.6356  0.3861  0.2510
 5362TIP3   OH216028   2.152   2.421   5.657  0.2627  0.9596 -0.2544
 5362TIP3    H116029   2.168   2.360   5.585 -1.1303  0.0819  0.1347
 5362TIP3    H216030   2.229   2.478   5.659  0.8779  0.2062 -1.6316
 5363TIP3   OH216031   3.582   5.255   2.486  0.0860  0.0463  0.6130
 5363TIP3    H116032   3.502   5.204   2.501 -0.1203  0.7736  2.1381
 5363TIP3    H216033   3.584   5.319   2.557  1.1002  1.2232 -0.4239
 5364TIP3   OH216034   4.115   2.620   0.942  0.1788  0.1751  0.3002
 5364TIP3    H116035   4.197   2.663   0.918  0.1655  0.6470  1.0836
 5364TIP3    H216036   4.054   2.692   0.959 -0.6925 -0.1663 -1.2069
 5365TIP3   OH216037   7.382   1.117   4.994  0.3034  0.0108 -0.0591
 5365TIP3    H116038   7.360   1.208   5.016 -0.0919 -0.4680  1.6301
 5365TIP3    H216039   7.477   1.113   4.999  0.3339  0.3519 -0.2932
 5366TIP3   OH216040   4.627   2.167   5.029 -0.2414 -0.4339 -0.0080
 5366TIP3    H116041   4.563   2.142   4.962 -1.5894  2.0793  0.2296
 5366TIP3    H216042   4.688   2.225   4.984 -0.4554  0.3180  0.6452
 5367TIP3   OH216043   2.546   0.465   3.137  0.4580  0.4397  0.0013
 5367TIP3    H116044   2.502   0.536   3.090  0.1493 -1.1545 -2.2874
 5367TIP3    H216045   2.528   0.483   3.229 -1.9999  1.7841 -0.6527
 5368TIP3   OH216046   2.316   6.654   4.121  0.0237  0.1721 -0.6250
 5368TIP3    H116047   2.410   6.669   4.126 -0.0728  0.6162  3.5174
 5368TIP3    H216048   2.276   6.738   4.142 -1.2089 -0.5125 -0.0766
 5369TIP3   OH216049   7.892   6.802   4.102 -0.0466 -0.2003  0.6768
 5369TIP3    H116050   7.829   6.867   4.132 -0.3232 -0.7444  1.3163
 5369TIP3    H216051   7.959   6.852   4.056 -0.3640  0.5055  0.9700
 5370TIP3   OH216052   7.277   1.910   6.248  0.0143 -0.5801 -0.0709
 5370TIP3    H116053   7.211   1.901   6.179  1.6557  1.0740 -1.9952
 5370TIP3    H216054   7.336   1.979   6.215  2.1957 -1.3688  1.9479
 5371TIP3   OH216055   1.143   1.457   0.038  0.2555 -0.1542 -0.0351
 5371TIP3    H116056   1.171   1.549   0.042 -4.9659  1.7222  0.7840
 5371TIP3    H216057   1.135   1.439  -0.056 -0.9435  1.1738 -0.2308
 5372TIP3   OH216058   7.336   7.404   2.734 -0.2353  0.7466  0.0636
 5372TIP3    H116059   7.424   7.370   2.720 -0.3368  0.9983 -1.3197
 5372TIP3    H216060   7.284   7.327   2.759 -0.0571  0.2228 -1.1371
 5373TIP3   OH216061   4.995   3.162   2.189  0.0924  0.1620 -0.0607
 5373TIP3    H116062   5.057   3.132   2.255 -1.4971 -0.6901  1.1094
 5373TIP3    H216063   5.010   3.256   2.183  0.3113  0.2525  1.5058
 5374TIP3   OH216064   3.363   5.059   2.201  0.2083 -0.1839  0.4287
 5374TIP3    H116065   3.269   5.076   2.209  0.1938  1.1622 -1.8910
 5374TIP3    H216066   3.371   4.964   2.211 -1.7552 -0.6538 -1.6638
 5375TIP3   OH216067   3.050   6.481   5.333 -0.2744  0.3108  0.0499
 5375TIP3    H116068   3.134   6.439   5.351 -0.3447 -0.5085 -1.4447
 5375TIP3    H216069   3.056   6.565   5.379  1.6285  0.5682 -0.5746
 5376TIP3   OH216070   6.928   6.141   0.797  0.0469 -0.2037 -0.1437
 5376TIP3    H116071   6.914   6.197   0.873 -0.4710  1.7579 -1.6017
 5376TIP3    H216072   7.013   6.100   0.812  0.5324  1.1287  0.8942
 5377TIP3   OH216073   4.341   1.985   6.068 -0.6927 -0.4592  0.0617
 5377TIP3    H116074   4.386   2.046   6.126  0.1288 -0.9316 -0.0704
 5377TIP3    H216075   4.393   1.905   6.071  0.3759  0.0428 -2.6241
 5378TIP3   OH216076   0.977   4.501  -0.002 -0.1915 -0.1251  0.1804
 5378TIP3    H116077   0.968   4.427   0.059 -0.5079  0.3002  0.6581
 5378TIP3    H216078   0.892   4.544   0.001  0.0958  0.4456  0.1497
 5379TIP3   OH216079   8.179   1.920   1.962 -0.1028  0.1734 -0.3132
 5379TIP3    H116080   8.128   1.970   1.899  0.8799  0.5214 -0.8479
 5379TIP3    H216081   8.156   1.957   2.047 -0.2892  0.7315 -0.6064
 5380TIP3   OH216082   4.547   3.072   0.916 -0.5387 -0.2048  0.2458
 5380TIP3    H116083   4.623   3.130   0.922 -0.7829  0.1629 -0.1751
 5380TIP3    H216084   4.471   3.130   0.916 -0.7917 -0.5263 -0.1000
 5381TIP3   OH216085   0.615   4.604   4.342 -0.2419  0.6252 -0.1103
 5381TIP3    H116086   0.648   4.692   4.362 -1.2530  1.1466 -0.6466
 5381TIP3    H216087   0.648   4.586   4.254 -0.1941  0.5435 -0.0757
 5382TIP3   OH216088   5.320   1.888   5.571  0.3965  0.2090 -0.7102
 5382TIP3    H116089   5.280   1.884   5.658  1.0632  1.4042 -0.3215
 5382TIP3    H216090   5.401   1.838   5.579  0.7765  0.8528 -0.4454
 5383TIP3   OH216091   3.498   2.918   2.051  0.2560 -0.2927  0.0096
 5383TIP3    H116092   3.462   3.001   2.082  0.7597  0.2336 -0.7770
 5383TIP3    H216093   3.593   2.926   2.066  0.1250 -1.5361  1.7796
 5384TIP3   OH216094   4.560   2.748   1.306 -0.2049  0.1512 -0.0442
 5384TIP3    H116095   4.604   2.819   1.352  0.8938 -0.3574 -0.2684
 5384TIP3    H216096   4.467   2.758   1.328  0.0050  1.3068  0.3752
 5385TIP3   OH216097   6.125   6.449   5.545 -0.0927  0.0346  0.0966
 5385TIP3    H116098   6.183   6.388   5.500  2.1151  0.4132  2.2174
 5385TIP3    H216099   6.075   6.395   5.605 -0.3117 -0.0263 -0.1393
 5386TIP3   OH216100   1.758   3.210   1.578  0.8907 -0.4474  0.1547
 5386TIP3    H116101   1.838   3.200   1.630  1.9470 -0.4316 -1.3968
 5386TIP3    H216102   1.785   3.259   1.501 -0.7187 -0.0968 -0.2228
 5387TIP3   OH216103   1.897   5.643   4.284 -0.7143 -0.2254 -0.5076
 5387TIP3    H116104   1.902   5.584   4.359 -1.9012 -1.7731 -1.5861
 5387TIP3    H216105   1.984   5.684   4.280 -0.2355 -1.0375  0.9562
 5388TIP3   OH216106   3.087   4.510   2.643 -0.1821  0.2477 -0.6866
 5388TIP3    H116107   3.137   4.451   2.699 -1.3099  0.7314  0.8883
 5388TIP3    H216108   3.065   4.457   2.566 -0.4099 -1.1084  0.2819
 5389TIP3   OH216109   5.603   4.615   0.463 -0.1840 -0.4205 -0.2057
 5389TIP3    H116110   5.631   4.596   0.553  0.2979 -2.3541 -0.7152
 5389TIP3    H216111   5.593   4.710   0.460  2.0487 -0.0763  1.2453
 5390TIP3   OH216112   4.233   2.118   0.284  0.1371 -0.2861 -0.3301
 5390TIP3    H116113   4.167   2.117   0.215  0.2722  0.2185 -0.4699
 5390TIP3    H216114   4.184   2.138   0.364 -0.2332 -2.1695 -0.0305
 5391TIP3   OH216115   1.369   4.465   5.777 -0.3771  0.6155  0.3246
 5391TIP3    H116116   1.393   4.443   5.687 -2.3655  2.1576 -0.6451
 5391TIP3    H216117   1.323   4.387   5.809  0.4800 -0.0044  0.0872
 5392TIP3   OH216118   1.637   6.399   6.049 -0.4046  0.6571  0.0901
 5392TIP3    H116119   1.685   6.475   6.082  1.4158 -0.7372  0.8138
 5392TIP3    H216120   1.597   6.429   5.967 -0.5854  2.6577  0.8718
 5393TIP3   OH216121   7.204   6.999   0.383 -0.3526 -0.1383  0.2815
 5393TIP3    H116122   7.112   6.978   0.367 -0.4047 -1.1380  1.6674
 5393TIP3    H216123   7.206   7.027   0.475  0.5040  1.3349 -0.1624
 5394TIP3   OH216124   1.740   6.596   4.577 -0.0923 -0.3839 -0.2837
 5394TIP3    H116125   1.717   6.689   4.577  0.0036 -0.3532 -1.1028
 5394TIP3    H216126   1.704   6.562   4.495  1.5221 -0.6464 -0.9298
 5395TIP3   OH216127   2.903   3.980   0.368 -0.2301  0.2338 -0.4406
 5395TIP3    H116128   2.851   3.969   0.448  1.1547  2.0022  0.7890
 5395TIP3    H216129   2.881   4.069   0.338  1.2737  0.6105 -0.4687
 5396TIP3   OH216130   4.331   7.342   0.863 -0.4398  0.0690 -0.1730
 5396TIP3    H116131   4.324   7.422   0.916  0.7563  0.3084 -0.3350
 5396TIP3    H216132   4.313   7.271   0.924  0.8967  0.3409  0.5880
 5397TIP3   OH216133   7.931   2.956   5.450  0.1255  0.0232 -0.0179
 5397TIP3    H116134   7.872   2.904   5.396 -1.1527 -0.0409  1.3808
 5397TIP3    H216135   7.971   2.894   5.510 -1.7009  0.6136  1.9247
 5398TIP3   OH216136   6.890   4.472   1.853  0.2732  0.3723 -0.2204
 5398TIP3    H116137   6.877   4.566   1.866 -0.4312  0.0897  1.3920
 5398TIP3    H216138   6.815   4.445   1.799 -1.0969  0.3027  1.6147
 5399TIP3   OH216139   6.555   6.221   3.362  0.0976  0.1586 -0.5704
 5399TIP3    H116140   6.522   6.139   3.398 -0.2701 -0.3402 -1.9622
 5399TIP3    H216141   6.618   6.194   3.295  0.4368  1.0351 -0.6198
 5400TIP3   OH216142   7.184   3.734   6.327  0.4265  0.4362  0.2733
 5400TIP3    H116143   7.176   3.765   6.237  2.1301  0.3085  0.0351
 5400TIP3    H216144   7.164   3.641   6.323  1.4472  0.2181 -0.1858
 5401TIP3   OH216145   3.269   5.896   6.727 -0.5615  0.0671  0.2534
 5401TIP3    H116146   3.333   5.911   6.797 -0.8355  1.6652  0.2057
 5401TIP3    H216147   3.191   5.945   6.755 -0.8643  0.2724 -0.8943
 5402TIP3   OH216148   0.318   7.469   3.137  0.0370  0.2342  0.3286
 5402TIP3    H116149   0.365   7.387   3.120 -0.3124 -0.3124  1.8147
 5402TIP3    H216150   0.388   7.534   3.149  0.4721 -0.4983  2.1473
 5403TIP3   OH216151   6.916   4.528   5.966  0.2416  0.2656  0.1802
 5403TIP3    H116152   6.931   4.444   5.923  0.8209  0.6612 -0.4172
 5403TIP3    H216153   6.907   4.507   6.059 -0.5946 -0.5605 -0.0715
 5404TIP3   OH216154   7.033   2.868   1.926  0.0122  0.2408  0.1989
 5404TIP3    H116155   7.120   2.833   1.908 -1.0498 -0.3121 -5.6745
 5404TIP3    H216156   7.044   2.963   1.921  0.4062  0.1948  0.1669
 5405TIP3   OH216157   7.755   6.666   4.804 -0.4074 -0.4523  0.3959
 5405TIP3    H116158   7.713   6.593   4.850 -0.4953 -0.4643  0.2954
 5405TIP3    H216159   7.683   6.710   4.759 -0.8549  1.3489  2.6570
 5406TIP3   OH216160   4.926   7.793   3.337 -0.5997  0.7649  0.2146
 5406TIP3    H116161   4.913   7.812   3.430  0.2278 -1.3201  0.8232
 5406TIP3    H216162   4.838   7.791   3.300 -1.0179  0.5529  1.1971
 5407TIP3   OH216163   2.366   2.584   5.678 -0.0506  0.6352  0.3096
 5407TIP3    H116164   2.416   2.503   5.685 -1.4904 -0.5533 -1.9562
 5407TIP3    H216165   2.401   2.627   5.600  0.9131  2.4458  1.6573
 5408TIP3   OH216166   6.972   0.678   3.378 -0.3920 -0.1889  0.4378
 5408TIP3    H116167   6.945   0.683   3.469 -0.9866 -1.4947  0.3555
 5408TIP3    H216168   7.054   0.628   3.380  1.0792  2.0997  0.4939
 5409TIP3   OH216169   4.685   7.743   1.345 -0.3794 -0.2044  0.2069
 5409TIP3    H116170   4.763   7.753   1.292 -1.7756  1.4124 -1.6841
 5409TIP3    H216171   4.653   7.833   1.359 -0.8665 -0.6655  2.6155
 5410TIP3   OH216172   3.433   5.505   1.430 -0.3427  0.2429 -0.3878
 5410TIP3    H116173   3.514   5.550   1.407  0.3024 -1.0091 -0.6757
 5410TIP3    H216174   3.364   5.569   1.412  0.5062  0.9750 -1.1319
 5411TIP3   OH216175   3.438   2.774   4.975 -0.0403  0.2917  0.3591
 5411TIP3    H116176   3.448   2.770   5.070  0.2309  0.3888  0.3358
 5411TIP3    H216177   3.525   2.756   4.941  0.3478  2.2213  0.1827
 5412TIP3   OH216178   2.984   4.278   5.160  0.1961 -0.0568  0.1830
 5412TIP3    H116179   2.963   4.360   5.204  0.9740  0.8692 -1.0951
 5412TIP3    H216180   2.921   4.272   5.088 -0.2563 -0.9167  0.6293
 5413TIP3   OH216181   6.123   2.737   5.938  0.1598  0.0090 -0.7405
 5413TIP3    H116182   6.150   2.717   6.028 -1.3723 -0.7349 -0.4222
 5413TIP3    H216183   6.056   2.804   5.948 -0.5639 -0.6336 -1.2727
 5414TIP3   OH216184   6.907   0.809   1.726  0.4490 -0.3484 -0.1818
 5414TIP3    H116185   6.879   0.874   1.791  0.3405 -2.1855  1.7244
 5414TIP3    H216186   6.847   0.822   1.652  0.9717  2.2273 -0.2469
 5415TIP3   OH216187   4.739   6.110   5.683 -0.3777  0.4644 -0.0543
 5415TIP3    H116188   4.794   6.151   5.749 -1.7432  1.6591  0.3964
 5415TIP3    H216189   4.696   6.183   5.639 -0.5584 -0.3794 -1.3170
 5416TIP3   OH216190   0.157   7.561   4.679 -0.3467 -0.0283 -0.3855
 5416TIP3    H116191   0.182   7.586   4.590  0.4727  0.1268 -0.1215
 5416TIP3    H216192   0.075   7.607   4.694 -0.5518 -0.1418 -1.0976
 5417TIP3   OH216193   6.646   1.731   4.304  0.2695  0.5418 -0.2995
 5417TIP3    H116194   6.740   1.747   4.314  0.3411  0.3566 -0.6433
 5417TIP3    H216195   6.631   1.647   4.346  0.0960  0.9797  0.5282
 5418TIP3   OH216196   8.085   0.454   6.114 -0.1925  0.2431 -0.2151
 5418TIP3    H116197   8.098   0.470   6.020  0.1550 -1.6049 -0.5252
 5418TIP3    H216198   8.098   0.539   6.155 -0.1083  1.0444 -1.8220
 5419TIP3   OH216199   5.490   4.655   4.152  0.0939  0.1143 -0.2489
 5419TIP3    H116200   5.427   4.672   4.221 -1.6731 -1.6865 -1.3067
 5419TIP3    H216201   5.529   4.571   4.175 -1.3015 -1.0578 -1.8743
 5420TIP3   OH216202   0.894   1.317   0.138 -0.0562  0.7159 -0.6121
 5420TIP3    H116203   0.955   1.251   0.170  0.0873 -0.8445 -3.6766
 5420TIP3    H216204   0.948   1.374   0.083 -0.6775  1.7725 -0.1453
 5421TIP3   OH216205   1.345   0.574   5.300 -0.2311  0.1010  0.0864
 5421TIP3    H116206   1.280   0.537   5.241 -0.0158  0.4668 -0.3856
 5421TIP3    H216207   1.303   0.651   5.337 -0.0834  0.3032 -0.1719
 5422TIP3   OH216208   3.509   2.978   0.705 -0.1705 -0.2785  0.2584
 5422TIP3    H116209   3.449   3.018   0.641 -0.3877 -0.8906  0.0733
 5422TIP3    H216210   3.455   2.965   0.783  0.0577  0.3388  0.5196
 5423TIP3   OH216211   6.131   1.186   6.565 -0.3377 -0.0237  0.1756
 5423TIP3    H116212   6.204   1.216   6.618  1.0205 -1.1315 -0.9882
 5423TIP3    H216213   6.085   1.267   6.540  0.6678  0.7215  0.6755
 5424TIP3   OH216214   2.190   0.361   1.779 -0.0783 -0.4134  0.0088
 5424TIP3    H116215   2.278   0.341   1.747 -0.2085  1.1212 -1.3979
 5424TIP3    H216216   2.173   0.450   1.750 -1.0419  0.3699  2.6481
 5425TIP3   OH216217   7.968   0.695   4.831 -0.2532  0.2259 -0.6872
 5425TIP3    H116218   7.961   0.674   4.924  2.5152 -0.5523 -0.5505
 5425TIP3    H216219   7.923   0.623   4.787  0.8746 -0.9763  0.0297
 5426TIP3   OH216220   2.017   6.582   3.729  0.6171  0.3687  0.1674
 5426TIP3    H116221   2.046   6.539   3.648  1.4807  0.0693  0.6275
 5426TIP3    H216222   1.932   6.543   3.747  1.2603 -0.9825  0.4339
 5427TIP3   OH216223   0.163   1.035   4.222 -0.0455  0.1020 -0.2220
 5427TIP3    H116224   0.131   0.965   4.164  0.6356  0.7666 -1.4274
 5427TIP3    H216225   0.221   1.087   4.167  0.3023  0.9978  0.9636
 5428TIP3   OH216226   3.710   6.451   2.376  0.2587 -0.0987  0.4841
 5428TIP3    H116227   3.711   6.526   2.316  1.0079 -0.1125  0.4740
 5428TIP3    H216228   3.617   6.433   2.389 -0.0107  1.8287  1.7446
 5429TIP3   OH216229   4.367   0.679   1.820  0.5331  0.3464  0.2166
 5429TIP3    H116230   4.424   0.603   1.812  0.9553  0.1580  3.4395
 5429TIP3    H216231   4.279   0.644   1.804  0.6011 -1.1652  2.5766
 5430TIP3   OH216232   3.086   4.072   1.507 -0.3708  0.4467  0.1567
 5430TIP3    H116233   3.113   4.077   1.416 -1.4152  0.2039 -0.1805
 5430TIP3    H216234   3.168   4.067   1.556  0.2086  0.9390 -0.7355
 5431TIP3   OH216235   6.365   2.855   3.341 -1.1720  0.3001 -0.3393
 5431TIP3    H116236   6.293   2.815   3.391  1.1342 -0.2427  2.8632
 5431TIP3    H216237   6.406   2.782   3.296 -1.0064  0.1363  0.0674
 5432TIP3   OH216238   4.242   2.746   3.673  0.1891 -0.2612 -0.5112
 5432TIP3    H116239   4.311   2.703   3.723  0.2459  0.7195  0.2713
 5432TIP3    H216240   4.228   2.689   3.597 -0.1020 -1.9468  0.7465
 5433TIP3   OH216241   2.352   2.086   6.269 -0.0016  0.1266  0.1073
 5433TIP3    H116242   2.363   2.093   6.364  3.1955  0.0871 -0.1625
 5433TIP3    H216243   2.349   1.992   6.252  0.6941  0.1030  0.0863
 5434TIP3   OH216244   4.698   5.792   6.681  0.3447  0.0697  0.0350
 5434TIP3    H116245   4.705   5.873   6.629  0.2225  0.2741  0.3326
 5434TIP3    H216246   4.652   5.731   6.623 -1.4046  0.8461  0.5236
 5435TIP3   OH216247   6.758   3.090   6.649 -0.2067  0.2158  0.5756
 5435TIP3    H116248   6.716   3.116   6.731 -0.6549  0.9214  0.1311
 5435TIP3    H216249   6.800   3.006   6.669 -2.3372 -0.8504  0.8825
 5436TIP3   OH216250   0.679   4.004   1.553  0.2714 -0.2670  0.4274
 5436TIP3    H116251   0.684   3.909   1.561 -3.0969 -0.8911 -2.1671
 5436TIP3    H216252   0.621   4.031   1.625 -0.8219 -0.6131 -0.2939
 5437TIP3   OH216253   3.692   2.947   4.781 -0.7154  0.3196  0.7935
 5437TIP3    H116254   3.743   2.934   4.861 -0.1696  0.6292  0.5057
 5437TIP3    H216255   3.632   2.873   4.779 -2.9835  1.9380  3.1163
 5438TIP3   OH216256   3.958   5.128   1.297  0.2544 -0.3742  0.4522
 5438TIP3    H116257   3.965   5.033   1.312  2.7201 -0.2875  0.3721
 5438TIP3    H216258   4.049   5.156   1.284 -0.6109  1.5378 -2.3999
 5439TIP3   OH216259   4.149   3.374   2.448  0.1444 -0.0805  0.0826
 5439TIP3    H116260   4.226   3.406   2.496  0.6043 -2.1959  0.8870
 5439TIP3    H216261   4.164   3.280   2.441 -1.8869 -0.3792 -0.6866
 5440TIP3   OH216262   7.591   4.550   3.108 -0.2940  0.6611 -0.1507
 5440TIP3    H116263   7.503   4.545   3.147 -0.2148  0.8672  0.0579
 5440TIP3    H216264   7.581   4.611   3.035 -0.5662 -0.1433 -0.8027
 5441TIP3   OH216265   6.694   2.425   5.173  0.3845  0.7481  0.0045
 5441TIP3    H116266   6.729   2.365   5.239  2.6774  0.2936 -1.5234
 5441TIP3    H216267   6.602   2.400   5.164  0.6412 -0.7841  1.2434
 5442TIP3   OH216268   0.341   0.467   6.171 -0.3261  0.2811 -0.0444
 5442TIP3    H116269   0.278   0.400   6.197  0.1521 -0.3066 -0.3910
 5442TIP3    H216270   0.426   0.431   6.194 -0.0928  0.9991  0.2558
 5443TIP3   OH216271   6.836   4.640   3.434  0.0249  0.2380 -0.0739
 5443TIP3    H116272   6.751   4.615   3.399  0.4049 -2.2304  0.5310
 5443TIP3    H216273   6.890   4.657   3.357 -0.4098 -0.4239 -0.5372
 5444TIP3   OH216274   7.633   5.668   1.130  0.2002 -0.1131 -0.1131
 5444TIP3    H116275   7.586   5.637   1.207  0.8223 -0.7686  0.0226
 5444TIP3    H216276   7.604   5.611   1.059 -0.5333  0.6278 -0.4242
 5445TIP3   OH216277   2.953   7.009   4.101 -0.6141  0.0003  0.5230
 5445TIP3    H116278   2.889   7.030   4.033  0.2823 -0.9143 -0.6388
 5445TIP3    H216279   3.004   7.090   4.111  0.7283 -0.5001 -1.5973
 5446TIP3   OH216280   3.003   0.962   0.563 -0.6611 -0.3506  0.0990
 5446TIP3    H116281   2.929   0.973   0.502 -1.3329 -2.9397  0.3318
 5446TIP3    H216282   2.963   0.940   0.646  0.3468  0.0385  0.7037
 5447TIP3   OH216283   7.896   0.107   3.685 -0.6539  0.0961  0.4293
 5447TIP3    H116284   7.843   0.031   3.662 -0.7980  0.5918 -0.9764
 5447TIP3    H216285   7.918   0.093   3.777 -0.4828 -1.7554  0.1563
 5448TIP3   OH216286   2.506   1.329   1.356 -0.2336  0.0418  0.3317
 5448TIP3    H116287   2.556   1.408   1.378 -0.7259  0.7292 -0.9238
 5448TIP3    H216288   2.518   1.318   1.262 -0.8774 -0.8994  0.3438
 5449TIP3   OH216289   1.374   0.829   5.587 -0.2795 -0.3781 -0.3906
 5449TIP3    H116290   1.442   0.817   5.521  0.7078  0.3949  0.4458
 5449TIP3    H216291   1.410   0.790   5.667 -0.3979  0.8289  0.2900
 5450TIP3   OH216292   8.141   5.524   3.854  0.1901 -0.0456  0.3446
 5450TIP3    H116293   8.125   5.618   3.852 -4.1307 -0.5574 -0.6942
 5450TIP3    H216294   8.127   5.495   3.764 -1.6782 -1.9435  1.1520
 5451TIP3   OH216295   4.230   5.053   6.725  0.2270  0.0894 -0.2049
 5451TIP3    H116296   4.149   5.080   6.769 -0.2068  1.7638 -1.8954
 5451TIP3    H216297   4.203   5.034   6.635  1.5367 -0.5235 -0.4911
 5452TIP3   OH216298   7.245   0.538   2.761 -0.7334 -0.3559  0.5388
 5452TIP3    H116299   7.260   0.632   2.750 -0.5658 -0.5189 -0.7861
 5452TIP3    H216300   7.296   0.514   2.838 -0.5684  0.5890  0.7336
 5453TIP3   OH216301   4.668   2.545   1.069  0.2494 -0.4697  0.4814
 5453TIP3    H116302   4.730   2.560   1.140 -0.4035 -1.3366  1.2655
 5453TIP3    H216303   4.669   2.626   1.018  2.8712 -0.8512 -0.2237
 5454TIP3   OH216304   6.294   7.268   6.146 -0.3779  0.7326  0.1902
 5454TIP3    H116305   6.320   7.233   6.232 -1.7437 -0.2411  0.2316
 5454TIP3    H216306   6.291   7.362   6.159 -0.0363  0.6375  1.0534
 5455TIP3   OH216307   6.231   6.337   4.553  0.7787 -0.4073 -0.3458
 5455TIP3    H116308   6.153   6.323   4.499  0.5963 -2.0730  0.3025
 5455TIP3    H216309   6.196   6.358   4.640  0.9925 -2.4834  0.2858
 5456TIP3   OH216310   7.019   6.222   0.288  0.6955  0.6517  0.0662
 5456TIP3    H116311   7.046   6.200   0.377  0.4291 -1.6600 -0.3690
 5456TIP3    H216312   6.924   6.211   0.288  0.3184  3.3389  0.1549
 5457TIP3   OH216313   6.367   4.092   5.765  0.0682 -0.3689 -0.6281
 5457TIP3    H116314   6.371   4.174   5.716  1.0708  1.1710  1.8599
 5457TIP3    H216315   6.274   4.072   5.771 -0.2364  0.8854 -0.8541
 5458TIP3   OH216316   3.721   7.816   3.764 -0.0748  0.2317  0.1765
 5458TIP3    H116317   3.767   7.841   3.844  1.3894 -0.6858 -0.3387
 5458TIP3    H216318   3.643   7.771   3.794  0.1208  0.4695  1.0810
 5459TIP3   OH216319   6.559   3.609   2.499  0.1179  0.4719 -0.7488
 5459TIP3    H116320   6.494   3.668   2.463 -0.8843  0.1524  0.4424
 5459TIP3    H216321   6.614   3.583   2.425 -1.9207 -0.2708 -2.0583
 5460TIP3   OH216322   7.274   2.455   4.011 -0.1486 -0.1513 -0.1037
 5460TIP3    H116323   7.295   2.486   3.923 -0.5645  0.3689 -0.0284
 5460TIP3    H216324   7.305   2.365   4.013 -0.4962 -0.2976 -0.9125
 5461TIP3   OH216325   7.431   6.017   1.562  0.1384 -0.4698  0.1080
 5461TIP3    H116326   7.490   6.085   1.532  0.1216 -0.9080 -0.9686
 5461TIP3    H216327   7.350   6.031   1.512 -0.6685  0.0653  1.4811
 5462TIP3   OH216328   0.484   7.244   0.472  0.1702  0.2947  0.2590
 5462TIP3    H116329   0.400   7.284   0.498  0.7612 -0.2465  3.2427
 5462TIP3    H216330   0.473   7.151   0.489  2.0788  0.4632  3.0690
 5463TIP3   OH216331   0.516   5.515   2.593  0.0110  0.0957  0.1799
 5463TIP3    H116332   0.456   5.579   2.631 -1.7194 -0.7840 -0.9041
 5463TIP3    H216333   0.480   5.498   2.506  1.0942 -1.4658 -0.0085
 5464TIP3   OH216334   5.129   4.784   4.731  0.2204  0.3173  0.1320
 5464TIP3    H116335   5.223   4.790   4.748  0.5746 -2.1003 -0.5300
 5464TIP3    H216336   5.100   4.710   4.785 -1.7520  2.1700  1.8002
 5465TIP3   OH216337   5.129   0.516   4.704 -0.2915  0.1150  0.2297
 5465TIP3    H116338   5.196   0.583   4.692  0.4573 -0.3335  1.5902
 5465TIP3    H216339   5.047   0.565   4.711  0.0945  0.7987  0.0759
 5466TIP3   OH216340   0.937   5.070   1.833 -0.1857  0.2337 -0.6615
 5466TIP3    H116341   0.990   5.011   1.780 -0.3472  1.0129 -1.7116
 5466TIP3    H216342   0.872   5.013   1.874  2.1183 -0.9577  1.6626
 5467TIP3   OH216343   4.255   7.198   0.091 -0.1834 -0.9524  0.3205
 5467TIP3    H116344   4.320   7.266   0.112 -0.4845 -0.2944 -0.7684
 5467TIP3    H216345   4.204   7.188   0.171  0.2797 -0.3538  0.7024
 5468TIP3   OH216346   1.319   7.285   3.773 -0.4433 -0.3354  0.1295
 5468TIP3    H116347   1.255   7.214   3.776 -1.8871  0.8514 -1.0593
 5468TIP3    H216348   1.404   7.241   3.769 -1.2605 -1.9733  0.0940
 5469TIP3   OH216349   3.384   4.445   5.309 -0.2117 -0.4842 -0.2245
 5469TIP3    H116350   3.364   4.366   5.359 -0.9997 -0.0159  0.2318
 5469TIP3    H216351   3.373   4.420   5.218  2.1967 -1.6276 -0.2678
 5470TIP3   OH216352   1.198   1.801   6.384  0.2690 -0.0312 -0.3091
 5470TIP3    H116353   1.232   1.834   6.301  0.1446 -0.3723 -0.4984
 5470TIP3    H216354   1.139   1.869   6.415  0.2262  0.0456 -0.5580
 5471TIP3   OH216355   4.222   6.088   4.769  0.0582  0.2176 -0.0349
 5471TIP3    H116356   4.159   6.081   4.697 -0.2360  4.2815 -0.4009
 5471TIP3    H216357   4.169   6.073   4.848 -0.3417 -0.9242 -0.5018
 5472TIP3   OH216358   0.221   1.033   1.296  0.0395  0.3412 -0.6451
 5472TIP3    H116359   0.200   0.993   1.381  0.0249 -1.2435 -1.3510
 5472TIP3    H216360   0.311   1.065   1.307  0.0200  0.2000 -0.0045
 5473TIP3   OH216361   6.170   5.940   4.433  0.3286  0.4530 -0.4494
 5473TIP3    H116362   6.159   5.977   4.520 -0.4280 -1.4205  0.2831
 5473TIP3    H216363   6.265   5.934   4.421  0.4481 -0.8044  0.9430
 5474TIP3   OH216364   8.043   6.086   6.208  0.6334  0.3629  0.6294
 5474TIP3    H116365   8.061   6.000   6.170 -1.3825 -0.1009  0.6133
 5474TIP3    H216366   8.095   6.147   6.156  1.8481 -0.7792  0.4371
 5475TIP3   OH216367   7.707   4.092   4.310  0.2916  0.3509 -0.0316
 5475TIP3    H116368   7.657   4.025   4.264 -0.2090  0.6331  0.0914
 5475TIP3    H216369   7.695   4.072   4.403  1.8320 -0.6054  0.0053
 5476TIP3   OH216370   3.602   1.046   5.634 -0.2663  0.5876  0.1947
 5476TIP3    H116371   3.644   1.106   5.572 -0.7685 -0.0701 -0.8083
 5476TIP3    H216372   3.617   1.086   5.720  2.5355  0.3020 -0.0782
 5477TIP3   OH216373   5.169   1.487   3.433  0.1299  0.1483  0.3731
 5477TIP3    H116374   5.202   1.576   3.423  1.0451 -0.0927  1.1138
 5477TIP3    H216375   5.225   1.434   3.376 -0.3608  0.0264 -0.0041
 5478TIP3   OH216376   6.490   4.276   4.162 -0.0999  0.5397  0.0133
 5478TIP3    H116377   6.394   4.283   4.163 -0.1559  0.3341  2.4932
 5478TIP3    H216378   6.508   4.187   4.191  0.8822  0.2136 -1.4657
 5479TIP3   OH216379   1.727   7.602   6.646 -0.2044 -0.3642 -0.6082
 5479TIP3    H116380   1.725   7.624   6.739 -0.3703  1.0910 -0.9338
 5479TIP3    H216381   1.691   7.513   6.642  0.3975 -0.6983  0.7674
 5480TIP3   OH216382   4.322   0.945   4.130  0.7373 -0.3101 -0.0879
 5480TIP3    H116383   4.350   0.854   4.117 -1.6802 -0.9071 -1.8811
 5480TIP3    H216384   4.403   0.997   4.119  1.8958 -2.1276 -0.5723
 5481TIP3   OH216385   7.549   1.341   0.152 -0.0560  0.3139 -0.1779
 5481TIP3    H116386   7.613   1.271   0.138  0.2515  0.3667  0.9113
 5481TIP3    H216387   7.521   1.330   0.243  0.4274  1.9478  0.1986
 5482TIP3   OH216388   3.178   0.773   5.459  0.0997 -0.2933 -0.6701
 5482TIP3    H116389   3.099   0.809   5.498  0.7110 -1.7479  2.2315
 5482TIP3    H216390   3.235   0.848   5.445 -0.7118  0.4657 -0.0119
 5483TIP3   OH216391   6.900   3.225   5.298  0.3085  0.1475  0.8847
 5483TIP3    H116392   6.882   3.261   5.385 -0.9606  0.0911  0.6580
 5483TIP3    H216393   6.865   3.136   5.301  1.4480 -0.3236  0.7300
 5484TIP3   OH216394   5.639   6.804   0.784 -0.8980 -0.4746  0.4997
 5484TIP3    H116395   5.570   6.849   0.833 -1.4393  0.4117 -1.0135
 5484TIP3    H216396   5.594   6.731   0.741 -0.6695 -0.5473  0.3819
 5485TIP3   OH216397   3.695   5.801   1.948 -0.5432 -0.6262  0.2762
 5485TIP3    H116398   3.661   5.890   1.953 -0.9671 -0.8193  0.8163
 5485TIP3    H216399   3.638   5.758   1.885  0.4393 -0.1776 -0.9725
 5486TIP3   OH216400   5.030   0.071   0.798 -0.4914  0.4894  0.4087
 5486TIP3    H116401   5.063   0.157   0.823  1.7422 -0.1380 -0.2013
 5486TIP3    H216402   4.953   0.090   0.744  0.7277  2.1464 -0.8342
 5487TIP3   OH216403   2.046   1.919   5.248  0.0782  0.4148 -0.3861
 5487TIP3    H116404   2.023   1.969   5.326 -0.3295 -0.2042 -0.1024
 5487TIP3    H216405   2.120   1.966   5.210  2.4297 -0.9791  2.1149
 5488TIP3   OH216406   1.752   0.687   5.052 -0.1269 -0.0786  0.1765
 5488TIP3    H116407   1.672   0.643   5.082 -0.4152 -0.9408 -1.6990
 5488TIP3    H216408   1.801   0.706   5.132 -0.6415 -2.5962  1.1888
 5489TIP3   OH216409   3.793   0.967   1.108  0.2462 -0.2254  0.3134
 5489TIP3    H116410   3.818   1.059   1.120  2.3767 -0.7570  0.4059
 5489TIP3    H216411   3.778   0.934   1.197 -0.0023 -0.0830  0.3221
 5490TIP3   OH216412   2.022   2.169   6.474 -0.2804  0.3741 -0.1053
 5490TIP3    H116413   2.067   2.234   6.420 -1.2961  2.0149  0.9360
 5490TIP3    H216414   2.045   2.085   6.434  2.6767  1.1823 -0.3394
 5491TIP3   OH216415   6.072   7.241   6.713  0.0842 -0.4488  0.1524
 5491TIP3    H116416   6.032   7.287   6.787  0.4324 -0.9005  0.6293
 5491TIP3    H216417   6.165   7.236   6.735 -0.0042 -1.7535  0.3267
 5492TIP3   OH216418   3.175   3.849   4.298  0.3496  0.3567 -0.3871
 5492TIP3    H116419   3.096   3.861   4.245 -0.2275 -0.6098  0.2095
 5492TIP3    H216420   3.163   3.909   4.372  0.6989  1.0038 -0.8484
 5493TIP3   OH216421   1.569   7.181   3.127  0.2338  0.0485  0.7608
 5493TIP3    H116422   1.503   7.160   3.193 -0.9142 -0.1821 -0.4104
 5493TIP3    H216423   1.579   7.100   3.077 -0.2676  0.7213 -0.4645
 5494TIP3   OH216424   4.872   7.366   3.563  0.3877 -0.4625  0.4428
 5494TIP3    H116425   4.911   7.279   3.560 -0.3664 -0.7654 -1.2709
 5494TIP3    H216426   4.809   7.368   3.491  0.8418  1.7188  0.0150
 5495TIP3   OH216427   2.777   0.487   1.229  0.1409 -0.2920  0.0475
 5495TIP3    H116428   2.772   0.579   1.254 -1.8802  0.1569 -1.7357
 5495TIP3    H216429   2.704   0.446   1.276 -0.9454 -0.3023 -1.5754
 5496TIP3   OH216430   7.442   6.362   5.600  0.5314 -0.3175 -0.5892
 5496TIP3    H116431   7.513   6.331   5.545 -0.4305 -1.3774 -1.2892
 5496TIP3    H216432   7.417   6.285   5.653 -0.8531 -0.3335 -1.2128
 5497TIP3   OH216433   4.027   4.060   1.764  0.1559 -0.3733  0.2600
 5497TIP3    H116434   3.994   4.148   1.744 -0.3510 -0.6105  0.0362
 5497TIP3    H216435   3.959   4.020   1.819 -0.7904 -1.4780 -1.6039
 5498TIP3   OH216436   7.800   4.662   1.777  0.1050  0.2840  0.3220
 5498TIP3    H116437   7.758   4.726   1.834  1.0059  0.0190  1.3029
 5498TIP3    H216438   7.778   4.577   1.815  0.3892  0.0864  0.0537
 5499TIP3   OH216439   7.042   4.414   0.518  0.1648  0.3106  0.2391
 5499TIP3    H116440   7.107   4.364   0.568 -0.8730 -0.2618  1.0455
 5499TIP3    H216441   7.086   4.434   0.435  0.8979 -1.2307  0.2242
 5500TIP3   OH216442   1.221   6.249   2.814  0.1187 -0.2400  0.3452
 5500TIP3    H116443   1.271   6.267   2.894  0.8209  1.0696 -0.3547
 5500TIP3    H216444   1.130   6.270   2.837  0.2178 -0.4707  0.9758
 5501TIP3   OH216445   1.999   4.453   5.712  0.2672  0.2703  0.3589
 5501TIP3    H116446   1.941   4.379   5.698 -1.5408  1.8280 -0.7778
 5501TIP3    H216447   2.064   4.421   5.776  0.9365 -2.9454 -1.7320
 5502TIP3   OH216448   7.139   2.129   6.398  0.5432  0.2977  0.6577
 5502TIP3    H116449   7.231   2.111   6.417 -0.0701 -0.7466  2.9831
 5502TIP3    H216450   7.112   2.057   6.340  0.9016 -0.0475  0.9114
 5503TIP3   OH216451   8.032   0.483   3.401  0.0354  0.7794 -0.1614
 5503TIP3    H116452   8.011   0.458   3.311  0.9064 -3.1396  0.5195
 5503TIP3    H216453   8.127   0.493   3.401  0.0304  0.8459  0.2968
 5504TIP3   OH216454   6.037   5.465   3.943  0.1020 -0.4561 -0.5257
 5504TIP3    H116455   5.980   5.542   3.951  0.3593 -0.4313  1.5163
 5504TIP3    H216456   6.043   5.430   4.032  1.0830 -2.0675 -1.1854
 5505TIP3   OH216457   5.086   1.523   2.040  0.3953 -0.3729  0.0883
 5505TIP3    H116458   5.009   1.570   2.070  0.3323 -0.4781  0.0893
 5505TIP3    H216459   5.058   1.432   2.031  1.3725 -1.1200  3.4072
 5506TIP3   OH216460   0.138   6.320   0.085 -0.1491 -0.1624 -0.4335
 5506TIP3    H116461   0.214   6.272   0.051  1.7034  0.8255  2.0193
 5506TIP3    H216462   0.129   6.289   0.175 -0.4938  2.1540  0.3991
 5507TIP3   OH216463   4.348   1.907   2.423 -0.2548  0.1931  0.3197
 5507TIP3    H116464   4.330   1.852   2.346  1.3717  0.0386  0.0191
 5507TIP3    H216465   4.328   1.851   2.498  1.9512 -1.0942  0.0265
 5508TIP3   OH216466   4.843   1.247   6.756 -0.5632 -0.6654 -0.5318
 5508TIP3    H116467   4.807   1.321   6.805 -0.6784 -0.6114 -0.6997
 5508TIP3    H216468   4.926   1.280   6.722 -1.3738 -0.0662 -1.9978
 5509TIP3   OH216469   3.859   3.697   0.911 -0.0419  0.3777 -0.1759
 5509TIP3    H116470   3.770   3.686   0.877 -0.9239 -0.2583  2.1599
 5509TIP3    H216471   3.885   3.784   0.882 -2.5321  1.7580  1.3584
 5510TIP3   OH216472   4.220   5.473   0.458  0.0684  0.2437  0.0951
 5510TIP3    H116473   4.129   5.444   0.455 -0.4489  1.7752 -0.0063
 5510TIP3    H216474   4.215   5.568   0.445  1.4593  0.7296  2.5576
 5511TIP3   OH216475   3.581   2.856   6.756  0.0001  0.6118  0.3597
 5511TIP3    H116476   3.608   2.832   6.668  2.1846  0.1847  1.0895
 5511TIP3    H216477   3.577   2.952   6.754  1.2385  0.6732  0.0981
 5512TIP3   OH216478   4.277   5.049   6.150  0.4690  0.0570  0.2339
 5512TIP3    H116479   4.290   4.983   6.217  2.2931 -0.0024 -0.1208
 5512TIP3    H216480   4.182   5.057   6.141  0.2037 -2.0418  0.7369
 5513TIP3   OH216481   5.171   7.442   5.335  0.7691  0.1477  0.2929
 5513TIP3    H116482   5.149   7.535   5.338 -0.6815 -0.1796  1.8407
 5513TIP3    H216483   5.113   7.406   5.267  0.7586  0.2620  0.2419
 5514TIP3   OH216484   1.945   1.350   1.645 -0.2429  0.9823 -0.0303
 5514TIP3    H116485   1.973   1.309   1.727 -0.6211  1.3010  0.2620
 5514TIP3    H216486   1.874   1.409   1.671 -0.3449  1.1056 -0.5839
 5515TIP3   OH216487   7.335   4.817   6.238 -0.5276 -0.0361  0.2191
 5515TIP3    H116488   7.305   4.868   6.162 -2.0242 -1.3939 -0.1619
 5515TIP3    H216489   7.302   4.864   6.314 -1.1993  0.0084 -0.0944
 5516TIP3   OH216490   3.085   1.280   5.507  0.0854  0.8496  0.4380
 5516TIP3    H116491   3.175   1.281   5.540  0.8903  1.4357 -1.6155
 5516TIP3    H216492   3.093   1.249   5.416 -1.7449  1.2241  0.1102
 5517TIP3   OH216493   6.099   6.204   2.822 -0.2647 -0.0779  0.2774
 5517TIP3    H116494   6.167   6.271   2.815 -0.5802  0.1332 -1.0255
 5517TIP3    H216495   6.017   6.251   2.812 -0.5598 -0.4955  0.6605
 5518TIP3   OH216496   2.229   6.597   1.686 -0.2980 -0.0178  0.1138
 5518TIP3    H116497   2.286   6.667   1.654 -0.3461 -0.2923 -0.6029
 5518TIP3    H216498   2.145   6.640   1.702 -0.2606  0.1387 -0.1022
 5519TIP3   OH216499   4.836   5.463   4.814 -0.4854 -0.5167  0.0062
 5519TIP3    H116500   4.745   5.484   4.794 -0.1018  0.1785 -1.0700
 5519TIP3    H216501   4.876   5.443   4.729  0.5130 -0.2153  0.3887
 5520TIP3   OH216502   0.450   7.473   4.714  0.1134 -0.2719  0.3775
 5520TIP3    H116503   0.532   7.503   4.675  0.2196 -0.4774  0.4424
 5520TIP3    H216504   0.393   7.550   4.712 -0.1207 -0.4426 -0.8353
 5521TIP3   OH216505   6.164   1.595   0.728  0.3385 -0.3215  0.2771
 5521TIP3    H116506   6.238   1.578   0.786  0.1904  1.7345  1.1633
 5521TIP3    H216507   6.141   1.687   0.745  0.0340  0.2647 -2.7563
 5522TIP3   OH216508   1.377   0.949   4.384  0.1475  0.1770  0.0846
 5522TIP3    H116509   1.320   0.872   4.387 -0.6381  0.7626  0.3388
 5522TIP3    H216510   1.357   0.997   4.464  0.2209  0.9483 -0.3517
 5523TIP3   OH216511   5.535   0.387   2.583 -0.4339  0.1602 -0.1852
 5523TIP3    H116512   5.580   0.303   2.574  2.3376  1.5894 -0.8640
 5523TIP3    H216513   5.483   0.395   2.502  0.7599 -0.1218 -1.0052
 5524TIP3   OH216514   1.529   1.482   5.980  0.3835  0.0783 -0.1716
 5524TIP3    H116515   1.539   1.575   5.959  0.8436  0.2876  0.9250
 5524TIP3    H216516   1.612   1.444   5.954  0.0485 -0.1137 -0.9984
 5525TIP3   OH216517   5.917   2.626   6.248 -0.0848 -0.5117  0.0101
 5525TIP3    H116518   5.941   2.538   6.218 -1.8439 -1.5691  1.4514
 5525TIP3    H216519   5.832   2.642   6.206  0.6471  0.9423 -0.9877
 5526TIP3   OH216520   5.862   1.820   2.468 -0.7238 -0.2195  0.4024
 5526TIP3    H116521   5.792   1.861   2.519  0.9702  1.8321  1.2257
 5526TIP3    H216522   5.902   1.892   2.419 -0.1302 -1.5842 -1.2581
 5527TIP3   OH216523   2.695   7.664   2.995 -0.1016 -0.1516 -0.1207
 5527TIP3    H116524   2.665   7.576   2.975  0.5721 -0.5335  0.4911
 5527TIP3    H216525   2.784   7.667   2.961 -0.6937  0.8670 -1.6657
 5528TIP3   OH216526   7.157   0.990   1.169  0.2186  0.2129 -0.0868
 5528TIP3    H116527   7.100   1.025   1.100  0.7069  2.1952  0.4243
 5528TIP3    H216528   7.104   0.923   1.212 -0.4928 -0.2879 -1.6674
 5529TIP3   OH216529   2.316   1.262   5.032 -0.1089 -0.4339  0.4799
 5529TIP3    H116530   2.254   1.303   5.093 -0.9141 -0.6968 -0.1481
 5529TIP3    H216531   2.272   1.183   5.002  0.2598 -0.2957 -0.4706
 5530TIP3   OH216532   0.188   0.873   0.846  0.3171 -0.0454 -0.0347
 5530TIP3    H116533   0.121   0.815   0.810  1.5239 -2.7439  1.8190
 5530TIP3    H216534   0.142   0.923   0.914 -0.5175  0.5911 -1.0272
 5531TIP3   OH216535   4.966   6.834   3.627  0.0610 -0.7559 -0.2104
 5531TIP3    H116536   4.924   6.764   3.676  1.6845 -0.7108  1.3309
 5531TIP3    H216537   5.059   6.830   3.652  0.2241  1.9378  0.0190
 5532TIP3   OH216538   0.937   2.087   3.262 -0.0115  0.0910  0.2214
 5532TIP3    H116539   0.916   2.161   3.319 -1.3875 -0.1833  0.0935
 5532TIP3    H216540   0.914   2.116   3.174  1.1116  0.1300 -0.0730
 5533TIP3   OH216541   6.106   6.096   0.211 -0.0475 -0.2430 -0.0472
 5533TIP3    H116542   6.102   6.154   0.134  1.1234 -1.1242 -0.8179
 5533TIP3    H216543   6.047   6.024   0.189 -0.1436 -0.2174  0.1302
 5534TIP3   OH216544   1.906   1.628   2.537 -0.0442  0.0290 -0.5579
 5534TIP3    H116545   1.969   1.561   2.565 -0.3319 -0.0307 -0.0476
 5534TIP3    H216546   1.821   1.584   2.539 -0.1189  0.1453 -1.1306
 5535TIP3   OH216547   6.281   0.272   2.811  0.3183 -0.0595  0.3370
 5535TIP3    H116548   6.292   0.352   2.864  1.7266 -0.8801  1.3516
 5535TIP3    H216549   6.371   0.245   2.790 -0.0786 -1.8853  0.8137
 5536TIP3   OH216550   6.806   1.983   5.344  0.4438 -0.7720 -0.3157
 5536TIP3    H116551   6.789   1.954   5.255  1.0956 -1.5108 -0.2111
 5536TIP3    H216552   6.761   1.919   5.399 -0.6683  0.1566 -0.1125
 5537TIP3   OH216553   0.650   7.520   2.039 -0.1691  0.8454 -0.2224
 5537TIP3    H116554   0.609   7.556   2.118  0.8756  0.9770  0.2798
 5537TIP3    H216555   0.581   7.466   1.999 -2.7515  5.1478 -2.3689
 5538TIP3   OH216556   1.562   2.363   2.378 -0.0910  0.1609  0.1628
 5538TIP3    H116557   1.530   2.374   2.468  1.2768  1.3366  0.5434
 5538TIP3    H216558   1.482   2.363   2.324 -0.8340  1.5385  1.1929
 5539TIP3   OH216559   3.157   3.899   6.121  0.3734 -0.4272  0.5424
 5539TIP3    H116560   3.065   3.874   6.113  0.6206 -1.2444  0.1765
 5539TIP3    H216561   3.172   3.958   6.048 -0.4442  1.6189  1.9103
 5540TIP3   OH216562   6.330   6.370   5.367 -0.9238 -0.2982 -0.5624
 5540TIP3    H116563   6.389   6.437   5.333 -0.7026 -0.5768 -0.7395
 5540TIP3    H216564   6.378   6.288   5.354 -1.1810 -0.4863 -0.3283
 5541TIP3   OH216565   4.183   2.794   6.615  0.0669 -0.0663 -0.4798
 5541TIP3    H116566   4.108   2.845   6.645 -0.0382 -0.4862 -0.0203
 5541TIP3    H216567   4.144   2.714   6.580  0.2707 -0.0749 -0.6879
 5542TIP3   OH216568   3.276   7.772   3.281 -0.0457  0.0434 -0.0115
 5542TIP3    H116569   3.359   7.724   3.291 -0.1042 -0.1655 -0.4988
 5542TIP3    H216570   3.268   7.786   3.187 -1.0213 -0.7597 -0.0685
 5543TIP3   OH216571   6.530   6.242   4.230  0.3068 -0.5050 -0.3960
 5543TIP3    H116572   6.523   6.241   4.325  0.5861 -0.2190 -0.3686
 5543TIP3    H216573   6.542   6.150   4.205  0.5859 -0.5428 -0.1243
 5544TIP3   OH216574   1.241   6.112   6.217  0.6036  0.2015 -0.0542
 5544TIP3    H116575   1.250   6.169   6.293 -1.4143 -0.3174  0.6487
 5544TIP3    H216576   1.303   6.041   6.232  0.2574  0.1227  1.1207
 5545TIP3   OH216577   5.304   6.050   5.580  0.0903  0.0003 -0.0889
 5545TIP3    H116578   5.391   6.010   5.592  0.1672  0.2975  0.3538
 5545TIP3    H216579   5.314   6.107   5.504  0.2311 -0.1114 -0.1548
 5546TIP3   OH216580   4.532   2.468   1.332 -0.2493 -0.6742 -0.1035
 5546TIP3    H116581   4.560   2.418   1.256  1.9191 -0.6862  0.6258
 5546TIP3    H216582   4.541   2.559   1.306 -1.1181 -0.6676 -0.3936
 5547TIP3   OH216583   5.064   3.119   4.373  0.0447  0.0740 -0.7731
 5547TIP3    H116584   5.127   3.104   4.302  0.3477  1.4875 -0.8315
 5547TIP3    H216585   5.110   3.176   4.434 -0.4291 -0.6478  0.2762
 5548TIP3   OH216586   4.204   7.004   3.298 -0.1129 -0.0032  0.0215
 5548TIP3    H116587   4.125   7.050   3.327 -0.0081  1.1941 -1.4461
 5548TIP3    H216588   4.249   7.067   3.242  2.0366 -0.5860  0.9987
 5549TIP3   OH216589   6.518   2.641   1.871 -0.4594 -0.4903  0.0710
 5549TIP3    H116590   6.602   2.635   1.917 -1.2809  1.2201  1.9424
 5549TIP3    H216591   6.542   2.642   1.778  1.5716 -0.1624  0.5493
 5550TIP3   OH216592   5.012   7.175   4.192 -0.2059  0.3086 -0.1346
 5550TIP3    H116593   5.059   7.106   4.147 -0.6470  0.1120 -0.3011
 5550TIP3    H216594   4.920   7.147   4.190 -0.5577  1.4672 -1.2478
 5551TIP3   OH216595   5.396   3.083   1.358 -0.1129 -0.4951  0.7320
 5551TIP3    H116596   5.304   3.086   1.331 -0.5430  0.1518  2.2074
 5551TIP3    H216597   5.444   3.113   1.281 -1.2257  0.3455  0.3473
 5552TIP3   OH216598   0.972   6.995   3.712 -0.0350  0.2469 -0.2919
 5552TIP3    H116599   1.044   7.024   3.656 -0.4539  1.1609 -0.3804
 5552TIP3    H216600   0.954   6.905   3.684 -0.1891  0.6538 -1.5959
 5553TIP3   OH216601   5.574   2.581   4.749  0.0932  0.0920 -0.9521
 5553TIP3    H116602   5.587   2.667   4.708 -0.6256 -0.0958 -1.5784
 5553TIP3    H216603   5.486   2.554   4.722 -0.3211 -0.1466  0.5063
 5554TIP3   OH216604   4.816   0.082   3.472 -0.5842  0.0770 -0.1998
 5554TIP3    H116605   4.844   0.150   3.411  0.4331  0.5346  0.7416
 5554TIP3    H216606   4.827   0.000   3.423 -0.1231  0.4615 -0.7603
 5555TIP3   OH216607   8.133   0.500   5.239 -0.1968 -0.2394 -0.1376
 5555TIP3    H116608   8.179   0.515   5.156  0.0707  1.4197  0.2769
 5555TIP3    H216609   8.202   0.484   5.302 -0.1536  1.7566  0.3851
 5556TIP3   OH216610   5.990   7.325   6.376  0.3915  0.2304  0.1433
 5556TIP3    H116611   6.035   7.257   6.325 -0.1929  0.2445 -0.4079
 5556TIP3    H216612   6.056   7.394   6.387  0.2131  0.7345 -1.5944
 5557TIP3   OH216613   2.712   3.866   2.715 -0.2769  0.4447  0.2570
 5557TIP3    H116614   2.654   3.849   2.641  0.1403 -0.6212  0.1564
 5557TIP3    H216615   2.737   3.779   2.746  1.6516  0.8695  0.0017
 5558TIP3   OH216616   6.349   2.494   2.483  0.0486 -0.0749 -0.2677
 5558TIP3    H116617   6.388   2.418   2.527  0.0457 -0.2808 -0.6140
 5558TIP3    H216618   6.421   2.557   2.476 -0.2820  0.5137  1.2403
 5559TIP3   OH216619   6.643   7.031   1.543 -0.2503  0.4264  0.2432
 5559TIP3    H116620   6.587   7.074   1.608 -1.0443 -0.5924  0.2541
 5559TIP3    H216621   6.714   7.093   1.529 -0.4846  1.0176  1.4909
 5560TIP3   OH216622   1.601   5.005   6.326 -0.4816 -0.7551 -0.7322
 5560TIP3    H116623   1.642   4.933   6.373 -0.4310 -0.2292  0.0550
 5560TIP3    H216624   1.512   5.011   6.362  0.2857  1.1621  1.1085
 5561TIP3   OH216625   6.834   4.792   4.083  0.1185 -0.0285 -0.0991
 5561TIP3    H116626   6.901   4.847   4.042 -0.8150  0.7501 -0.6159
 5561TIP3    H216627   6.752   4.818   4.041 -0.4025 -1.6058 -0.1409
 5562TIP3   OH216628   1.754   1.627   4.125 -0.0525 -0.1734 -0.0270
 5562TIP3    H116629   1.704   1.671   4.193 -0.2352  1.9480 -1.4299
 5562TIP3    H216630   1.697   1.558   4.094 -0.5039 -0.2965  1.0414
 5563TIP3   OH216631   1.784   1.364   4.735  0.4066  0.9341  0.0353
 5563TIP3    H116632   1.751   1.298   4.674 -0.6837  0.8019  0.7368
 5563TIP3    H216633   1.879   1.362   4.723  0.2191  0.9685 -1.6824
 5564TIP3   OH216634   0.273   7.166   5.807  0.2598 -0.5037  0.3464
 5564TIP3    H116635   0.327   7.170   5.886 -0.4744 -1.4829  0.9057
 5564TIP3    H216636   0.183   7.165   5.839 -0.0543 -0.5575 -0.5203
 5565TIP3   OH216637   0.020   0.022   5.681 -0.0926 -0.2013  0.1773
 5565TIP3    H116638   0.064   0.012   5.766 -1.4815  0.0751  0.9614
 5565TIP3    H216639  -0.050   0.085   5.698 -2.1236 -2.1472 -0.5019
 5566TIP3   OH216640   4.620   7.066   6.338 -0.4756  0.3807  0.1209
 5566TIP3    H116641   4.562   7.121   6.284  0.5733  0.7538 -0.6705
 5566TIP3    H216642   4.633   7.117   6.418 -0.8519  0.5121  0.1047
 5567TIP3   OH216643   2.974   2.731   4.851  0.5566 -0.1257  0.3190
 5567TIP3    H116644   2.896   2.757   4.802  0.4838 -1.7674 -0.5259
 5567TIP3    H216645   2.960   2.764   4.940 -0.2162  1.2152 -0.2744
 5568TIP3   OH216646   5.394   0.703   3.519 -0.6303  0.0285  0.0629
 5568TIP3    H116647   5.309   0.731   3.554 -1.4532 -0.8107 -1.1760
 5568TIP3    H216648   5.375   0.623   3.470  1.1874 -1.1671  1.1662
 5569TIP3   OH216649   6.622   6.631   6.058 -0.6459  0.0737  0.4033
 5569TIP3    H116650   6.696   6.574   6.079  0.5471  2.2199  2.5172
 5569TIP3    H216651   6.634   6.652   5.965 -0.5380 -2.1742 -0.1507
 5570TIP3   OH216652   6.662   1.263   3.724  0.2396 -0.1709  0.3274
 5570TIP3    H116653   6.693   1.175   3.748  0.5994 -0.4311 -1.0506
 5570TIP3    H216654   6.738   1.319   3.738 -0.2282  0.1127  2.0454
 5571TIP3   OH216655   0.793   6.382   3.952 -0.2580 -0.4708  0.6058
 5571TIP3    H116656   0.811   6.393   4.045  0.4935  1.3511  0.3089
 5571TIP3    H216657   0.854   6.443   3.909 -2.7094  1.1446 -0.8761
 5572TIP3   OH216658   0.484   4.920   3.936 -0.4997 -0.4817 -0.0980
 5572TIP3    H116659   0.473   4.836   3.981 -2.3816 -0.2859 -0.1157
 5572TIP3    H216660   0.540   4.900   3.861  1.6681 -1.0572  1.5764
 5573TIP3   OH216661   6.183   2.766   4.010  0.3549  0.3535  0.4481
 5573TIP3    H116662   6.164   2.674   3.994 -1.5284  0.6975  0.4085
 5573TIP3    H216663   6.242   2.766   4.086 -3.2516 -0.8483  3.6137
 5574TIP3   OH216664   4.241   5.190   5.035  0.2119 -0.1161 -0.4302
 5574TIP3    H116665   4.299   5.167   5.108  0.0636  1.6769  0.3140
 5574TIP3    H216666   4.178   5.118   5.031  0.5889 -0.5507  0.8274
 5575TIP3   OH216667   1.472   0.227   5.028 -0.3781  0.4029  0.7433
 5575TIP3    H116668   1.440   0.276   4.953  1.2088  2.5467  1.3655
 5575TIP3    H216669   1.416   0.149   5.032  1.1656 -1.2910 -4.2190
 5576TIP3   OH216670   6.619   5.896   5.125 -0.3696 -1.0826  0.4199
 5576TIP3    H116671   6.541   5.847   5.150 -0.5572 -0.0060  2.1606
 5576TIP3    H216672   6.680   5.830   5.091 -1.6603 -2.0665 -0.0409
 5577TIP3   OH216673   4.324   2.990   0.715 -0.7960 -0.0739  0.4005
 5577TIP3    H116674   4.352   2.974   0.805  0.3656 -1.5500 -0.1875
 5577TIP3    H216675   4.228   2.982   0.718 -0.7917  0.1897  1.5476
 5578TIP3   OH216676   1.233   1.186   6.213 -0.1549  0.6935  0.0229
 5578TIP3    H116677   1.205   1.156   6.126  1.3897 -1.2827  0.1344
 5578TIP3    H216678   1.152   1.188   6.264 -0.8800  0.4680 -1.0759
 5579TIP3   OH216679   4.316   4.823   4.381 -0.5387 -0.4586  0.1812
 5579TIP3    H116680   4.391   4.808   4.323 -1.1460  0.9270 -1.0277
 5579TIP3    H216681   4.355   4.843   4.466  0.4667 -0.0378 -0.3631
 5580TIP3   OH216682   6.834   1.646   3.800  0.3682 -0.2033 -0.1398
 5580TIP3    H116683   6.808   1.714   3.862  1.0157 -0.5528  0.5288
 5580TIP3    H216684   6.818   1.685   3.714 -1.1751  0.0382  0.2237
 5581TIP3   OH216685   4.416   5.313   5.511  0.5819  0.5170  0.1180
 5581TIP3    H116686   4.497   5.273   5.542 -0.7170 -1.7967  0.7440
 5581TIP3    H216687   4.403   5.276   5.423  0.0552  0.6192  0.1483
 5582TIP3   OH216688   5.211   2.867   2.914 -0.3384  0.2485 -0.5179
 5582TIP3    H116689   5.285   2.824   2.955  0.7785  1.1753 -1.4919
 5582TIP3    H216690   5.212   2.836   2.824 -0.1271  1.5050 -0.9662
 5583TIP3   OH216691   5.558   3.431   5.086  0.1354 -0.5544 -0.0553
 5583TIP3    H116692   5.591   3.453   4.998 -0.1406 -1.0807 -0.2936
 5583TIP3    H216693   5.485   3.491   5.099  0.4858 -0.1367  0.0216
 5584TIP3   OH216694   7.678   3.939   0.862 -0.3853  0.0304 -0.5349
 5584TIP3    H116695   7.760   3.987   0.850  0.8518 -1.4213  1.5648
 5584TIP3    H216696   7.657   3.906   0.775 -1.0766  3.8547 -2.0142
 5585TIP3   OH216697   3.770   0.742   2.964 -0.0553 -0.2372  0.0780
 5585TIP3    H116698   3.790   0.649   2.965  2.1663  0.1713 -0.4305
 5585TIP3    H216699   3.676   0.747   2.943 -0.2022 -2.3255  0.0922
 5586TIP3   OH216700   5.396   0.329   3.006  0.0462 -0.2157 -0.2468
 5586TIP3    H116701   5.477   0.380   2.999  0.4610 -1.0518 -1.9626
 5586TIP3    H216702   5.333   0.377   2.952 -0.0090 -0.6299 -0.5628
 5587TIP3   OH216703   2.566   5.502   4.566 -0.0523  0.1244 -0.0195
 5587TIP3    H116704   2.526   5.441   4.505  0.2136  1.0973 -1.2206
 5587TIP3    H216705   2.518   5.584   4.552 -0.1536  0.2978  1.2778
 5588TIP3   OH216706   1.155   4.939   5.522 -0.0162 -0.5053 -0.0184
 5588TIP3    H116707   1.197   4.870   5.472 -2.6136 -0.9052 -1.8686
 5588TIP3    H216708   1.157   4.908   5.613 -0.0071 -2.4455 -0.6362
 5589TIP3   OH216709   1.550   6.589   0.279  0.1110 -0.0577 -0.4080
 5589TIP3    H116710   1.641   6.573   0.256  0.0295  0.4154 -1.1209
 5589TIP3    H216711   1.511   6.502   0.286  0.1027 -0.2514 -2.3183
 5590TIP3   OH216712   2.862   4.607   3.721  0.2891  0.4456 -0.1036
 5590TIP3    H116713   2.896   4.588   3.808  1.0440  0.6451 -0.3400
 5590TIP3    H216714   2.880   4.701   3.708 -0.1683  0.5059 -0.3181
 5591TIP3   OH216715   0.827   5.810   4.207  0.0686  0.1752  0.3401
 5591TIP3    H116716   0.792   5.788   4.293 -0.3030 -0.1484  0.1096
 5591TIP3    H216717   0.827   5.906   4.204  0.9638  0.2088  1.0596
 5592TIP3   OH216718   5.972   4.651   0.165 -0.0778  0.1880 -0.4446
 5592TIP3    H116719   5.890   4.684   0.126 -0.4689 -1.0294 -0.7059
 5592TIP3    H216720   5.993   4.573   0.113  1.5716  0.7937 -0.7433
 5593TIP3   OH216721   3.343   1.811   1.346  0.6595  0.0088 -0.7854
 5593TIP3    H116722   3.357   1.745   1.278  1.1255 -0.7238  0.0073
 5593TIP3    H216723   3.325   1.760   1.425 -1.5753  0.8622 -0.6876
 5594TIP3   OH216724   5.367   6.924   4.715 -0.4287  0.6838  0.2566
 5594TIP3    H116725   5.434   6.882   4.661  0.4146  2.0504  0.1953
 5594TIP3    H216726   5.310   6.968   4.652 -2.0383 -1.2992  0.2357
 5595TIP3   OH216727   1.185   4.201   3.022 -0.3473 -0.7512  0.3535
 5595TIP3    H116728   1.212   4.246   2.942  0.4307 -1.6514  0.0947
 5595TIP3    H216729   1.254   4.137   3.038  0.0817  0.1212  2.3513
 5596TIP3   OH216730   1.108   7.076   6.732 -0.6552  0.0899 -0.8635
 5596TIP3    H116731   1.101   7.158   6.682 -0.0984  0.2898 -0.6212
 5596TIP3    H216732   1.176   7.026   6.687 -2.0812 -0.9530 -1.9742
 5597TIP3   OH216733   3.646   6.405   0.994  0.5527 -0.2998  0.2952
 5597TIP3    H116734   3.578   6.413   0.927  0.8064 -1.8833 -0.2060
 5597TIP3    H216735   3.600   6.417   1.077 -0.4550 -1.7612 -0.0188
 5598TIP3   OH216736   2.208   6.715   5.856  0.0036  0.5959 -0.1912
 5598TIP3    H116737   2.245   6.689   5.772 -2.1596  0.2426 -1.1062
 5598TIP3    H216738   2.209   6.635   5.908 -1.6009 -0.0654 -1.0799
 5599TIP3   OH216739   0.808   0.835   1.679  0.3809 -0.1176  0.1670
 5599TIP3    H116740   0.889   0.876   1.708  0.4752  0.0584 -0.3266
 5599TIP3    H216741   0.761   0.905   1.633  0.0389 -0.2722  0.2794
 5600TIP3   OH216742   3.055   2.414   1.233  0.1480  0.2879  0.0636
 5600TIP3    H116743   3.036   2.474   1.304  0.7169  0.4770  0.0598
 5600TIP3    H216744   2.986   2.348   1.238 -1.1534  1.5313 -0.6219
 5601TIP3   OH216745   3.697   7.130   2.119 -0.3660 -0.3287  0.1447
 5601TIP3    H116746   3.717   7.224   2.115 -0.6575 -0.1890  1.4623
 5601TIP3    H216747   3.602   7.127   2.133 -0.2257 -0.7880  1.0248
 5602TIP3   OH216748   4.431   0.482   4.714  0.2193 -1.1740  0.1855
 5602TIP3    H116749   4.335   0.490   4.710  0.4002  0.8632 -1.1973
 5602TIP3    H216750   4.453   0.509   4.803 -0.4269 -0.7573  0.2277
 5603TIP3   OH216751   1.714   5.199   5.802 -0.0579  0.2063 -0.1111
 5603TIP3    H116752   1.672   5.138   5.741  1.1800 -0.6818 -0.1198
 5603TIP3    H216753   1.771   5.143   5.855 -0.4321  1.0903  1.2636
 5604TIP3   OH216754   0.080   0.199   0.030 -0.4616 -0.2608 -0.0616
 5604TIP3    H116755   0.012   0.132   0.038  1.3596 -2.3094 -0.7386
 5604TIP3    H216756   0.081   0.220  -0.063  1.0203 -1.6098 -0.3758
 5605TIP3   OH216757   2.332   6.315   4.940 -0.0433 -0.5390 -0.7468
 5605TIP3    H116758   2.277   6.246   4.978 -1.6020 -0.1239 -2.1385
 5605TIP3    H216759   2.400   6.330   5.006 -2.4761  0.0141  1.8190
 5606TIP3   OH216760   0.232   0.790   5.736 -0.1256 -0.7081 -0.0902
 5606TIP3    H116761   0.283   0.868   5.757 -0.8256 -0.2492 -0.0555
 5606TIP3    H216762   0.260   0.765   5.648  0.8324 -1.0266  0.2864
 5607TIP3   OH216763   3.795   6.651   0.498 -0.1463  0.0919  0.1967
 5607TIP3    H116764   3.797   6.658   0.402 -0.0479  1.2820  0.2669
 5607TIP3    H216765   3.888   6.650   0.523 -0.1684 -0.5313  0.2723
 5608TIP3   OH216766   0.962   4.019   0.463  0.6085  0.1809 -0.1921
 5608TIP3    H116767   0.909   4.077   0.408  2.2235  1.2714 -0.7041
 5608TIP3    H216768   0.989   4.075   0.536 -0.3496 -0.8568  0.9917
 5609TIP3   OH216769   6.398   2.911   1.074 -0.3317 -0.2809  0.5318
 5609TIP3    H116770   6.359   2.962   1.003 -0.4831 -1.7568 -0.4959
 5609TIP3    H216771   6.444   2.975   1.128 -1.7145  1.1124  0.1120
 5610TIP3   OH216772   2.121   0.472   4.821  0.4154  0.4669 -0.2933
 5610TIP3    H116773   2.027   0.487   4.810 -0.0196 -1.6999 -0.0180
 5610TIP3    H216774   2.158   0.482   4.734 -0.1453  0.8798 -0.4879
 5611TIP3   OH216775   6.646   0.216   1.151 -0.0906  0.3391 -0.1025
 5611TIP3    H116776   6.683   0.221   1.063  1.7663  0.8455  0.6647
 5611TIP3    H216777   6.701   0.151   1.196 -2.4089 -1.6305  0.0779
 5612TIP3   OH216778   0.858   1.040   1.157 -0.4055  0.0810 -0.3877
 5612TIP3    H116779   0.951   1.035   1.179 -0.3124 -0.3578 -0.8630
 5612TIP3    H216780   0.814   0.984   1.220 -0.6289  2.0253  1.2960
 5613TIP3   OH216781   6.370   3.502   4.137  0.1376 -0.1229  0.3897
 5613TIP3    H116782   6.384   3.409   4.117  0.1801 -0.1775  0.6720
 5613TIP3    H216783   6.373   3.507   4.232  0.1695  0.1753  0.3737
 5614TIP3   OH216784   6.638   5.373   1.482  0.0731  0.1239 -0.6148
 5614TIP3    H116785   6.543   5.377   1.488  0.1681  0.7591  1.0250
 5614TIP3    H216786   6.668   5.451   1.529  1.4509 -2.1740  2.6584
 5615TIP3   OH216787   2.684   1.538   4.807 -0.3155  0.3607 -0.3428
 5615TIP3    H116788   2.602   1.521   4.853 -0.2576  0.9771 -0.0082
 5615TIP3    H216789   2.736   1.590   4.869  0.2389  0.1603 -0.6377
 5616TIP3   OH216790   2.338   2.927   5.488 -0.6942 -0.3332 -0.0216
 5616TIP3    H116791   2.269   2.931   5.554 -0.3983 -0.1670  0.2806
 5616TIP3    H216792   2.340   2.835   5.461 -0.8637 -0.3879  0.1528
 5617TIP3   OH216793   7.795   7.291   0.121  0.0565 -0.0817 -0.1251
 5617TIP3    H116794   7.773   7.204   0.088  1.8383 -0.3849 -0.6469
 5617TIP3    H216795   7.737   7.351   0.073  1.4983 -0.6488 -2.8270
 5618TIP3   OH216796   2.330   6.447   1.386 -0.7569 -0.0886 -0.2360
 5618TIP3    H116797   2.332   6.375   1.449  3.6453  0.1664  0.2024
 5618TIP3    H216798   2.327   6.404   1.300 -0.5863 -0.6918  0.0568
 5619TIP3   OH216799   0.015   2.616   1.134  0.6444 -0.0904 -0.4457
 5619TIP3    H116800  -0.041   2.540   1.150  0.7974 -0.2832 -0.8142
 5619TIP3    H216801   0.082   2.584   1.074  1.2134  0.1077  0.0781
 5620TIP3   OH216802   0.740   4.271   3.611  0.3873  0.1530 -0.6622
 5620TIP3    H116803   0.696   4.192   3.643  0.1918  0.8991  1.0176
 5620TIP3    H216804   0.833   4.247   3.607  0.2319 -0.4160 -1.0071
 5621TIP3   OH216805   0.360   7.311   5.246 -0.3990  0.3977 -0.1324
 5621TIP3    H116806   0.404   7.256   5.181 -0.8871  0.0919 -0.2135
 5621TIP3    H216807   0.271   7.276   5.250 -0.4801  0.6550  0.4280
 5622TIP3   OH216808   0.819   5.470   0.778 -0.0360  0.1965  0.2971
 5622TIP3    H116809   0.879   5.513   0.717 -1.6165  0.9369 -0.8003
 5622TIP3    H216810   0.777   5.401   0.726 -2.5178  1.7992  0.0252
 5623TIP3   OH216811   2.555   5.532   4.840  0.1227  0.4332  0.4907
 5623TIP3    H116812   2.572   5.513   4.748 -0.4522 -0.8325  0.6312
 5623TIP3    H216813   2.606   5.612   4.858 -1.1965  1.7697 -1.3880
 5624TIP3   OH216814   5.369   1.369   0.446  0.1487  0.5443 -0.5185
 5624TIP3    H116815   5.391   1.383   0.538  0.5193  2.2999 -0.8457
 5624TIP3    H216816   5.288   1.418   0.432 -0.7339 -0.9331 -0.7926
 5625TIP3   OH216817   3.316   5.662   3.723  0.4823 -0.9440  0.0684
 5625TIP3    H116818   3.359   5.605   3.660  1.5488  0.8108 -0.8771
 5625TIP3    H216819   3.387   5.718   3.756 -0.4150 -0.5331  1.3726
 5626TIP3   OH216820   1.753   2.143   6.564 -0.1224  0.3035 -0.3177
 5626TIP3    H116821   1.832   2.178   6.523  0.1484  0.5177  0.3661
 5626TIP3    H216822   1.778   2.056   6.594  0.3416  0.9320  1.2391
 5627TIP3   OH216823   4.387   1.958   1.486  0.3301  0.0075  0.0225
 5627TIP3    H116824   4.460   2.020   1.481 -0.1088  0.4531 -0.9861
 5627TIP3    H216825   4.311   2.007   1.456  0.0196 -1.0756 -1.0298
 5628TIP3   OH216826   3.960   6.372   0.765 -0.4894 -0.4077  0.6172
 5628TIP3    H116827   3.976   6.466   0.766 -2.2911 -0.0487  0.0615
 5628TIP3    H216828   3.995   6.343   0.680  1.7999 -0.6415  1.5679
 5629TIP3   OH216829   1.042   2.578   3.132 -0.1356 -0.0589 -0.5339
 5629TIP3    H116830   1.024   2.652   3.190 -0.3989 -0.8189  0.3744
 5629TIP3    H216831   1.041   2.616   3.044 -0.8592  0.9050 -0.1267
 5630TIP3   OH216832   1.812   7.062   1.935  0.8238 -0.4832  0.4991
 5630TIP3    H116833   1.783   7.000   2.002 -2.6333 -0.1140 -0.4637
 5630TIP3    H216834   1.772   7.145   1.960 -0.0332 -0.1862 -1.6104
 5631TIP3   OH216835   8.085   1.752   3.888  0.4978 -0.1765 -0.0401
 5631TIP3    H116836   8.016   1.704   3.935  2.4400 -1.2541  1.9502
 5631TIP3    H216837   8.120   1.688   3.826 -0.4302  0.4578 -1.2489
 5632TIP3   OH216838   4.322   4.859   6.339  0.7052  0.2130 -0.3044
 5632TIP3    H116839   4.294   4.768   6.329  2.4123 -0.4447  0.3912
 5632TIP3    H216840   4.259   4.898   6.399 -0.4917 -0.2749 -1.2186
 5633TIP3   OH216841   3.001   3.838   1.666  0.0607 -0.2354  0.0262
 5633TIP3    H116842   3.030   3.865   1.579 -0.1116  0.3125  0.1363
 5633TIP3    H216843   2.949   3.759   1.650  0.7435 -0.6350 -0.2742
 5634TIP3   OH216844   4.841   4.794   3.855 -0.0680 -0.1216 -0.2117
 5634TIP3    H116845   4.808   4.879   3.884  0.5003  0.1056 -0.2266
 5634TIP3    H216846   4.762   4.745   3.830 -0.3727  0.5120 -0.5109
 5635TIP3   OH216847   4.631   6.474   4.571  0.6210  0.3913 -1.2954
 5635TIP3    H116848   4.557   6.434   4.526 -1.6294  1.4162  1.2500
 5635TIP3    H216849   4.646   6.556   4.524 -0.5091  0.6110 -1.3015
 5636TIP3   OH216850   3.686   2.449   1.821  0.8044  0.4124 -0.1834
 5636TIP3    H116851   3.652   2.417   1.737  0.3054  0.4875 -0.0165
 5636TIP3    H216852   3.702   2.370   1.872 -1.8840  0.4048  0.7931
 5637TIP3   OH216853   5.456   5.527   1.048  0.5875 -0.5087 -0.8250
 5637TIP3    H116854   5.412   5.611   1.035  1.3383 -0.1031 -0.7969
 5637TIP3    H216855   5.387   5.467   1.074 -0.0536 -0.0342 -1.4128
 5638TIP3   OH216856   2.168   2.567   0.576 -0.0237 -0.0944  0.3948
 5638TIP3    H116857   2.144   2.495   0.635  1.4856 -2.5187 -1.7236
 5638TIP3    H216858   2.260   2.550   0.555  0.6415  2.9502  0.3403
 5639TIP3   OH216859   4.101   6.021   3.469 -0.1328  0.3065  0.6667
 5639TIP3    H116860   4.060   5.990   3.549 -0.5620 -1.4383 -0.1680
 5639TIP3    H216861   4.122   6.113   3.486 -1.1604  0.2643  2.3787
 5640TIP3   OH216862   6.335   1.266   4.621 -0.4132 -0.0974 -0.0009
 5640TIP3    H116863   6.276   1.266   4.546 -2.1358  0.1432  1.2742
 5640TIP3    H216864   6.421   1.285   4.585 -1.2761  0.5130 -1.8416
 5641TIP3   OH216865   5.221   7.258   6.528  0.1915 -0.1029  0.1635
 5641TIP3    H116866   5.202   7.169   6.499  0.5139 -0.2203  0.3021
 5641TIP3    H216867   5.191   7.314   6.456 -0.1687 -0.3125  0.1499
 5642TIP3   OH216868   5.438   7.186   0.789  0.1633  0.3191  0.4022
 5642TIP3    H116869   5.361   7.198   0.734  0.9015  2.1087 -0.3298
 5642TIP3    H216870   5.421   7.240   0.866  1.2345  1.8709 -0.4048
 5643TIP3   OH216871   5.433   0.433   0.632 -0.2595  0.6379  0.6201
 5643TIP3    H116872   5.433   0.383   0.714  1.2526  0.7069  0.6829
 5643TIP3    H216873   5.398   0.519   0.657  1.9487  1.3225  1.6752
 5644TIP3   OH216874   7.220   0.795   6.548  0.1256  0.5290  0.2615
 5644TIP3    H116875   7.307   0.768   6.517  0.0954 -0.2522  0.8214
 5644TIP3    H216876   7.238   0.861   6.615  0.2293  1.3716 -0.5730
 5645TIP3   OH216877   7.050   1.194   4.919 -0.2159  0.0537  0.6634
 5645TIP3    H116878   7.135   1.177   4.877 -1.0316 -0.0714 -1.0535
 5645TIP3    H216879   7.003   1.110   4.913 -0.2828 -0.0232  2.0689
 5646TIP3   OH216880   4.397   6.501   2.242  0.0529  0.3452 -0.4673
 5646TIP3    H116881   4.455   6.559   2.292  0.7275 -0.7290  0.0442
 5646TIP3    H216882   4.357   6.558   2.177  0.4356  1.4479  0.2258
 5647TIP3   OH216883   0.228   1.863   2.897 -0.7804 -0.4154  0.1956
 5647TIP3    H116884   0.181   1.794   2.849 -0.5606 -0.5649  0.1950
 5647TIP3    H216885   0.186   1.866   2.983 -0.2298 -1.1365  0.4931
 5648TIP3   OH216886   2.682   7.314   6.679  0.4637 -0.4012  0.0717
 5648TIP3    H116887   2.650   7.270   6.600 -0.2355  2.0393 -1.1263
 5648TIP3    H216888   2.671   7.250   6.749 -0.7714 -1.9778 -1.4859
 5649TIP3   OH216889   5.477   5.460   2.042 -0.0160  0.0920  0.7962
 5649TIP3    H116890   5.450   5.524   1.976 -0.7469 -1.2897 -0.2913
 5649TIP3    H216891   5.544   5.408   1.998  1.1278  0.5674  1.9278
 5650TIP3   OH216892   2.449   5.963   5.140  0.6770 -0.4941  0.0612
 5650TIP3    H116893   2.456   5.869   5.156 -1.0965 -0.7982 -0.7926
 5650TIP3    H216894   2.538   5.995   5.154  0.8103 -1.8123  3.2304
 5651TIP3   OH216895   3.553   1.285   6.364 -0.3074 -0.5869  0.0575
 5651TIP3    H116896   3.596   1.357   6.317  0.3529 -1.6709 -1.0721
 5651TIP3    H216897   3.469   1.274   6.319 -1.0953  0.4355  1.2033
 5652TIP3   OH216898   2.521   0.702   2.285  0.2503  0.0271  0.1831
 5652TIP3    H116899   2.515   0.613   2.320  0.9386  0.5343  1.6714
 5652TIP3    H216900   2.588   0.696   2.217  2.2036 -0.1289  2.0173
 5653TIP3   OH216901   6.324   0.666   5.173 -0.8851 -0.0297 -0.6797
 5653TIP3    H116902   6.326   0.717   5.092 -0.6598 -0.4796 -0.9638
 5653TIP3    H216903   6.333   0.731   5.243 -0.6510  0.3209 -1.0346
 5654TIP3   OH216904   7.772   5.509   3.411 -0.3673 -0.4128  0.1825
 5654TIP3    H116905   7.716   5.480   3.484 -0.2344  3.0098  1.8705
 5654TIP3    H216906   7.730   5.473   3.333 -2.5864 -1.3469  1.6897
 5655TIP3   OH216907   3.745   1.066   6.616  0.4035 -0.2587 -0.0838
 5655TIP3    H116908   3.780   1.070   6.528  0.6041  0.8164  0.0232
 5655TIP3    H216909   3.822   1.073   6.673  0.2918 -1.1105  0.1857
 5656TIP3   OH216910   2.113   4.090   6.154  0.0676  1.6619  0.0997
 5656TIP3    H116911   2.148   4.170   6.193  0.5347  0.5448  2.0937
 5656TIP3    H216912   2.036   4.069   6.208  1.8985 -1.0376  1.9185
 5657TIP3   OH216913   2.265   7.448   3.147 -0.3165  0.4998 -0.5965
 5657TIP3    H116914   2.301   7.391   3.079  0.3513 -0.0257  0.1924
 5657TIP3    H216915   2.218   7.390   3.206 -0.8094  0.9461 -0.5388
 5658TIP3   OH216916   1.360   5.659   3.535 -0.4754 -0.3597 -0.4301
 5658TIP3    H116917   1.454   5.667   3.515 -0.9840 -1.7806 -4.1339
 5658TIP3    H216918   1.351   5.569   3.567 -0.3505  0.4944  2.2297
 5659TIP3   OH216919   0.204   4.290   5.183 -0.1409 -0.0198  0.1759
 5659TIP3    H116920   0.120   4.248   5.200  0.5114 -1.4303  0.0285
 5659TIP3    H216921   0.267   4.218   5.176  0.3887  0.5835 -4.3066
 5660TIP3   OH216922   7.876   3.103   2.667  0.1113  0.2329 -0.2652
 5660TIP3    H116923   7.930   3.163   2.718  0.2958  2.1737 -2.5486
 5660TIP3    H216924   7.833   3.159   2.603 -1.5370 -1.8186 -1.0699
 5661TIP3   OH216925   3.316   4.136   5.793  0.0032 -0.4562 -0.3123
 5661TIP3    H116926   3.398   4.182   5.772  0.4352 -1.5972 -1.2250
 5661TIP3    H216927   3.343   4.046   5.809 -1.0579 -0.7917 -0.3492
 5662TIP3   OH216928   4.520   3.767   1.202 -0.3525  0.2874 -0.2888
 5662TIP3    H116929   4.536   3.814   1.283  0.2358 -0.4746  0.0550
 5662TIP3    H216930   4.551   3.678   1.219  0.0237  0.1742 -1.4233
 5663TIP3   OH216931   3.491   4.075   0.656  0.8142  0.2206  0.5030
 5663TIP3    H116932   3.546   4.032   0.589  0.5033 -2.5505  1.8646
 5663TIP3    H216933   3.554   4.111   0.718  1.0917  1.9622 -0.7333
 5664TIP3   OH216934   7.292   3.099   2.593 -0.3737  0.1742  0.3339
 5664TIP3    H116935   7.366   3.131   2.541  0.5348 -1.4854  0.5212
 5664TIP3    H216936   7.224   3.165   2.581 -0.0973  0.0471 -2.7113
 5665TIP3   OH216937   3.570   7.030   1.777  0.1141  0.0635  0.4529
 5665TIP3    H116938   3.634   6.982   1.829 -0.6354 -0.1538  1.1894
 5665TIP3    H216939   3.507   7.062   1.840 -2.6447 -2.9159 -0.4988
 5666TIP3   OH216940   6.085   1.696   5.358  0.2408 -0.0384  0.3999
 5666TIP3    H116941   6.057   1.748   5.282  3.3275  3.3881  1.2938
 5666TIP3    H216942   6.124   1.618   5.320  0.2350  0.7978 -1.4532
 5667TIP3   OH216943   6.175   0.220   3.451  0.1495  0.3621 -0.1734
 5667TIP3    H116944   6.106   0.154   3.444  0.1655  0.3326 -0.0658
 5667TIP3    H216945   6.198   0.220   3.544  0.6450  0.0086 -0.2893
 5668TIP3   OH216946   0.852   0.556   3.216  0.0073  0.1105 -0.0572
 5668TIP3    H116947   0.762   0.589   3.216  0.0991  0.4171  1.4660
 5668TIP3    H216948   0.879   0.560   3.308  0.8272 -2.0198 -0.1429
 5669TIP3   OH216949   1.678   1.145   2.586 -0.5701  0.7286 -0.3526
 5669TIP3    H116950   1.662   1.075   2.523 -1.6601 -0.6206  1.3298
 5669TIP3    H216951   1.772   1.140   2.604 -0.8852 -1.4870  0.9947
 5670TIP3   OH216952   4.329   0.536   6.114  0.3182  0.1530 -0.3037
 5670TIP3    H116953   4.260   0.504   6.056 -0.4077 -0.2057  0.7107
 5670TIP3    H216954   4.409   0.497   6.081 -0.3763 -1.7966  0.1697
 5671TIP3   OH216955   2.941   5.524   5.386  0.5342  0.9193 -0.0395
 5671TIP3    H116956   2.963   5.434   5.361 -0.3120  0.7613 -0.2336
 5671TIP3    H216957   2.999   5.578   5.334  0.2521  0.5194 -0.7813
 5672TIP3   OH216958   5.115   0.883   0.567  0.5079 -0.1270  0.2887
 5672TIP3    H116959   5.077   0.849   0.486  0.8743  0.5973 -0.1925
 5672TIP3    H216960   5.079   0.826   0.635 -1.8248  0.8050 -0.0834
 5673TIP3   OH216961   5.477   0.321   5.896  0.7932  0.0547 -0.2239
 5673TIP3    H116962   5.521   0.324   5.981 -1.8971 -2.0773  1.4036
 5673TIP3    H216963   5.462   0.413   5.873  2.4947  0.6904  1.0475
 5674TIP3   OH216964   0.001   2.824   3.862  0.0073  0.2171  0.3772
 5674TIP3    H116965   0.054   2.884   3.809  1.9152 -1.2804  0.5036
 5674TIP3    H216966  -0.012   2.871   3.945  2.2067  0.1706  0.8006
 5675TIP3   OH216967   4.805   1.876   5.374 -0.2681  0.1820 -0.2769
 5675TIP3    H116968   4.734   1.939   5.361 -0.9705 -0.5391  0.0213
 5675TIP3    H216969   4.877   1.911   5.321 -0.1231  2.0525  1.0700
 5676TIP3   OH216970   5.317   0.652   0.522 -0.0086  0.0204 -0.2265
 5676TIP3    H116971   5.222   0.654   0.531 -0.1075  3.3684 -0.9532
 5676TIP3    H216972   5.333   0.628   0.431 -0.2503  1.3087 -0.6184
 5677TIP3   OH216973   1.059   4.255   6.717 -0.3884 -0.0632  0.4189
 5677TIP3    H116974   0.980   4.234   6.766 -0.3793 -1.3581 -0.0773
 5677TIP3    H216975   1.062   4.190   6.646  0.2664  0.9740 -0.5432
 5678TIP3   OH216976   5.970   4.912   5.726  0.2324 -0.0788 -0.4185
 5678TIP3    H116977   5.903   4.902   5.659  0.3197 -1.4644 -0.3389
 5678TIP3    H216978   6.007   4.999   5.710 -1.3501  0.5927 -0.6474
 5679TIP3   OH216979   5.214   5.644   1.109  0.1219 -0.0597  0.0162
 5679TIP3    H116980   5.129   5.611   1.138 -0.1471 -0.1865 -0.9000
 5679TIP3    H216981   5.205   5.652   1.014  0.7687  0.9817  0.0405
 5680TIP3   OH216982   8.178   3.838   3.739 -0.9183  0.0865  0.7831
 5680TIP3    H116983   8.183   3.902   3.810  0.7522 -0.2579  1.0304
 5680TIP3    H216984   8.148   3.758   3.781  2.4707 -0.8505  1.7768
 5681TIP3   OH216985   0.929   7.118   0.820 -0.4296  0.5911 -0.0888
 5681TIP3    H116986   0.966   7.030   0.824  0.6734  0.9268 -1.7659
 5681TIP3    H216987   0.841   7.109   0.856  0.2780 -0.8239  1.3843
 5682TIP3   OH216988   3.407   0.172   5.810  0.0243  0.1485 -0.3246
 5682TIP3    H116989   3.398   0.077   5.825  0.9379 -0.4680 -3.1113
 5682TIP3    H216990   3.496   0.192   5.838  0.6398 -0.3458 -1.8277
 5683TIP3   OH216991   6.585   5.451   4.194  0.2404 -0.6235  0.0125
 5683TIP3    H116992   6.542   5.476   4.111  2.0822 -1.0020 -1.1164
 5683TIP3    H216993   6.534   5.377   4.226 -1.0633  0.1147 -0.2715
 5684TIP3   OH216994   7.597   3.237   1.140  0.5114 -0.1690 -0.2176
 5684TIP3    H116995   7.565   3.326   1.130  1.4112  0.3426  1.1039
 5684TIP3    H216996   7.520   3.182   1.128 -0.0811  0.7808 -0.9135
 5685TIP3   OH216997   0.611   3.174   0.619 -0.4105 -0.4468 -0.1328
 5685TIP3    H116998   0.613   3.257   0.571 -0.2238 -0.0796  0.5111
 5685TIP3    H216999   0.610   3.107   0.550 -0.8922  0.0903 -0.6577
 5686TIP3   OH217000   2.405   3.131   5.291  0.0627  0.1386  0.3394
 5686TIP3    H117001   2.373   3.068   5.356 -1.0286  0.2246 -0.0799
 5686TIP3    H217002   2.340   3.127   5.221  0.7184  0.7336 -0.3149
 5687TIP3   OH217003   6.016   2.668   0.106 -0.0558  0.5647 -0.0645
 5687TIP3    H117004   6.101   2.660   0.150 -0.6943  1.0396  1.3335
 5687TIP3    H217005   6.027   2.742   0.046  1.0012 -0.4330 -1.1495
 5688TIP3   OH217006   2.446   7.771   4.046 -0.1760 -0.1475  0.5778
 5688TIP3    H117007   2.476   7.802   4.131 -0.0536  0.5029  0.3079
 5688TIP3    H217008   2.513   7.709   4.017 -0.7944 -1.2630  1.4554
 5689TIP3   OH217009   4.346   2.743   6.208  0.1065  0.8359 -0.1066
 5689TIP3    H117010   4.421   2.722   6.263 -0.1058  0.6203  0.1008
 5689TIP3    H217011   4.359   2.835   6.185  0.3202  0.8603  0.1072
 5690TIP3   OH217012   3.894   3.235   2.382  0.5085 -0.0754  0.2659
 5690TIP3    H117013   3.818   3.226   2.440 -0.2393 -0.3146 -0.7288
 5690TIP3    H217014   3.913   3.146   2.354 -0.3987  0.2075 -1.4052
 5691TIP3   OH217015   4.515   1.834   0.375  0.6709 -0.0259  0.0628
 5691TIP3    H117016   4.458   1.827   0.299 -0.2218  0.9156  0.6248
 5691TIP3    H217017   4.526   1.929   0.389  0.4914 -0.1701  1.3412
 5692TIP3   OH217018   2.924   7.414   3.624 -0.6378  0.4960 -0.3769
 5692TIP3    H117019   3.001   7.424   3.568 -1.2217 -1.0031 -1.5182
 5692TIP3    H217020   2.888   7.502   3.631  0.8297  1.1131 -0.3337
 5693TIP3   OH217021   0.120   7.474   2.066  0.5531  0.0435  0.3378
 5693TIP3    H117022   0.139   7.497   2.157 -0.0709  1.4692  0.1449
 5693TIP3    H217023   0.199   7.431   2.035  1.3956  0.9796  1.0969
 5694TIP3   OH217024   2.721   3.588   2.761  0.4265  0.2759  0.1592
 5694TIP3    H117025   2.629   3.575   2.782  0.3608  1.2666  0.5178
 5694TIP3    H217026   2.755   3.499   2.748 -0.1532 -0.2338  1.8544
 5695TIP3   OH217027   6.994   7.718   1.494 -0.9540 -0.8471 -0.2377
 5695TIP3    H117028   7.051   7.699   1.569  0.0609  0.1532 -0.7161
 5695TIP3    H217029   6.905   7.714   1.529 -0.4675  1.7175  1.6082
 5696TIP3   OH217030   1.499   2.655   2.579  0.1919  0.3929  0.2360
 5696TIP3    H117031   1.404   2.640   2.572  0.2439 -0.0896  0.5135
 5696TIP3    H217032   1.513   2.672   2.672  0.7136 -2.1168  0.7044
 5697TIP3   OH217033   8.288   4.934   6.278 -0.2986  0.3123  0.1238
 5697TIP3    H117034   8.307   4.858   6.333 -0.7279 -1.5454 -2.1284
 5697TIP3    H217035   8.192   4.939   6.277 -0.2825  0.5641 -0.1567
 5698TIP3   OH217036   4.555   1.270   1.625  0.4935 -0.9036  0.2913
 5698TIP3    H117037   4.641   1.312   1.626  0.1009 -0.0720 -0.1477
 5698TIP3    H217038   4.563   1.200   1.560  0.9951 -1.1793  0.6428
 5699TIP3   OH217039   2.719   2.934   0.568  0.1156 -0.3731  0.0655
 5699TIP3    H117040   2.798   2.963   0.615  0.2629 -1.7832  0.7696
 5699TIP3    H217041   2.683   3.013   0.530  1.1988  0.4988  0.7743
 5700TIP3   OH217042   0.581   4.044   3.668 -0.2694 -0.1100  0.3840
 5700TIP3    H117043   0.486   4.053   3.664 -0.0966  1.8971 -0.3380
 5700TIP3    H217044   0.601   3.975   3.605 -1.1941  0.1385 -0.2031
 5701TIP3   OH217045   2.382   0.890   2.935 -0.1637  0.1897 -0.1333
 5701TIP3    H117046   2.392   0.981   2.909  0.5060  0.4228  0.9023
 5701TIP3    H217047   2.316   0.855   2.875 -0.3510  1.3234 -0.6056
 5702TIP3   OH217048   3.535   7.778   4.157  0.3704  0.0401  0.0019
 5702TIP3    H117049   3.469   7.836   4.194 -1.2559 -0.3933 -2.0015
 5702TIP3    H217050   3.590   7.834   4.103  1.2623  0.2833  1.1153
 5703TIP3   OH217051   0.564   3.891   6.652 -0.2082 -0.0348  0.0630
 5703TIP3    H117052   0.487   3.841   6.625 -0.8587  0.7634  0.4069
 5703TIP3    H217053   0.638   3.844   6.612 -0.7114 -1.7043  1.0053
 5704TIP3   OH217054   5.316   1.238   2.388 -0.4066  0.5408  0.2034
 5704TIP3    H117055   5.368   1.229   2.309  0.0421 -0.4665  0.5948
 5704TIP3    H217056   5.226   1.219   2.361  0.0154 -1.8505  0.2914
 5705TIP3   OH217057   0.928   6.592   5.147  0.3446  0.8913  0.0334
 5705TIP3    H117058   0.848   6.542   5.132 -1.2054  3.2410 -0.1114
 5705TIP3    H217059   0.950   6.575   5.238 -1.9729  2.3092  0.9421
 5706TIP3   OH217060   2.397   0.815   0.807  0.0565  0.2859  0.1000
 5706TIP3    H117061   2.435   0.882   0.864 -2.2645 -0.0685  2.2688
 5706TIP3    H217062   2.433   0.733   0.841  0.9044  0.2415 -0.8771
 5707TIP3   OH217063   5.740   1.322   0.795  0.6844 -0.2666  0.6806
 5707TIP3    H117064   5.788   1.344   0.874 -0.4429  2.3465  0.7515
 5707TIP3    H217065   5.800   1.342   0.723  0.9994 -0.6750  0.8279
 5708TIP3   OH217066   4.295   7.620   5.717 -0.0723  0.2622 -0.3844
 5708TIP3    H117067   4.378   7.666   5.701 -0.0702  0.8050  0.9669
 5708TIP3    H217068   4.319   7.548   5.776 -0.9013  2.2321  2.6263
 5709TIP3   OH217069   4.146   3.162   6.384 -0.4761  0.5502 -1.0421
 5709TIP3    H117070   4.210   3.094   6.403 -0.1704  0.9694 -0.5465
 5709TIP3    H217071   4.191   3.244   6.405 -0.8469  0.9039 -1.5995
 5710TIP3   OH217072   5.092   3.640   5.881 -0.3380  0.0545  0.1436
 5710TIP3    H117073   5.041   3.606   5.807  1.4551 -1.7346 -0.3548
 5710TIP3    H217074   5.111   3.731   5.858 -2.2464  0.4165 -0.1907
 5711TIP3   OH217075   6.285   7.743   5.843  0.5877 -0.4999 -0.3649
 5711TIP3    H117076   6.307   7.709   5.756  1.8805 -2.1746  0.5458
 5711TIP3    H217077   6.227   7.677   5.880  0.3849 -0.0022  0.2135
 5712TIP3   OH217078   7.338   6.152   2.658 -0.0885  0.0704  1.2366
 5712TIP3    H117079   7.328   6.058   2.668 -2.2813  0.1756  0.5804
 5712TIP3    H217080   7.293   6.189   2.734  0.3419  0.5920  1.2406
 5713TIP3   OH217081   5.327   6.362   2.572 -0.0082  0.3762 -0.1564
 5713TIP3    H117082   5.291   6.341   2.659 -0.3111 -1.9667 -0.7624
 5713TIP3    H217083   5.414   6.398   2.590 -0.0604 -0.0699  1.1273
 5714TIP3   OH217084   0.171   4.492   6.397 -0.7025 -0.3614  0.3476
 5714TIP3    H117085   0.258   4.466   6.368 -0.5453  0.8422 -0.3215
 5714TIP3    H217086   0.163   4.454   6.485 -0.0587 -1.6449 -0.1206
 5715TIP3   OH217087   5.548   1.408   3.535  0.2671  0.7690  0.0151
 5715TIP3    H117088   5.473   1.365   3.494 -0.1668  0.9878  0.5673
 5715TIP3    H217089   5.624   1.376   3.486  0.0120 -1.0099  0.7236
 5716TIP3   OH217090   6.899   7.681   3.344 -0.5076 -0.1800  0.7480
 5716TIP3    H117091   6.960   7.678   3.418 -0.2839  0.6135  0.6033
 5716TIP3    H217092   6.823   7.728   3.377  0.8519  3.0979 -0.3729
 5717TIP3   OH217093   0.067   0.216   3.889  0.4439  0.3624 -0.5187
 5717TIP3    H117094   0.154   0.176   3.892  0.1112 -0.3637  0.2176
 5717TIP3    H217095   0.043   0.217   3.797  1.7978  1.8809 -0.8930
 5718TIP3   OH217096   4.969   4.952   1.696  0.0718 -0.1029  0.0781
 5718TIP3    H117097   4.950   4.929   1.605  0.1350 -2.7573  0.6615
 5718TIP3    H217098   5.039   5.017   1.690  1.0973 -1.3027 -1.7597
 5719TIP3   OH217099   5.865   6.588   4.724 -0.4301 -0.3963 -0.0446
 5719TIP3    H117100   5.948   6.624   4.755 -1.4634  1.2706  0.9113
 5719TIP3    H217101   5.830   6.538   4.798 -0.3229 -1.0359 -0.4193
 5720TIP3   OH217102   0.649   5.870   1.164  0.0726 -0.5194  0.0581
 5720TIP3    H117103   0.585   5.799   1.163  1.1736 -1.6235  1.9405
 5720TIP3    H217104   0.733   5.828   1.146  0.8288  0.1507  1.7637
 5721TIP3   OH217105   6.304   0.055   2.017 -0.0053 -0.1641  0.0457
 5721TIP3    H117106   6.246  -0.018   2.040  0.5598 -0.2820  1.1485
 5721TIP3    H217107   6.389   0.014   2.000  0.2070  0.1964  0.2416
 5722TIP3   OH217108   1.869   6.098   2.814 -0.4608  0.2255 -0.0889
 5722TIP3    H117109   1.878   6.131   2.725 -0.4167 -2.2459 -1.0770
 5722TIP3    H217110   1.775   6.088   2.827 -0.4648  0.5395  0.1598
 5723TIP3   OH217111   6.617   6.986  -0.011 -0.1696 -0.5494  0.1089
 5723TIP3    H117112   6.691   6.927   0.004  1.4035  1.2182 -0.1808
 5723TIP3    H217113   6.624   7.051   0.060  0.3272  1.2412 -1.4850
 5724TIP3   OH217114   1.291   0.299   6.250 -0.6243  0.0429 -0.4821
 5724TIP3    H117115   1.210   0.275   6.295  0.2761 -0.3388  0.9983
 5724TIP3    H217116   1.262   0.329   6.163 -2.3258 -0.1917 -0.0357
 5725TIP3   OH217117   4.856   5.226   0.729 -0.8133  0.5984 -0.2930
 5725TIP3    H117118   4.766   5.255   0.746 -1.1063  1.5321 -2.9335
 5725TIP3    H217119   4.908   5.305   0.736 -0.0988  0.0090  1.4995
 5726TIP3   OH217120   1.509   4.948   2.469  0.9156  0.0584 -0.4247
 5726TIP3    H117121   1.522   4.893   2.391 -1.2317  0.5047 -1.1559
 5726TIP3    H217122   1.479   5.032   2.434  0.4501  0.4453  0.8551
 5727TIP3   OH217123   5.030   5.331   2.424 -0.2155  0.5247  0.2163
 5727TIP3    H117124   4.958   5.319   2.486  0.0863 -0.5431  0.3849
 5727TIP3    H217125   5.094   5.264   2.448  0.6490  1.1663 -0.2084
 5728TIP3   OH217126   4.814   2.107   2.397  0.7765  0.4486  0.4467
 5728TIP3    H117127   4.852   2.143   2.317 -0.1215 -1.8068 -1.1131
 5728TIP3    H217128   4.730   2.070   2.369  0.9749 -1.4760  2.1735
 5729TIP3   OH217129   7.218   4.520   5.360  0.4045  0.4979  0.2342
 5729TIP3    H117130   7.210   4.601   5.410  1.0866  1.7891 -1.6622
 5729TIP3    H217131   7.284   4.538   5.294  0.9505 -1.7893  0.0441
 5730TIP3   OH217132   6.365   0.254   6.662 -0.2789 -0.4597 -0.0272
 5730TIP3    H117133   6.372   0.174   6.608  0.1358 -0.6333  0.2787
 5730TIP3    H217134   6.387   0.225   6.750 -1.8334 -0.3665  0.4222
 5731TIP3   OH217135   4.967   6.857   1.129 -0.5948  0.1742 -0.3071
 5731TIP3    H117136   4.944   6.823   1.043  1.4328 -0.4994 -0.6552
 5731TIP3    H217137   4.935   6.791   1.190 -1.4536  0.3244 -0.5913
 5732TIP3   OH217138   6.782   2.446   1.569  0.6968  0.3457 -0.2308
 5732TIP3    H117139   6.809   2.522   1.519 -0.6056  0.5953 -0.5954
 5732TIP3    H217140   6.758   2.381   1.502  0.8596 -0.0294  0.0734
 5733TIP3   OH217141   5.934   2.390   6.119  0.0602 -1.0806  0.0574
 5733TIP3    H117142   5.936   2.425   6.030  2.1150 -0.5360  0.2502
 5733TIP3    H217143   5.866   2.323   6.118 -2.4732  1.2989 -0.9562
 5734TIP3   OH217144   1.030   0.997   4.268 -0.0428 -0.2378 -0.8550
 5734TIP3    H117145   1.039   0.909   4.305 -0.3426 -0.4888 -1.3668
 5734TIP3    H217146   1.008   1.053   4.342 -4.0547 -1.2709 -1.0423
 5735TIP3   OH217147   0.720   5.440   0.293  0.0526  0.0842  0.1346
 5735TIP3    H117148   0.708   5.488   0.211  3.2901  1.5394  0.3359
 5735TIP3    H217149   0.671   5.359   0.281 -0.5073  0.7287 -2.7858
 5736TIP3   OH217150   1.555   0.364   1.036  0.0468  0.3450  0.4855
 5736TIP3    H117151   1.506   0.374   0.955 -0.0454  1.7768  0.6915
 5736TIP3    H217152   1.647   0.361   1.009  0.1659  2.8249  0.4120
 5737TIP3   OH217153   1.524   1.472   4.031  0.0482  0.3331 -0.4113
 5737TIP3    H117154   1.469   1.431   3.964 -0.2325  0.0464 -0.0050
 5737TIP3    H217155   1.601   1.414   4.036 -0.3934 -0.2090  0.2342
 5738TIP3   OH217156   8.071   2.631   0.376 -0.2945  0.4123  0.5365
 5738TIP3    H117157   8.140   2.669   0.430  0.0516 -0.2095  0.5393
 5738TIP3    H217158   8.063   2.541   0.407 -1.5534  0.6552  0.9702
 5739TIP3   OH217159   2.758   2.799   1.946 -0.0506  0.2063  0.0079
 5739TIP3    H117160   2.780   2.762   2.032  0.8248 -2.0114 -1.1039
 5739TIP3    H217161   2.676   2.846   1.961  0.0511 -0.1424  2.0405
 5740TIP3   OH217162   1.587   5.869   3.136  0.0762  0.3505 -0.2341
 5740TIP3    H117163   1.626   5.957   3.128  0.5715  0.1750  0.1322
 5740TIP3    H217164   1.654   5.811   3.100 -0.7318  0.2134 -1.5489
 5741TIP3   OH217165   8.164   4.710   4.802  0.2660  0.1469  0.2194
 5741TIP3    H117166   8.241   4.675   4.759  1.3201  1.2544  1.1338
 5741TIP3    H217167   8.094   4.647   4.783  1.5711 -1.2839  0.0330
 5742TIP3   OH217168   5.309   3.576   4.093  0.3151  0.3616  0.4022
 5742TIP3    H117169   5.350   3.625   4.021  1.4624 -0.6264  0.3526
 5742TIP3    H217170   5.301   3.487   4.060  1.4205 -0.2484  1.6806
 5743TIP3   OH217171   2.943   3.176   6.213 -0.4730  0.0142  0.0642
 5743TIP3    H117172   2.900   3.234   6.150 -0.1334 -0.2563 -0.4171
 5743TIP3    H217173   2.875   3.113   6.237 -0.3795 -0.3562 -0.6270
 5744TIP3   OH217174   1.877   0.556   0.982  0.5008 -0.7913 -0.6761
 5744TIP3    H117175   1.937   0.592   0.916  2.0774 -1.7501  0.1794
 5744TIP3    H217176   1.864   0.465   0.955 -0.2785 -0.6983 -0.6342
 5745TIP3   OH217177   7.182   5.971   1.430  0.2747  0.2854  0.2981
 5745TIP3    H117178   7.111   5.970   1.365  0.3231 -0.4388  0.2453
 5745TIP3    H217179   7.157   5.905   1.494  1.0437 -0.1995  0.1183
 5746TIP3   OH217180   7.799   1.198   4.242  0.2585 -0.1199 -0.2096
 5746TIP3    H117181   7.810   1.145   4.163  1.7303 -1.7002  0.9838
 5746TIP3    H217182   7.841   1.282   4.220 -1.2054  0.2680 -1.7665
 5747TIP3   OH217183   0.771   0.053   1.493 -0.3772  0.4869  0.3365
 5747TIP3    H117184   0.845   0.113   1.485  0.7301 -0.8143  0.4526
 5747TIP3    H217185   0.697   0.109   1.516  0.4464  1.8907 -0.2929
 5748TIP3   OH217186   8.306   5.456   1.337  0.0063 -0.0569  0.3690
 5748TIP3    H117187   8.289   5.362   1.331 -1.3318  0.2539 -1.7701
 5748TIP3    H217188   8.226   5.493   1.374  0.8567  0.2086  2.0528
 5749TIP3   OH217189   5.344   0.543   5.102  0.1783  0.6920 -0.1534
 5749TIP3    H117190   5.425   0.521   5.056 -0.5980 -0.4972 -1.0195
 5749TIP3    H217191   5.292   0.463   5.098  0.2838  0.3077  3.3831
 5750TIP3   OH217192   2.199   1.809   4.500 -0.4125 -0.2562 -0.4884
 5750TIP3    H117193   2.144   1.886   4.483  1.2757  1.1232 -0.1093
 5750TIP3    H217194   2.281   1.846   4.532  0.2216 -2.2861  0.3962
 5751TIP3   OH217195   0.290   6.239   3.102 -0.2579 -0.2097 -0.6580
 5751TIP3    H117196   0.238   6.319   3.101  1.1915  0.7655 -1.6969
 5751TIP3    H217197   0.339   6.244   3.184  1.0173  0.7919 -1.4571
 5752TIP3   OH217198   1.207   5.775   6.701  0.0222  0.2567  0.2073
 5752TIP3    H117199   1.295   5.796   6.668  0.4523  0.1750  1.2623
 5752TIP3    H217200   1.155   5.762   6.622  1.0563 -0.0990 -0.4485
 5753TIP3   OH217201   7.458   0.880   4.671 -0.1764 -0.2295 -0.3023
 5753TIP3    H117202   7.533   0.935   4.690 -0.5037 -0.1695  0.9444
 5753TIP3    H217203   7.474   0.845   4.584  0.4556  1.1359 -0.7420
 5754TIP3   OH217204   1.892   6.700   4.298  0.2630  0.2766  0.5042
 5754TIP3    H117205   1.959   6.692   4.366 -0.6389 -0.8918  1.2933
 5754TIP3    H217206   1.936   6.674   4.217  0.4813 -1.6883  1.2020
 5755TIP3   OH217207   4.898   4.298   5.915  0.1707  0.6355 -0.5312
 5755TIP3    H117208   4.835   4.300   5.987  0.1617 -0.3681 -0.4976
 5755TIP3    H217209   4.846   4.280   5.837  0.4836 -1.1241 -0.3794
 5756TIP3   OH217210   6.091   2.093   5.787 -0.5526 -0.1708 -0.2893
 5756TIP3    H117211   6.126   2.177   5.757  1.7884 -0.5728  1.0877
 5756TIP3    H217212   6.082   2.103   5.882 -1.7442 -0.9910 -0.2929
 5757TIP3   OH217213   3.746   6.805   6.633 -0.4604  0.3424 -0.1555
 5757TIP3    H117214   3.723   6.766   6.718 -0.5669  0.2611 -0.2203
 5757TIP3    H217215   3.841   6.799   6.629 -0.5266 -0.5584 -0.4700
 5758TIP3   OH217216   1.932   2.539   2.019  0.2457 -0.5090  0.4755
 5758TIP3    H117217   1.856   2.583   2.057  0.3181 -0.0228  0.0684
 5758TIP3    H217218   1.967   2.602   1.956  0.6579 -0.9493  0.2588
 5759TIP3   OH217219   2.633   7.768   4.567  0.2654 -0.3823  0.1487
 5759TIP3    H117220   2.549   7.800   4.533  1.0303  1.2947 -0.2793
 5759TIP3    H217221   2.657   7.697   4.507 -0.8060 -0.8313  0.2333
 5760TIP3   OH217222   6.931   5.414   3.110  0.1941  0.0927  0.2721
 5760TIP3    H117223   6.866   5.433   3.178 -0.2971 -0.3319 -0.0805
 5760TIP3    H217224   7.010   5.458   3.141  0.2471 -0.8941  1.6085
 5761TIP3   OH217225   4.253   4.525   1.657  0.3562  0.2546  0.3006
 5761TIP3    H117226   4.248   4.550   1.564  2.9345 -0.4221 -0.1064
 5761TIP3    H217227   4.247   4.607   1.705 -1.3384  0.5881 -0.3938
 5762TIP3   OH217228   5.004   3.826   3.772  0.0823  0.1955  0.1748
 5762TIP3    H117229   4.909   3.827   3.786 -0.1562 -3.9433  0.0354
 5762TIP3    H217230   5.040   3.793   3.854  1.1039 -0.9096 -0.6950
 5763TIP3   OH217231   0.161   3.950   5.529 -0.1951  0.2840  0.3426
 5763TIP3    H117232   0.067   3.938   5.544 -0.1305  0.9898  1.4033
 5763TIP3    H217233   0.197   3.972   5.615  0.7847  0.9824 -0.2186
 5764TIP3   OH217234   4.553   4.909   0.198 -0.2018 -0.1817  0.0283
 5764TIP3    H117235   4.585   4.990   0.158  0.8295  0.2063  1.5359
 5764TIP3    H217236   4.595   4.840   0.148  0.6354  0.2709  0.0878
 5765TIP3   OH217237   7.390   1.971   2.081  0.2822 -0.1833  0.2948
 5765TIP3    H117238   7.356   2.046   2.130 -0.0297 -1.2501  1.7528
 5765TIP3    H217239   7.315   1.912   2.072  0.7435 -0.7301 -0.0548
 5766TIP3   OH217240   3.740   7.689   0.359  0.2699  0.1831 -0.6090
 5766TIP3    H117241   3.704   7.606   0.390 -0.8701  1.1813  0.8152
 5766TIP3    H217242   3.800   7.663   0.288  1.9355 -2.0876  1.4429
 5767TIP3   OH217243   0.753   3.692   0.405  0.0254  0.1238 -0.1801
 5767TIP3    H117244   0.820   3.760   0.418 -0.3272  0.1227  1.9721
 5767TIP3    H217245   0.799   3.623   0.357  1.2814  0.5777  0.3061
 5768TIP3   OH217246   6.383   3.579   4.611  0.6635 -0.6815  0.4415
 5768TIP3    H117247   6.321   3.614   4.675 -0.1573 -0.3563 -0.5007
 5768TIP3    H217248   6.452   3.645   4.605 -0.8376  0.8591 -1.2726
 5769TIP3   OH217249   2.682   6.612   1.644 -0.0055 -0.1238  0.7005
 5769TIP3    H117250   2.685   6.694   1.693  2.6220 -0.0478  0.5373
 5769TIP3    H217251   2.680   6.639   1.552 -1.7015 -0.2852  0.6567
 5770TIP3   OH217252   6.583   1.409   2.021  0.2585 -0.3495  0.2891
 5770TIP3    H117253   6.602   1.463   2.099  1.5695 -2.3145  1.4157
 5770TIP3    H217254   6.628   1.454   1.950  0.6073  0.5232  1.0320
 5771TIP3   OH217255   5.850   1.130   2.968 -0.2010  0.2152 -0.0122
 5771TIP3    H117256   5.863   1.063   2.901  0.6499 -0.2988  0.6315
 5771TIP3    H217257   5.929   1.124   3.023 -0.9755  0.4511  1.1669
 5772TIP3   OH217258   6.381   1.163   2.630 -0.2065  0.2944  0.1731
 5772TIP3    H117259   6.293   1.191   2.657 -0.3153  1.2064 -0.9929
 5772TIP3    H217260   6.383   1.181   2.536  1.2627  0.3702  0.1973
 5773TIP3   OH217261   1.275   7.422   4.347  0.4124 -0.0996 -0.1482
 5773TIP3    H117262   1.288   7.503   4.298  2.3784  0.1413  0.6773
 5773TIP3    H217263   1.191   7.434   4.392 -0.5413  0.4087 -1.9695
 5774TIP3   OH217264   8.255   0.839   5.650 -0.0313 -0.3208 -0.4215
 5774TIP3    H117265   8.338   0.819   5.693 -0.6379 -0.5044  0.6979
 5774TIP3    H217266   8.277   0.841   5.557  0.8848 -2.1080 -0.2979
 5775TIP3   OH217267   2.755   6.925   5.143 -0.3592 -0.0965  0.0452
 5775TIP3    H117268   2.812   6.869   5.089 -0.1603  0.7101 -0.6052
 5775TIP3    H217269   2.666   6.904   5.113 -0.3471 -0.6467  0.3764
 5776TIP3   OH217270   1.877   0.904   2.261  0.0742  0.5287  0.1624
 5776TIP3    H117271   1.890   0.871   2.172  0.1310 -0.3262  0.4845
 5776TIP3    H217272   1.908   0.834   2.318  0.0419  1.0715  0.8618
 5777TIP3   OH217273   3.781   0.631   3.704 -0.5372 -0.2718 -0.1493
 5777TIP3    H117274   3.766   0.714   3.659 -1.3889 -0.8781 -1.0397
 5777TIP3    H217275   3.698   0.612   3.748  0.3009  0.3393  1.8020
 5778TIP3   OH217276   0.259   0.997   3.806  0.5083 -0.1015  0.5306
 5778TIP3    H117277   0.219   0.913   3.784  1.0180 -0.0382 -0.7290
 5778TIP3    H217278   0.187   1.059   3.806  0.0488 -0.5940  1.9499
 5779TIP3   OH217279   5.773   0.562   3.383  0.0212 -0.0304  0.4355
 5779TIP3    H117280   5.719   0.511   3.443  2.1831 -1.3836  1.3616
 5779TIP3    H217281   5.823   0.497   3.334 -1.4676  1.0402 -2.7665
 5780TIP3   OH217282   6.460   3.164   4.711 -0.2448  0.2536 -0.2329
 5780TIP3    H117283   6.519   3.232   4.745 -0.1950  0.0979 -0.0038
 5780TIP3    H217284   6.424   3.123   4.790 -0.6962  0.3810 -0.3705
 5781TIP3   OH217285   0.745   7.641   4.092 -0.7303  0.6454  0.1796
 5781TIP3    H117286   0.708   7.617   4.177 -1.0365  0.2505 -0.0644
 5781TIP3    H217287   0.682   7.703   4.055 -1.9562 -1.1655 -0.8936
 5782TIP3   OH217288   8.065   6.955   2.495  0.1876 -0.1227  0.4574
 5782TIP3    H117289   8.150   6.913   2.509 -0.6709 -1.6392  1.4513
 5782TIP3    H217290   8.001   6.892   2.529 -1.3715  0.8204 -0.5743
 5783TIP3   OH217291   1.835   3.208   6.358  0.0550  0.5902 -0.4222
 5783TIP3    H117292   1.877   3.247   6.435  0.1833  0.0386 -0.2023
 5783TIP3    H217293   1.749   3.180   6.390  0.1577  0.2476 -0.4463
 5784TIP3   OH217294   2.030   7.005   4.182  0.1754 -0.7455 -0.3558
 5784TIP3    H117295   2.004   6.996   4.274  1.2186  2.6457  0.3966
 5784TIP3    H217296   2.124   6.987   4.182  0.5806  1.1350 -0.3104
 5785TIP3   OH217297   1.292   7.004   3.907  0.0281  0.8709 -1.0002
 5785TIP3    H117298   1.228   7.054   3.958  0.9585  2.0140 -0.9214
 5785TIP3    H217299   1.373   7.011   3.958  0.8103  1.4613 -2.2945
 5786TIP3   OH217300   0.092   3.885   5.972  0.0655  0.4192  0.1281
 5786TIP3    H117301   0.162   3.924   5.920  2.8566  0.5605  3.6032
 5786TIP3    H217302   0.012   3.923   5.938  1.8035  1.6847 -2.8928
 5787TIP3   OH217303   5.262   4.944   3.316 -0.3457  0.2655  0.4313
 5787TIP3    H117304   5.224   4.877   3.259  1.1952 -0.8608  0.6862
 5787TIP3    H217305   5.308   5.003   3.256  0.4636 -0.3793  0.3961
 5788TIP3   OH217306   2.519   0.315   0.931 -0.4225 -0.0662 -0.1367
 5788TIP3    H117307   2.614   0.322   0.936 -0.3459 -0.4194 -0.9775
 5788TIP3    H217308   2.503   0.245   0.868 -1.2499  1.2847 -1.4905
 5789TIP3   OH217309   0.963   0.852   4.543  0.2571  0.1065  0.3587
 5789TIP3    H117310   0.883   0.815   4.582 -0.1934  1.1536  0.4610
 5789TIP3    H217311   1.012   0.887   4.618  2.7707 -3.8995  0.8799
 5790TIP3   OH217312   7.737   1.482   2.095  0.3082 -0.1245 -0.1299
 5790TIP3    H117313   7.820   1.517   2.128 -0.0554  0.4981  0.1357
 5790TIP3    H217314   7.677   1.557   2.097 -0.3784 -0.6779  0.0854
 5791TIP3   OH217315   7.440   2.920   2.060 -0.1382 -0.2963  0.0184
 5791TIP3    H117316   7.390   2.894   1.982  0.5179  0.8804 -0.8326
 5791TIP3    H217317   7.457   2.838   2.106 -1.3830 -0.9042 -0.5689
 5792TIP3   OH217318   4.176   0.427   4.351 -0.3176 -0.3853  0.1106
 5792TIP3    H117319   4.147   0.404   4.439 -0.2692 -1.4055 -0.1252
 5792TIP3    H217320   4.151   0.519   4.341  0.7296  0.0964  1.6075
 5793TIP3   OH217321   7.361   2.785   5.137 -0.0628  0.0766 -0.0846
 5793TIP3    H117322   7.281   2.775   5.085  0.0618 -0.8479 -0.1201
 5793TIP3    H217323   7.346   2.729   5.214  0.2413  0.4957  0.2814
 5794TIP3   OH217324   0.640   3.845   4.491 -0.3803  0.2379 -0.2200
 5794TIP3    H117325   0.554   3.834   4.451 -0.7666 -0.9118  0.8655
 5794TIP3    H217326   0.671   3.929   4.458 -1.7334  0.4712 -0.9670
 5795TIP3   OH217327   5.350   4.813   0.286 -0.0433  0.7432  0.1524
 5795TIP3    H117328   5.277   4.824   0.348  0.3269  1.9334  0.4057
 5795TIP3    H217329   5.428   4.825   0.339  0.4070 -1.3024  0.0340
 5796TIP3   OH217330   5.631   2.629   1.281  0.6262  0.5149 -0.2388
 5796TIP3    H117331   5.594   2.618   1.193  1.9441 -1.4177 -0.6110
 5796TIP3    H217332   5.706   2.569   1.283 -0.2943 -0.6695  2.7460
 5797TIP3   OH217333   1.969   5.839   2.745 -0.0321 -0.4510 -0.2812
 5797TIP3    H117334   2.059   5.841   2.778  0.4667 -1.3830 -1.5142
 5797TIP3    H217335   1.938   5.929   2.755  0.9842 -0.1427  0.2746
 5798TIP3   OH217336   1.831   6.959   0.456  0.0116  0.0820  0.3446
 5798TIP3    H117337   1.909   6.926   0.500  0.3925  2.2136  1.4265
 5798TIP3    H217338   1.803   6.887   0.399  2.5145 -0.9066  0.2071
 5799TIP3   OH217339   7.375   5.553   0.977  0.1535 -0.0858  0.1073
 5799TIP3    H117340   7.434   5.480   0.995 -0.1605 -0.0818  1.1494
 5799TIP3    H217341   7.320   5.522   0.905  0.1868 -0.7801  0.3751
 5800TIP3   OH217342   4.601   1.297   2.971  0.2229 -0.2152  0.1380
 5800TIP3    H117343   4.533   1.300   3.039 -0.5147  0.0701 -0.5872
 5800TIP3    H217344   4.681   1.325   3.016 -0.3641  0.5267  0.7574
 5801TIP3   OH217345   1.469   2.385   6.341  0.0332  0.4044 -0.1933
 5801TIP3    H117346   1.558   2.419   6.333 -0.1220  1.5192  1.9427
 5801TIP3    H217347   1.434   2.387   6.252  1.7274  1.1422 -0.8825
 5802TIP3   OH217348   6.345   1.138   5.700 -0.2281  0.0448 -0.6365
 5802TIP3    H117349   6.260   1.159   5.661  0.7903  3.5616 -1.3306
 5802TIP3    H217350   6.338   1.169   5.790  0.3893  0.7015 -0.8024
 5803TIP3   OH217351   6.803   1.568   1.468  0.4576 -0.1068  0.1993
 5803TIP3    H117352   6.875   1.627   1.448  0.5901 -0.0837  0.7303
 5803TIP3    H217353   6.748   1.569   1.389  0.9725 -0.0353 -0.1589
 5804TIP3   OH217354   1.025   4.909   1.624  0.0003 -0.3046  0.1342
 5804TIP3    H117355   1.010   4.837   1.563 -0.9133 -0.7038  0.8222
 5804TIP3    H217356   1.120   4.911   1.636  0.0962 -0.8623 -0.5235
 5805TIP3   OH217357   7.103   2.844   5.420 -0.0306 -0.1583 -0.1907
 5805TIP3    H117358   7.045   2.768   5.428  0.8322 -0.7186  1.1840
 5805TIP3    H217359   7.176   2.813   5.366 -1.4161  0.8522 -2.8073
 5806TIP3   OH217360   0.348   4.151   5.984 -0.2428  0.9075 -0.3181
 5806TIP3    H117361   0.441   4.135   5.965  0.3973  2.8650  0.8855
 5806TIP3    H217362   0.342   4.245   5.999 -2.3959  0.7889 -0.0884
 5807TIP3   OH217363   7.021   3.050   5.581 -0.2706  0.1738  0.2299
 5807TIP3    H117364   6.948   3.000   5.618 -0.2720 -0.1604 -0.2144
 5807TIP3    H217365   7.056   2.993   5.512  1.6392 -0.5584  1.6890
 5808TIP3   OH217366   3.088   6.463   0.350 -0.1092  0.2573  0.0035
 5808TIP3    H117367   3.083   6.431   0.440  2.0852 -2.8174 -0.8139
 5808TIP3    H217368   3.013   6.423   0.306 -0.0842  0.1699  0.0403
 5809TIP3   OH217369   6.069   7.461   4.340  0.1086 -0.2391  0.1465
 5809TIP3    H117370   6.045   7.386   4.394  1.4179 -0.8841 -0.1326
 5809TIP3    H217371   6.001   7.527   4.359 -1.1208 -1.5075  0.3160
 5810TIP3   OH217372   0.697   7.440   2.605  0.0166  0.1167 -0.1259
 5810TIP3    H117373   0.689   7.395   2.689  1.8633 -0.2793 -0.1272
 5810TIP3    H217374   0.707   7.370   2.540  1.6331  0.4625 -0.2849
 5811TIP3   OH217375   1.121   3.053   1.439 -0.4305 -0.1771  0.0183
 5811TIP3    H117376   1.089   3.129   1.390  1.3739  1.2470  0.9161
 5811TIP3    H217377   1.198   3.023   1.389  2.3510  2.2035  2.5110
 5812TIP3   OH217378   6.625   7.768   2.009 -0.0229  0.6078 -0.1081
 5812TIP3    H117379   6.539   7.805   2.028  0.5168  1.3564  0.9965
 5812TIP3    H217380   6.644   7.712   2.085 -0.0822 -0.6035 -0.9531
 5813TIP3   OH217381   5.470   0.353   0.377  0.2667  0.0440  0.5082
 5813TIP3    H117382   5.466   0.370   0.471 -0.0851  0.6409  0.3920
 5813TIP3    H217383   5.380   0.363   0.347  0.2331 -1.0047  0.2430
 5814TIP3   OH217384   0.519   3.177   2.609 -0.2590  0.4165  0.1465
 5814TIP3    H117385   0.446   3.168   2.671 -0.2803 -2.7512 -0.1672
 5814TIP3    H217386   0.511   3.100   2.552  1.5267  1.6608 -1.9002
 5815TIP3   OH217387   3.031   5.492   6.057 -0.5907 -0.0934  0.2198
 5815TIP3    H117388   3.087   5.456   5.988  0.0584 -0.6667  1.0175
 5815TIP3    H217389   3.092   5.521   6.125 -1.2300  0.1005  0.7267
 5816TIP3   OH217390   3.544   5.965   4.085  0.1344  0.2395 -0.0736
 5816TIP3    H117391   3.619   5.913   4.112 -0.7527  0.1413  2.3932
 5816TIP3    H217392   3.521   5.930   3.999  0.7009 -2.2132  0.6925
 5817TIP3   OH217393   0.680   6.666   1.184  0.5650 -0.0766  0.5962
 5817TIP3    H117394   0.730   6.644   1.263  0.4727  1.5469  1.1440
 5817TIP3    H217395   0.588   6.664   1.213  0.5390  0.6804  0.5838
 5818TIP3   OH217396   3.369   7.288   0.688  0.2659 -0.7497 -0.0950
 5818TIP3    H117397   3.439   7.326   0.741 -0.6978 -0.9983  1.4341
 5818TIP3    H217398   3.305   7.257   0.752 -0.3637 -2.2456 -1.3759
 5819TIP3   OH217399   1.390   0.718   6.013  0.0917 -0.1838  0.0656
 5819TIP3    H117400   1.457   0.715   6.080  0.8205  3.4372 -0.2980
 5819TIP3    H217401   1.436   0.701   5.931  0.5997  1.8306 -0.1288
 5820TIP3   OH217402   4.724   4.695   5.788  0.2715  0.3132 -0.1461
 5820TIP3    H117403   4.749   4.708   5.880  0.2991 -1.0995  0.0602
 5820TIP3    H217404   4.785   4.751   5.739  0.3588  0.9578  0.6786
 5821TIP3   OH217405   1.550   5.958   5.965  0.1244  0.4966  0.3732
 5821TIP3    H117406   1.637   5.930   5.996  0.5941  0.6144 -0.8103
 5821TIP3    H217407   1.537   5.911   5.883 -0.7753  0.7783  0.3423
 5822TIP3   OH217408   2.124   1.569   2.749 -0.1799  0.1459  0.0740
 5822TIP3    H117409   2.063   1.643   2.752  1.7280  1.7882  0.5698
 5822TIP3    H217410   2.120   1.530   2.836  1.0417  1.6547  0.8595
 5823TIP3   OH217411   4.954   0.498   6.020 -0.0912 -0.2492 -0.0006
 5823TIP3    H117412   5.022   0.534   5.963  0.5485  0.3222  1.1104
 5823TIP3    H217413   4.925   0.571   6.073 -0.7262 -0.7656  0.3797
 5824TIP3   OH217414   7.412   7.164   4.462  0.0507 -0.1988 -0.0160
 5824TIP3    H117415   7.433   7.118   4.380  1.1749 -1.0068  0.6921
 5824TIP3    H217416   7.432   7.101   4.531  0.4426  0.9348  0.9470
 5825TIP3   OH217417   5.600   7.739   0.272  0.1253  0.3266 -0.0575
 5825TIP3    H117418   5.510   7.715   0.249 -0.2675  1.4200  0.3039
 5825TIP3    H217419   5.651   7.659   0.256 -0.5201  0.3118 -2.3772
 5826TIP3   OH217420   0.292   1.155   5.691  0.3451 -0.2412  0.4462
 5826TIP3    H117421   0.353   1.092   5.730 -2.1747 -0.5509  4.4064
 5826TIP3    H217422   0.317   1.240   5.728  0.5617  0.2749 -0.8187
 5827TIP3   OH217423   0.401   5.881   0.462  0.2538  1.3261  0.3626
 5827TIP3    H117424   0.359   5.927   0.535 -0.9852 -0.9382  1.1822
 5827TIP3    H217425   0.396   5.789   0.486  1.8027  0.6601 -1.6118
 5828TIP3   OH217426   2.559   3.746   4.679 -0.3496  0.4890 -0.3263
 5828TIP3    H117427   2.548   3.834   4.644 -0.9437  0.1045 -1.1688
 5828TIP3    H217428   2.647   3.745   4.716 -0.6210  1.6596  0.4178
 5829TIP3   OH217429   4.030   5.542   5.803  0.2285 -0.2095 -0.2103
 5829TIP3    H117430   4.067   5.482   5.737  1.1383 -0.4344  0.4793
 5829TIP3    H217431   4.102   5.604   5.821  0.7002 -1.2823  1.9416
 5830TIP3   OH217432   6.775   1.862   0.626  0.2137  0.4871 -0.3668
 5830TIP3    H117433   6.854   1.916   0.620  0.8553 -0.4866 -0.9966
 5830TIP3    H217434   6.746   1.873   0.717  0.8534  1.1607 -0.2334
 5831TIP3   OH217435   8.203   1.428   4.675  0.1526 -0.3013 -0.2195
 5831TIP3    H117436   8.270   1.370   4.710  0.2206  0.2092  0.5270
 5831TIP3    H217437   8.121   1.381   4.688  0.3397 -0.8709 -1.0157
 5832TIP3   OH217438   3.007   6.509   1.119  0.3005 -0.8669  0.2752
 5832TIP3    H117439   3.007   6.475   1.209 -0.9161  1.4299  1.2246
 5832TIP3    H217440   2.927   6.475   1.081  0.4832 -1.3040  0.2768
 5833TIP3   OH217441   3.987   0.673   2.614  0.3719 -0.0053  0.7226
 5833TIP3    H117442   3.997   0.583   2.583 -0.1267 -0.1488  0.9833
 5833TIP3    H217443   4.055   0.722   2.567 -0.9620 -0.0258 -1.3575
 5834TIP3   OH217444   2.850   2.039   1.932 -0.4704  0.7781 -0.6577
 5834TIP3    H117445   2.803   1.987   1.996  1.1538 -0.3170 -0.3237
 5834TIP3    H217446   2.805   2.124   1.933 -2.7650 -0.3534 -0.7642
 5835TIP3   OH217447   4.116   3.636   3.220 -0.2421  0.1418  0.2993
 5835TIP3    H117448   4.188   3.694   3.243 -0.6106  0.2515  1.2220
 5835TIP3    H217449   4.157   3.549   3.212  0.1518  0.3681 -0.1660
 5836TIP3   OH217450   1.152   2.780   4.538  0.4620 -0.2109 -0.1687
 5836TIP3    H117451   1.069   2.739   4.561  0.2479 -0.4485 -1.3182
 5836TIP3    H217452   1.182   2.821   4.619  0.6503 -2.5623  1.0164
 5837TIP3   OH217453   5.720   6.165   1.931 -0.6921 -0.0343 -0.3578
 5837TIP3    H117454   5.650   6.103   1.909 -1.1549  0.0369  0.8805
 5837TIP3    H217455   5.700   6.194   2.020  1.8094 -1.2628  0.7065
 5838TIP3   OH217456   6.292   4.922   6.335  0.0804 -0.1368  0.3950
 5838TIP3    H117457   6.319   4.997   6.389  3.9917 -1.2162  0.2932
 5838TIP3    H217458   6.335   4.847   6.376  0.7128 -1.4695 -2.4479
 5839TIP3   OH217459   7.150   5.065   1.991 -0.3510 -0.3576  0.3594
 5839TIP3    H117460   7.200   5.051   2.072 -0.0566 -0.4463  0.1618
 5839TIP3    H217461   7.215   5.061   1.921 -0.6329 -0.4677  0.1009
 5840TIP3   OH217462   5.914   2.873   1.884  0.1390 -0.3242  0.2422
 5840TIP3    H117463   5.970   2.927   1.940 -1.4550  1.2415  0.4272
 5840TIP3    H217464   5.966   2.795   1.866  0.5626 -1.1688  4.2809
 5841TIP3   OH217465   4.809   2.207   6.444 -0.2274  0.7024  0.1912
 5841TIP3    H117466   4.886   2.262   6.456  1.3440 -1.6204  1.4467
 5841TIP3    H217467   4.771   2.199   6.532 -0.2110 -0.5060  0.0965
 5842TIP3   OH217468   3.812   2.261   2.480 -0.3923  0.6217 -0.7317
 5842TIP3    H117469   3.850   2.243   2.566 -1.5042  2.3984  0.2047
 5842TIP3    H217470   3.850   2.195   2.422  1.0511 -0.0877  0.9381
 5843TIP3   OH217471   3.271   5.420   4.100 -0.2399  0.3949 -0.3640
 5843TIP3    H117472   3.290   5.337   4.142 -0.5625 -0.3217 -1.5935
 5843TIP3    H217473   3.200   5.458   4.152  1.3649  0.9835  1.5384
 5844TIP3   OH217474   1.064   3.106   0.668 -0.1956 -0.2091  0.1075
 5844TIP3    H117475   1.019   3.048   0.729 -3.2779  1.4607 -0.3992
 5844TIP3    H217476   1.122   3.048   0.618 -1.0097 -2.3315  1.4972
 5845TIP3   OH217477   7.155   7.646   1.718 -0.0353 -0.4177  0.1102
 5845TIP3    H117478   7.207   7.726   1.706 -2.2917  1.0487 -0.5252
 5845TIP3    H217479   7.124   7.652   1.809 -2.3264  0.8747 -0.6784
 5846TIP3   OH217480   6.163   3.432   5.753  0.8355  0.2404  0.3068
 5846TIP3    H117481   6.185   3.356   5.807  2.5549  0.2897 -0.2695
 5846TIP3    H217482   6.247   3.464   5.721  0.1976  2.6519  0.8638
 5847TIP3   OH217483   7.455   6.797   5.326 -0.0129 -0.5802 -0.4335
 5847TIP3    H117484   7.371   6.839   5.342 -0.6398 -2.0053  0.2106
 5847TIP3    H217485   7.436   6.703   5.327  1.9719 -1.1243  2.6577
 5848TIP3   OH217486   4.592   4.484   5.034 -0.3085  0.1863  0.5051
 5848TIP3    H117487   4.502   4.454   5.024  0.7609 -3.4188  0.5492
 5848TIP3    H217488   4.634   4.465   4.950  0.1970  3.1029 -0.0101
 5849TIP3   OH217489   3.619   0.709   0.092  0.1942  0.1651  0.2497
 5849TIP3    H117490   3.619   0.642   0.161 -1.4930 -2.2193 -1.8460
 5849TIP3    H217491   3.544   0.764   0.112 -0.1050 -0.3246  0.4991
 5850TIP3   OH217492   8.025   4.423   0.115 -0.2308 -0.5166  0.0533
 5850TIP3    H117493   8.030   4.375   0.032  2.9149 -2.1407  1.0220
 5850TIP3    H217494   7.953   4.380   0.162 -0.9129 -0.7206 -1.1252
 5851TIP3   OH217495   5.172   1.135   0.454  0.3272 -0.2255 -0.3069
 5851TIP3    H117496   5.249   1.176   0.493  0.1008 -0.0784 -0.0056
 5851TIP3    H217497   5.160   1.054   0.503  1.7920 -1.5712 -2.0157
 5852TIP3   OH217498   7.317   5.408   3.318 -0.5923 -0.5542 -0.0521
 5852TIP3    H117499   7.327   5.426   3.411  0.6500  0.5014 -0.3588
 5852TIP3    H217500   7.225   5.425   3.299 -0.8813 -0.8942  0.9902
 5853TIP3   OH217501   7.142   3.839   0.704  0.6383  0.5624 -0.0489
 5853TIP3    H117502   7.159   3.782   0.629 -0.7006 -0.3875  0.3218
 5853TIP3    H217503   7.065   3.889   0.679  1.9637  2.4565 -0.4748
 5854TIP3   OH217504   0.000   4.612   4.045  0.6771  0.5040 -0.5985
 5854TIP3    H117505  -0.065   4.566   3.992 -0.0219  1.7385 -0.8395
 5854TIP3    H217506   0.084   4.578   4.014  0.1901 -0.7856 -0.5866
 5855TIP3   OH217507   3.317   3.766   2.427  0.1366 -0.0357 -0.9802
 5855TIP3    H117508   3.297   3.723   2.510 -0.9199 -0.8125 -1.6217
 5855TIP3    H217509   3.234   3.768   2.379  0.6365  0.7558 -1.8722
 5856TIP3   OH217510   6.075   1.829   0.839 -0.2264 -0.4779 -0.0362
 5856TIP3    H117511   5.997   1.879   0.813 -1.0731 -1.1894  1.0465
 5856TIP3    H217512   6.073   1.831   0.935  1.3132 -0.1856  0.0071
 5857TIP3   OH217513   6.712   7.503   0.857 -0.2018 -0.6548 -0.4978
 5857TIP3    H117514   6.669   7.427   0.897  1.1271 -1.4115 -0.4706
 5857TIP3    H217515   6.678   7.506   0.768 -1.4390 -0.3383 -0.0309
 5858TIP3   OH217516   1.068   2.933   2.299 -0.2042 -0.3551  0.5598
 5858TIP3    H117517   1.127   2.947   2.373 -0.0638 -0.2645  0.4291
 5858TIP3    H217518   1.009   2.864   2.329  1.4265 -2.1612 -0.1658
 5859TIP3   OH217519   4.138   2.157   2.752  0.5449 -1.1450 -0.4475
 5859TIP3    H117520   4.075   2.087   2.769 -0.9101 -0.0326 -1.0734
 5859TIP3    H217521   4.152   2.154   2.658  1.7136 -1.5723 -0.2827
 5860TIP3   OH217522   2.889   1.919   6.342 -0.0739  0.3959 -0.7162
 5860TIP3    H117523   2.956   1.985   6.323  1.0551 -0.0615  1.3310
 5860TIP3    H217524   2.830   1.961   6.403  1.0198 -0.5861  1.1214
 5861TIP3   OH217525   8.066   7.552   2.036  0.4285 -0.6139 -0.4534
 5861TIP3    H117526   8.052   7.472   2.087 -0.6013  0.4699  1.0778
 5861TIP3    H217527   7.996   7.610   2.065  1.1690  0.8541 -1.5156
 5862TIP3   OH217528   3.846   6.016   0.083  0.2179  0.4535 -0.9914
 5862TIP3    H117529   3.786   5.980   0.017  1.1174 -0.4459 -1.3539
 5862TIP3    H217530   3.892   6.086   0.038 -0.6886  1.2857 -0.6493
 5863TIP3   OH217531   6.859   4.438   3.669 -0.6373  0.1785  0.6125
 5863TIP3    H117532   6.768   4.413   3.682 -0.5796  0.5808  2.0006
 5863TIP3    H217533   6.907   4.354   3.667 -1.1810 -0.1599 -1.9753
 5864TIP3   OH217534   7.103   1.878   0.731  0.2189 -0.1304  0.0290
 5864TIP3    H117535   7.027   1.928   0.700  0.3047  0.1553  0.2819
 5864TIP3    H217536   7.147   1.850   0.651 -1.2591 -2.0185 -0.1986
 5865TIP3   OH217537   3.369   0.750   3.757  0.9967 -0.0720 -0.8518
 5865TIP3    H117538   3.336   0.822   3.703  2.8904 -0.1281 -2.1689
 5865TIP3    H217539   3.387   0.680   3.694  0.9742 -1.0116  0.1723
 5866TIP3   OH217540   6.047   4.568   4.601  0.1952 -0.8042 -0.2962
 5866TIP3    H117541   6.015   4.490   4.648  0.9356 -0.4293  0.8919
 5866TIP3    H217542   6.134   4.542   4.569 -0.2494 -1.0088 -1.3793
 5867TIP3   OH217543   7.673   2.854   2.379  0.3838 -0.0647 -0.2308
 5867TIP3    H117544   7.610   2.798   2.333 -0.0916 -0.8229  1.2709
 5867TIP3    H217545   7.712   2.797   2.445  1.7968  0.7186 -0.3463
 5868TIP3   OH217546   1.147   4.805   0.282  0.4452 -1.0312  0.4202
 5868TIP3    H117547   1.054   4.813   0.303 -0.0969  0.6314 -2.2842
 5868TIP3    H217548   1.149   4.779   0.190  2.6709 -1.2361  0.4823
 5869TIP3   OH217549   1.813   7.813   3.972 -0.1077 -0.1620 -0.4063
 5869TIP3    H117550   1.881   7.848   3.915 -0.7976 -0.9527 -1.7635
 5869TIP3    H217551   1.845   7.726   3.998  0.1300  0.1280  0.2978
 5870TIP3   OH217552   8.210   1.525   3.308  0.0191  0.2450  0.2593
 5870TIP3    H117553   8.255   1.540   3.225 -0.0876  0.3111  0.2133
 5870TIP3    H217554   8.239   1.597   3.365 -0.7106  0.7876 -0.0498
 5871TIP3   OH217555   7.242   3.453   4.568 -0.3095 -0.3156 -0.0669
 5871TIP3    H117556   7.180   3.425   4.501 -0.9862 -0.5692  0.6478
 5871TIP3    H217557   7.197   3.522   4.615  1.0745  1.5569 -1.3572
 5872TIP3   OH217558   5.821   0.249   3.687  0.9139  0.2672 -0.0441
 5872TIP3    H117559   5.835   0.314   3.755  3.4942 -0.1695 -0.0892
 5872TIP3    H217560   5.752   0.287   3.632  0.1418  1.4851  1.6706
 5873TIP3   OH217561   6.960   2.199   2.058  0.7047  0.2213  0.3671
 5873TIP3    H117562   6.955   2.294   2.042 -0.0619 -0.1165 -1.7032
 5873TIP3    H217563   6.886   2.163   2.009  0.0077 -1.3326  2.4263
 5874TIP3   OH217564   6.734   0.647   6.212 -0.0537  0.2400  0.0549
 5874TIP3    H117565   6.725   0.707   6.285 -1.2942  1.6085 -1.1392
 5874TIP3    H217566   6.658   0.588   6.221 -1.3096  1.5899 -1.0893
 5875TIP3   OH217567   0.573   0.861   4.767  0.2214  0.1304 -0.2687
 5875TIP3    H117568   0.481   0.876   4.786  0.6762  1.0316  1.4234
 5875TIP3    H217569   0.573   0.818   4.681 -1.7939 -0.5621  0.0245
 5876TIP3   OH217570   5.783   3.291   6.661 -0.4795  0.2545 -0.5439
 5876TIP3    H117571   5.801   3.221   6.724 -1.8749  0.0584 -0.3239
 5876TIP3    H217572   5.701   3.330   6.691 -0.1620  1.4410 -1.1540
 5877TIP3   OH217573   4.758   0.859   1.322  0.3404  0.2461 -0.5092
 5877TIP3    H117574   4.775   0.932   1.263 -1.3058  0.8123 -0.3469
 5877TIP3    H217575   4.810   0.878   1.400  2.8835 -0.7290 -1.8458
 5878TIP3   OH217576   1.717   5.995   1.375  0.3569 -0.1144 -0.1583
 5878TIP3    H117577   1.684   6.001   1.285 -1.8950  1.1505  0.6566
 5878TIP3    H217578   1.799   6.043   1.374  0.1845  0.1928 -1.4599
 5879TIP3   OH217579   5.112   1.775   0.315 -0.4831  0.2198  0.4382
 5879TIP3    H117580   5.108   1.700   0.373 -1.8282  1.7623  2.4565
 5879TIP3    H217581   5.205   1.784   0.294 -0.0144 -0.6452  2.0275
 5880TIP3   OH217582   6.853   0.178   2.754  0.5564 -0.1157 -0.0989
 5880TIP3    H117583   6.905   0.237   2.701  1.7066  0.2516  1.3779
 5880TIP3    H217584   6.904   0.166   2.834 -1.0344 -0.7632  0.8675
 5881TIP3   OH217585   0.452   6.107   0.616  0.1285  0.2786  0.7977
 5881TIP3    H117586   0.356   6.107   0.615  0.1185  0.1238 -0.5421
 5881TIP3    H217587   0.475   6.198   0.594  0.2640  0.0217 -0.1662
 5882TIP3   OH217588   8.215   7.778   0.763  0.5183 -0.1695  0.1565
 5882TIP3    H117589   8.244   7.694   0.726  2.5723  0.5255  0.0666
 5882TIP3    H217590   8.232   7.841   0.693 -1.3716  0.3093  0.0807
 5883TIP3   OH217591   6.411   1.197   3.713  0.2012 -0.0933 -0.3620
 5883TIP3    H117592   6.356   1.274   3.726  1.2072  0.8931 -1.7170
 5883TIP3    H217593   6.501   1.230   3.724  0.5841 -1.5156  1.1028
 5884TIP3   OH217594   5.088   1.766   4.438 -0.1090  0.2924 -0.4620
 5884TIP3    H117595   5.024   1.832   4.410  0.9828  0.9524 -1.4874
 5884TIP3    H217596   5.069   1.690   4.383 -1.4779 -0.3576  0.8361
 5885TIP3   OH217597   6.627   7.501   5.670  0.2255 -0.0625 -0.1686
 5885TIP3    H117598   6.704   7.556   5.651  0.2251  0.0071  0.0314
 5885TIP3    H217599   6.554   7.549   5.630  0.2292  0.0689 -0.0188
 5886TIP3   OH217600   8.031   1.689   6.513 -0.2625  0.3130 -0.4148
 5886TIP3    H117601   8.006   1.683   6.421 -0.2278 -0.8673 -0.3655
 5886TIP3    H217602   8.080   1.608   6.530  2.9852  2.1203 -0.3248
 5887TIP3   OH217603   6.314   0.999   4.704 -0.5763 -0.5806 -0.3051
 5887TIP3    H117604   6.341   1.091   4.694  0.0035 -0.3419  2.5603
 5887TIP3    H217605   6.293   0.971   4.616 -3.9293  3.2296 -1.0306
 5888TIP3   OH217606   5.269   2.119   4.241 -0.0278  0.1978 -0.9349
 5888TIP3    H117607   5.260   2.214   4.239  0.7355  0.2954 -0.4450
 5888TIP3    H217608   5.364   2.105   4.242 -0.1337 -0.5332 -0.0347
 5889TIP3   OH217609   5.035   1.908   6.301 -0.0169 -0.0759 -0.0522
 5889TIP3    H117610   5.061   1.955   6.381  0.3297 -2.3887  1.2749
 5889TIP3    H217611   4.950   1.947   6.277 -1.3339 -0.8824  2.8646
 5890TIP3   OH217612   2.181   0.111   4.347  0.3768 -0.9072 -0.6092
 5890TIP3    H117613   2.142   0.197   4.367  3.3890  0.2627  1.0086
 5890TIP3    H217614   2.113   0.048   4.370 -0.4438  0.9178  2.7430
 5891TIP3   OH217615   1.393   3.017   2.644 -0.2468  0.2547  0.7111
 5891TIP3    H117616   1.481   2.982   2.659  0.4048  1.0706 -0.9498
 5891TIP3    H217617   1.401   3.110   2.665 -0.7373  0.3212  0.6136
 5892TIP3   OH217618   5.248   0.155   0.490  0.1872 -0.2436 -0.2790
 5892TIP3    H117619   5.230   0.232   0.436  1.7634 -1.3213 -2.5043
 5892TIP3    H217620   5.335   0.172   0.527  0.1051 -0.5445  0.0589
 5893TIP3   OH217621   4.097   3.738   4.426 -0.0144  0.3761  0.0589
 5893TIP3    H117622   4.153   3.776   4.359 -0.9229  1.1743 -0.2735
 5893TIP3    H217623   4.157   3.710   4.495  0.8104  0.9181 -0.4216
 5894TIP3   OH217624   4.082   0.988   6.054  0.3935 -0.6734 -0.2409
 5894TIP3    H117625   4.063   0.933   6.130  0.8960 -0.9173 -0.2836
 5894TIP3    H217626   4.080   0.928   5.980 -2.1266 -0.0927 -0.7300
 5895TIP3   OH217627   0.098   5.417   3.785  0.5028  0.1905 -0.1272
 5895TIP3    H117628   0.153   5.403   3.862  1.9922  0.8809 -1.0241
 5895TIP3    H217629   0.014   5.447   3.820  0.2321 -2.0361  1.3435
 5896TIP3   OH217630   5.227   2.606   0.960  0.6563  0.2056  0.3939
 5896TIP3    H117631   5.272   2.689   0.940  0.2836  0.6562  1.3606
 5896TIP3    H217632   5.191   2.578   0.876  0.2269  1.3699  0.1582
 5897TIP3   OH217633   7.707   7.700   1.503  0.2603 -0.6688  0.0910
 5897TIP3    H117634   7.677   7.782   1.462  1.0596  0.1786  1.1273
 5897TIP3    H217635   7.664   7.631   1.454  0.3456  0.3442 -1.4587
 5898TIP3   OH217636   4.828   0.039   4.159  0.2640 -0.2741  0.1329
 5898TIP3    H117637   4.864   0.120   4.123 -0.4894 -0.4405 -1.0434
 5898TIP3    H217638   4.886  -0.030   4.125  0.1030 -0.3476  0.0052
 5899TIP3   OH217639   3.841   7.221   6.344 -0.8493 -0.0938 -0.3730
 5899TIP3    H117640   3.892   7.281   6.290 -1.4481  1.2474  0.4878
 5899TIP3    H217641   3.875   7.134   6.323  2.1273  0.7410  0.4837
 5900TIP3   OH217642   2.461   0.977   3.181  0.2006  0.1930  0.1388
 5900TIP3    H117643   2.405   1.054   3.167 -0.3457 -0.2573 -0.2011
 5900TIP3    H217644   2.453   0.926   3.100 -1.7494 -1.6561  1.3787
 5901TIP3   OH217645   5.258   4.491   0.792 -0.3068  0.5823  0.1324
 5901TIP3    H117646   5.310   4.570   0.774 -1.5890  1.1317 -1.3819
 5901TIP3    H217647   5.192   4.520   0.855  0.8888 -0.0267  1.7618
 5902TIP3   OH217648   0.360   5.172   4.107 -0.2287 -0.1153  0.2218
 5902TIP3    H117649   0.428   5.231   4.140  0.0535  0.6543 -1.6214
 5902TIP3    H217650   0.384   5.157   4.015 -1.2650 -1.7229  0.1721
 5903TIP3   OH217651   0.861   1.341   5.262  0.1094  0.0323 -0.5388
 5903TIP3    H117652   0.815   1.422   5.240 -1.5116 -0.6243  0.2617
 5903TIP3    H217653   0.852   1.286   5.184 -1.5676 -0.5388  0.0192
 5904TIP3   OH217654   3.853   0.905   2.705  0.0193  0.0252  0.3070
 5904TIP3    H117655   3.894   0.830   2.661 -0.2211 -1.3476  2.2793
 5904TIP3    H217656   3.808   0.867   2.780 -0.3644  2.1441  1.2220
 5905TIP3   OH217657   6.751   6.959   1.966  0.5719  0.3658  0.2013
 5905TIP3    H117658   6.816   6.899   2.002  0.5007  1.0230  1.4623
 5905TIP3    H217659   6.802   7.016   1.908  1.1701  0.9645  1.2845
 5906TIP3   OH217660   2.558   2.653   4.535  0.4716  0.6818  0.0514
 5906TIP3    H117661   2.511   2.708   4.597  1.1847  1.2133  0.1320
 5906TIP3    H217662   2.558   2.703   4.453 -0.1830  0.1268 -0.3027
 5907TIP3   OH217663   5.436   1.923   1.634 -0.2891  0.3876  0.8535
 5907TIP3    H117664   5.419   2.016   1.617  0.6274  0.2596 -0.9969
 5907TIP3    H217665   5.418   1.880   1.550 -1.8335 -1.3039  1.9920
 5908TIP3   OH217666   7.085   3.099   1.315  0.2974 -0.1204 -0.3075
 5908TIP3    H117667   7.021   3.045   1.361  0.9910  0.5947  1.6235
 5908TIP3    H217668   7.084   3.067   1.225 -0.9197 -1.8138  0.2587
 5909TIP3   OH217669   2.064   2.461   3.835  0.3395  0.0151  0.5811
 5909TIP3    H117670   2.122   2.536   3.822 -0.4042  0.4976  0.0052
 5909TIP3    H217671   2.124   2.389   3.858  0.9246  1.1931  3.1276
 5910TIP3   OH217672   0.236   7.752   5.291  0.5131  0.2474 -0.0199
 5910TIP3    H117673   0.242   7.825   5.352  0.0846  1.4843 -1.3914
 5910TIP3    H217674   0.326   7.735   5.265  0.7742 -0.7706  1.4677
 5911TIP3   OH217675   4.067   5.407   6.203 -0.6196  0.2003  0.3181
 5911TIP3    H117676   4.155   5.445   6.206 -0.6727  0.2942  0.7708
 5911TIP3    H217677   4.009   5.483   6.208 -0.7554  0.3081 -1.8500
 5912TIP3   OH217678   7.029   0.302   5.729 -0.3771  0.2244  0.1424
 5912TIP3    H117679   7.074   0.373   5.775 -2.3097  1.0699  0.8221
 5912TIP3    H217680   7.053   0.223   5.778  0.6137  0.6005  0.2783
 5913TIP3   OH217681   5.726   4.677   5.259 -0.6657  0.0583  0.3345
 5913TIP3    H117682   5.671   4.730   5.201 -2.1079 -0.0739  1.5023
 5913TIP3    H217683   5.694   4.588   5.247  0.3636 -0.2685 -0.0986
 5914TIP3   OH217684   7.377   6.351   0.324  0.2868 -0.2178 -0.2800
 5914TIP3    H117685   7.465   6.331   0.354 -0.6755 -3.1643  0.9054
 5914TIP3    H217686   7.333   6.386   0.402  0.2975  1.1366 -0.8382
 5915TIP3   OH217687   5.337   3.041   0.021  0.2161 -0.0231 -0.1841
 5915TIP3    H117688   5.319   3.129   0.054 -1.8028 -0.9436  1.4931
 5915TIP3    H217689   5.308   3.043  -0.070  1.4737  1.3733 -0.5817
 5916TIP3   OH217690   3.998   1.025   5.711 -0.1008  0.3470 -0.0038
 5916TIP3    H117691   4.057   1.078   5.764 -0.2284 -1.8762  2.5591
 5916TIP3    H217692   4.047   1.009   5.630  1.5751  0.9988  0.8314
 5917TIP3   OH217693   7.795   5.678   6.063  0.0906  0.2708  0.5138
 5917TIP3    H117694   7.802   5.585   6.083  0.6014  0.4851  1.3963
 5917TIP3    H217695   7.846   5.689   5.982  0.2205 -0.1761  0.5330
 5918TIP3   OH217696   7.087   7.061   3.545 -0.2337  0.4161  0.1803
 5918TIP3    H117697   7.054   7.126   3.606 -0.2002  1.5053 -0.9207
 5918TIP3    H217698   7.121   7.112   3.471 -1.2465 -0.8828 -1.2425
 5919TIP3   OH217699   2.696   3.331   6.319 -0.1827 -0.5475 -0.6408
 5919TIP3    H117700   2.657   3.245   6.307 -1.5732  0.2049 -1.8269
 5919TIP3    H217701   2.754   3.342   6.243  0.2360 -0.5503 -0.3261
 5920TIP3   OH217702   5.216   5.525   2.457  0.1809 -0.0872 -0.4638
 5920TIP3    H117703   5.164   5.455   2.417 -0.1719 -0.2121  0.1975
 5920TIP3    H217704   5.175   5.606   2.425 -0.6731 -0.1832  0.3549
 5921TIP3   OH217705   4.745   1.622   0.823  0.3044 -0.4059  0.6412
 5921TIP3    H117706   4.713   1.654   0.908  1.3908 -0.9276  1.2791
 5921TIP3    H217707   4.681   1.557   0.796 -1.1819  1.2306  0.0062
 5922TIP3   OH217708   6.184   6.592   6.716 -0.0141 -0.6021  0.3974
 5922TIP3    H117709   6.160   6.621   6.804 -0.3241 -0.1077  0.1557
 5922TIP3    H217710   6.264   6.640   6.696 -2.2381  2.8246 -1.3065
 5923TIP3   OH217711   1.495   7.442   0.162 -0.3128  0.1953  0.2515
 5923TIP3    H117712   1.492   7.377   0.092 -1.3357  1.2669 -0.7376
 5923TIP3    H217713   1.546   7.400   0.231  2.4715 -0.1774 -1.8704
 5924TIP3   OH217714   7.715   2.935   1.067 -0.1146  0.0586 -0.3255
 5924TIP3    H117715   7.791   2.878   1.057  0.2668  0.5433 -0.2381
 5924TIP3    H217716   7.696   2.935   1.161  0.4656  0.7987 -0.1946
 5925TIP3   OH217717   7.944   5.706   5.842  0.2497 -0.4288  0.3996
 5925TIP3    H117718   8.025   5.664   5.812  1.5579  0.5422  2.3838
 5925TIP3    H217719   7.874   5.658   5.797  1.8302 -2.3595 -0.1398
 5926TIP3   OH217720   0.141   1.277   6.632 -0.8916  0.5411 -0.3349
 5926TIP3    H117721   0.118   1.272   6.724 -1.5509  2.1799 -0.3813
 5926TIP3    H217722   0.230   1.313   6.630 -1.0580  0.9525 -0.3498
 5927TIP3   OH217723   3.584   6.318   3.831 -0.1584  0.2828 -0.4937
 5927TIP3    H117724   3.561   6.349   3.744 -0.3686  1.1393 -0.1390
 5927TIP3    H217725   3.558   6.388   3.890 -0.0257 -0.2868  0.2682
 5928TIP3   OH217726   5.319   1.415   0.733 -0.6544  0.8861 -0.1290
 5928TIP3    H117727   5.386   1.362   0.774 -0.6800  0.3566 -0.7561
 5928TIP3    H217728   5.237   1.383   0.770 -0.6196  0.9578  0.0090
 5929TIP3   OH217729   7.507   6.822   6.590 -0.4192  0.0179  0.3383
 5929TIP3    H117730   7.575   6.883   6.618  0.2302 -0.8113  0.6037
 5929TIP3    H217731   7.502   6.757   6.659 -0.2770 -0.8790 -0.4732
 5930TIP3   OH217732   1.652   5.090   5.430  0.6132  0.0870  0.2019
 5930TIP3    H117733   1.661   5.184   5.448 -0.3839  0.2963 -0.3321
 5930TIP3    H217734   1.714   5.048   5.490  1.6081  1.1268 -0.0710
 5931TIP3   OH217735   3.441   5.864   5.645  0.1329  0.2342  0.5173
 5931TIP3    H117736   3.395   5.814   5.712 -1.3451  0.6745 -0.1168
 5931TIP3    H217737   3.507   5.915   5.692 -0.4610  0.0691  1.5421
 5932TIP3   OH217738   2.819   5.034   1.961 -0.5358 -0.1624  0.3914
 5932TIP3    H117739   2.898   5.064   2.007  0.1492 -1.8555  0.4147
 5932TIP3    H217740   2.775   4.976   2.024  0.5541 -2.7329 -1.0294
 5933TIP3   OH217741   3.008   2.886   5.706 -0.5410  0.4321  0.0688
 5933TIP3    H117742   2.988   2.904   5.798  2.1587  0.8747  0.6417
 5933TIP3    H217743   2.978   2.796   5.693 -2.1743  0.7986  0.9695
 5934TIP3   OH217744   1.860   5.959   4.186 -0.1587  0.8792 -0.7949
 5934TIP3    H117745   1.801   5.884   4.182  0.8850 -0.0437  0.3202
 5934TIP3    H217746   1.933   5.935   4.129  0.2783  0.9590 -0.2751
 5935TIP3   OH217747   4.350   4.193   0.669 -0.1290  0.3735 -0.0679
 5935TIP3    H117748   4.383   4.277   0.638 -1.2797  0.8805  0.0181
 5935TIP3    H217749   4.408   4.128   0.628 -0.0856  1.1321 -1.2796
 5936TIP3   OH217750   7.299   4.006   5.505 -0.0850 -0.0534 -0.2819
 5936TIP3    H117751   7.252   3.930   5.470 -0.5794  0.2470 -0.2824
 5936TIP3    H217752   7.364   4.027   5.438  0.8196 -1.1556  0.2127
 5937TIP3   OH217753   4.927   4.123   3.719  0.1913 -0.1662 -0.0677
 5937TIP3    H117754   4.905   4.097   3.808 -0.5839  2.4089  0.5642
 5937TIP3    H217755   5.019   4.098   3.709  0.1925 -0.7952  1.3146
 5938TIP3   OH217756   0.567   4.274   0.219 -0.0486  0.2999  1.0833
 5938TIP3    H117757   0.607   4.191   0.246  0.9888 -0.1230 -1.4512
 5938TIP3    H217758   0.474   4.264   0.238  0.0486 -1.5181  0.7622
 5939TIP3   OH217759   4.481   0.416   0.420 -0.0077  0.2187 -0.0938
 5939TIP3    H117760   4.387   0.433   0.427  0.1970  0.8840  1.2776
 5939TIP3    H217761   4.491   0.326   0.449 -0.3549 -0.3168 -1.5284
 5940TIP3   OH217762   8.032   5.571   6.356 -0.3453 -0.1330 -0.3095
 5940TIP3    H117763   8.040   5.666   6.341 -1.2350  0.2182  1.2868
 5940TIP3    H217764   7.986   5.539   6.278  1.2987  0.4602 -1.5963
 5941TIP3   OH217765   6.836   3.872   0.347 -0.6009  0.0575  0.1607
 5941TIP3    H117766   6.740   3.877   0.351 -0.5767  0.7601 -0.0217
 5941TIP3    H217767   6.854   3.792   0.297 -1.1350  1.2998 -2.1308
 5942TIP3   OH217768   6.943   4.739   3.165  0.3814 -0.3518  0.3053
 5942TIP3    H117769   6.873   4.712   3.104  1.0364 -1.5490  0.0472
 5942TIP3    H217770   7.024   4.719   3.118  0.9076  0.1309  0.9884
 5943TIP3   OH217771   3.779   5.148   5.007 -0.3435  0.4767  0.1246
 5943TIP3    H117772   3.860   5.151   4.956 -1.7774 -0.7042 -2.4329
 5943TIP3    H217773   3.795   5.081   5.073  0.0334 -1.5510 -1.9057
 5944TIP3   OH217774   4.147   6.691   4.174 -0.0390 -0.4068  0.0914
 5944TIP3    H117775   4.096   6.642   4.238  0.7715 -0.8709  0.4018
 5944TIP3    H217776   4.225   6.637   4.159  1.3908  1.2217  1.2115
 5945TIP3   OH217777   1.794   3.535   2.013  0.0153 -0.1016 -0.3884
 5945TIP3    H117778   1.718   3.477   2.003 -1.2105  1.5781 -1.2811
 5945TIP3    H217779   1.771   3.614   1.964  0.4828  2.2436  2.8251
 5946TIP3   OH217780   7.303   3.992   6.294 -0.2054  0.6979 -0.3330
 5946TIP3    H117781   7.396   3.969   6.290 -0.2375 -0.7872  3.1640
 5946TIP3    H217782   7.258   3.908   6.301 -1.7492  1.4279 -1.1323
 5947TIP3   OH217783   7.569   3.048   2.720 -0.3663  0.2541  0.6342
 5947TIP3    H117784   7.648   3.057   2.773 -0.7098  0.5817  1.0882
 5947TIP3    H217785   7.528   3.134   2.722 -0.2454  0.3567 -0.3948
 5948TIP3   OH217786   2.312   2.066   1.078  0.1676 -0.3183  0.5214
 5948TIP3    H117787   2.360   2.086   1.158  0.1176  1.3881  0.1768
 5948TIP3    H217788   2.226   2.108   1.090 -0.1374 -0.7570 -0.0793
 5949TIP3   OH217789   7.954   2.318   0.818  0.4959 -0.3481  0.8797
 5949TIP3    H117790   7.916   2.358   0.740  0.1416 -1.9333  0.1957
 5949TIP3    H217791   7.935   2.380   0.888 -1.6529 -0.1630  0.1998
 5950TIP3   OH217792   7.837   1.530   6.263 -0.7608  0.4527 -0.1170
 5950TIP3    H117793   7.858   1.441   6.291  0.7608  1.4384  2.1370
 5950TIP3    H217794   7.922   1.575   6.260 -1.4994  1.8602 -1.1608
 5951TIP3   OH217795   2.988   1.256   2.548  0.4065 -0.4735 -0.6214
 5951TIP3    H117796   3.027   1.193   2.608  1.3926 -1.0425 -1.8187
 5951TIP3    H217797   3.060   1.315   2.526  0.1778 -0.5546 -1.6068
 5952TIP3   OH217798   1.376   6.287   3.055 -0.1685 -0.4100 -0.3383
 5952TIP3    H117799   1.370   6.224   3.127  0.4449 -0.0094  0.0726
 5952TIP3    H217800   1.377   6.373   3.098  0.7683 -0.1846 -0.7847
 5953TIP3   OH217801   2.562   0.346   4.225 -0.0345  0.0341 -0.3541
 5953TIP3    H117802   2.581   0.304   4.142 -0.5934 -0.1519 -0.3907
 5953TIP3    H217803   2.467   0.344   4.232 -0.0636  1.1594 -0.2884
 5954TIP3   OH217804   1.884   6.885   6.125  0.2902 -0.2437 -0.2786
 5954TIP3    H117805   1.968   6.840   6.133  2.3560  3.2024 -0.5028
 5954TIP3    H217806   1.879   6.911   6.033  0.2305  1.7067  0.2299
 5955TIP3   OH217807   7.390   7.775   1.214 -0.0116  0.9185 -0.1712
 5955TIP3    H117808   7.332   7.702   1.237 -1.3477  2.1960  0.6504
 5955TIP3    H217809   7.335   7.853   1.222  1.1642  1.9712 -1.7874
 5956TIP3   OH217810   7.545   6.277   4.537 -0.1637  0.4624  0.2896
 5956TIP3    H117811   7.636   6.251   4.523 -0.1671  0.4080  0.3722
 5956TIP3    H217812   7.505   6.273   4.450 -0.9407 -2.7138  0.6672
 5957TIP3   OH217813   6.766   1.063   1.742  0.1908  0.2380  1.3091
 5957TIP3    H117814   6.674   1.059   1.714  0.3766  2.1036  0.3089
 5957TIP3    H217815   6.764   1.028   1.831 -1.1199 -1.7759  0.5793
 5958TIP3   OH217816   3.911   4.524   6.400 -0.6602  0.1202 -0.2663
 5958TIP3    H117817   3.962   4.601   6.375  0.4801 -0.7151 -0.6366
 5958TIP3    H217818   3.829   4.559   6.434 -0.9175  1.4409 -2.0585
 5959TIP3   OH217819   6.661   4.797   0.072  0.2824  0.0019  0.3096
 5959TIP3    H117820   6.569   4.825   0.076  0.1748 -0.4436  1.2579
 5959TIP3    H217821   6.661   4.711   0.115  0.9659 -0.4907 -0.6368
 5960TIP3   OH217822   8.140   4.298   3.620  0.4707  0.1020  1.2039
 5960TIP3    H117823   8.078   4.284   3.692 -0.7345 -1.3403 -0.0439
 5960TIP3    H217824   8.092   4.350   3.556  0.5833 -0.8403  0.3167
 5961TIP3   OH217825   7.003   0.655   3.013  0.6706 -0.1534 -0.3561
 5961TIP3    H117826   7.067   0.648   3.084 -1.6149 -1.1241  1.7913
 5961TIP3    H217827   6.964   0.742   3.025  1.9630  0.7371 -2.1062
 5962TIP3   OH217828   4.130   5.855   0.665  0.5518  0.4449  0.3333
 5962TIP3    H117829   4.101   5.800   0.737 -0.8735  2.1665  1.1492
 5962TIP3    H217830   4.223   5.870   0.682 -0.1502  2.4739  3.0562
 5963TIP3   OH217831   3.697   1.921   3.634  0.3906  0.3874  0.1173
 5963TIP3    H117832   3.620   1.897   3.582  1.1129 -0.3362 -0.6220
 5963TIP3    H217833   3.667   1.996   3.686 -1.3885 -1.0211  1.2391
 5964TIP3   OH217834   7.972   7.755   4.075  0.1721 -0.1282  0.1319
 5964TIP3    H117835   7.992   7.847   4.089 -1.5071  0.2615  0.2264
 5964TIP3    H217836   8.057   7.714   4.057  1.0969  1.2106  1.2359
 5965TIP3   OH217837   2.785   5.603   2.127  0.0577  0.0526 -0.2362
 5965TIP3    H117838   2.810   5.511   2.135  0.5474  0.2917  1.2639
 5965TIP3    H217839   2.867   5.648   2.104  0.1628  0.2991  0.5840
 5966TIP3   OH217840   2.776   5.620   6.009 -0.3134  0.3971 -0.4946
 5966TIP3    H117841   2.851   5.624   5.950 -0.3192  0.8866 -0.4728
 5966TIP3    H217842   2.709   5.574   5.959  0.2728 -0.8177 -0.2039
 5967TIP3   OH217843   0.883   1.549   3.623 -0.2392  0.0537  0.0788
 5967TIP3    H117844   0.894   1.643   3.641 -1.6413  0.3429 -0.4644
 5967TIP3    H217845   0.818   1.520   3.686 -1.4858 -0.0270 -1.1957
 5968TIP3   OH217846   6.701   3.673   0.616 -1.2737 -0.6963 -0.3468
 5968TIP3    H117847   6.713   3.601   0.554  0.0844 -1.3541  0.6418
 5968TIP3    H217848   6.789   3.693   0.647 -1.7530  0.6962  0.1872
 5969TIP3   OH217849   5.177   4.317   0.381 -0.7802  0.1686  0.2175
 5969TIP3    H117850   5.268   4.341   0.396 -0.5518 -0.8318  0.4944
 5969TIP3    H217851   5.177   4.275   0.295 -1.1975  1.2499 -0.3257
 5970TIP3   OH217852   3.313   7.156   5.851  0.3504 -0.3009  0.5577
 5970TIP3    H117853   3.364   7.181   5.774  0.8990  0.0974  1.0373
 5970TIP3    H217854   3.294   7.063   5.838 -0.7348  0.0670 -0.6974
 5971TIP3   OH217855   0.466   7.443   0.263 -0.8638 -0.7075 -0.1954
 5971TIP3    H117856   0.470   7.399   0.348 -0.0801 -1.8120 -0.7692
 5971TIP3    H217857   0.513   7.525   0.276 -1.4032 -0.5257  0.6264
 5972TIP3   OH217858   1.799   4.937   5.642  0.4848 -0.3007 -0.4307
 5972TIP3    H117859   1.880   4.899   5.677 -0.2599 -0.7582  0.8754
 5972TIP3    H217860   1.729   4.899   5.696 -0.4077  1.9632  0.1200
 5973TIP3   OH217861   3.891   5.641   6.705 -0.2472  0.3920 -0.1827
 5973TIP3    H117862   3.954   5.664   6.773  2.4429  0.4635 -2.5059
 5973TIP3    H217863   3.806   5.664   6.742  0.8670 -0.9431  3.6470
 5974TIP3   OH217864   8.019   4.505   4.685  0.0046 -0.4967  0.0534
 5974TIP3    H117865   7.993   4.568   4.617 -0.7514 -0.9049 -0.0379
 5974TIP3    H217866   8.093   4.458   4.646  1.3087  1.0645  0.5417
 5975TIP3   OH217867   1.410   5.213   2.432  0.3993  0.5399 -0.2038
 5975TIP3    H117868   1.454   5.222   2.517  1.7866  0.7753 -0.9205
 5975TIP3    H217869   1.351   5.287   2.428  0.9071  0.9816  0.2318
 5976TIP3   OH217870   5.085   0.804   3.224 -0.2141 -0.2310 -0.0874
 5976TIP3    H117871   4.997   0.812   3.186 -0.5438  2.0791  1.0235
 5976TIP3    H217872   5.142   0.843   3.158 -0.1554 -0.6957 -0.3151
 5977TIP3   OH217873   8.267   4.640   0.576 -0.1284 -0.2630  0.1389
 5977TIP3    H117874   8.184   4.670   0.613  0.6877  1.1592  0.9594
 5977TIP3    H217875   8.255   4.645   0.482 -0.5839  1.1879  0.2501
 5978TIP3   OH217876   0.207   3.097   4.561  0.2068  0.1972 -0.0865
 5978TIP3    H117877   0.264   3.164   4.598 -0.9442  0.8220  0.6376
 5978TIP3    H217878   0.228   3.017   4.609 -0.5509  0.7702  1.2559
 5979TIP3   OH217879   6.479   7.509   3.686 -0.0306  0.1461  0.2183
 5979TIP3    H117880   6.528   7.525   3.605 -0.8748  1.1073 -0.1169
 5979TIP3    H217881   6.517   7.571   3.749 -0.9673  1.0845 -0.1166
 5980TIP3   OH217882   5.259   1.268   4.327 -0.5135 -0.3236 -0.1317
 5980TIP3    H117883   5.310   1.274   4.408  1.6183 -2.6141 -1.1597
 5980TIP3    H217884   5.223   1.179   4.329 -0.3301 -0.4632 -1.7205
 5981TIP3   OH217885   8.113   1.062   5.745  0.0172  0.2133 -0.6321
 5981TIP3    H117886   8.173   1.134   5.726 -0.8000  0.8515 -0.8150
 5981TIP3    H217887   8.163   0.983   5.722  0.4364  0.7799 -1.7335
 5982TIP3   OH217888   6.649   2.376   3.384  0.0175 -0.5677 -0.0273
 5982TIP3    H117889   6.575   2.401   3.440 -0.4851 -0.5989 -0.6664
 5982TIP3    H217890   6.696   2.458   3.370 -0.9127 -0.1821 -1.0710
 5983TIP3   OH217891   3.298   7.083   4.864  0.2482  0.3146  0.4029
 5983TIP3    H117892   3.209   7.077   4.899  0.5552 -2.6733  0.8985
 5983TIP3    H217893   3.354   7.048   4.934  1.5639  0.1382 -0.7011
 5984TIP3   OH217894   5.689   1.035   4.604 -0.2685 -0.1309  0.3055
 5984TIP3    H117895   5.782   1.022   4.583 -0.3456  0.2407 -0.3010
 5984TIP3    H217896   5.686   1.039   4.699  0.0850 -2.0187  0.4448
 5985TIP3   OH217897   0.617   7.666   6.202 -0.0851 -0.4906 -0.1924
 5985TIP3    H117898   0.631   7.757   6.177  1.1878 -0.4762  0.5126
 5985TIP3    H217899   0.619   7.618   6.119 -1.5335  0.1826 -0.6520
 5986TIP3   OH217900   7.678   3.288   6.065 -0.7174  0.0785  0.4330
 5986TIP3    H117901   7.653   3.228   6.136 -1.2423  0.0408  0.2210
 5986TIP3    H217902   7.599   3.341   6.049 -1.0547 -0.8119 -1.0267
 5987TIP3   OH217903   1.619   4.398   5.919 -0.0004 -0.1367 -0.1760
 5987TIP3    H117904   1.546   4.440   5.873  0.6411  0.7284 -0.4244
 5987TIP3    H217905   1.640   4.457   5.991  0.0381 -0.7039  0.2867
 5988TIP3   OH217906   1.575   0.790   5.396 -0.1070  0.6596 -0.0624
 5988TIP3    H117907   1.663   0.770   5.367 -0.9597 -3.2947 -0.5718
 5988TIP3    H217908   1.522   0.793   5.316 -0.6811  1.5677  0.3277
 5989TIP3   OH217909   8.278   7.207   4.686 -0.3260  0.4809 -0.3393
 5989TIP3    H117910   8.233   7.208   4.601 -2.7944 -0.1988  0.8910
 5989TIP3    H217911   8.210   7.228   4.750  1.1087 -0.6635  1.6598
 5990TIP3   OH217912   7.716   2.010   5.753 -0.3342 -0.3012  0.3728
 5990TIP3    H117913   7.694   1.933   5.701 -0.8452  0.6618 -0.8860
 5990TIP3    H217914   7.809   2.000   5.772  0.7327  0.7731 -3.4230
 5991TIP3   OH217915   0.928   3.085   6.764 -0.3864  0.3302 -0.2594
 5991TIP3    H117916   0.917   3.087   6.669 -1.6449  1.3196 -0.1104
 5991TIP3    H217917   0.849   3.126   6.799 -1.6197 -3.0215  1.3732
 5992TIP3   OH217918   3.794   7.756   2.639  0.9439  0.0576  0.2155
 5992TIP3    H117919   3.706   7.768   2.604  0.2906  0.0872  1.8058
 5992TIP3    H217920   3.783   7.758   2.734  2.6281 -0.1906  0.4467
 5993TIP3   OH217921   2.280   4.641   1.718 -0.6900  0.5233 -0.4367
 5993TIP3    H117922   2.326   4.723   1.739 -1.2056  0.2378  2.1540
 5993TIP3    H217923   2.343   4.591   1.666  0.6124  1.5322  0.0991
 5994TIP3   OH217924   4.170   3.514   6.365  0.0498  0.4292 -0.1168
 5994TIP3    H117925   4.115   3.537   6.439 -0.2599  2.6574 -0.9556
 5994TIP3    H217926   4.254   3.488   6.404 -0.3110  0.9198  1.0236
 5995TIP3   OH217927   5.263   5.693   0.838  0.2152 -0.8860  0.6717
 5995TIP3    H117928   5.288   5.637   0.765 -1.3879 -1.2422  0.3538
 5995TIP3    H217929   5.245   5.778   0.798  0.3749 -0.7847  0.8143
 5996TIP3   OH217930   4.425   6.076   0.131 -0.2210 -0.2068 -0.2024
 5996TIP3    H117931   4.395   6.167   0.134 -0.7642 -0.3781 -0.2204
 5996TIP3    H217932   4.511   6.081   0.090 -0.9222  0.1457 -1.7304
 5997TIP3   OH217933   4.841   0.653   2.762  0.4062  0.0435  0.2795
 5997TIP3    H117934   4.922   0.635   2.715 -0.1978  1.7763 -1.5674
 5997TIP3    H217935   4.789   0.706   2.701 -1.0533  1.1504  2.3535
 5998TIP3   OH217936   3.820   1.454   4.483  0.3399 -0.0844 -0.1298
 5998TIP3    H117937   3.878   1.395   4.434  0.7035  0.4580 -0.3596
 5998TIP3    H217938   3.747   1.470   4.423  0.4749  0.0723 -0.2558
 5999TIP3   OH217939   1.309   3.633   3.045 -0.5354 -0.2460  0.1349
 5999TIP3    H117940   1.405   3.639   3.038 -0.5654 -0.7022 -0.6986
 5999TIP3    H217941   1.288   3.692   3.118  0.4214 -0.5093  0.6555
 6000TIP3   OH217942   4.350   0.702   2.573  0.6052  0.5091  0.0100
 6000TIP3    H117943   4.427   0.744   2.610  0.4889  0.8674 -0.1527
 6000TIP3    H217944   4.283   0.771   2.570 -0.4924 -0.3612  2.3389
 6001TIP3   OH217945   6.573   3.904   0.331  0.3025  0.8148 -0.5580
 6001TIP3    H117946   6.541   3.822   0.293  1.2031  1.0911 -1.9736
 6001TIP3    H217947   6.508   3.969   0.307 -0.3145  0.5745  0.4021
 6002TIP3   OH217948   8.181   1.881   4.137  0.3177  0.4280  0.0146
 6002TIP3    H117949   8.126   1.856   4.062 -1.6843  2.9207  0.5248
 6002TIP3    H217950   8.136   1.843   4.212  2.1061 -1.7223  0.0940
 6003TIP3   OH217951   0.925   3.450   4.782  0.4188  0.4050 -0.6403
 6003TIP3    H117952   1.014   3.430   4.810 -0.6820 -0.5968  2.6315
 6003TIP3    H217953   0.884   3.489   4.859 -2.2496 -0.0758 -1.7034
 6004TIP3   OH217954   4.695   3.620   5.890 -0.2071 -0.1297 -0.3009
 6004TIP3    H117955   4.718   3.528   5.881  0.1983  0.0228 -0.8759
 6004TIP3    H217956   4.613   3.620   5.939  0.2787 -0.7452  0.5269
 6005TIP3   OH217957   3.640   6.714   4.500  0.8661 -0.1199 -0.4075
 6005TIP3    H117958   3.549   6.698   4.475 -0.4736  2.7675  2.0534
 6005TIP3    H217959   3.656   6.806   4.479  3.2480 -0.5236 -0.6965
 6006TIP3   OH217960   3.474   4.056   2.816 -0.1127  0.5026 -0.0788
 6006TIP3    H117961   3.441   4.118   2.751  1.4423 -0.4407 -1.8661
 6006TIP3    H217962   3.402   3.994   2.829 -2.2620  3.2856  2.8149
 6007TIP3   OH217963   2.587   6.925   4.871  0.3321  0.2040  0.2394
 6007TIP3    H117964   2.548   6.898   4.788 -1.2387 -1.4982  1.4522
 6007TIP3    H217965   2.565   6.855   4.932 -1.1269  2.7216  2.8526
 6008TIP3   OH217966   3.891   7.279   1.082  0.8272 -0.4877  0.0800
 6008TIP3    H117967   3.855   7.256   0.996 -0.4556 -1.6020  0.8624
 6008TIP3    H217968   3.915   7.371   1.075  0.6693 -0.5415 -1.4399
 6009TIP3   OH217969   2.997   6.281   3.411 -0.0596 -0.0738  0.1859
 6009TIP3    H117970   3.068   6.318   3.357 -0.4463 -0.3767 -0.5507
 6009TIP3    H217971   2.954   6.218   3.353 -0.3590 -0.5624  0.9318
 6010TIP3   OH217972   4.618   3.640   3.276 -0.7016  0.5473 -0.0173
 6010TIP3    H117973   4.651   3.728   3.256  0.9928  0.5944  2.5104
 6010TIP3    H217974   4.592   3.604   3.191  3.1283  1.6789 -1.8722
 6011TIP3   OH217975   0.801   2.922   3.554  0.6046  0.6030 -0.0309
 6011TIP3    H117976   0.729   2.981   3.532 -0.1632 -1.1190 -2.5933
 6011TIP3    H217977   0.768   2.869   3.626  0.0072  1.0440  0.0281
 6012TIP3   OH217978   5.330   5.803   3.907  0.2295  0.0590  0.0918
 6012TIP3    H117979   5.318   5.896   3.925  2.5553  0.8762 -2.0589
 6012TIP3    H217980   5.243   5.773   3.881 -0.4060  1.8143  0.0659
 6013TIP3   OH217981   3.353   6.866   5.855 -0.1720  0.0330  0.0735
 6013TIP3    H117982   3.446   6.846   5.858 -0.1300 -0.0863 -1.3748
 6013TIP3    H217983   3.311   6.795   5.904  0.5676  0.7243  1.7569
 6014TIP3   OH217984   3.401   5.635   4.008 -0.6396 -0.3064 -0.0219
 6014TIP3    H117985   3.357   5.568   4.060  0.1141  0.0634  1.1370
 6014TIP3    H217986   3.356   5.633   3.923 -1.4060 -1.4449  0.3826
 6015TIP3   OH217987   6.545   5.419   2.833 -0.5804 -0.6697 -0.3567
 6015TIP3    H117988   6.532   5.514   2.838 -0.8179 -0.7120 -0.1255
 6015TIP3    H217989   6.639   5.406   2.846 -0.8831 -0.6488  2.4837
 6016TIP3   OH217990   4.616   1.318   6.393 -0.0771  0.4088  0.7803
 6016TIP3    H117991   4.605   1.297   6.485 -0.7205 -0.0535  0.6053
 6016TIP3    H217992   4.695   1.270   6.367 -0.3732 -0.1478  0.8882
 6017TIP3   OH217993   7.052   3.934   4.750  0.2439  0.0682 -0.4120
 6017TIP3    H117994   7.112   3.875   4.795  0.1900 -0.5376 -1.1143
 6017TIP3    H217995   7.069   4.020   4.788  0.1016 -0.4454  0.8481
 6018TIP3   OH217996   6.454   6.865   6.564  0.0172 -0.3425 -0.2986
 6018TIP3    H117997   6.452   6.800   6.635  0.4950  0.3348  0.3481
 6018TIP3    H217998   6.362   6.873   6.537 -0.1749 -0.5996  0.2587
 6019TIP3   OH217999   0.309   2.574   4.660 -0.1336  0.0653 -0.1379
 6019TIP3    H118000   0.225   2.549   4.621 -1.2264  0.2888  1.9270
 6019TIP3    H218001   0.323   2.664   4.632 -0.0237 -0.3325 -1.3839
 6020TIP3   OH218002   4.606   4.871   5.412 -0.3370  0.3262  0.2741
 6020TIP3    H118003   4.647   4.922   5.342  1.1613 -2.5869 -1.1588
 6020TIP3    H218004   4.520   4.911   5.423 -0.4687  1.2524 -2.9324
 6021TIP3   OH218005   7.820   4.740   1.192  0.3209  0.0735  0.1120
 6021TIP3    H118006   7.784   4.757   1.105  0.7854  1.2975  0.1318
 6021TIP3    H218007   7.745   4.749   1.251  0.2993  0.8242 -0.0181
 6022TIP3   OH218008   6.267   6.204   0.646  0.3603  0.5143 -0.1659
 6022TIP3    H118009   6.335   6.266   0.622  1.5510 -0.1513  1.2733
 6022TIP3    H218010   6.315   6.128   0.681 -1.0420 -1.1155 -1.6044
 6023TIP3   OH218011   5.785   2.843   2.883  0.0708  0.1957  0.0042
 6023TIP3    H118012   5.844   2.812   2.815 -0.0555  0.9989 -0.4888
 6023TIP3    H218013   5.698   2.837   2.845 -0.1995 -1.0751  0.7647
 6024TIP3   OH218014   4.026   6.310   3.584 -0.2689  0.7262  0.3724
 6024TIP3    H118015   3.971   6.367   3.531 -0.1951  0.1714 -0.3192
 6024TIP3    H218016   4.016   6.342   3.674  1.1194  2.9531 -0.1736
 6025TIP3   OH218017   8.060   2.328   6.600  0.1856  0.4161  0.1516
 6025TIP3    H118018   8.104   2.413   6.594 -1.4198  1.2779 -0.1300
 6025TIP3    H218019   8.050   2.300   6.509  0.6313 -0.0401  0.2404
 6026TIP3   OH218020   6.275   1.034   1.481 -0.5170  0.2305  0.4558
 6026TIP3    H118021   6.239   0.953   1.445  2.4425 -0.2686 -1.7694
 6026TIP3    H218022   6.287   1.017   1.574  0.0501 -1.9462  0.0319
 6027TIP3   OH218023   6.450   3.520   5.817 -0.4989  0.7715 -0.6665
 6027TIP3    H118024   6.473   3.458   5.886 -0.3945 -0.2523 -1.6053
 6027TIP3    H218025   6.428   3.600   5.864  0.0194  0.2372  0.5306
 6028TIP3   OH218026   7.410   5.789   0.834  0.1068 -0.2593  0.3825
 6028TIP3    H118027   7.401   5.697   0.857 -1.2561 -0.3645 -0.4910
 6028TIP3    H218028   7.340   5.806   0.771  1.3450  0.9630 -0.7578
 6029TIP3   OH218029   3.833   3.373   4.605 -0.4272 -0.1907 -0.2455
 6029TIP3    H118030   3.782   3.403   4.530  0.1595  3.4693  0.5951
 6029TIP3    H218031   3.771   3.322   4.658 -1.6519 -0.3551 -1.7662
 6030TIP3   OH218032   2.752   4.844   4.011  0.1040  0.1265  0.0305
 6030TIP3    H118033   2.809   4.770   3.993 -0.9533 -0.5128 -0.8277
 6030TIP3    H218034   2.729   4.879   3.925 -0.3380  0.7175  0.3758
 6031TIP3   OH218035   0.921   2.390   3.298  0.1538 -0.0384  0.5896
 6031TIP3    H118036   0.846   2.373   3.240 -0.9091  0.6168  1.7434
 6031TIP3    H218037   0.963   2.468   3.260 -0.4595  0.3106  0.6101
 6032TIP3   OH218038   0.697   4.213   1.371 -0.1159 -0.1447  0.2277
 6032TIP3    H118039   0.621   4.200   1.314 -1.1089  1.6021  1.0587
 6032TIP3    H218040   0.685   4.148   1.441  1.0693 -2.2376 -1.4204
 6033TIP3   OH218041   5.174   7.008   6.447  0.0692  0.4019 -0.4039
 6033TIP3    H118042   5.259   6.963   6.452  1.1035  2.1487 -1.2812
 6033TIP3    H218043   5.113   6.941   6.417  0.9469 -1.0918  0.9587
 6034TIP3   OH218044   0.145   7.051   3.166 -0.1171 -0.1403  0.1461
 6034TIP3    H118045   0.184   7.103   3.096 -0.8484 -0.0844 -0.2308
 6034TIP3    H218046   0.219   7.008   3.208  0.8515  3.0044  2.0202
 6035TIP3   OH218047   3.844   0.162   1.209  0.0658 -0.4248  0.0820
 6035TIP3    H118048   3.829   0.104   1.284 -0.0708  1.5448  1.6704
 6035TIP3    H218049   3.758   0.172   1.169 -0.0522 -0.6937  0.2617
 6036TIP3   OH218050   3.475   0.633   5.670  0.1911 -0.5204  0.0204
 6036TIP3    H118051   3.520   0.592   5.744 -0.5214  0.0667  0.7983
 6036TIP3    H218052   3.410   0.690   5.710 -0.5979 -0.6229 -1.0808
 6037TIP3   OH218053   0.623   5.001   4.631  0.0943 -0.5710 -0.5591
 6037TIP3    H118054   0.673   4.931   4.672  0.4367  0.2969  0.5451
 6037TIP3    H218055   0.574   5.042   4.702  0.8427  1.0888 -0.9531
 6038TIP3   OH218056   0.982   0.261   6.481  0.6272 -0.2405  0.0501
 6038TIP3    H118057   0.990   0.181   6.534  2.6536 -0.2476 -0.1859
 6038TIP3    H218058   1.041   0.323   6.522  0.4005  0.5638 -0.8075
 6039TIP3   OH218059   2.784   3.313   3.157 -0.1644 -0.3020 -0.2215
 6039TIP3    H118060   2.869   3.275   3.180  1.6073  1.6387 -3.1137
 6039TIP3    H218061   2.795   3.407   3.171 -1.5960  0.0530 -1.3427
 6040TIP3   OH218062   5.898   2.842   6.483  0.3565  0.3732 -0.5590
 6040TIP3    H118063   5.832   2.799   6.428 -0.4276  1.3006 -0.3684
 6040TIP3    H218064   5.849   2.872   6.560  1.0409  0.8851 -0.3137
 6041TIP3   OH218065   0.185   6.250   0.616 -0.2762 -0.7310 -0.3651
 6041TIP3    H118066   0.242   6.321   0.645  0.0003 -0.5403 -1.3218
 6041TIP3    H218067   0.123   6.238   0.687  1.0582 -1.0561  0.7756
 6042TIP3   OH218068   0.526   1.579  -0.016  0.2410  0.5139  0.6172
 6042TIP3    H118069   0.621   1.569  -0.027  0.1808 -0.4116  0.8221
 6042TIP3    H218070   0.507   1.535   0.067 -0.9643 -3.5007 -1.4905
 6043TIP3   OH218071   4.251   3.650   6.686  0.2704  0.3039  0.4584
 6043TIP3    H118072   4.177   3.598   6.657  0.0525  0.5564  0.5580
 6043TIP3    H218073   4.298   3.672   6.606 -0.7990  1.7217  0.1732
 6044TIP3   OH218074   5.774   5.411   0.474  0.4508 -0.2107  0.1216
 6044TIP3    H118075   5.731   5.401   0.389  2.3234  1.0181 -1.0150
 6044TIP3    H218076   5.735   5.490   0.511  1.4374  0.7419 -0.7859
 6045TIP3   OH218077   4.719   4.005   4.932  0.0141 -0.1414  0.0036
 6045TIP3    H118078   4.732   4.089   4.978  0.7173 -0.5661  0.6008
 6045TIP3    H218079   4.736   3.939   4.999  0.1219 -0.7717 -0.6434
 6046TIP3   OH218080   5.519   2.135   4.917  0.5788  0.5703  0.1429
 6046TIP3    H118081   5.564   2.064   4.964  0.8921  0.6650 -0.0136
 6046TIP3    H218082   5.531   2.212   4.973  0.2971  0.5153  0.2791
 6047TIP3   OH218083   2.145   3.647   3.829 -0.5424  0.7392 -0.0982
 6047TIP3    H118084   2.099   3.565   3.810 -1.1745  1.4239 -1.6664
 6047TIP3    H218085   2.100   3.682   3.905 -0.2805 -0.3484  0.5808
 6048TIP3   OH218086   2.698   0.736   4.424  0.3941  0.5761  1.1982
 6048TIP3    H118087   2.731   0.651   4.394 -0.4046 -0.6765  3.6308
 6048TIP3    H218088   2.688   0.787   4.343  1.4223 -1.4210 -0.2927
 6049TIP3   OH218089   0.217   1.721   2.277  0.0063 -0.1886 -0.0146
 6049TIP3    H118090   0.298   1.737   2.228  0.7118 -0.8851  0.9132
 6049TIP3    H218091   0.235   1.751   2.365 -1.1779  0.8097 -0.0799
 6050TIP3   OH218092   3.576   3.112   1.222 -0.5259 -0.1860  0.5577
 6050TIP3    H118093   3.508   3.179   1.210 -0.6948 -0.1442  1.6422
 6050TIP3    H218094   3.658   3.159   1.211 -0.6536 -0.1085 -0.1421
 6051TIP3   OH218095   0.623   5.183   3.849  0.0995 -0.3644 -0.3071
 6051TIP3    H118096   0.599   5.104   3.800 -0.0095 -1.2003  1.0228
 6051TIP3    H218097   0.715   5.171   3.872 -0.4476 -1.1432  1.6782
 6052TIP3   OH218098   2.023   6.662   2.036  0.5608  0.1341  0.7061
 6052TIP3    H118099   2.008   6.746   1.992  0.6810 -0.9404 -1.5320
 6052TIP3    H218100   2.115   6.643   2.020  0.0845 -1.3072 -0.5471
 6053TIP3   OH218101   3.266   3.309   1.691  0.7000 -0.2207  0.0519
 6053TIP3    H118102   3.182   3.342   1.721  0.6390 -0.1775 -0.1718
 6053TIP3    H218103   3.245   3.235   1.635  0.7545  0.5952 -1.0694
 6054TIP3   OH218104   6.963   7.170   6.057  0.1985  0.1085 -0.7102
 6054TIP3    H118105   6.967   7.187   5.963  0.8722 -1.0134 -0.8977
 6054TIP3    H218106   6.891   7.109   6.068  0.1567  0.1927 -0.4989
 6055TIP3   OH218107   3.967   4.192   5.499 -0.3661 -0.7608 -0.0469
 6055TIP3    H118108   3.991   4.129   5.431  0.9557  0.0931 -0.3921
 6055TIP3    H218109   4.048   4.205   5.549 -1.0263 -0.4989  0.9830
 6056TIP3   OH218110   1.203   3.573   1.209  0.0484  0.3519  0.5332
 6056TIP3    H118111   1.129   3.607   1.159 -0.5644  0.3411  1.4306
 6056TIP3    H218112   1.184   3.479   1.219  0.1714  0.3562  0.7984
 6057TIP3   OH218113   3.864   3.486   2.639 -0.0544 -0.6658  0.0242
 6057TIP3    H118114   3.879   3.531   2.556 -0.9648 -0.9485 -0.3084
 6057TIP3    H218115   3.910   3.402   2.630 -0.0697 -0.6551 -0.1568
 6058TIP3   OH218116   7.396   2.619   0.848 -0.1359  0.0648 -0.1797
 6058TIP3    H118117   7.392   2.692   0.910  0.6478  0.0450 -0.0878
 6058TIP3    H218118   7.486   2.586   0.857  0.6630  1.2705 -2.6581
 6059TIP3   OH218119   7.572   6.043   4.315 -0.0777  0.0976  0.0225
 6059TIP3    H118120   7.570   5.954   4.279  0.9565  0.0116  0.1518
 6059TIP3    H218121   7.658   6.050   4.356  1.5667  2.4694 -3.3725
 6060TIP3   OH218122   4.923   6.451   3.369  0.0171  0.2228  0.2041
 6060TIP3    H118123   4.952   6.490   3.452  0.0180  0.0757  0.2735
 6060TIP3    H218124   4.943   6.358   3.379 -0.2638  0.1578  0.1586
 6061TIP3   OH218125   3.141   1.294   2.852  0.5258  0.0428  0.0268
 6061TIP3    H118126   3.134   1.380   2.894 -0.2408 -0.5818  1.2424
 6061TIP3    H218127   3.066   1.245   2.886  1.1422 -1.2197 -0.3760
 6062TIP3   OH218128   4.688   4.136   3.956 -0.3595 -0.2190  0.3606
 6062TIP3    H118129   4.703   4.216   4.006  0.0924 -0.4277  0.5713
 6062TIP3    H218130   4.770   4.088   3.962  0.0479  0.1833 -1.4171
 6063TIP3   OH218131   0.580   3.149   1.038  0.3933 -0.1040 -0.0344
 6063TIP3    H118132   0.648   3.147   0.970  1.3143  0.8667  0.8090
 6063TIP3    H218133   0.629   3.145   1.121 -0.5040  1.4470  0.6113
 6064TIP3   OH218134   7.360   5.355   1.459 -0.3785  0.1116 -0.8471
 6064TIP3    H118135   7.282   5.409   1.444  0.3793  1.0476 -1.5695
 6064TIP3    H218136   7.352   5.283   1.397 -1.5906 -0.8646  0.3788
 6065TIP3   OH218137   5.305   0.381   3.536 -0.1235 -0.0864  0.3376
 6065TIP3    H118138   5.220   0.363   3.495 -0.1534 -0.2726  0.4818
 6065TIP3    H218139   5.368   0.371   3.465 -0.1212 -0.9359  0.4510
 6066TIP3   OH218140   8.183   5.508   1.746 -0.1035 -1.2222  0.0655
 6066TIP3    H118141   8.182   5.520   1.841  0.3874 -1.4327  0.0991
 6066TIP3    H218142   8.196   5.596   1.711 -0.6928 -1.0848  0.1750
 6067TIP3   OH218143   2.209   4.899   2.565  0.0846  0.5618  0.0666
 6067TIP3    H118144   2.167   4.837   2.505 -0.7895 -0.1450  1.3559
 6067TIP3    H218145   2.246   4.844   2.634  0.9935  1.3607  0.2409
 6068TIP3   OH218146   7.647   0.985   2.094 -0.2137  0.2635 -0.4599
 6068TIP3    H118147   7.696   0.925   2.149 -1.4779  1.6403  2.3685
 6068TIP3    H218148   7.680   1.072   2.117  1.3090  0.8827 -4.1688
 6069TIP3   OH218149   5.567   1.871   6.157  0.0016  0.0605  0.3325
 6069TIP3    H118150   5.474   1.850   6.166  0.2637 -0.7540  1.2490
 6069TIP3    H218151   5.579   1.950   6.209 -0.1294  0.0526  0.3746
 6070TIP3   OH218152   1.881   7.063   5.875 -0.3777 -0.2145 -0.3824
 6070TIP3    H118153   1.787   7.083   5.884  0.0449  1.7188  0.2081
 6070TIP3    H218154   1.900   7.077   5.783 -1.0464 -2.6750 -0.9747
 6071TIP3   OH218155   4.617   0.603   0.034  0.0431 -0.4718 -0.0472
 6071TIP3    H118156   4.552   0.629   0.099  1.3969  2.0246  0.4708
 6071TIP3    H218157   4.593   0.650  -0.045  0.2944 -0.8099 -0.3273
 6072TIP3   OH218158   0.071   5.314   3.538 -0.1763 -0.0998 -0.3589
 6072TIP3    H118159   0.059   5.399   3.496 -0.7760  0.1635  0.3207
 6072TIP3    H218160   0.057   5.332   3.631  1.4844 -0.5846  0.0248
 6073TIP3   OH218161   4.734   5.035   3.207  0.1608 -0.5129  0.2295
 6073TIP3    H118162   4.815   4.996   3.238  1.2525  1.0584 -0.5216
 6073TIP3    H218163   4.694   5.074   3.284 -2.2841 -4.9957  1.6113
 6074TIP3   OH218164   5.203   0.306   4.148 -0.0891  0.1188 -0.4816
 6074TIP3    H118165   5.244   0.259   4.220  1.1690  2.3961  0.3945
 6074TIP3    H218166   5.110   0.308   4.170  0.0569 -0.5318  0.2538
 6075TIP3   OH218167   7.981   6.712   3.043 -0.0693 -0.2359  0.1382
 6075TIP3    H118168   8.003   6.794   3.087 -1.7619  0.1674  0.2681
 6075TIP3    H218169   8.066   6.676   3.017  0.6807  2.1249 -0.9909
 6076TIP3   OH218170   8.121   3.832   4.855  0.0004  0.1867  0.1926
 6076TIP3    H118171   8.042   3.789   4.822 -0.2558  0.3808  0.5547
 6076TIP3    H218172   8.105   3.925   4.841  0.4988  0.1822 -0.4680
 6077TIP3   OH218173   1.303   2.734   3.233 -0.1091 -0.2181 -0.0853
 6077TIP3    H118174   1.322   2.653   3.281 -1.0237 -2.3877 -3.0613
 6077TIP3    H218175   1.208   2.729   3.217 -0.5548  2.4654  1.2073
 6078TIP3   OH218176   0.514   5.228   1.134  0.3327 -0.0987  0.1366
 6078TIP3    H118177   0.454   5.283   1.084  1.2451  1.5616  0.7954
 6078TIP3    H218178   0.467   5.209   1.215  0.9064  1.7869  0.9559
 6079TIP3   OH218179   7.354   4.583   3.245  0.6624  0.4852 -0.1895
 6079TIP3    H118180   7.381   4.671   3.272  0.9024  0.3712 -0.0642
 6079TIP3    H218181   7.281   4.562   3.304  0.5578  0.6274 -0.2665
 6080TIP3   OH218182   2.126   1.152   1.801  0.0496  0.1063  0.2968
 6080TIP3    H118183   2.151   1.084   1.863 -0.0256 -1.4904 -1.3379
 6080TIP3    H218184   2.195   1.219   1.809  1.2119 -1.0861  0.5787
 6081TIP3   OH218185   1.196   3.544   6.283 -0.2744 -0.0660  0.2912
 6081TIP3    H118186   1.150   3.532   6.366  1.8111 -0.5575  1.4478
 6081TIP3    H218187   1.137   3.506   6.218 -2.2043  0.7957  1.4201
 6082TIP3   OH218188   1.517   7.015   2.863  0.0798 -0.0146 -0.7759
 6082TIP3    H118189   1.587   6.951   2.851  0.1996  0.1027 -0.7036
 6082TIP3    H218190   1.439   6.972   2.829 -0.2104 -0.9052  0.9354
 6083TIP3   OH218191   6.310   5.127   1.753 -0.0389 -0.1299 -0.3691
 6083TIP3    H118192   6.316   5.168   1.667 -2.0142 -0.0472 -0.5213
 6083TIP3    H218193   6.334   5.036   1.738  2.0555  0.3980 -0.4911
 6084TIP3   OH218194   7.597   2.280   1.891  0.5809  0.3860 -0.2716
 6084TIP3    H118195   7.604   2.199   1.941  0.5255  1.0217  0.7985
 6084TIP3    H218196   7.687   2.300   1.866  0.9155  1.1318  1.3711
 6085TIP3   OH218197   5.702   0.332   2.302 -0.1984  0.1246  0.0599
 6085TIP3    H118198   5.787   0.321   2.260 -0.0025  0.3116  0.3962
 6085TIP3    H218199   5.679   0.245   2.334 -0.0256  0.1180  0.1666
 6086TIP3   OH218200   6.986   7.752   4.780  0.3018 -0.0177 -0.2545
 6086TIP3    H118201   7.047   7.747   4.707  0.7859  2.1150 -0.0386
 6086TIP3    H218202   6.899   7.758   4.739  0.4010 -0.6831 -0.5870
 6087TIP3   OH218203   0.872   2.149   1.054 -0.7172  0.1489 -0.4266
 6087TIP3    H118204   0.827   2.100   0.986 -1.0912  0.7326 -0.5978
 6087TIP3    H218205   0.822   2.131   1.134 -1.3269  0.8657 -0.6311
 6088TIP3   OH218206   3.109   4.389   0.724 -0.3236  0.3202 -0.6610
 6088TIP3    H118207   3.131   4.321   0.788 -0.6777 -0.5160 -1.3927
 6088TIP3    H218208   3.013   4.384   0.717 -0.3866  1.1179 -0.5046
 6089TIP3   OH218209   5.149   6.568   3.035  0.0385 -0.0108 -0.0097
 6089TIP3    H118210   5.059   6.579   3.067 -0.7022 -1.0388 -1.5912
 6089TIP3    H218211   5.204   6.584   3.111 -1.5071  0.1915  1.1114
 6090TIP3   OH218212   3.974   7.298   5.109  0.6952  0.6295 -0.0421
 6090TIP3    H118213   4.027   7.231   5.153  0.4977  1.5306  1.6257
 6090TIP3    H218214   4.027   7.377   5.114  0.4801  0.8525 -1.0959
 6091TIP3   OH218215   2.921   1.537   0.798  0.4016  0.0590  0.6397
 6091TIP3    H118216   2.897   1.616   0.751 -0.8623 -1.1717 -0.9029
 6091TIP3    H218217   2.840   1.486   0.804  0.9255 -0.6643  2.5731
 6092TIP3   OH218218   1.118   3.401   5.212 -0.0443 -0.0002  0.2377
 6092TIP3    H118219   1.038   3.434   5.171 -0.4889 -0.7906  0.4690
 6092TIP3    H218220   1.158   3.479   5.251 -0.8866  0.3403  0.4456
 6093TIP3   OH218221   1.008   6.304   1.808 -0.3205 -0.3758  0.0615
 6093TIP3    H118222   1.048   6.290   1.894 -0.2269  1.1137  0.2923
 6093TIP3    H218223   1.072   6.355   1.759 -1.0589  0.2402 -0.2943
 6094TIP3   OH218224   0.814   3.018   4.246  0.1828  0.4332 -0.2570
 6094TIP3    H118225   0.840   2.998   4.156  0.3737  0.1514 -0.1405
 6094TIP3    H218226   0.892   3.057   4.286 -0.3339  1.8968 -0.6268
 6095TIP3   OH218227   6.438   5.697   4.234  0.4224  0.5132  0.4501
 6095TIP3    H118228   6.499   5.623   4.231  0.9973  1.0049 -1.6027
 6095TIP3    H218229   6.371   5.671   4.297  0.7829 -1.6129  0.0298
 6096TIP3   OH218230   2.299   2.745   3.163 -1.1296 -0.0899  0.4682
 6096TIP3    H118231   2.362   2.689   3.209 -1.2289  1.1060  2.1625
 6096TIP3    H218232   2.225   2.687   3.145 -0.6318 -0.8710  0.8784
 6097TIP3   OH218233   0.131   5.445   6.023 -0.2244 -0.6534 -0.0532
 6097TIP3    H118234   0.058   5.383   6.025 -0.7159 -0.1030 -0.5606
 6097TIP3    H218235   0.149   5.459   5.930 -0.9301  0.8956  0.0145
 6098TIP3   OH218236   7.045   7.378   3.250  0.2623 -0.0581  0.7953
 6098TIP3    H118237   7.006   7.388   3.338 -1.1102  1.7787  0.0425
 6098TIP3    H218238   6.977   7.334   3.199 -0.2174  1.6151 -0.0887
 6099TIP3   OH218239   1.101   3.066   1.731 -0.2130  0.2376 -0.2005
 6099TIP3    H118240   1.188   3.038   1.760 -0.3953  0.7924  0.9371
 6099TIP3    H218241   1.106   3.067   1.635  0.4719 -1.4747 -0.2122
 6100TIP3   OH218242   4.128   6.333   1.447 -0.4470 -0.2997 -0.3830
 6100TIP3    H118243   4.131   6.252   1.397  2.3899  0.1397 -1.0312
 6100TIP3    H218244   4.065   6.388   1.400 -1.9014 -1.8245 -0.3119
 6101TIP3   OH218245   5.612   7.132   0.108 -0.5632 -0.2218  0.2371
 6101TIP3    H118246   5.640   7.192   0.177  2.6164 -0.7359 -0.4346
 6101TIP3    H218247   5.577   7.056   0.155  1.1428 -0.3870  1.3235
 6102TIP3   OH218248   6.085   2.937   6.324 -0.6037 -0.1306 -0.0953
 6102TIP3    H118249   6.051   2.897   6.404 -0.9357 -0.3569 -0.3456
 6102TIP3    H218250   6.009   2.981   6.285 -0.2764  0.6233  0.0992
 6103TIP3   OH218251   6.693   1.971   1.278  0.3556 -0.0542  0.7881
 6103TIP3    H118252   6.749   2.032   1.326  1.4561 -0.6542  0.3130
 6103TIP3    H218253   6.749   1.896   1.261 -0.6561 -0.7401  0.4189
 6104TIP3   OH218254   5.094   1.001   3.414 -0.4523  0.8668  0.6025
 6104TIP3    H118255   5.183   0.995   3.447 -0.2231 -0.3739 -0.1581
 6104TIP3    H218256   5.082   0.921   3.363 -2.1979  0.7377  1.1540
 6105TIP3   OH218257   7.624   1.194   4.007 -0.2071  0.0200 -0.1189
 6105TIP3    H118258   7.691   1.173   3.942 -0.4496  0.0258 -0.3719
 6105TIP3    H218259   7.622   1.289   4.009 -1.5876  0.0542 -1.5601
 6106TIP3   OH218260   1.984   0.965   1.038  0.1373 -0.0476  0.0102
 6106TIP3    H118261   2.011   0.926   0.955  0.5471 -1.6293  0.8564
 6106TIP3    H218262   2.004   1.058   1.027 -2.0128  0.2467 -2.5283
 6107TIP3   OH218263   7.234   5.769   0.618  0.5307 -0.1492  0.0992
 6107TIP3    H118264   7.272   5.687   0.588  0.4375  0.2752 -1.2299
 6107TIP3    H218265   7.161   5.785   0.559 -0.7768 -0.1516  1.6463
 6108TIP3   OH218266   3.601   4.788   0.806 -0.2092  0.2683 -0.1623
 6108TIP3    H118267   3.645   4.728   0.745 -0.7020  0.3572 -0.6204
 6108TIP3    H218268   3.562   4.731   0.872  0.4606  0.1802  0.1687
 6109TIP3   OH218269   0.350   6.073   6.594  0.2331  0.5064 -0.4564
 6109TIP3    H118270   0.269   6.085   6.643 -1.1011  1.7636 -2.8240
 6109TIP3    H218271   0.338   5.991   6.547  0.3124  0.7285 -0.8676
 6110TIP3   OH218272   1.425   3.895   4.841 -0.6282  0.4436 -0.1280
 6110TIP3    H118273   1.420   3.968   4.904 -2.1822  1.2567 -1.1330
 6110TIP3    H218274   1.344   3.901   4.791  0.7177  0.0777 -2.5056
 6111TIP3   OH218275   4.946   3.687   0.705  0.5761  0.6217 -0.4782
 6111TIP3    H118276   4.948   3.750   0.632  0.2207 -0.7160 -1.6801
 6111TIP3    H218277   5.039   3.671   0.724  0.6903  2.2100  0.5126
 6112TIP3   OH218278   1.781   2.032   0.862 -0.1949 -0.0561 -0.3951
 6112TIP3    H118279   1.762   1.946   0.823 -1.3449 -1.1523  2.3361
 6112TIP3    H218280   1.700   2.082   0.851  1.0498  1.5463 -3.6943
 6113TIP3   OH218281   0.035   6.164   4.394  0.2404 -0.4148 -0.2898
 6113TIP3    H118282  -0.058   6.142   4.393 -0.1177  0.9472  0.4846
 6113TIP3    H218283   0.059   6.171   4.301 -0.8472  0.8062 -0.5063
 6114TIP3   OH218284   1.234   6.929   5.412 -0.3781 -0.6802  0.8042
 6114TIP3    H118285   1.288   6.951   5.487 -1.3166  0.4257  1.1819
 6114TIP3    H218286   1.216   6.835   5.421 -1.1758 -0.3945  2.4370
 6115TIP3   OH218287   2.641   7.186   4.879  0.4807  0.3006  0.2783
 6115TIP3    H118288   2.620   7.094   4.891  1.6351 -0.4239 -2.4002
 6115TIP3    H218289   2.573   7.219   4.821  0.4734  0.9604  0.6493
 6116TIP3   OH218290   6.523   1.985   0.144  0.4973 -0.5662  0.0120
 6116TIP3    H118291   6.467   2.026   0.209  0.0992  0.3202 -0.8637
 6116TIP3    H218292   6.533   2.051   0.075  0.6146 -1.5832 -0.9851
 6117TIP3   OH218293   0.617   6.031   4.806 -0.1608  0.5421  0.8047
 6117TIP3    H118294   0.690   6.063   4.859  1.5563 -0.5593 -0.7503
 6117TIP3    H218295   0.567   6.109   4.784  1.6258  1.6362  0.3915
 6118TIP3   OH218296   4.452   0.048   3.684  0.1922 -0.1444  0.4978
 6118TIP3    H118297   4.512  -0.002   3.629  3.1513  4.1224 -0.6436
 6118TIP3    H218298   4.505   0.077   3.758 -2.2114 -0.9739  2.7291
 6119TIP3   OH218299   3.927   0.097   3.866 -0.0633  0.5327  0.1104
 6119TIP3    H118300   3.879   0.179   3.861 -0.4598  0.2335 -1.6448
 6119TIP3    H218301   4.019   0.123   3.865 -0.1861  0.9773  0.2244
 6120TIP3   OH218302   7.594   2.650   3.207 -0.2474  0.3175 -0.6009
 6120TIP3    H118303   7.592   2.706   3.130  0.2096  1.5863  0.2833
 6120TIP3    H218304   7.511   2.668   3.252 -0.7062 -0.7348 -1.0022
 6121TIP3   OH218305   7.550   1.750   4.520  0.0316  0.6213 -0.1649
 6121TIP3    H118306   7.478   1.744   4.457 -0.2404 -2.7427  0.2833
 6121TIP3    H218307   7.513   1.797   4.594 -1.5864 -0.5489 -0.1739
 6122TIP3   OH218308   0.901   2.135   4.873 -0.1893 -0.2072  0.4788
 6122TIP3    H118309   0.985   2.179   4.888 -1.2871  1.8358  1.1064
 6122TIP3    H218310   0.872   2.169   4.788 -1.0185  0.2589  0.9359
 6123TIP3   OH218311   6.122   2.070   3.631  0.5125 -0.3861  0.1557
 6123TIP3    H118312   6.074   2.130   3.573  1.5608  0.9476  0.6205
 6123TIP3    H218313   6.053   2.025   3.680 -0.3460 -0.5843 -1.1603
 6124TIP3   OH218314   0.846   1.860   0.701  0.1281  0.3206 -0.1621
 6124TIP3    H118315   0.894   1.777   0.704 -0.4388 -0.0389  3.6996
 6124TIP3    H218316   0.754   1.834   0.691  0.1523  0.7296 -1.8553
 6125TIP3   OH218317   4.069   4.769   5.374 -0.3832 -0.2899  0.4269
 6125TIP3    H118318   4.156   4.775   5.335 -0.3131 -0.2787  0.5859
 6125TIP3    H218319   4.059   4.851   5.422 -0.5421 -0.2242  0.2850
 6126TIP3   OH218320   7.335   6.927   5.068 -0.2853 -0.4418  0.0078
 6126TIP3    H118321   7.241   6.913   5.076 -0.3135 -0.4548 -0.3336
 6126TIP3    H218322   7.372   6.884   5.144 -0.5931 -0.0335  0.3959
 6127TIP3   OH218323   2.505   1.059   4.439 -0.4014  0.0473 -0.4953
 6127TIP3    H118324   2.495   0.995   4.510  1.3701  0.3169  0.0327
 6127TIP3    H218325   2.530   1.006   4.363 -3.5409 -0.4142 -1.3766
 6128TIP3   OH218326   2.554   3.360   6.558 -0.0768 -0.3909  0.1337
 6128TIP3    H118327   2.624   3.373   6.494  0.1277 -0.1559  0.4026
 6128TIP3    H218328   2.598   3.364   6.643 -0.2790 -1.1545  0.2739
 6129TIP3   OH218329   8.270   7.537   1.847  0.2988  0.0475 -0.2527
 6129TIP3    H118330   8.318   7.519   1.928  0.2366 -0.4713 -0.3235
 6129TIP3    H218331   8.179   7.543   1.874  0.1874 -0.8766 -0.3777
 6130TIP3   OH218332   1.534   3.266   0.157  0.8533 -1.1687  0.4494
 6130TIP3    H118333   1.518   3.265   0.251  0.3041 -1.6648  0.3547
 6130TIP3    H218334   1.595   3.339   0.144 -1.2207  0.7497  0.8339
 6131TIP3   OH218335   2.442   5.483   3.042  0.2610  0.0513  0.3871
 6131TIP3    H118336   2.424   5.461   2.951 -0.6799  2.4910 -0.0953
 6131TIP3    H218337   2.358   5.514   3.076  1.6483  4.6398  0.3161
 6132TIP3   OH218338   4.967   3.146   6.757  0.6414 -0.1445 -0.4790
 6132TIP3    H118339   5.034   3.082   6.779  0.4646 -0.7168 -1.5649
 6132TIP3    H218340   4.979   3.163   6.664  0.8040  1.5593 -0.1890
 6133TIP3   OH218341   1.795   6.258   4.195  0.4591 -0.3474  0.2567
 6133TIP3    H118342   1.795   6.326   4.127 -0.6292 -0.0608  0.5163
 6133TIP3    H218343   1.845   6.186   4.157  4.0893  1.5327  0.9796
 6134TIP3   OH218344   7.647   7.707   6.202 -0.1983 -0.7178  0.9361
 6134TIP3    H118345   7.655   7.748   6.288  0.9757 -0.0644  0.5427
 6134TIP3    H218346   7.702   7.761   6.145  0.2046 -1.9853  0.0856
 6135TIP3   OH218347   1.322   7.417   6.695  0.0507  0.8265 -0.2114
 6135TIP3    H118348   1.296   7.439   6.605  0.8228  0.1598 -0.6077
 6135TIP3    H218349   1.346   7.324   6.690 -0.1573  0.7144  0.7496
 6136TIP3   OH218350   5.402   0.853   4.858  0.0491 -0.5096 -0.0045
 6136TIP3    H118351   5.385   0.861   4.763 -2.0248  3.9504  0.4629
 6136TIP3    H218352   5.315   0.839   4.896  0.4570  0.5394  1.3742
 6137TIP3   OH218353   6.551   4.053   5.965  0.6480 -0.2522  0.0120
 6137TIP3    H118354   6.480   4.079   5.907 -0.6651  0.6137  1.8870
 6137TIP3    H218355   6.623   4.031   5.907 -1.0185 -0.8086 -1.9674
 6138TIP3   OH218356   1.062   1.021   4.785 -0.0283 -0.3320  0.3629
 6138TIP3    H118357   0.970   1.040   4.770 -0.4704 -1.3665  1.5609
 6138TIP3    H218358   1.071   1.016   4.880  1.4601  0.5994  0.3051
 6139TIP3   OH218359   5.036   6.168   4.592  0.3494 -0.1839 -0.1388
 6139TIP3    H118360   4.950   6.166   4.551  1.1223 -2.2245 -1.8679
 6139TIP3    H218361   5.018   6.170   4.686 -1.5879 -0.7197 -0.4593
 6140TIP3   OH218362   6.601   5.984   3.942 -0.3008 -0.0232 -0.4460
 6140TIP3    H118363   6.578   6.064   3.895  1.2273  1.0553  0.5187
 6140TIP3    H218364   6.632   6.015   4.027 -1.7775 -1.8199  0.8256
 6141TIP3   OH218365   1.781   2.946   1.645  0.5371  0.3311  0.1348
 6141TIP3    H118366   1.694   2.910   1.660  0.2679  1.3168  1.0566
 6141TIP3    H218367   1.765   3.033   1.609  1.0912  1.1922  1.8925
 6142TIP3   OH218368   3.086   1.416   0.614 -0.6920  1.2615  0.1590
 6142TIP3    H118369   3.034   1.452   0.686 -1.2756 -0.5430  0.7151
 6142TIP3    H218370   3.081   1.482   0.545 -4.0432  1.0824  0.0477
 6143TIP3   OH218371   4.930   5.735   2.224  0.2703  0.4077 -0.1549
 6143TIP3    H118372   4.898   5.794   2.155 -1.4012  0.7580  0.8413
 6143TIP3    H218373   4.850   5.708   2.270  1.2541 -0.6111  1.0057
 6144TIP3   OH218374   2.239   2.075   3.192  0.0013  0.0967  0.5503
 6144TIP3    H118375   2.246   2.089   3.286  1.1043 -1.1935  0.6766
 6144TIP3    H218376   2.148   2.049   3.179 -0.0176 -0.2575  1.3386
 6145TIP3   OH218377   6.167   5.194   4.284  0.0764 -0.4377 -0.0673
 6145TIP3    H118378   6.147   5.288   4.275  1.2670  0.3185  3.5803
 6145TIP3    H218379   6.082   5.153   4.298 -0.2239  0.7043  1.7999
 6146TIP3   OH218380   6.566   7.547   4.849  0.2641 -0.5551 -0.1364
 6146TIP3    H118381   6.515   7.624   4.823 -0.0778 -0.1394  1.6455
 6146TIP3    H218382   6.553   7.484   4.777 -0.8436  0.4101 -0.8155
 6147TIP3   OH218383   4.472   6.413   3.735  0.2557 -0.2492 -0.3070
 6147TIP3    H118384   4.414   6.383   3.666  0.5940  0.3584 -0.8680
 6147TIP3    H218385   4.437   6.499   3.760  0.1770 -0.4320  0.2314
 6148TIP3   OH218386   7.645   0.073   5.241  0.3807 -0.2393 -0.4074
 6148TIP3    H118387   7.705   0.109   5.175  0.7487 -2.2515 -1.2297
 6148TIP3    H218388   7.565   0.124   5.229  1.1508  0.9293 -0.8662
 6149TIP3   OH218389   2.276   6.325   4.502  0.2323 -0.1259 -0.0755
 6149TIP3    H118390   2.215   6.357   4.569  0.7079  0.6546 -0.0056
 6149TIP3    H218391   2.292   6.234   4.527 -1.9479 -0.8060 -0.8615
 6150TIP3   OH218392   2.941   0.463   0.706  0.2662  0.5856 -0.5323
 6150TIP3    H118393   2.866   0.458   0.647  0.2659  0.8735 -0.5555
 6150TIP3    H218394   2.906   0.437   0.792  0.4273 -0.5646 -0.7935
 6151TIP3   OH218395   7.883   2.671   0.679 -0.4117 -0.0738  0.0814
 6151TIP3    H118396   7.795   2.708   0.685 -0.0072  0.8359  0.6530
 6151TIP3    H218397   7.869   2.581   0.649 -1.5276  0.0810  0.0839
 6152TIP3   OH218398   5.656   0.650   5.997 -0.3493 -0.3022  0.3268
 6152TIP3    H118399   5.709   0.614   6.067  1.1549  0.7806 -0.2123
 6152TIP3    H218400   5.636   0.739   6.025  0.1614  0.0992 -0.5575
 6153TIP3   OH218401   6.118   6.677   4.910 -0.7924  0.1128  0.2708
 6153TIP3    H118402   6.128   6.772   4.918 -4.1631  0.5631  0.4901
 6153TIP3    H218403   6.147   6.643   4.994 -0.4599  1.0565  0.5502
 6154TIP3   OH218404   6.799   5.889   3.656  0.2859 -0.6609  0.1930
 6154TIP3    H118405   6.836   5.946   3.724 -1.1515  2.3264 -1.2943
 6154TIP3    H218406   6.721   5.851   3.698  1.1533 -1.4141  1.1659
 6155TIP3   OH218407   2.820   5.116   2.748 -0.0534  0.1415  0.6445
 6155TIP3    H118408   2.901   5.167   2.760  0.3218  0.2492 -1.6932
 6155TIP3    H218409   2.783   5.151   2.666 -0.2936 -2.6180 -0.5215
 6156TIP3   OH218410   2.289   3.107   1.948  0.2471 -0.1282 -0.3906
 6156TIP3    H118411   2.299   3.012   1.958 -0.0798 -0.2317 -1.0073
 6156TIP3    H218412   2.201   3.117   1.912 -0.3003  0.5005  1.0430
 6157TIP3   OH218413   3.331   1.840   2.405 -0.3682 -0.2607 -0.2085
 6157TIP3    H118414   3.305   1.826   2.497 -1.2327 -0.5810 -0.4905
 6157TIP3    H218415   3.399   1.774   2.390 -1.1089 -1.0625 -0.1525
 6158TIP3   OH218416   2.407   4.745   5.399  0.4817 -0.3940  0.4002
 6158TIP3    H118417   2.407   4.724   5.306  0.7428 -2.2161  0.7632
 6158TIP3    H218418   2.480   4.693   5.435 -0.0360 -0.2477  1.7187
 6159TIP3   OH218419   4.308   7.580   0.673  0.0441 -0.0560  0.4792
 6159TIP3    H118420   4.323   7.604   0.765  1.3311  0.6829  0.0991
 6159TIP3    H218421   4.281   7.662   0.631  1.7041  0.1742 -0.2418
 6160TIP3   OH218422   4.615   3.897   3.186 -0.7294  0.3165 -0.9179
 6160TIP3    H118423   4.679   3.889   3.115 -1.4414  0.4627 -1.5947
 6160TIP3    H218424   4.604   3.992   3.197  1.8412  0.4340  1.6939
 6161TIP3   OH218425   4.287   2.988   2.083  0.0523 -0.1571  0.3552
 6161TIP3    H118426   4.368   2.941   2.099 -0.3214 -0.4326  1.5635
 6161TIP3    H218427   4.305   3.043   2.007  0.6016 -2.0052 -0.9091
 6162TIP3   OH218428   5.680   5.312   3.420 -0.2898  0.0854  0.3364
 6162TIP3    H118429   5.587   5.309   3.397 -0.6796  1.0925  1.6370
 6162TIP3    H218430   5.696   5.404   3.442  0.6517 -0.3285  1.5046
 6163TIP3   OH218431   3.065   2.123   6.278 -0.1067 -0.4720  0.0629
 6163TIP3    H118432   3.146   2.152   6.236 -0.1049 -1.8951 -0.9857
 6163TIP3    H218433   2.998   2.183   6.246  0.5369  0.9183  1.1848
 6164TIP3   OH218434   7.164   7.473   4.811 -0.2086  0.0234 -0.1787
 6164TIP3    H118435   7.188   7.566   4.817 -1.2839  0.3873 -1.1491
 6164TIP3    H218436   7.190   7.447   4.722  0.2744 -0.6780  0.1536
 6165TIP3   OH218437   1.357   5.086   5.145 -0.0842  0.2050  0.8357
 6165TIP3    H118438   1.403   5.170   5.136  0.4416 -0.2021 -0.5124
 6165TIP3    H218439   1.415   5.033   5.199  1.4095 -0.5080 -1.3346
 6166TIP3   OH218440   2.594   5.163   2.585  0.3794  0.0856 -0.4929
 6166TIP3    H118441   2.602   5.224   2.511 -0.4286  1.0743  0.2099
 6166TIP3    H218442   2.593   5.219   2.662 -1.5031 -0.7015  0.1168
 6167TIP3   OH218443   3.901   6.820   2.589  0.0059 -0.3308 -0.0945
 6167TIP3    H118444   3.831   6.832   2.524  0.4320 -0.2694 -0.5444
 6167TIP3    H218445   3.893   6.728   2.616 -1.2084  0.0468  0.9843
 6168TIP3   OH218446   6.043   0.286   0.247  0.3139 -0.1228 -0.1178
 6168TIP3    H118447   6.036   0.222   0.177 -1.9152 -0.8187  0.6601
 6168TIP3    H218448   5.984   0.254   0.316  1.1210  1.4072  1.3716
 6169TIP3   OH218449   7.364   1.788   6.490  0.4231 -0.2141  0.4932
 6169TIP3    H118450   7.380   1.880   6.509  0.4746  0.0823 -0.8643
 6169TIP3    H218451   7.327   1.788   6.402  2.1893 -1.6095 -0.3183
 6170TIP3   OH218452   1.522   6.517   5.550  0.1948  0.9191  0.0694
 6170TIP3    H118453   1.493   6.578   5.482 -1.1546  0.6024  0.3474
 6170TIP3    H218454   1.597   6.562   5.591  0.1932  1.6991 -0.7392
 6171TIP3   OH218455   2.837   2.115   6.735  0.2100 -0.5520  0.2907
 6171TIP3    H118456   2.888   2.036   6.748  1.6166  0.1684 -0.6263
 6171TIP3    H218457   2.776   2.117   6.809  2.1408 -0.9481  1.9475
 6172TIP3   OH218458   2.238   0.401   2.944  0.1508  0.4194 -0.6566
 6172TIP3    H118459   2.287   0.452   3.008  1.8232  0.4057 -1.8424
 6172TIP3    H218460   2.219   0.319   2.988 -1.2673  1.4545  0.7647
 6173TIP3   OH218461   7.461   0.543   6.686 -0.0491 -0.1955 -0.7534
 6173TIP3    H118462   7.444   0.550   6.592  1.5284 -2.9142 -1.3412
 6173TIP3    H218463   7.556   0.546   6.694 -0.0842 -1.3639  0.5696
 6174TIP3   OH218464   3.658   1.603   1.938  0.4291  0.3844  0.9229
 6174TIP3    H118465   3.681   1.685   1.980  0.3768  1.6520 -1.3787
 6174TIP3    H218466   3.563   1.603   1.936  0.4382  0.4957  0.4934
 6175TIP3   OH218467   3.488   0.295   6.570 -0.1228  0.4597 -0.0376
 6175TIP3    H118468   3.421   0.338   6.623  0.4093  0.7910  0.3774
 6175TIP3    H218469   3.490   0.205   6.604 -0.6038  0.3506 -0.2935
 6176TIP3   OH218470   2.880   4.371   2.200  0.1204 -0.0339  0.3187
 6176TIP3    H118471   2.882   4.461   2.168  0.6725 -0.2595 -0.2973
 6176TIP3    H218472   2.844   4.320   2.127  0.9151 -0.4773  0.2297
 6177TIP3   OH218473   6.077   3.910   5.258  0.1508  0.6663 -0.2033
 6177TIP3    H118474   6.144   3.974   5.278  0.3340  0.6132 -0.6283
 6177TIP3    H218475   6.097   3.881   5.169 -0.8573  1.1729 -0.6084
 6178TIP3   OH218476   5.814   6.319   2.852 -0.4372  0.6259 -0.4560
 6178TIP3    H118477   5.730   6.288   2.886 -0.1786  1.8033  1.4004
 6178TIP3    H218478   5.809   6.305   2.757 -1.3072 -2.6172 -0.0396
 6179TIP3   OH218479   4.340   7.438   5.407  0.9300 -0.4400 -0.1200
 6179TIP3    H118480   4.288   7.517   5.422  1.5822 -0.1596  0.8029
 6179TIP3    H218481   4.384   7.454   5.323  2.0129  0.7469  0.6376
 6180TIP3   OH218482   2.882   2.340   3.716  0.1317 -0.2620  0.6281
 6180TIP3    H118483   2.893   2.337   3.811 -0.5013  1.1379  0.7626
 6180TIP3    H218484   2.790   2.365   3.703  0.3373  0.0480 -0.3519
 6181TIP3   OH218485   7.106   5.714   3.804  0.4753 -0.5807  0.0348
 6181TIP3    H118486   7.135   5.626   3.826  2.6102 -0.0894 -0.6237
 6181TIP3    H218487   7.182   5.770   3.819 -0.9322  1.2474  0.8419
 6182TIP3   OH218488   4.169   0.893   0.244 -0.6843 -0.0782  0.7540
 6182TIP3    H118489   4.161   0.846   0.327 -2.0651 -3.4613 -1.0966
 6182TIP3    H218490   4.091   0.948   0.240 -1.3491 -0.9767  1.0970
 6183TIP3   OH218491   3.171   2.389   3.495 -0.2802 -0.2421 -0.6910
 6183TIP3    H118492   3.104   2.456   3.508  0.3582  0.0695  1.2719
 6183TIP3    H218493   3.231   2.426   3.430 -0.3911  0.7415 -0.2422
 6184TIP3   OH218494   4.646   1.603   6.314 -0.1099  0.1392  0.0216
 6184TIP3    H118495   4.701   1.659   6.369  0.4927  0.0288 -0.4572
 6184TIP3    H218496   4.618   1.532   6.372 -0.2498  0.5165  0.4259
 6185TIP3   OH218497   7.935   1.937   1.043  0.3788  0.1173  0.8158
 6185TIP3    H118498   7.882   1.929   0.964 -0.9471 -0.7464  1.7624
 6185TIP3    H218499   7.903   1.868   1.101  1.1012  0.9446  2.2533
 6186TIP3   OH218500   2.059   4.789   0.838 -0.4216  0.2172  0.5425
 6186TIP3    H118501   2.005   4.764   0.763  0.1247 -0.2940  0.2984
 6186TIP3    H218502   1.997   4.815   0.906 -0.9587 -0.1000  0.1824
 6187TIP3   OH218503   1.243   6.518   6.770 -0.7914 -0.4128 -0.1767
 6187TIP3    H118504   1.220   6.476   6.687  0.9670 -3.1325  0.5959
 6187TIP3    H218505   1.209   6.459   6.838 -2.0987  1.6954  1.1248
 6188TIP3   OH218506   6.016   2.139   1.845  0.4701 -0.4654  0.1638
 6188TIP3    H118507   6.054   2.221   1.877 -1.3238  1.1379 -1.5258
 6188TIP3    H218508   5.985   2.094   1.923  1.5134  0.4493  1.1359
 6189TIP3   OH218509   6.162   6.446   6.279  0.1674  0.5794 -0.7694
 6189TIP3    H118510   6.136   6.394   6.204  1.5226  0.1738 -0.9870
 6189TIP3    H218511   6.105   6.523   6.276 -1.0720 -0.3228 -1.1044
 6190TIP3   OH218512   1.670   2.298   5.460  0.1632  0.6033 -0.5206
 6190TIP3    H118513   1.732   2.303   5.386  0.3971 -0.0605 -0.3790
 6190TIP3    H218514   1.688   2.213   5.500 -1.3725  0.0515 -0.9408
 6191TIP3   OH218515   4.598   3.729   6.203  0.2736 -0.6007  0.0674
 6191TIP3    H118516   4.577   3.637   6.189  0.2307 -0.4653 -0.8123
 6191TIP3    H218517   4.543   3.776   6.140 -0.2243  0.0836  0.9839
 6192TIP3   OH218518   3.878   2.822   0.505  0.3761  0.2672 -0.0072
 6192TIP3    H118519   3.891   2.785   0.592 -1.6146 -0.2014  0.1529
 6192TIP3    H218520   3.935   2.771   0.448  1.6697  0.5484  0.9763
 6193TIP3   OH218521   3.236   1.994   5.562  0.5759 -0.4678 -0.0764
 6193TIP3    H118522   3.201   1.966   5.478 -0.1734  0.0927  0.0382
 6193TIP3    H218523   3.164   1.983   5.623 -0.5123  3.5231 -0.3752
 6194TIP3   OH218524   1.029   2.040   1.854  0.2923  0.0618  0.0298
 6194TIP3    H118525   1.039   2.122   1.902  0.6676 -0.2168  0.4424
 6194TIP3    H218526   1.034   1.973   1.922  0.8026 -0.3403 -0.4006
 6195TIP3   OH218527   0.557   7.581   5.331 -0.2760 -0.1816  0.2506
 6195TIP3    H118528   0.482   7.557   5.385  0.8598 -1.3790  1.3573
 6195TIP3    H218529   0.607   7.643   5.384 -0.8373  1.2593 -0.8056
 6196TIP3   OH218530   5.418   6.801   2.186 -0.8974 -0.2346  0.1265
 6196TIP3    H118531   5.389   6.867   2.123  0.6294 -0.8066 -1.2530
 6196TIP3    H218532   5.381   6.719   2.153 -0.4109 -0.4826  0.1898
 6197TIP3   OH218533   6.021   6.941   1.947  0.7728 -0.0007  0.5386
 6197TIP3    H118534   5.955   6.972   2.010 -1.9594  0.3226 -2.2175
 6197TIP3    H218535   6.067   7.020   1.920  0.4160  0.1966  0.4988
 6198TIP3   OH218536   3.017   0.798   6.344  0.3785  0.1375 -0.1021
 6198TIP3    H118537   3.048   0.720   6.297 -0.1090 -0.6391  0.8291
 6198TIP3    H218538   3.097   0.843   6.371  0.6855 -0.5551  0.1827
 6199TIP3   OH218539   0.602   4.758   5.226  0.1054  0.0590  0.4123
 6199TIP3    H118540   0.606   4.794   5.315 -2.4267 -2.3025  1.6184
 6199TIP3    H218541   0.690   4.726   5.209  0.4665 -0.1217  2.3915
 6200TIP3   OH218542   3.675   1.270   1.618 -0.1911  0.6732  0.2513
 6200TIP3    H118543   3.606   1.220   1.661 -0.5168  3.0836  2.7896
 6200TIP3    H218544   3.743   1.206   1.599 -0.5452 -0.7909  3.3922
 6201TIP3   OH218545   3.942   6.944   5.071 -0.1350  0.3026 -0.1198
 6201TIP3    H118546   4.022   6.897   5.094 -0.3939  0.1526  0.4690
 6201TIP3    H218547   3.948   6.955   4.976  0.4066 -0.0308 -0.1285
 6202TIP3   OH218548   3.716   2.649   3.058 -0.5855  0.1229  0.5740
 6202TIP3    H118549   3.623   2.670   3.062 -0.1838  2.1100  0.4509
 6202TIP3    H218550   3.734   2.641   2.964 -0.7051 -0.7278  0.6144
 6203TIP3   OH218551   4.532   2.037   1.845 -0.5277  0.0169  0.6505
 6203TIP3    H118552   4.561   2.124   1.871 -1.0028  0.3190  0.1774
 6203TIP3    H218553   4.459   2.052   1.785  1.1085 -0.6134 -1.6238
 6204TIP3   OH218554   1.156   3.403   1.446  0.0390  0.0660  0.4849
 6204TIP3    H118555   1.135   3.374   1.357 -0.8019 -0.0763  0.7186
 6204TIP3    H218556   1.212   3.334   1.481 -1.4732 -1.0522  0.8341
 6205TIP3   OH218557   4.759   1.382   3.410 -0.1195  0.1217 -0.0904
 6205TIP3    H118558   4.840   1.338   3.386 -0.6964 -0.3518 -1.2665
 6205TIP3    H218559   4.691   1.317   3.395 -1.1073  1.5858 -2.7781
 6206TIP3   OH218560   1.163   5.217   6.379  0.7683  1.0009  0.0507
 6206TIP3    H118561   1.094   5.208   6.313  0.7420 -1.5273  0.3211
 6206TIP3    H218562   1.119   5.252   6.456 -0.2618 -0.5806  0.2167
 6207TIP3   OH218563   7.198   0.353   5.443 -0.0956 -0.3607 -0.2721
 6207TIP3    H118564   7.132   0.418   5.421  0.3002 -0.0884 -0.6647
 6207TIP3    H218565   7.234   0.325   5.359  1.1772  0.4215 -0.0095
 6208TIP3   OH218566   0.085   7.510   3.690  0.0014 -0.4650  0.1420
 6208TIP3    H118567   0.164   7.467   3.657  0.4176 -0.5208  1.1772
 6208TIP3    H218568   0.102   7.603   3.679  0.3773 -0.4608  0.6921
 6209TIP3   OH218569   2.901   6.560   5.628 -0.2061  0.2696  0.4505
 6209TIP3    H118570   2.968   6.492   5.631  1.6880  1.7492 -2.6537
 6209TIP3    H218571   2.818   6.513   5.637  0.9497 -2.6158 -2.2906
 6210TIP3   OH218572   4.239   7.203   5.231  0.2542  0.2844  0.4337
 6210TIP3    H118573   4.315   7.192   5.174  0.0893 -1.3227  0.4713
 6210TIP3    H218574   4.224   7.297   5.233  1.1146  0.4823 -1.0446
 6211TIP3   OH218575   0.923   3.776   0.889  0.0636 -0.8044 -0.1286
 6211TIP3    H118576   0.832   3.787   0.861  0.2051  1.5720  0.1403
 6211TIP3    H218577   0.958   3.865   0.894  1.6562 -1.4431  2.2820
 6212TIP3   OH218578   7.759   1.212   3.454  0.7277 -0.2137  0.0412
 6212TIP3    H118579   7.693   1.193   3.388  0.0188 -1.3641  1.0377
 6212TIP3    H218580   7.772   1.307   3.448  1.0083 -0.3373 -2.0107
 6213TIP3   OH218581   7.128   7.323   1.988  0.1437 -0.3884 -0.1354
 6213TIP3    H118582   7.057   7.387   1.991 -0.9258 -1.5591  0.6210
 6213TIP3    H218583   7.188   7.350   2.057  0.3962  0.5581 -0.7181
 6214TIP3   OH218584   0.623   1.343   3.296  0.3544 -0.3094 -0.6431
 6214TIP3    H118585   0.710   1.329   3.332  0.3894  1.4514  0.0805
 6214TIP3    H218586   0.636   1.341   3.201  1.1962 -0.0978 -0.5428
 6215TIP3   OH218587   6.402   4.531   3.588  0.2221 -0.5254  0.1875
 6215TIP3    H118588   6.363   4.445   3.597  1.1443 -0.7708  3.1149
 6215TIP3    H218589   6.350   4.587   3.647  0.3406  0.6529 -0.7913
 6216TIP3   OH218590   5.607   0.185   1.173  0.5775  0.3304  0.7675
 6216TIP3    H118591   5.661   0.264   1.166  1.9140 -0.6419 -0.4878
 6216TIP3    H218592   5.600   0.152   1.083  0.5289 -1.2710  1.3163
 6217TIP3   OH218593   4.185   1.490   0.008 -0.3507 -0.8808 -0.4766
 6217TIP3    H118594   4.240   1.562  -0.025  0.6207 -1.0825  0.6355
 6217TIP3    H218595   4.119   1.533   0.062 -0.6692 -0.7221 -0.9807
 6218TIP3   OH218596   2.262   3.022   4.328 -0.3472  0.0412  0.0815
 6218TIP3    H118597   2.186   3.002   4.272  0.3644 -2.5130 -0.0621
 6218TIP3    H218598   2.317   3.077   4.272 -0.8980 -0.2206 -0.7543
 6219TIP3   OH218599   1.115   1.396   3.640  0.7109  0.1094 -0.5132
 6219TIP3    H118600   1.056   1.470   3.652  0.4586 -0.0226 -0.9303
 6219TIP3    H218601   1.069   1.338   3.579  0.8846 -0.4089 -0.1642
 6220TIP3   OH218602   7.093   3.256   5.967 -0.2112 -0.2062  0.3869
 6220TIP3    H118603   7.108   3.330   5.908  0.7066 -1.8513 -1.5682
 6220TIP3    H218604   7.009   3.219   5.939 -0.7706  0.1897  1.4912
 6221TIP3   OH218605   5.298   6.400   4.290 -0.2940 -0.8402  0.4319
 6221TIP3    H118606   5.370   6.433   4.237 -0.2975 -1.2233  0.1783
 6221TIP3    H218607   5.283   6.467   4.357 -0.5999 -0.1369 -0.3361
 6222TIP3   OH218608   5.062   2.807   3.974 -0.2556  0.1400 -0.1613
 6222TIP3    H118609   5.080   2.722   4.013 -0.7075  0.7539  1.4590
 6222TIP3    H218610   5.142   2.828   3.925  1.5948  0.6089  2.8108
 6223TIP3   OH218611   3.271   5.374   1.924  0.2354 -0.3550 -0.0479
 6223TIP3    H118612   3.185   5.404   1.895  0.1899  1.8707  2.0318
 6223TIP3    H218613   3.317   5.351   1.844 -1.8425 -0.3350 -1.3124
 6224TIP3   OH218614   2.968   6.785   3.097  0.7549 -0.3477 -0.4948
 6224TIP3    H118615   3.054   6.749   3.075  0.6936 -0.9774  0.2897
 6224TIP3    H218616   2.917   6.710   3.126  0.5238  0.3168  0.8536
 6225TIP3   OH218617   2.767   3.030   5.121  0.0659 -0.7783 -0.0117
 6225TIP3    H118618   2.702   2.988   5.178 -0.8307 -0.2648 -0.6341
 6225TIP3    H218619   2.744   3.123   5.123 -1.5790 -0.9852 -3.1214
 6226TIP3   OH218620   7.654   2.601   4.861  0.3191  0.4880  0.9766
 6226TIP3    H118621   7.709   2.627   4.787  0.1090  0.0768  0.6702
 6226TIP3    H218622   7.707   2.537   4.909  0.3457  0.5461  1.0250
 6227TIP3   OH218623   3.112   5.321   3.718  0.3004  0.1387  0.3144
 6227TIP3    H118624   3.136   5.272   3.797  1.0396  1.1902  0.7562
 6227TIP3    H218625   3.149   5.269   3.646  1.1628  0.0788  0.7848
 6228TIP3   OH218626   3.498   1.123   1.758 -0.2686 -0.4687 -0.3917
 6228TIP3    H118627   3.471   1.034   1.780 -0.6880 -0.5939 -1.3757
 6228TIP3    H218628   3.425   1.159   1.708 -0.5529  0.7907  0.8404
 6229TIP3   OH218629   4.347   4.054   2.188 -0.1147  0.1870  0.5464
 6229TIP3    H118630   4.389   4.016   2.265  0.6150 -0.8714 -0.3382
 6229TIP3    H218631   4.269   4.098   2.222 -0.5167 -1.3536  1.7428
 6230TIP3   OH218632   4.920   1.310   0.546  0.2715  0.4522 -0.0461
 6230TIP3    H118633   4.863   1.316   0.469  0.9786  0.1290 -0.6106
 6230TIP3    H218634   4.985   1.244   0.522  1.5658  1.6132  0.1107
 6231TIP3   OH218635   6.706   5.498   3.277  0.2716 -0.2235  0.0718
 6231TIP3    H118636   6.768   5.550   3.328  1.3605 -0.9607 -0.4572
 6231TIP3    H218637   6.695   5.547   3.196 -1.4751  0.9583  0.9824
 6232TIP3   OH218638   0.833   4.863   0.923 -0.0180 -0.1906 -0.2653
 6232TIP3    H118639   0.824   4.786   0.979 -0.7082 -0.2807 -0.4937
 6232TIP3    H218640   0.791   4.838   0.841  2.1354 -0.5339 -1.3343
 6233TIP3   OH218641   7.583   3.607   3.902  0.5462  0.9063  0.1147
 6233TIP3    H118642   7.563   3.664   3.828 -0.5883 -0.4642 -0.6699
 6233TIP3    H218643   7.672   3.577   3.885  0.4179  0.8667 -0.5254
 6234TIP3   OH218644   5.455  -0.030   6.205  0.0004  0.0803 -0.0690
 6234TIP3    H118645   5.416   0.057   6.211 -1.6918 -0.6153 -0.4829
 6234TIP3    H218646   5.534  -0.017   6.153  0.2431  1.4888  0.5884
 6235TIP3   OH218647   3.475   0.235   0.783  0.4709 -0.6208  0.5167
 6235TIP3    H118648   3.423   0.174   0.731  2.5358  1.1857 -4.1888
 6235TIP3    H218649   3.415   0.308   0.801  0.0677 -0.6454 -0.6597
 6236TIP3   OH218650   4.690   4.366   1.723  0.1007  0.0975  0.5615
 6236TIP3    H118651   4.623   4.417   1.768  2.0701  2.3727  1.0827
 6236TIP3    H218652   4.740   4.430   1.673 -0.5917 -2.0237 -3.2264
 6237TIP3   OH218653   6.201   6.121   5.090  0.3369 -0.0608 -0.3575
 6237TIP3    H118654   6.117   6.148   5.126  0.3693 -1.1802  0.5924
 6237TIP3    H218655   6.198   6.026   5.090  0.8825 -0.1064 -2.0741
 6238TIP3   OH218656   0.238   2.275   4.201  0.2598  0.2782 -0.4716
 6238TIP3    H118657   0.157   2.224   4.207  0.9861 -0.8624  0.0658
 6238TIP3    H218658   0.307   2.214   4.228  1.3453  1.1299 -1.2139
 6239TIP3   OH218659   1.959   2.983   1.341 -0.0790 -0.2034  0.0738
 6239TIP3    H118660   1.866   3.005   1.333 -0.2916 -1.0197  0.2583
 6239TIP3    H218661   1.989   3.034   1.416 -0.8745 -1.4853  1.3035
 6240TIP3   OH218662   4.537   7.790   2.549  0.6208  0.1720  0.4509
 6240TIP3    H118663   4.595   7.774   2.623 -0.7128 -1.2275  1.2417
 6240TIP3    H218664   4.449   7.774   2.582  0.1066 -3.0660 -2.0043
 6241TIP3   OH218665   6.229   4.445   4.904  0.8671 -0.3164 -0.2113
 6241TIP3    H118666   6.285   4.515   4.937 -0.7640  0.5382  0.8480
 6241TIP3    H218667   6.141   4.468   4.933  0.1103 -2.2233 -0.8163
 6242TIP3   OH218668   7.266   4.313   4.173 -0.4691  0.2442 -0.3599
 6242TIP3    H118669   7.242   4.272   4.256  1.0008 -1.1532 -0.5648
 6242TIP3    H218670   7.205   4.275   4.109 -1.3938  1.0821  0.0023
 6243TIP3   OH218671   5.381   7.441   2.433 -0.5711 -0.4181  0.2493
 6243TIP3    H118672   5.299   7.488   2.422 -0.1381  0.1078 -0.7577
 6243TIP3    H218673   5.433   7.464   2.357  0.8795 -0.0187  1.3231
 6244TIP3   OH218674   8.194   3.367   2.586 -0.0778 -0.0208  0.2871
 6244TIP3    H118675   8.241   3.311   2.525  0.0430 -0.6266  0.9361
 6244TIP3    H218676   8.250   3.373   2.663 -1.1382 -0.9252  1.1601
 6245TIP3   OH218677   2.238   5.690   1.762  0.0615  0.4820  0.0242
 6245TIP3    H118678   2.310   5.751   1.776  0.8424 -0.3847 -0.1212
 6245TIP3    H218679   2.168   5.744   1.725  0.5804  1.3586  0.2829
 6246TIP3   OH218680   6.859   7.402   3.799 -0.1842 -0.1150  0.0830
 6246TIP3    H118681   6.850   7.388   3.893  1.1830 -1.5803  0.0341
 6246TIP3    H218682   6.855   7.497   3.788  1.1088  0.1834  1.8084
 6247TIP3   OH218683   3.373   1.661   6.430  0.0304  0.0991 -0.0835
 6247TIP3    H118684   3.402   1.647   6.340 -1.3874  0.2641 -0.5950
 6247TIP3    H218685   3.448   1.638   6.484  0.7322 -0.5112 -1.2920
 6248TIP3   OH218686   1.325   4.292   5.192 -0.1405 -0.6396 -0.1612
 6248TIP3    H118687   1.403   4.345   5.180 -0.6213  0.3442  0.8859
 6248TIP3    H218688   1.325   4.270   5.285 -0.2440 -2.0301 -0.4673
 6249TIP3   OH218689   0.468   5.113   4.815 -0.4914 -0.3175 -0.4978
 6249TIP3    H118690   0.411   5.188   4.831  1.4761  0.9978  0.7367
 6249TIP3    H218691   0.487   5.078   4.902  0.5840 -0.7216 -0.8805
 6250TIP3   OH218692   7.097   4.600   0.322  0.0333 -0.5510  0.0783
 6250TIP3    H118693   7.017   4.641   0.355  1.2822  1.5919  0.6501
 6250TIP3    H218694   7.096   4.618   0.228  0.7747  1.3141  0.3815
 6251TIP3   OH218695   6.128   2.183   6.503  0.4174 -0.1378 -0.2405
 6251TIP3    H118696   6.069   2.107   6.505  0.1699  0.0631  0.5467
 6251TIP3    H218697   6.129   2.214   6.594  0.3929  0.8937 -0.5799
 6252TIP3   OH218698   6.640   2.048   2.075  0.1053  0.0945  0.0085
 6252TIP3    H118699   6.544   2.055   2.069  0.1862  0.6835 -0.6390
 6252TIP3    H218700   6.655   2.003   2.158 -0.6853  1.2246  0.7958
 6253TIP3   OH218701   6.740   0.245   5.681 -0.3136  0.2792 -0.3145
 6253TIP3    H118702   6.735   0.166   5.627 -2.8316  1.2777 -1.6768
 6253TIP3    H218703   6.833   0.268   5.680  0.4835 -2.5268  0.0093
 6254TIP3   OH218704   2.317   3.962   1.626  0.1162  0.3002 -0.1480
 6254TIP3    H118705   2.293   3.871   1.610  0.9211 -0.4647  2.4578
 6254TIP3    H218706   2.405   3.957   1.663 -0.3391  1.9782  1.3116
 6255TIP3   OH218707   0.567   6.263   2.298  0.0615  0.2576 -0.2247
 6255TIP3    H118708   0.525   6.283   2.381  0.7086  1.1572 -0.1014
 6255TIP3    H218709   0.549   6.170   2.284 -2.4367  0.7025 -0.4614
 6256TIP3   OH218710   1.468   2.168   1.215  0.0406 -0.1518 -0.1892
 6256TIP3    H118711   1.548   2.185   1.265  0.5102 -1.6414 -0.3837
 6256TIP3    H218712   1.437   2.255   1.189  0.9842  0.5144  0.8227
 6257TIP3   OH218713   3.629   4.419   3.691 -0.9264 -0.7052 -0.1779
 6257TIP3    H118714   3.559   4.431   3.627 -2.5239 -0.0177  1.6020
 6257TIP3    H218715   3.625   4.497   3.746  1.1562 -0.7338  0.1031
 6258TIP3   OH218716   5.397   2.072   3.616  0.2628 -0.5737 -0.0735
 6258TIP3    H118717   5.402   1.978   3.635  0.6308 -0.4854  0.2795
 6258TIP3    H218718   5.461   2.085   3.546 -0.6845 -0.7985 -1.0111
 6259TIP3   OH218719   4.506   5.505   1.278 -0.3659  0.1726 -0.0179
 6259TIP3    H118720   4.471   5.489   1.366 -1.5685 -1.8632 -0.8029
 6259TIP3    H218721   4.433   5.545   1.230 -1.1177 -2.3117 -1.1175
 6260TIP3   OH218722   0.917   4.694   2.521  0.1424  0.1546  0.1527
 6260TIP3    H118723   0.928   4.642   2.601 -0.5804  0.2065  0.2899
 6260TIP3    H218724   0.959   4.778   2.541 -1.0134  0.5815  0.8973
 6261TIP3   OH218725   7.715   4.203   4.790  0.1091  0.2241  0.2251
 6261TIP3    H118726   7.691   4.151   4.867 -0.1831  0.5628  0.3676
 6261TIP3    H218727   7.654   4.276   4.791  0.7476  0.7703  0.2386
 6262TIP3   OH218728   5.375   6.855   0.015 -0.0533  0.2231  0.1497
 6262TIP3    H118729   5.288   6.890  -0.005 -0.2547 -0.9601 -1.2184
 6262TIP3    H218730   5.387   6.872   0.108 -1.2963  1.3589  0.1318
 6263TIP3   OH218731   5.158   0.311   5.016 -0.3738 -0.2437 -0.1024
 6263TIP3    H118732   5.129   0.235   5.065 -2.2679  0.1409 -0.5325
 6263TIP3    H218733   5.140   0.288   4.924  2.4713 -0.6897 -0.6426
 6264TIP3   OH218734   0.341   0.141   1.143 -0.2062  0.4291 -0.7090
 6264TIP3    H118735   0.280   0.153   1.216 -0.2313  0.4447 -0.7322
 6264TIP3    H218736   0.420   0.187   1.169  0.0337 -0.1487 -0.3893
 6265TIP3   OH218737   2.623   6.966   3.220 -0.0186 -0.0162  0.2456
 6265TIP3    H118738   2.668   6.977   3.137  0.2107  0.9903  0.4946
 6265TIP3    H218739   2.693   6.949   3.283 -0.2329 -1.3179  0.1559
 6266TIP3   OH218740   4.550   0.736   6.239  0.5182 -0.2799 -0.5233
 6266TIP3    H118741   4.470   0.783   6.260  1.3315  0.7684  0.3487
 6266TIP3    H218742   4.540   0.712   6.147 -1.2083 -1.0754 -0.1669
 6267TIP3   OH218743   0.070   4.762   6.476 -0.3742  0.3963 -0.4251
 6267TIP3    H118744   0.145   4.705   6.461 -0.9961 -0.7004  0.4967
 6267TIP3    H218745   0.050   4.752   6.569 -2.4164 -0.2950 -0.8923
 6268TIP3   OH218746   3.284   4.196   1.300  1.0623  0.3962 -0.1813
 6268TIP3    H118747   3.367   4.158   1.329  0.6438 -0.3222  0.1093
 6268TIP3    H218748   3.243   4.127   1.248 -0.3720 -0.1419  1.5759
 6269TIP3   OH218749   0.615   1.101   1.969  0.2238  0.2165  0.1378
 6269TIP3    H118750   0.593   1.104   2.062 -0.0094 -0.9702  0.1436
 6269TIP3    H218751   0.706   1.130   1.964 -0.0042  1.0368  0.6351
 6270TIP3   OH218752   0.386   5.627   0.592 -0.1189 -0.7058 -0.6094
 6270TIP3    H118753   0.423   5.598   0.676 -0.3855 -1.7813 -0.8514
 6270TIP3    H218754   0.292   5.625   0.605 -0.1679  1.3099 -0.2395
 6271TIP3   OH218755   7.654   4.063   6.703  0.3061 -0.7893  0.1515
 6271TIP3    H118756   7.639   4.154   6.725  2.8714 -0.2981  0.1560
 6271TIP3    H218757   7.718   4.066   6.631  1.2345 -2.5723  0.8429
 6272TIP3   OH218758   4.859   2.256   1.255  0.0442  0.1507  0.3073
 6272TIP3    H118759   4.898   2.338   1.285 -0.6227  0.7928 -0.5386
 6272TIP3    H218760   4.925   2.217   1.199 -0.7808  1.6538 -1.8311
 6273TIP3   OH218761   4.432   2.814   1.708 -0.4405 -0.0211  0.1661
 6273TIP3    H118762   4.346   2.804   1.750 -1.0511  1.2635 -0.7361
 6273TIP3    H218763   4.416   2.795   1.616  0.4959 -0.8941  0.1669
 6274TIP3   OH218764   7.883   5.961   5.769  0.6676  0.0598 -0.1595
 6274TIP3    H118765   7.897   5.867   5.766 -0.7549 -0.2302 -4.1568
 6274TIP3    H218766   7.808   5.972   5.828  0.2934 -1.4156 -0.3198
 6275TIP3   OH218767   0.814   5.926   5.657  0.4530 -0.2545 -0.3482
 6275TIP3    H118768   0.832   5.834   5.639  0.3366 -0.4573  0.5260
 6275TIP3    H218769   0.801   5.930   5.751  1.2627  0.7987 -0.2599
 6276TIP3   OH218770   1.275   2.733   6.359  0.4003  0.4757  0.1102
 6276TIP3    H118771   1.307   2.742   6.269  1.1084  0.8108  0.3946
 6276TIP3    H218772   1.189   2.692   6.349 -0.8534  3.1224 -0.9124
 6277TIP3   OH218773   1.472   2.517   6.708 -0.4727  0.2099 -0.2612
 6277TIP3    H118774   1.434   2.518   6.620  0.3828  0.0176 -0.6465
 6277TIP3    H218775   1.412   2.463   6.760 -0.2635 -0.8223 -1.0652
 6278TIP3   OH218776   3.791   2.062   1.814 -0.3401  0.3928  0.0625
 6278TIP3    H118777   3.762   2.137   1.864 -3.0860  0.9999 -2.1479
 6278TIP3    H218778   3.851   2.098   1.748  0.1413  0.2411  0.4106
 6279TIP3   OH218779   5.125   6.448   1.216 -0.3092 -1.0628 -0.1308
 6279TIP3    H118780   5.102   6.479   1.129 -1.2788 -1.5375 -0.0616
 6279TIP3    H218781   5.202   6.498   1.240 -0.6087 -0.2247 -0.8624
 6280TIP3   OH218782   0.808   3.530   3.801 -0.1528 -0.0529 -0.1917
 6280TIP3    H118783   0.842   3.446   3.770  0.5838 -0.2029  0.9721
 6280TIP3    H218784   0.885   3.587   3.807 -0.2663 -0.0141  1.2635
 6281TIP3   OH218785   5.162   2.294   0.193  0.3476  0.1545 -0.1690
 6281TIP3    H118786   5.134   2.215   0.148 -2.7705  0.0005  1.7335
 6281TIP3    H218787   5.175   2.359   0.123  0.7539 -1.4000 -1.5852
 6282TIP3   OH218788   2.524   4.688   4.009  0.0012  0.2512  0.0600
 6282TIP3    H118789   2.595   4.749   4.030  0.1421 -0.1413  0.7497
 6282TIP3    H218790   2.535   4.670   3.916 -0.5363  1.9010 -0.3624
 6283TIP3   OH218791   6.805   4.264   3.406 -0.1149  0.1351  0.2251
 6283TIP3    H118792   6.834   4.323   3.336  2.4377  0.9716  1.8743
 6283TIP3    H218793   6.734   4.311   3.449 -0.3805  0.4855 -0.5808
 6284TIP3   OH218794   2.733   3.427   0.796  0.0661 -0.2987 -0.0413
 6284TIP3    H118795   2.727   3.450   0.889  2.9144 -0.4006  0.2731
 6284TIP3    H218796   2.648   3.388   0.775 -1.6946  2.1900  1.7519
 6285TIP3   OH218797   7.611   7.334   0.636 -0.1417 -0.0725 -0.4531
 6285TIP3    H118798   7.654   7.261   0.593 -0.2745 -1.0052  0.9515
 6285TIP3    H218799   7.631   7.410   0.581  0.3673 -1.0800 -1.6831
 6286TIP3   OH218800   4.668   1.167   0.931  0.5989 -0.1355  0.3709
 6286TIP3    H118801   4.608   1.106   0.888 -0.1966  0.2432  0.9111
 6286TIP3    H218802   4.756   1.133   0.910  0.2741  0.2403 -1.7923
 6287TIP3   OH218803   0.486   7.080   1.046 -1.0589 -0.0239  0.1029
 6287TIP3    H118804   0.448   7.032   1.119 -3.5171  1.6927  0.0867
 6287TIP3    H218805   0.534   7.152   1.087  0.9600 -1.2637  0.0623
 6288TIP3   OH218806   8.218   7.483   5.103  0.0481 -0.4476 -0.0444
 6288TIP3    H118807   8.258   7.530   5.176  1.7797  2.7322 -2.7627
 6288TIP3    H218808   8.278   7.498   5.029 -2.5298 -1.7974 -2.6048
 6289TIP3   OH218809   5.258   5.019   4.047 -0.5286  0.5402 -0.3245
 6289TIP3    H118810   5.349   4.996   4.029 -0.6648  0.0036 -0.3497
 6289TIP3    H218811   5.240   4.979   4.133 -0.6965  0.7651 -0.2548
 6290TIP3   OH218812   0.093   5.040   5.306 -0.3248  0.1817  0.4048
 6290TIP3    H118813   0.119   5.063   5.216  1.7116  0.7289  1.0845
 6290TIP3    H218814  -0.002   5.027   5.301 -0.1722 -0.4735 -1.9593
 6291TIP3   OH218815   1.580   0.124   3.356  0.4101  1.0610  0.2963
 6291TIP3    H118816   1.553   0.150   3.444 -0.8715  1.5758 -0.2110
 6291TIP3    H218817   1.626   0.041   3.368 -1.1967  0.2584  1.3042
 6292TIP3   OH218818   1.854   1.614   5.405 -0.2443 -0.2516 -0.1067
 6292TIP3    H118819   1.849   1.528   5.447 -1.1436 -0.4010 -0.5019
 6292TIP3    H218820   1.876   1.674   5.476 -3.7000 -0.1755  1.0811
 6293TIP3   OH218821   5.198   5.164   3.093 -0.4722  0.1150 -0.9335
 6293TIP3    H118822   5.138   5.102   3.054 -0.5935 -0.2097 -0.2368
 6293TIP3    H218823   5.274   5.112   3.118  0.2082  0.5504 -1.9842
 6294TIP3   OH218824   7.929   4.769   3.597  0.5771 -0.3607  0.3121
 6294TIP3    H118825   7.854   4.787   3.654  0.7950  1.1027  0.1805
 6294TIP3    H218826   7.935   4.674   3.594 -1.4353 -0.5166  0.1027
 6295TIP3   OH218827   3.518   7.773   5.374 -0.5189  0.1700  0.3793
 6295TIP3    H118828   3.538   7.729   5.457 -0.1214  1.4642  1.0039
 6295TIP3    H218829   3.536   7.707   5.307  1.7034 -0.1121  1.1595
 6296TIP3   OH218830   0.596   1.543   6.345  0.9329 -0.4159 -0.0548
 6296TIP3    H118831   0.580   1.593   6.265 -0.4492 -1.1833 -0.2775
 6296TIP3    H218832   0.687   1.564   6.368  0.7050  1.4540 -0.6476
 6297TIP3   OH218833   8.192   0.767   4.346  0.3720 -0.7702  0.3804
 6297TIP3    H118834   8.242   0.727   4.275  1.9821 -0.5367  1.3440
 6297TIP3    H218835   8.151   0.693   4.391  0.3938 -1.0147  0.0074
 6298TIP3   OH218836   1.867   7.370   5.536  0.1824  0.1151 -0.5731
 6298TIP3    H118837   1.952   7.374   5.493 -0.1044 -0.7626 -1.2509
 6298TIP3    H218838   1.815   7.437   5.492  1.1010  2.1766  1.2689
 6299TIP3   OH218839   5.136   5.053   0.869 -0.4708 -0.3889  0.8232
 6299TIP3    H118840   5.072   5.006   0.815 -0.7697 -1.5879  2.1523
 6299TIP3    H218841   5.134   5.143   0.836  0.5950 -1.4048 -2.2521
 6300TIP3   OH218842   8.151   6.318   5.035  0.0835  0.1230  0.1324
 6300TIP3    H118843   8.171   6.354   4.949 -1.0140 -0.3247 -0.3262
 6300TIP3    H218844   8.224   6.346   5.090 -0.0096  1.8003 -0.5475
 6301TIP3   OH218845   3.555   7.389   0.889  0.1207  0.2800  0.3530
 6301TIP3    H118846   3.541   7.475   0.930 -0.8103  0.2395  0.1241
 6301TIP3    H218847   3.620   7.407   0.820  1.0981  0.4960  1.2945
 6302TIP3   OH218848   4.503   1.352   4.152 -0.4715 -0.4750 -0.0117
 6302TIP3    H118849   4.544   1.376   4.068  0.3787  1.2769  0.8482
 6302TIP3    H218850   4.536   1.265   4.171  2.1541  0.4632  0.1439
 6303TIP3   OH218851   4.264   3.085   4.431  0.0952  0.2177  0.1280
 6303TIP3    H118852   4.241   2.992   4.423 -1.3006  0.3637  1.8658
 6303TIP3    H218853   4.180   3.130   4.435  0.6504  1.1765  2.9180
 6304TIP3   OH218854   1.005   4.498   0.467  0.1949  0.5116  0.1577
 6304TIP3    H118855   1.094   4.529   0.483  1.7815 -3.4091  0.1562
 6304TIP3    H218856   0.985   4.445   0.544 -1.2668 -0.3692 -0.7911
 6305TIP3   OH218857   0.825   6.120   2.988 -0.2049  0.5350  0.9473
 6305TIP3    H118858   0.879   6.198   2.999 -1.3645  1.4049  0.6931
 6305TIP3    H218859   0.870   6.069   2.920  0.4409  1.0914  0.9489
 6306TIP3   OH218860   2.743   4.910   3.708 -0.1318  0.4818 -0.0942
 6306TIP3    H118861   2.689   4.985   3.682 -1.5223 -1.1006 -2.0557
 6306TIP3    H218862   2.807   4.900   3.637  0.8301  0.5016  0.7416
 6307TIP3   OH218863   7.253   1.017   5.212  0.0486 -0.0733 -0.0999
 6307TIP3    H118864   7.295   1.057   5.136  0.0879 -2.5197 -1.4639
 6307TIP3    H218865   7.292   1.063   5.287 -0.2023  2.6208 -1.4751
 6308TIP3   OH218866   7.948   4.633   2.526  0.0846 -0.3522 -0.2438
 6308TIP3    H118867   7.940   4.556   2.470 -0.0480  0.2488 -1.0575
 6308TIP3    H218868   8.023   4.681   2.492 -2.3996  2.2036 -2.6718
 6309TIP3   OH218869   8.070   4.607   6.012 -0.1516 -0.0315 -0.2519
 6309TIP3    H118870   8.125   4.673   5.971 -0.2086 -0.0285 -0.3226
 6309TIP3    H218871   8.085   4.618   6.106  0.5865 -0.5637 -0.3015
 6310TIP3   OH218872   1.733   3.754   4.113 -0.1001  1.1398  0.2029
 6310TIP3    H118873   1.818   3.790   4.086  0.1467  0.7422  0.4213
 6310TIP3    H218874   1.749   3.660   4.121 -1.2729  0.6354 -2.4307
 6311TIP3   OH218875   1.923   4.914   1.783  0.3434 -0.0589  0.1707
 6311TIP3    H118876   1.925   4.894   1.877  1.4281 -0.7309  0.0299
 6311TIP3    H218877   1.844   4.966   1.771 -1.0315 -1.8166  1.0900
 6312TIP3   OH218878   3.858   6.372   4.886  0.2591 -0.0276  0.3493
 6312TIP3    H118879   3.775   6.412   4.860  1.2027  1.0520 -1.1249
 6312TIP3    H218880   3.925   6.429   4.849  1.7057 -0.2799  2.4036
 6313TIP3   OH218881   2.685   5.159   1.151  0.2906 -0.1223 -0.3550
 6313TIP3    H118882   2.611   5.191   1.101  0.5486  1.6878  0.3358
 6313TIP3    H218883   2.761   5.175   1.095  0.2467 -1.4621 -0.8351
 6314TIP3   OH218884   4.867   1.696   2.063 -0.1705 -0.0217 -0.7658
 6314TIP3    H118885   4.823   1.780   2.075 -0.6202 -0.4549  0.7498
 6314TIP3    H218886   4.854   1.675   1.971  0.7079  1.9775 -1.4111
 6315TIP3   OH218887   5.682   7.332   4.174 -0.0226 -0.5313 -0.1661
 6315TIP3    H118888   5.693   7.384   4.094 -0.6864  0.7945  0.5706
 6315TIP3    H218889   5.722   7.248   4.153  2.8442  0.8458 -0.7889
 6316TIP3   OH218890   1.510   2.846   1.676  0.3211 -0.0954  0.4068
 6316TIP3    H118891   1.515   2.751   1.683 -0.3451 -0.2138 -0.5480
 6316TIP3    H218892   1.448   2.872   1.743 -0.7424 -0.5091 -0.3909
 6317TIP3   OH218893   6.783   0.892   4.420  0.3033  0.2097 -0.6700
 6317TIP3    H118894   6.723   0.901   4.346  0.0232 -0.4709 -0.5414
 6317TIP3    H218895   6.841   0.967   4.414 -0.9758  1.2560 -0.4232
 6318TIP3   OH218896   7.657   5.874   2.142 -0.2130 -0.4443 -0.2274
 6318TIP3    H118897   7.599   5.851   2.069 -0.3903  0.7456 -0.4798
 6318TIP3    H218898   7.608   5.852   2.220 -0.2524 -1.1863 -0.4490
 6319TIP3   OH218899   1.793   0.524   2.929 -0.1179 -0.2824  0.0561
 6319TIP3    H118900   1.748   0.481   3.001 -0.2078 -0.4162 -0.0796
 6319TIP3    H218901   1.726   0.579   2.888 -0.0040 -0.0154  0.2282
 6320TIP3   OH218902   8.189   5.511   4.496 -0.2469  0.4137  0.0926
 6320TIP3    H118903   8.273   5.473   4.468  0.4111  0.6714  1.5995
 6320TIP3    H218904   8.164   5.568   4.424  0.6537 -0.0067 -0.5819
 6321TIP3   OH218905   4.955   5.854   0.198 -0.2920  0.6464  0.0801
 6321TIP3    H118906   5.002   5.922   0.246  0.0586 -0.4645  1.3987
 6321TIP3    H218907   4.997   5.851   0.113  0.2677  1.4814  0.3202
 6322TIP3   OH218908   5.059   1.165   4.067  0.0004  0.0202  0.4870
 6322TIP3    H118909   5.011   1.086   4.041  1.2214 -0.2494 -1.0919
 6322TIP3    H218910   5.091   1.145   4.155 -1.7026 -0.2667  1.0876
 6323TIP3   OH218911   0.172   5.135   6.217 -0.1340  0.0689 -0.2502
 6323TIP3    H118912   0.099   5.076   6.235  0.4100 -0.2043  1.2111
 6323TIP3    H218913   0.162   5.206   6.280  1.5782 -0.6634  0.9459
 6324TIP3   OH218914   3.738   5.716   2.959 -0.2763 -0.2521 -0.4399
 6324TIP3    H118915   3.681   5.784   2.995  1.1533  1.0139 -0.4515
 6324TIP3    H218916   3.786   5.760   2.889  0.1170 -1.5127 -0.9814
 6325TIP3   OH218917   0.180   2.278   6.483 -0.6617 -0.6906 -0.0492
 6325TIP3    H118918   0.107   2.283   6.544 -1.2578 -0.7549 -0.7407
 6325TIP3    H218919   0.148   2.223   6.411  0.4598 -1.6735  0.1636
 6326TIP3   OH218920   5.953   6.464   2.382  0.2842 -0.3822  0.2334
 6326TIP3    H118921   5.874   6.465   2.437  0.4216 -0.6333  0.4393
 6326TIP3    H218922   5.925   6.424   2.300  0.2392 -0.6305  0.3696
 6327TIP3   OH218923   1.620   7.203   5.532 -0.6124 -0.2912  0.5001
 6327TIP3    H118924   1.613   7.164   5.445 -1.0661 -1.1456  0.9098
 6327TIP3    H218925   1.686   7.271   5.522  0.5642 -1.4849 -0.1197
 6328TIP3   OH218926   7.481   7.165   3.036 -0.0312  0.2615  0.2501
 6328TIP3    H118927   7.548   7.121   3.088  1.4325  0.6625 -1.1893
 6328TIP3    H218928   7.443   7.230   3.095  0.0984 -0.6836  1.4079
 6329TIP3   OH218929   5.925   2.619   0.694 -0.0463  0.1010  0.3784
 6329TIP3    H118930   5.849   2.672   0.670 -0.6434 -0.2643  1.4204
 6329TIP3    H218931   5.970   2.670   0.762 -0.1009 -0.2930  0.7119
 6330TIP3   OH218932   0.382   2.157   2.227  0.2007  0.0377 -0.6612
 6330TIP3    H118933   0.294   2.123   2.240 -0.4370  0.8775 -2.4865
 6330TIP3    H218934   0.436   2.109   2.291 -1.2683 -1.6660 -0.6202
 6331TIP3   OH218935   3.913   7.698   0.135 -0.2348 -0.2141  0.0487
 6331TIP3    H118936   3.991   7.648   0.157  0.4324  0.4504 -0.7782
 6331TIP3    H218937   3.889   7.667   0.047  0.7613  1.5823 -0.8997
 6332TIP3   OH218938   3.106   0.433   4.737  0.3034  0.3509  0.6185
 6332TIP3    H118939   3.062   0.451   4.820 -0.7936 -0.1301  0.1598
 6332TIP3    H218940   3.073   0.347   4.711  1.0983  0.2328 -0.0178
 6333TIP3   OH218941   6.333   3.186   1.599 -0.4362 -0.7745 -0.0751
 6333TIP3    H118942   6.305   3.167   1.510  1.2817 -1.9075 -0.4307
 6333TIP3    H218943   6.332   3.101   1.643 -0.8262 -0.2984  0.8719
 6334TIP3   OH218944   4.235   6.004   5.365 -0.3057  0.0755  0.0974
 6334TIP3    H118945   4.201   5.919   5.393  0.7452 -0.8311 -1.2283
 6334TIP3    H218946   4.317   5.983   5.320  0.8757  1.9686  1.2353
 6335TIP3   OH218947   4.786   5.868   4.602 -0.6183 -0.7104 -0.5694
 6335TIP3    H118948   4.766   5.892   4.692 -1.2659 -0.0515 -0.8797
 6335TIP3    H218949   4.880   5.882   4.593 -0.7919  0.6217 -0.4100
 6336TIP3   OH218950   7.144   6.029   4.594 -0.1779  0.0647 -0.3352
 6336TIP3    H118951   7.148   5.971   4.670  1.7937 -0.4040 -0.7477
 6336TIP3    H218952   7.168   6.115   4.628  1.6936 -0.3382 -0.5742
 6337TIP3   OH218953   4.838   6.187   0.753 -0.2458  0.4053 -0.4693
 6337TIP3    H118954   4.849   6.229   0.668 -0.3998  2.9896  0.6963
 6337TIP3    H218955   4.824   6.095   0.732  0.6228  0.7914 -3.1721
 6338TIP3   OH218956   6.821   0.072   6.315 -0.3012  0.0789 -0.4072
 6338TIP3    H118957   6.856   0.088   6.227 -0.4845 -0.8330 -0.6634
 6338TIP3    H218958   6.795   0.158   6.347  0.8095  0.5711 -0.7925
 6339TIP3   OH218959   5.204   1.623   6.629  0.1712  0.1181 -0.2166
 6339TIP3    H118960   5.211   1.697   6.689 -1.9135  0.8289 -0.7731
 6339TIP3    H218961   5.267   1.643   6.559 -1.0042  1.8881 -0.8333
 6340TIP3   OH218962   4.132   0.455   6.614  0.3395 -0.2537 -0.0488
 6340TIP3    H118963   4.058   0.400   6.589  1.2526 -1.6314  0.1585
 6340TIP3    H218964   4.103   0.496   6.696 -0.1242 -0.9599  0.1623
 6341TIP3   OH218965   3.889   7.381   2.213  0.0142 -0.1189  0.0435
 6341TIP3    H118966   3.821   7.383   2.145  0.8775  1.0574 -0.8260
 6341TIP3    H218967   3.842   7.404   2.293 -0.9799 -1.2899 -0.1599
 6342TIP3   OH218968   1.092   4.446   5.696 -0.5513 -0.0452 -0.1033
 6342TIP3    H118969   1.061   4.526   5.655 -0.8224 -0.9714 -1.8234
 6342TIP3    H218970   1.132   4.474   5.778 -1.5871  1.7059 -0.1512
 6343TIP3   OH218971   5.872   2.499   0.275  0.1553  0.1066  0.1029
 6343TIP3    H118972   5.933   2.494   0.347 -0.9506  0.9687  1.1349
 6343TIP3    H218973   5.907   2.567   0.218 -1.1892  2.6316  2.0888
 6344TIP3   OH218974   0.534   2.112   0.292  0.5621 -0.1394 -0.0022
 6344TIP3    H118975   0.593   2.072   0.228  0.8289  0.5125 -0.1691
 6344TIP3    H218976   0.553   2.205   0.287 -1.1014  0.1930 -0.6882
 6345TIP3   OH218977   0.075   5.222   2.962 -0.6064  0.1814  0.4503
 6345TIP3    H118978   0.041   5.182   3.041  2.4079 -1.5670  1.0380
 6345TIP3    H218979   0.126   5.298   2.993 -1.0827  0.7184 -0.0446
 6346TIP3   OH218980   3.911   5.811   1.347 -0.6542  0.0657  0.0083
 6346TIP3    H118981   3.825   5.821   1.389 -0.8077  1.2459 -0.5286
 6346TIP3    H218982   3.906   5.728   1.301 -1.9376  0.6186 -0.9176
 6347TIP3   OH218983   0.328   5.118   3.810 -0.2302 -0.3328 -0.7025
 6347TIP3    H118984   0.327   5.117   3.714 -1.8440 -0.9114 -0.7204
 6347TIP3    H218985   0.362   5.032   3.834  1.6213  0.3594 -0.7107
 6348TIP3   OH218986   2.605   0.675   4.835 -0.2966  0.3004 -0.1509
 6348TIP3    H118987   2.653   0.690   4.916 -0.8110 -1.6842  0.6031
 6348TIP3    H218988   2.667   0.630   4.778  0.0121  1.5439 -0.8347
 6349TIP3   OH218989   3.254   6.526   1.340  0.0083 -0.3800 -0.4687
 6349TIP3    H118990   3.178   6.546   1.396  1.8181  0.8035  1.7324
 6349TIP3    H218991   3.276   6.610   1.299  1.4217 -0.1666  0.6616
 6350TIP3   OH218992   6.018   3.863   1.335 -0.4164  0.7174 -0.0461
 6350TIP3    H118993   6.082   3.812   1.284 -0.3325  0.5179  0.2590
 6350TIP3    H218994   6.069   3.937   1.369  0.0114 -0.1926  1.3860
 6351TIP3   OH218995   4.436   6.362   1.727  0.1014  0.3640 -0.1275
 6351TIP3    H118996   4.480   6.349   1.643  2.5530 -1.5067  1.3122
 6351TIP3    H218997   4.506   6.383   1.788 -1.2665 -0.6429  1.8994
 6352TIP3   OH218998   4.146   3.758   6.112  0.2811  0.4933 -0.2419
 6352TIP3    H118999   4.089   3.682   6.100  0.4028  0.1455  1.2832
 6352TIP3    H219000   4.121   3.794   6.197  0.5367  1.9122 -0.7332
 6353TIP3   OH219001   2.512   7.118   0.370 -0.4030  0.2364  0.4969
 6353TIP3    H119002   2.570   7.063   0.422 -0.4508 -0.6279 -0.3454
 6353TIP3    H219003   2.473   7.178   0.434 -1.6504 -1.7958  1.7498
 6354TIP3   OH219004   1.550   7.610   3.791 -0.3348 -0.2720 -0.1962
 6354TIP3    H119005   1.612   7.682   3.779 -0.5891 -0.0049  0.0731
 6354TIP3    H219006   1.584   7.539   3.736 -0.5593  0.3450 -1.1497
 6355TIP3   OH219007   5.084   5.561   2.089  0.1235 -0.0253 -0.2275
 6355TIP3    H119008   5.149   5.623   2.055 -0.2376  0.5765  0.1596
 6355TIP3    H219009   5.019   5.616   2.133 -1.4608 -0.4928 -1.8791
 6356TIP3   OH219010   5.318   4.644   2.304 -0.6791 -0.1242  0.4997
 6356TIP3    H119011   5.343   4.552   2.312 -1.0933 -0.2319  0.5721
 6356TIP3    H219012   5.358   4.673   2.223 -0.7257 -0.4299  0.3655
 6357TIP3   OH219013   8.243   1.992   4.504 -0.1133  0.5935  0.0538
 6357TIP3    H119014   8.239   2.086   4.487 -1.1280  0.7417  0.9779
 6357TIP3    H219015   8.326   1.980   4.550  0.4805  0.8750 -0.9207
 6358TIP3   OH219016   3.083   7.212   3.083  0.0395  0.1930 -0.5220
 6358TIP3    H119017   3.066   7.187   3.174  4.3309 -2.4149 -0.1588
 6358TIP3    H219018   3.041   7.143   3.031  0.2915 -0.0976 -0.3392
 6359TIP3   OH219019   7.577   4.939   2.667  0.1256 -0.2906 -0.0399
 6359TIP3    H119020   7.506   4.884   2.635 -0.9518  0.4755  0.9377
 6359TIP3    H219021   7.643   4.936   2.598  0.8098 -3.9647  0.5546
 6360TIP3   OH219022   2.879   2.755   1.509  0.1190  0.5399  0.2803
 6360TIP3    H119023   2.907   2.718   1.425 -0.0093 -2.2538  1.3516
 6360TIP3    H219024   2.785   2.736   1.513  0.1684  0.4641  1.1223
 6361TIP3   OH219025   3.765   0.179   6.218  0.1706 -0.1462 -0.0230
 6361TIP3    H119026   3.694   0.234   6.251 -0.7345 -1.4854  0.3482
 6361TIP3    H219027   3.739   0.157   6.128  0.5264  0.0231 -0.1706
 6362TIP3   OH219028   2.462   7.593   2.027  0.0613 -0.1022 -0.3983
 6362TIP3    H119029   2.522   7.667   2.034  1.8080 -1.5963  2.9140
 6362TIP3    H219030   2.400   7.604   2.099 -0.4200 -1.2023 -0.6126
 6363TIP3   OH219031   2.937   2.278   3.980  0.9132  0.0977 -0.1163
 6363TIP3    H119032   2.855   2.305   4.021  0.7595 -0.9609  0.2906
 6363TIP3    H219033   2.941   2.184   3.993  1.9103  0.0513 -0.6598
 6364TIP3   OH219034   5.274   3.432   3.398 -0.1637  0.0831 -0.3548
 6364TIP3    H119035   5.295   3.374   3.326  1.3877  1.1149 -0.7965
 6364TIP3    H219036   5.233   3.508   3.357  2.5531  1.5946 -0.5083
 6365TIP3   OH219037   5.739   6.710   0.090 -0.6100 -0.2537 -0.4643
 6365TIP3    H119038   5.720   6.674   0.177 -1.9493  1.1693 -0.1184
 6365TIP3    H219039   5.679   6.665   0.031 -2.5739  1.5758  0.0306
 6366TIP3   OH219040   0.832   4.776   2.269  0.4940  0.3814  0.1443
 6366TIP3    H119041   0.825   4.766   2.364  0.2964  0.3991  0.1303
 6366TIP3    H219042   0.762   4.723   2.233  2.6126 -2.4699 -0.1459
 6367TIP3   OH219043   1.659   6.831   0.092  0.2918  0.5440  0.0883
 6367TIP3    H119044   1.699   6.744   0.091 -1.2408 -0.2114 -1.4320
 6367TIP3    H219045   1.567   6.815   0.112 -0.0106  1.8118 -0.2221
 6368TIP3   OH219046   8.250   3.074   5.939 -0.4932 -0.7069  0.0714
 6368TIP3    H119047   8.325   3.128   5.914 -0.0340 -1.2550  0.2343
 6368TIP3    H219048   8.206   3.053   5.857 -0.3066 -0.6078 -0.0540
 6369TIP3   OH219049   4.602   7.417   4.054 -0.0980 -0.0026 -0.6659
 6369TIP3    H119050   4.513   7.386   4.068 -0.1957  1.1960  1.8644
 6369TIP3    H219051   4.648   7.342   4.017 -1.5387 -1.4852  0.4249
 6370TIP3   OH219052   3.607   5.429   5.858  0.1536  0.3510  0.3466
 6370TIP3    H119053   3.654   5.432   5.775  1.1209  1.5814  0.8847
 6370TIP3    H219054   3.514   5.427   5.834  0.4065  1.1128 -0.7608
 6371TIP3   OH219055   7.649   6.249   0.973 -0.4051  0.0265 -0.2978
 6371TIP3    H119056   7.616   6.163   0.998  1.4371 -0.9146 -0.9083
 6371TIP3    H219057   7.616   6.263   0.884 -0.0495 -0.4251 -0.5040
 6372TIP3   OH219058   0.256   0.400   0.017 -0.3051 -0.1193  0.0077
 6372TIP3    H119059   0.187   0.349   0.059 -0.2098 -1.0436 -0.9140
 6372TIP3    H219060   0.337   0.362   0.052 -0.2016 -1.3985 -1.4899
 6373TIP3   OH219061   4.586   4.184   3.715  0.3713  0.0910  0.6117
 6373TIP3    H119062   4.623   4.131   3.785 -1.4121 -1.4714  0.4548
 6373TIP3    H219063   4.657   4.241   3.687  1.4430 -0.0180  2.9336
 6374TIP3   OH219064   5.482   3.288   2.538  0.5696 -0.6004  0.0959
 6374TIP3    H119065   5.432   3.228   2.483 -2.4338  1.1149  0.7072
 6374TIP3    H219066   5.417   3.352   2.569  3.0573  1.3971  1.6169
 6375TIP3   OH219067   1.511   5.867   1.745  0.3835 -0.4530  0.0140
 6375TIP3    H119068   1.603   5.848   1.724  0.2354 -2.9046  1.2164
 6375TIP3    H219069   1.509   5.871   1.841 -0.9329 -1.7605  0.0814
 6376TIP3   OH219070   8.262   3.784   1.588  1.0472  0.5919 -0.2054
 6376TIP3    H119071   8.175   3.759   1.557  1.1591  2.0833 -1.8751
 6376TIP3    H219072   8.293   3.707   1.636 -1.1926  0.0484  0.4895
 6377TIP3   OH219073   2.156   1.609   3.649 -0.4388 -0.3067 -0.1988
 6377TIP3    H119074   2.188   1.641   3.565  0.1599  0.8232  0.4285
 6377TIP3    H219075   2.103   1.681   3.683 -1.3678 -1.0781  0.0315
 6378TIP3   OH219076   6.302   3.122   6.333  0.3533 -0.0323  0.0178
 6378TIP3    H119077   6.312   3.212   6.364  1.9453 -0.8236  1.9775
 6378TIP3    H219078   6.212   3.099   6.356 -0.1998  1.1354 -0.8457
 6379TIP3   OH219079   6.381   7.364   4.066  0.3310  0.0306 -0.2413
 6379TIP3    H119080   6.396   7.270   4.078 -1.5563 -0.1896  0.9506
 6379TIP3    H219081   6.323   7.369   3.991 -0.9722  0.0480  0.7238
 6380TIP3   OH219082   8.247   4.180   3.221 -0.0516  0.0952  0.0903
 6380TIP3    H119083   8.251   4.275   3.227  0.0000  0.3770 -2.8536
 6380TIP3    H219084   8.339   4.153   3.213 -0.1069 -0.1436  0.2608
 6381TIP3   OH219085   5.521   4.986   5.670  0.0801 -0.0545  0.0710
 6381TIP3    H119086   5.586   5.052   5.644  0.4634 -0.9663 -1.3716
 6381TIP3    H219087   5.505   4.935   5.591 -1.1813 -0.8964  0.8281
 6382TIP3   OH219088   3.721   6.580   3.016  0.0844 -0.3441 -0.4231
 6382TIP3    H119089   3.689   6.613   3.099  0.1876 -1.9264  0.2748
 6382TIP3    H219090   3.655   6.516   2.988  0.7171 -0.8227 -0.8633
 6383TIP3   OH219091   4.791   3.539   4.908  0.2795  0.1253 -0.2572
 6383TIP3    H119092   4.814   3.513   4.997 -1.3486  1.3161  0.5830
 6383TIP3    H219093   4.696   3.549   4.911  0.0718 -0.7565 -2.4227
 6384TIP3   OH219094   0.363   7.180   2.529 -0.6200 -0.9827  0.1682
 6384TIP3    H119095   0.313   7.254   2.564 -0.0508 -0.5186  0.0275
 6384TIP3    H219096   0.388   7.208   2.441  0.7278 -0.7774  0.5938
 6385TIP3   OH219097   4.256   7.614   0.997 -0.3326  0.3954  0.1371
 6385TIP3    H119098   4.178   7.612   0.941 -1.4654  1.4804  1.5844
 6385TIP3    H219099   4.234   7.676   1.066  0.7064 -1.3869  2.2002
 6386TIP3   OH219100   4.269   2.842   4.110  0.4045 -0.2175 -0.2273
 6386TIP3    H119101   4.306   2.930   4.122 -0.2779  0.2458 -1.4232
 6386TIP3    H219102   4.333   2.797   4.055  0.3319 -0.1906 -0.3331
 6387TIP3   OH219103   5.506   5.028   6.054 -0.3320 -0.2198 -0.3752
 6387TIP3    H119104   5.590   5.067   6.029  0.1962 -0.6345  0.6814
 6387TIP3    H219105   5.444   5.061   5.988  0.9454 -1.2025 -2.1602
 6388TIP3   OH219106   5.289   1.687   3.310  0.3487  0.1997 -0.2333
 6388TIP3    H119107   5.228   1.738   3.258  0.3192  0.9228  0.4928
 6388TIP3    H219108   5.353   1.751   3.342 -0.3331 -0.0046  1.6269
 6389TIP3   OH219109   6.569   1.388   1.637  0.0823 -0.0207  0.0127
 6389TIP3    H119110   6.642   1.415   1.693 -1.4707 -0.9376  2.6663
 6389TIP3    H219111   6.593   1.300   1.606  0.7177  0.2737 -0.3507
 6390TIP3   OH219112   7.526   6.529   1.769  0.5913  0.0860  0.2188
 6390TIP3    H119113   7.557   6.533   1.860  0.7463 -0.4444  0.1892
 6390TIP3    H219114   7.521   6.436   1.749 -0.0960  0.1824 -0.0953
 6391TIP3   OH219115   6.728   1.647   3.193  0.4395 -0.0544  0.1202
 6391TIP3    H119116   6.653   1.671   3.139  0.4459 -0.2609  0.0164
 6391TIP3    H219117   6.690   1.600   3.267  0.3691  0.8581  0.6704
 6392TIP3   OH219118   2.126   4.814   4.478  0.2465 -0.3628  0.1821
 6392TIP3    H119119   2.128   4.743   4.542  1.1431 -1.9542 -1.5139
 6392TIP3    H219120   2.208   4.804   4.429 -1.7337 -1.2713 -3.2739
 6393TIP3   OH219121   6.307   4.184   6.406 -0.1580  0.3873  0.2267
 6393TIP3    H119122   6.334   4.149   6.491 -1.1983 -0.3723  0.2601
 6393TIP3    H219123   6.343   4.122   6.342 -2.0665 -0.8561  0.2899
 6394TIP3   OH219124   7.109   4.200   1.259  0.0094  0.0640  0.0472
 6394TIP3    H119125   7.169   4.128   1.276  2.1047  1.6192 -0.4217
 6394TIP3    H219126   7.093   4.196   1.165 -0.5005 -0.2315  0.1416
 6395TIP3   OH219127   5.919   2.768   5.619 -0.1774 -1.1519  0.0388
 6395TIP3    H119128   5.842   2.806   5.662  0.2567  3.0201 -2.3567
 6395TIP3    H219129   5.990   2.830   5.638  1.0921 -1.6189 -2.6507
 6396TIP3   OH219130   2.518   5.934   0.768  0.7700 -0.1221 -0.3301
 6396TIP3    H119131   2.479   5.912   0.683  0.1045  0.2104 -0.1191
 6396TIP3    H219132   2.446   5.976   0.816  0.0877 -3.2859  1.6666
 6397TIP3   OH219133   3.747   2.579   3.913  0.6356 -0.3681  0.0695
 6397TIP3    H119134   3.802   2.543   3.983  1.0936  0.5490  0.1903
 6397TIP3    H219135   3.717   2.663   3.947 -1.6531 -1.2549  0.4099
 6398TIP3   OH219136   1.920   7.153   5.067 -0.1619 -0.2800  0.4846
 6398TIP3    H119137   1.983   7.158   4.995 -0.2069 -0.5778  0.4215
 6398TIP3    H219138   1.932   7.064   5.102  0.5983  0.2034  1.5174
 6399TIP3   OH219139   5.997   4.985   1.501 -0.1759  0.7228  0.6719
 6399TIP3    H119140   5.957   4.934   1.430 -0.8817  1.1805  0.7327
 6399TIP3    H219141   6.089   4.993   1.477 -0.5286  1.4040 -0.5137
 6400TIP3   OH219142   2.979   4.554   5.233  0.0279  0.1178  0.1698
 6400TIP3    H119143   3.035   4.563   5.311 -0.1917  1.0207  0.2309
 6400TIP3    H219144   3.019   4.611   5.168  1.0500 -1.7165 -0.9063
 6401TIP3   OH219145   6.416   2.894   5.713 -0.4905 -0.7075 -0.1325
 6401TIP3    H119146   6.458   2.887   5.799  0.8027  0.6342 -0.6088
 6401TIP3    H219147   6.365   2.814   5.705  0.4678 -1.5135  1.3075
 6402TIP3   OH219148   5.678   7.673   3.271  0.4318 -0.6441  0.8828
 6402TIP3    H119149   5.599   7.720   3.244  1.0131 -0.1242  0.0496
 6402TIP3    H219150   5.684   7.687   3.365  0.8844  1.4442  0.5827
 6403TIP3   OH219151   4.937   3.054   1.453 -0.0860 -0.1288 -0.3035
 6403TIP3    H119152   5.006   3.105   1.409 -0.2425  0.4977  0.1656
 6403TIP3    H219153   4.875   3.120   1.485 -0.4508 -0.6368  0.0498
 6404TIP3   OH219154   3.235   2.386   5.333 -0.5148  0.1376 -0.3458
 6404TIP3    H119155   3.163   2.325   5.351 -0.7353  0.3029 -0.6508
 6404TIP3    H219156   3.296   2.336   5.279 -0.0369 -0.2375  0.5299
 6405TIP3   OH219157   3.600   5.257   4.158 -0.1686 -0.1349  0.2331
 6405TIP3    H119158   3.634   5.339   4.193 -2.5270  0.1178  2.2396
 6405TIP3    H219159   3.675   5.199   4.155  0.9122  1.0418  2.2172
 6406TIP3   OH219160   3.125   3.623   3.478  0.5456 -0.3764  0.5587
 6406TIP3    H119161   3.129   3.596   3.386 -0.0811  0.2693  0.3372
 6406TIP3    H219162   3.210   3.596   3.514  1.3560  0.5909 -0.5405
 6407TIP3   OH219163   0.531   6.701   1.549 -0.7157 -0.3866 -0.0839
 6407TIP3    H119164   0.517   6.636   1.481 -0.5935 -2.0480  1.3987
 6407TIP3    H219165   0.453   6.756   1.547 -0.7945 -0.5294 -1.4003
 6408TIP3   OH219166   6.137   2.041   4.635 -0.3580 -0.6801  0.1343
 6408TIP3    H119167   6.160   2.133   4.622  0.0186 -0.3054  2.8139
 6408TIP3    H219168   6.196   1.993   4.577 -1.4631  0.7604 -2.3161
 6409TIP3   OH219169   2.474   3.782   1.406  0.0355  0.1680  0.2375
 6409TIP3    H119170   2.444   3.872   1.417  1.1896  0.6224 -0.1540
 6409TIP3    H219171   2.431   3.734   1.477 -1.1203  0.8788  0.0459
 6410TIP3   OH219172   5.759   5.165   1.363  0.1584  0.0537  0.4700
 6410TIP3    H119173   5.676   5.191   1.322  0.9591  0.1600 -1.1445
 6410TIP3    H219174   5.764   5.070   1.348 -0.9421 -0.5042  3.0216
 6411TIP3   OH219175   1.085   6.011   1.662  0.2880  0.3287  0.7149
 6411TIP3    H119176   1.079   6.096   1.704  1.2906  1.1547 -0.7303
 6411TIP3    H219177   1.111   5.951   1.732 -0.9730  1.0604  1.8662
 6412TIP3   OH219178   3.567   7.678   0.803  0.0252 -0.5436  0.3623
 6412TIP3    H119179   3.620   7.758   0.805  0.3043 -0.7409  1.6693
 6412TIP3    H219180   3.539   7.671   0.712 -0.8876  1.6276  0.4077
 6413TIP3   OH219181   2.356   1.733   1.756  0.1275  0.5013 -0.0632
 6413TIP3    H119182   2.379   1.808   1.701 -1.7264  1.2342  0.0765
 6413TIP3    H219183   2.262   1.742   1.770 -0.3633 -2.3620 -0.7945
 6414TIP3   OH219184   7.418   3.869   2.849 -0.2185  0.3428 -0.1725
 6414TIP3    H119185   7.429   3.958   2.882  0.9145  0.0583  0.2514
 6414TIP3    H219186   7.507   3.837   2.834 -0.6042 -0.7150 -0.3335
 6415TIP3   OH219187   5.528   7.218   1.464 -0.3229  0.1692 -0.1945
 6415TIP3    H119188   5.592   7.245   1.398  1.8655 -1.0397  1.3180
 6415TIP3    H219189   5.550   7.127   1.483 -1.8188  0.0573  1.2038
 6416TIP3   OH219190   1.454   0.986   4.119 -0.5713 -0.2395 -0.3253
 6416TIP3    H119191   1.430   0.977   4.211 -0.1869 -0.2375 -0.2217
 6416TIP3    H219192   1.375   1.016   4.076 -0.8846 -0.6801 -0.0698
 6417TIP3   OH219193   1.951   1.260   0.433 -0.0497 -0.2340 -0.0431
 6417TIP3    H119194   2.019   1.250   0.366  0.9106  1.8317  0.5524
 6417TIP3    H219195   1.999   1.260   0.516 -0.7137  1.4936  0.3756
 6418TIP3   OH219196   1.000   0.475   6.075 -0.0587 -0.1946 -0.1939
 6418TIP3    H119197   1.071   0.510   6.127 -0.0243  2.4559 -1.8310
 6418TIP3    H219198   0.977   0.392   6.117  4.0193 -1.2442  0.3362
 6419TIP3   OH219199   1.144   2.648   2.511  0.1747  0.0752 -0.1546
 6419TIP3    H119200   1.162   2.721   2.570  0.3592  0.4248 -0.6355
 6419TIP3    H219201   1.054   2.663   2.482 -0.1144 -0.4057  0.4639
 6420TIP3   OH219202   4.521   4.475   0.040  0.1209  0.2148  0.1602
 6420TIP3    H119203   4.519   4.385   0.073 -1.3582 -0.2639 -1.0829
 6420TIP3    H219204   4.608   4.507   0.061  1.1238 -1.9490 -0.4473
 6421TIP3   OH219205   5.763   6.929   3.983 -0.1282 -0.1639 -0.2356
 6421TIP3    H119206   5.795   7.017   4.005  1.1140 -0.4622 -0.7633
 6421TIP3    H219207   5.668   6.938   3.983 -0.0641  0.8999  0.8656
 6422TIP3   OH219208   7.047   7.493   4.511 -0.0622 -0.2743 -0.3059
 6422TIP3    H119209   6.977   7.431   4.531 -0.3087  0.0504 -0.1563
 6422TIP3    H219210   7.018   7.538   4.432 -0.4662  0.5308  0.2970
 6423TIP3   OH219211   4.727   7.635   5.895 -0.2477 -0.2723  0.2541
 6423TIP3    H119212   4.714   7.622   5.989  1.4208  1.0365  0.7089
 6423TIP3    H219213   4.817   7.608   5.879  0.8819  3.2425 -0.1213
 6424TIP3   OH219214   1.038   5.789   3.025  0.1448  0.4728  0.2003
 6424TIP3    H119215   1.007   5.854   2.962 -2.2269 -1.8466 -1.2460
 6424TIP3    H219216   0.997   5.814   3.107  0.5104  1.6169  0.0616
 6425TIP3   OH219217   2.869   1.112   3.851 -0.2130 -0.1420  0.2990
 6425TIP3    H119218   2.785   1.114   3.806  0.6389  1.7352 -1.3023
 6425TIP3    H219219   2.933   1.090   3.783  1.0475  2.3283  0.5739
 6426TIP3   OH219220   3.866   2.969   1.595 -0.1643  0.5521  0.2131
 6426TIP3    H119221   3.787   2.969   1.540 -0.7140 -0.8132  0.9456
 6426TIP3    H219222   3.878   3.061   1.620 -0.4305  1.0573 -1.4098
 6427TIP3   OH219223   2.792   5.910   5.724 -0.1989 -0.4046  0.2109
 6427TIP3    H119224   2.853   5.841   5.749 -1.9795 -1.2646  2.6018
 6427TIP3    H219225   2.754   5.879   5.641  0.4714 -1.2948  0.2171
 6428TIP3   OH219226   5.753   3.208   4.550 -0.3664  0.2254 -0.1500
 6428TIP3    H119227   5.835   3.255   4.564 -0.1656 -0.2442  0.3013
 6428TIP3    H219228   5.751   3.142   4.620 -0.7318 -0.3038 -0.6460
 6429TIP3   OH219229   1.775   2.094   3.761 -0.0910  0.3233  0.2679
 6429TIP3    H119230   1.868   2.112   3.756 -0.3240  1.3218 -1.2653
 6429TIP3    H219231   1.769   2.010   3.807  1.3816  1.3956  2.6094
 6430TIP3   OH219232   1.304   5.211   0.317  0.2073 -0.0151  0.1416
 6430TIP3    H119233   1.237   5.146   0.297  0.9433 -0.4332 -1.1554
 6430TIP3    H219234   1.260   5.295   0.308 -0.9669 -0.2950  2.6380
 6431TIP3   OH219235   6.081   3.055   2.003  0.5352 -0.9342  0.2990
 6431TIP3    H119236   6.165   3.101   2.003 -0.4435  1.0240 -1.5368
 6431TIP3    H219237   6.063   3.039   2.096  1.6928  1.0420  0.9288
 6432TIP3   OH219238   5.804   1.184   3.899 -0.5712  0.2858 -0.1547
 6432TIP3    H119239   5.722   1.234   3.902 -0.2538  0.9657 -1.9494
 6432TIP3    H219240   5.795   1.128   3.822  1.0182  1.0453 -0.9259
 6433TIP3   OH219241   7.945   6.762   6.270  0.0924  0.6645 -0.0455
 6433TIP3    H119242   7.932   6.856   6.257 -0.4749  0.6442  0.3087
 6433TIP3    H219243   7.936   6.750   6.365  0.8192  0.3436 -0.0064
 6434TIP3   OH219244   7.809   5.281   5.836 -0.4011 -0.4665 -0.2256
 6434TIP3    H119245   7.855   5.236   5.766  0.2110 -0.3997  0.1213
 6434TIP3    H219246   7.759   5.212   5.880 -0.3376 -0.6076 -0.3738
 6435TIP3   OH219247   6.533   0.705   4.433 -0.1099  0.5928 -0.4679
 6435TIP3    H119248   6.593   0.750   4.493  1.1791 -0.5371 -0.8495
 6435TIP3    H219249   6.538   0.755   4.352 -0.6858  1.2482 -0.1047
 6436TIP3   OH219250   7.938   1.664   5.925 -0.3568 -0.0445 -0.3376
 6436TIP3    H119251   7.872   1.614   5.877 -0.4473  0.2656 -0.5399
 6436TIP3    H219252   7.903   1.670   6.014 -0.8146  0.4988 -0.5538
 6437TIP3   OH219253   0.870   2.006   6.747  0.3538  0.0205 -0.1224
 6437TIP3    H119254   0.824   2.089   6.730  0.7921 -0.0732 -2.0789
 6437TIP3    H219255   0.806   1.939   6.725 -0.1689 -0.2086  1.9526
 6438TIP3   OH219256   2.025   6.509   5.542  0.4002  0.1102 -0.3823
 6438TIP3    H119257   2.081   6.454   5.597 -0.8142  0.8744  1.7317
 6438TIP3    H219258   2.083   6.580   5.514  0.9344 -0.0238  0.3419
 6439TIP3   OH219259   2.343   0.858   6.211 -0.0727 -0.3956 -0.1873
 6439TIP3    H119260   2.265   0.863   6.266 -1.1949 -0.9766 -1.6544
 6439TIP3    H219261   2.382   0.946   6.217 -2.2362  0.7304 -1.3251
 6440TIP3   OH219262   2.365   2.665   1.741 -0.4698 -0.4194  0.2796
 6440TIP3    H119263   2.334   2.627   1.658  0.1750  0.0425 -0.1812
 6440TIP3    H219264   2.418   2.596   1.780 -1.0926 -0.7811  0.5042
 6441TIP3   OH219265   2.366   2.732   1.289 -0.1899 -0.1513  0.1468
 6441TIP3    H119266   2.427   2.803   1.309  0.3818 -0.8339  0.8774
 6441TIP3    H219267   2.283   2.777   1.272  0.5414  0.8007 -1.0794
 6442TIP3   OH219268   1.301   3.301   1.792 -0.1820 -0.3638  0.2422
 6442TIP3    H119269   1.365   3.291   1.863 -0.8652 -1.6564  0.7159
 6442TIP3    H219270   1.351   3.287   1.712  0.9440  2.6630  0.2867
 6443TIP3   OH219271   7.973   1.841   3.174 -0.1508 -0.1178  0.3103
 6443TIP3    H119272   7.993   1.887   3.092  0.0432  1.7212  1.3486
 6443TIP3    H219273   7.883   1.868   3.195 -0.4622 -1.1452  0.3664
 6444TIP3   OH219274   1.982   6.029   1.505  0.3877 -0.0655 -0.1911
 6444TIP3    H119275   1.947   6.116   1.524  0.8738  0.3176 -0.9687
 6444TIP3    H219276   2.008   5.994   1.590 -1.0794 -0.0204  0.3054
 6445TIP3   OH219277   6.989   6.349   6.431 -0.4378  0.4472  0.2965
 6445TIP3    H119278   7.049   6.422   6.446 -1.2116  1.2600 -0.4456
 6445TIP3    H219279   7.043   6.281   6.392 -0.0707  1.3111 -0.7423
 6446TIP3   OH219280   1.372   3.921   6.054  0.2502  0.1640 -0.4668
 6446TIP3    H119281   1.344   3.843   6.103  0.8955  0.7429  0.8780
 6446TIP3    H219282   1.464   3.904   6.033  0.7717  1.0756  0.9550
 6447TIP3   OH219283   2.220   0.517   1.155  0.0765 -0.1392  0.0751
 6447TIP3    H119284   2.312   0.539   1.170  0.0586  0.4115 -0.5684
 6447TIP3    H219285   2.173   0.599   1.169 -0.2896 -0.3489  0.1027
 6448TIP3   OH219286   3.757   3.549   0.448 -0.5282  0.0344  0.3417
 6448TIP3    H119287   3.825   3.608   0.479  1.3341 -1.9096  0.2172
 6448TIP3    H219288   3.687   3.607   0.418  1.1939  2.1587  0.1440
 6449TIP3   OH219289   6.223   5.796   0.855 -0.9645  0.8279 -0.4834
 6449TIP3    H119290   6.199   5.704   0.847 -2.9391  1.4040 -2.2217
 6449TIP3    H219291   6.292   5.809   0.789  0.5724  0.2702  0.9611
 6450TIP3   OH219292   6.420   6.963   2.698  0.3251 -0.3168 -0.1143
 6450TIP3    H119293   6.453   7.046   2.733  1.0517 -0.9703  0.8029
 6450TIP3    H219294   6.350   6.989   2.637 -1.2219  0.8702  2.0269
 6451TIP3   OH219295   2.274   1.128   3.871 -0.2108 -0.0103 -0.2932
 6451TIP3    H119296   2.240   1.217   3.861  2.9118  1.1717 -1.6813
 6451TIP3    H219297   2.306   1.124   3.961 -0.7212  0.1088 -0.1029
 6452TIP3   OH219298   0.425   0.458   5.517  0.6379 -0.0801 -0.0204
 6452TIP3    H119299   0.425   0.403   5.438 -0.7800 -1.8114  1.1212
 6452TIP3    H219300   0.354   0.520   5.502  0.9423  0.1658 -0.4711
 6453TIP3   OH219301   4.405   3.797   6.001  0.2079 -0.3599 -0.0119
 6453TIP3    H119302   4.393   3.738   5.926 -0.7402  1.1737 -1.1090
 6453TIP3    H219303   4.322   3.792   6.049 -0.2798  0.8269 -0.6908
 6454TIP3   OH219304   1.781   5.176   3.478  0.5231  0.1250 -0.6625
 6454TIP3    H119305   1.848   5.234   3.442 -0.0622  0.3815 -1.3700
 6454TIP3    H219306   1.783   5.099   3.422  0.7414 -0.1926 -0.2207
 6455TIP3   OH219307   2.253   5.996   0.299 -0.2090 -0.4896  0.2891
 6455TIP3    H119308   2.230   5.921   0.246 -3.1296 -0.8586  1.9113
 6455TIP3    H219309   2.170   6.028   0.334  1.1309  2.3278  1.2281
 6456TIP3   OH219310   7.005   3.355   1.443  0.1886  0.0312  0.2120
 6456TIP3    H119311   7.025   3.294   1.371  0.5022  1.2537 -0.7574
 6456TIP3    H219312   6.922   3.323   1.478  0.2175 -0.8137 -0.4433
 6457TIP3   OH219313   0.201   1.238   4.573  0.3090  0.3516 -0.3765
 6457TIP3    H119314   0.154   1.174   4.627 -1.7452 -1.0003 -3.4404
 6457TIP3    H219315   0.273   1.188   4.535  1.7287  1.2843  0.9902
 6458TIP3   OH219316   5.402   5.234   5.450 -0.6186 -0.0033 -0.0867
 6458TIP3    H119317   5.421   5.301   5.515  0.1838  0.5088 -0.8217
 6458TIP3    H219318   5.403   5.281   5.366 -1.0116 -0.7557 -0.5271
 6459TIP3   OH219319   2.918   3.913   3.032 -0.0937 -0.1171 -0.0441
 6459TIP3    H119320   2.980   3.984   3.046 -0.0998 -0.1161 -0.0225
 6459TIP3    H219321   2.955   3.839   3.081 -0.1891 -0.0726  0.0973
 6460TIP3   OH219322   7.425   5.352   1.857 -0.4930  0.2346  0.0979
 6460TIP3    H119323   7.342   5.394   1.877 -0.3364  0.4406  0.3313
 6460TIP3    H219324   7.414   5.316   1.769 -0.8790  0.1268  0.1908
 6461TIP3   OH219325   1.922   1.678   5.790  0.0794 -0.2041 -0.7966
 6461TIP3    H119326   1.895   1.749   5.732 -0.1254 -0.3034 -0.8224
 6461TIP3    H219327   1.962   1.722   5.865 -0.3594 -0.0473 -0.6512
 6462TIP3   OH219328   2.568   7.078   1.528 -0.1815  0.5757 -0.5642
 6462TIP3    H119329   2.566   7.126   1.446  0.8063 -0.4916 -1.2485
 6462TIP3    H219330   2.528   6.993   1.508  1.8696 -0.4725 -0.5258
 6463TIP3   OH219331   0.672   1.279   3.680 -0.2031 -0.2087  0.6041
 6463TIP3    H119332   0.586   1.252   3.710 -0.9181 -0.8849 -1.8055
 6463TIP3    H219333   0.713   1.319   3.756 -3.0689  1.2097  1.5396
 6464TIP3   OH219334   1.103   1.288   1.676 -0.0298 -0.2284  0.1635
 6464TIP3    H119335   1.175   1.226   1.663 -0.2510 -0.7480  1.2176
 6464TIP3    H219336   1.094   1.292   1.772 -0.6410  0.7190  0.0696
 6465TIP3   OH219337   1.594   4.933   2.913 -0.1273 -0.1346  0.2569
 6465TIP3    H119338   1.643   4.925   2.831  1.0707  1.2042  0.7924
 6465TIP3    H219339   1.551   4.848   2.924  1.5005 -1.1286 -0.6218
 6466TIP3   OH219340   5.929   5.833   3.559  0.0255 -0.2165 -0.0481
 6466TIP3    H119341   6.004   5.837   3.618 -0.8560  0.7188  1.0582
 6466TIP3    H219342   5.947   5.758   3.502  0.5628 -1.6294  1.8845
 6467TIP3   OH219343   8.228   0.790   0.223  0.0275 -0.1389 -0.7243
 6467TIP3    H119344   8.189   0.705   0.243 -0.0843  0.0133 -0.3006
 6467TIP3    H219345   8.231   0.836   0.307  0.4782  0.1152 -0.8734
 6468TIP3   OH219346   4.199   6.036   3.822  0.3365  0.2251  0.3640
 6468TIP3    H119347   4.171   6.039   3.914 -0.6396  2.8744  0.0533
 6468TIP3    H219348   4.284   6.081   3.822  0.0949  0.6845 -0.0937
 6469TIP3   OH219349   6.999   3.944   1.725  0.2950  0.0310  0.2194
 6469TIP3    H119350   7.032   3.950   1.815  0.4106  0.5203  0.1492
 6469TIP3    H219351   7.074   3.913   1.674  1.2394  2.6993 -0.2228
 6470TIP3   OH219352   2.088   1.893   6.388  0.2791  0.3472  0.2066
 6470TIP3    H119353   2.162   1.876   6.445  0.1250  0.8390  0.5636
 6470TIP3    H219354   2.029   1.819   6.402  0.6143  0.0445  0.0515
 6471TIP3   OH219355   2.426   5.718   6.128 -0.0114  0.6681  0.1778
 6471TIP3    H119356   2.475   5.737   6.048  0.4992 -0.7255  0.1229
 6471TIP3    H219357   2.493   5.693   6.191 -0.4103  1.7762  1.0736
 6472TIP3   OH219358   7.433   0.773   5.737 -0.0717  0.2020  0.2834
 6472TIP3    H119359   7.375   0.806   5.805 -0.8638 -1.5178  0.5186
 6472TIP3    H219360   7.521   0.797   5.766 -0.4773  0.4523  1.3549
 6473TIP3   OH219361   6.401   7.691   0.341  0.3100 -0.7660  0.0623
 6473TIP3    H119362   6.437   7.774   0.371  0.3728 -0.8694  0.2689
 6473TIP3    H219363   6.408   7.696   0.245 -0.6129 -0.1081  0.0143
 6474TIP3   OH219364   2.497   2.122   6.732  0.4454 -0.6375 -0.3436
 6474TIP3    H119365   2.461   2.040   6.700  0.2368 -0.7506  0.1718
 6474TIP3    H219366   2.435   2.189   6.704 -0.7955 -0.9505  1.5085
 6475TIP3   OH219367   4.044   7.340   6.630 -0.2654 -0.0665 -0.1696
 6475TIP3    H119368   4.059   7.423   6.676  0.1594 -1.1728  1.7910
 6475TIP3    H219369   3.983   7.292   6.686 -0.0215 -1.3348 -0.9382
 6476TIP3   OH219370   1.825   4.456   0.450 -0.2327  0.1193 -0.0870
 6476TIP3    H119371   1.834   4.541   0.407 -2.5889  0.3730 -0.2178
 6476TIP3    H219372   1.843   4.392   0.381  0.3588  0.5048 -0.2967
 6477TIP3   OH219373   5.801   0.152   0.193 -0.0319 -0.6849  0.2912
 6477TIP3    H119374   5.733   0.204   0.236  0.4170 -0.9862  1.3947
 6477TIP3    H219375   5.850   0.112   0.265  1.7389  0.0486 -0.4405
 6478TIP3   OH219376   4.028   3.518   6.596 -0.2968  0.0490  0.2240
 6478TIP3    H119377   4.008   3.471   6.677  1.0492  0.1368  0.6400
 6478TIP3    H219378   3.945   3.555   6.568 -1.0217 -1.0087  0.9034
 6479TIP3   OH219379   1.651   3.287   1.232 -0.4745 -0.6893  0.6688
 6479TIP3    H119380   1.688   3.202   1.254 -2.0523 -2.5106 -2.9052
 6479TIP3    H219381   1.687   3.308   1.146  0.1960  2.5558  1.6126
 6480TIP3   OH219382   2.368   2.312   3.103  0.0058  0.0916  0.1255
 6480TIP3    H119383   2.439   2.373   3.123 -0.1569  0.1146  0.6377
 6480TIP3    H219384   2.393   2.231   3.146 -0.1545  0.0202  0.0846
 6481TIP3   OH219385   4.084   5.853   3.015 -0.1504  0.4442 -0.0041
 6481TIP3    H119386   4.112   5.940   2.986  0.7903 -0.5461 -2.2933
 6481TIP3    H219387   4.019   5.825   2.950 -0.8130 -0.3831  0.9722
 6482TIP3   OH219388   7.200   6.955   4.739 -0.1571  0.6930  0.3422
 6482TIP3    H119389   7.144   7.002   4.677  1.7982  1.9358 -0.5863
 6482TIP3    H219390   7.204   7.012   4.816  1.2847  1.5440 -0.3305
 6483TIP3   OH219391   3.142   2.428   6.445 -0.3829  0.0648  0.4520
 6483TIP3    H119392   3.059   2.445   6.402 -0.0111  0.1090 -0.2685
 6483TIP3    H219393   3.123   2.433   6.539 -1.5814 -1.6990  0.3571
 6484TIP3   OH219394   5.145   1.010   4.305  0.5516  0.0244  0.5068
 6484TIP3    H119395   5.110   1.014   4.394  1.0455  1.1556  0.6772
 6484TIP3    H219396   5.173   0.920   4.294  1.9870  0.2196  2.1129
 6485TIP3   OH219397   4.806   3.052   2.939 -0.5191  1.0481 -0.2481
 6485TIP3    H119398   4.839   2.972   2.980 -1.5126  0.8479  0.1823
 6485TIP3    H219399   4.724   3.026   2.897 -0.3227  1.6133 -1.0050
 6486TIP3   OH219400   1.593   3.112   6.450  0.2079 -0.1812 -0.0539
 6486TIP3    H119401   1.587   3.042   6.515 -2.3699  0.0702  0.0764
 6486TIP3    H219402   1.576   3.069   6.366  0.1338  0.0433 -0.1540
 6487TIP3   OH219403   6.236   3.519   2.402  0.1086  0.0249 -0.3914
 6487TIP3    H119404   6.225   3.553   2.491 -0.7109  0.1248 -0.5234
 6487TIP3    H219405   6.147   3.500   2.373  0.4737 -1.2647 -0.7003
 6488TIP3   OH219406   3.039   4.096   5.858 -0.1822  0.2448  0.3162
 6488TIP3    H119407   3.020   4.002   5.857  0.7345  0.0519 -0.2534
 6488TIP3    H219408   3.115   4.105   5.800  0.5835  1.1565  1.4377
 6489TIP3   OH219409   2.993   3.643   2.749  0.2454 -0.0376  0.1309
 6489TIP3    H119410   2.907   3.609   2.775  1.1608  0.1715  4.1906
 6489TIP3    H219411   2.978   3.735   2.729 -0.5946 -0.2448 -0.2369
 6490TIP3   OH219412   2.200   1.169   2.294  1.1844  0.2796 -0.1230
 6490TIP3    H119413   2.239   1.256   2.296  0.7725  0.4837 -0.6088
 6490TIP3    H219414   2.194   1.143   2.386 -0.5896  1.6512  0.2092
 6491TIP3   OH219415   2.468   2.848   4.321  0.4875 -0.1719 -0.0622
 6491TIP3    H119416   2.517   2.850   4.239 -1.4621 -1.5177 -1.3526
 6491TIP3    H219417   2.386   2.892   4.301 -0.7360 -2.0078  0.6184
 6492TIP3   OH219418   8.262   5.609   2.929  0.0255  0.4036  0.3375
 6492TIP3    H119419   8.269   5.559   2.847 -2.6125  0.6615 -0.1581
 6492TIP3    H219420   8.342   5.589   2.976  1.7768  0.4432 -2.3910
 6493TIP3   OH219421   4.807   5.938   2.059 -0.4954  0.3346 -0.4804
 6493TIP3    H119422   4.786   6.032   2.057  1.6478  0.8431 -1.2596
 6493TIP3    H219423   4.776   5.905   1.975  0.8174  0.8627 -1.1957
 6494TIP3   OH219424   7.750   1.915   0.307  0.3786 -0.0449 -0.5928
 6494TIP3    H119425   7.819   1.879   0.251  0.3821  1.5687 -1.6825
 6494TIP3    H219426   7.698   1.970   0.249 -1.8421 -1.1624  0.2020
 6495TIP3   OH219427   2.043   3.177   1.580  0.0738  0.3194 -0.5489
 6495TIP3    H119428   2.127   3.135   1.600  0.4191  1.8296  1.5467
 6495TIP3    H219429   2.067   3.265   1.552 -0.7986  0.8668  0.3714
 6496TIP3   OH219430   2.770   1.039   5.269 -0.3867  0.0526  0.2122
 6496TIP3    H119431   2.688   1.085   5.253 -0.7486  0.0999  2.0302
 6496TIP3    H219432   2.761   0.956   5.223 -2.5349 -1.0324  2.4040
 6497TIP3   OH219433   3.258   5.611   1.684  0.2217 -0.4469  0.0045
 6497TIP3    H119434   3.193   5.668   1.727  1.1693  0.8818 -0.2558
 6497TIP3    H219435   3.207   5.563   1.618 -0.5525  0.4196 -0.0577
 6498TIP3   OH219436   0.056   3.643   6.368  0.0950  0.0686 -0.8623
 6498TIP3    H119437   0.089   3.730   6.392 -1.0375  0.3663 -0.2797
 6498TIP3    H219438  -0.039   3.656   6.358 -0.0895 -1.0960 -0.7866
 6499TIP3   OH219439   4.998   2.300   1.827  0.2461  0.7015 -0.6576
 6499TIP3    H119440   4.969   2.328   1.914  1.1456 -0.0267 -0.1010
 6499TIP3    H219441   5.023   2.381   1.783 -1.6569  1.2526 -0.8192
 6500TIP3   OH219442   4.049   0.587   1.651  0.0470  0.0457 -0.2653
 6500TIP3    H119443   4.046   0.535   1.731 -2.7554  0.0254 -0.2649
 6500TIP3    H219444   4.104   0.537   1.591 -1.1317 -2.0791  0.3162
 6501TIP3   OH219445   3.292   7.381   6.014 -0.1059  0.3056 -0.2321
 6501TIP3    H119446   3.200   7.399   6.029 -0.2112  0.0187 -0.5230
 6501TIP3    H219447   3.293   7.298   5.966  0.3544 -0.3572  0.8791
 6502TIP3   OH219448   4.424   6.403   0.179  0.6016  0.5970  0.1023
 6502TIP3    H119449   4.347   6.401   0.122 -0.0190 -0.7845  0.9123
 6502TIP3    H219450   4.451   6.494   0.180 -2.0947  1.4957  1.1412
 6503TIP3   OH219451   1.804   4.913   6.707  0.0217 -0.2651 -0.5109
 6503TIP3    H119452   1.721   4.939   6.747  0.8697  1.2340  0.3415
 6503TIP3    H219453   1.824   4.984   6.646 -0.7574 -2.0348 -3.0008
 6504TIP3   OH219454   7.371   2.637   4.823  0.4141  0.0758  0.6709
 6504TIP3    H119455   7.466   2.620   4.824  0.4791  0.1514 -0.9708
 6504TIP3    H219456   7.336   2.582   4.894  1.4420 -1.6854 -0.1004
 6505TIP3   OH219457   3.299   0.414   0.903 -0.4029 -0.0311 -0.1525
 6505TIP3    H119458   3.292   0.448   0.992 -0.5716 -0.6897  0.0923
 6505TIP3    H219459   3.263   0.483   0.848  1.1915  1.0682  0.1280
 6506TIP3   OH219460   7.516   2.729   1.311 -0.0574 -0.0412 -0.3440
 6506TIP3    H119461   7.605   2.713   1.343  0.3902 -1.6246 -2.2015
 6506TIP3    H219462   7.469   2.765   1.386  1.1588 -2.6379  1.8104
 6507TIP3   OH219463   2.919   5.752   6.509 -0.2210  0.5152 -0.0833
 6507TIP3    H119464   2.946   5.842   6.489  2.2376 -0.2172 -0.3844
 6507TIP3    H219465   2.977   5.697   6.456 -1.6831 -1.2717  0.0715
 6508TIP3   OH219466   6.745   3.414   5.795 -0.1021  0.5155  0.4354
 6508TIP3    H119467   6.685   3.348   5.762 -1.2529  1.1119  1.2458
 6508TIP3    H219468   6.758   3.475   5.722 -0.8586  0.6291  0.3932
 6509TIP3   OH219469   0.365   2.954   5.995  0.2328  0.7105  0.2300
 6509TIP3    H119470   0.316   2.991   5.922 -0.2436  0.5345  0.4543
 6509TIP3    H219471   0.382   3.029   6.052 -1.2860  0.5083  0.9960
 6510TIP3   OH219472   0.147   3.284   0.701  0.4769 -0.3080 -0.6147
 6510TIP3    H119473   0.234   3.303   0.666  0.3609  0.0779 -0.6990
 6510TIP3    H219474   0.151   3.193   0.730  1.0620 -0.1474 -0.1725
 6511TIP3   OH219475   2.026   5.951   5.933 -0.2695 -0.0288  0.9983
 6511TIP3    H119476   1.978   5.932   5.853  0.8386  1.0821  0.0301
 6511TIP3    H219477   2.097   5.887   5.934 -0.9726 -0.8174  1.7389
 6512TIP3   OH219478   6.593   2.893   5.947 -0.0574  0.4255  0.0543
 6512TIP3    H119479   6.666   2.921   6.002 -0.8490  1.6829  0.5091
 6512TIP3    H219480   6.515   2.906   6.001 -0.5719 -1.9568 -0.0175
 6513TIP3   OH219481   5.254   6.568   3.285 -0.3429 -0.1163  0.1002
 6513TIP3    H119482   5.311   6.535   3.354 -1.9284 -1.9445  0.6447
 6513TIP3    H219483   5.228   6.655   3.315 -1.2324 -0.9788  2.0183
 6514TIP3   OH219484   3.692   1.889   4.207 -0.1571 -0.1225  0.0257
 6514TIP3    H119485   3.627   1.823   4.183 -0.6957  0.0850  0.8869
 6514TIP3    H219486   3.644   1.972   4.205  0.6240  0.3473 -1.5271
 6515TIP3   OH219487   3.619   5.185   2.813 -0.3006  0.6586 -0.4298
 6515TIP3    H119488   3.628   5.105   2.762  0.4921  0.2024  0.3855
 6515TIP3    H219489   3.687   5.244   2.778  2.3089 -0.6996  1.9074
 6516TIP3   OH219490   2.512   7.532   6.672 -0.3928  0.1805 -0.1074
 6516TIP3    H119491   2.564   7.452   6.670 -2.4347 -1.2364  0.1405
 6516TIP3    H219492   2.573   7.601   6.647  1.4424 -1.4368 -0.3323
 6517TIP3   OH219493   7.956   6.897   5.418  0.9347  0.1313 -0.0874
 6517TIP3    H119494   7.860   6.902   5.413  0.8325 -1.8846 -0.9574
 6517TIP3    H219495   7.986   6.951   5.345  0.5961  2.4915  1.3998
 6518TIP3   OH219496   7.130   0.851   2.218  0.6350 -0.1303  0.1711
 6518TIP3    H119497   7.198   0.866   2.284  0.3978  2.3242 -0.0479
 6518TIP3    H219498   7.049   0.874   2.263  0.2646 -0.2213 -0.4447
 6519TIP3   OH219499   0.633   3.218   1.329 -0.2282 -0.0730 -0.1702
 6519TIP3    H119500   0.582   3.263   1.396  0.7487  0.2573  0.3780
 6519TIP3    H219501   0.700   3.282   1.303  0.5094 -0.8168 -0.1583
 6520TIP3   OH219502   3.269   5.048   1.215  0.0548  0.3400  0.1756
 6520TIP3    H119503   3.344   5.011   1.168  0.1527 -1.8176  1.8587
 6520TIP3    H219504   3.288   5.031   1.307 -0.1088  4.4318  1.1419
 6521TIP3   OH219505   2.315   4.902   3.825  0.3113 -0.1259 -0.1139
 6521TIP3    H119506   2.371   4.889   3.748 -0.2322  2.9649 -1.1664
 6521TIP3    H219507   2.364   4.964   3.879 -2.4673  3.9719 -1.8061
 6522TIP3   OH219508   0.144   2.928   4.799  0.3570  0.6100  0.2353
 6522TIP3    H119509   0.237   2.921   4.819  0.4319  0.1338 -0.2593
 6522TIP3    H219510   0.100   2.908   4.882  0.6782 -0.4397  0.1675
 6523TIP3   OH219511   7.106   0.495   2.356 -0.4628  0.1404 -0.1684
 6523TIP3    H119512   7.013   0.494   2.332 -0.1960 -0.4843 -1.2421
 6523TIP3    H219513   7.152   0.516   2.274  0.3142  1.1493  0.5018
 6524TIP3   OH219514   2.539   1.088   6.216  0.2627 -0.3566  0.0536
 6524TIP3    H119515   2.611   1.140   6.251  0.5902 -0.5681 -0.2906
 6524TIP3    H219516   2.547   1.098   6.121  0.5097 -1.2613 -0.0360
 6525TIP3   OH219517   6.543   7.249   2.744 -0.3529 -0.4190  0.1142
 6525TIP3    H119518   6.596   7.296   2.680 -0.4274  0.1190  0.4428
 6525TIP3    H219519   6.477   7.313   2.772  1.2093  0.2300  2.6111
 6526TIP3   OH219520   4.356   6.510   5.582  0.2633 -0.2343 -0.2021
 6526TIP3    H119521   4.281   6.517   5.641  1.1589  1.2075  0.8287
 6526TIP3    H219522   4.344   6.580   5.519  0.3718 -0.4705 -0.4862
 6527TIP3   OH219523   5.592   5.589   1.272 -0.2589  0.3768 -0.0849
 6527TIP3    H119524   5.618   5.679   1.255  1.3686  0.1987  1.2159
 6527TIP3    H219525   5.521   5.572   1.209 -0.9919  2.7105  0.0270
 6528TIP3   OH219526   1.781   3.045   3.410 -0.1769  0.8601  0.3620
 6528TIP3    H119527   1.705   2.988   3.396 -0.6320  1.1508  1.4847
 6528TIP3    H219528   1.848   2.988   3.448  0.1150  0.6399 -0.4696
 6529TIP3   OH219529   5.607   5.217   4.335  0.2367  0.3534  0.0484
 6529TIP3    H119530   5.665   5.231   4.410  1.2714  0.9763 -0.8150
 6529TIP3    H219531   5.613   5.124   4.316  1.7034  0.5396 -0.5586
 6530TIP3   OH219532   8.034   3.786   6.106 -0.4340 -0.4408  0.0590
 6530TIP3    H119533   8.006   3.773   6.016 -0.4979 -1.6507  0.2408
 6530TIP3    H219534   8.091   3.712   6.124  0.3257  0.2843  0.7265
 6531TIP3   OH219535   2.494   2.054   1.302  0.2093  0.4295 -0.3493
 6531TIP3    H119536   2.488   2.136   1.350  0.1838  0.6706 -0.7610
 6531TIP3    H219537   2.559   2.070   1.233  0.6525 -0.0831 -0.0588
 6532TIP3   OH219538   5.586   4.515   1.833  0.2791 -0.3085  0.1666
 6532TIP3    H119539   5.668   4.477   1.865 -0.0892 -0.6104  0.7598
 6532TIP3    H219540   5.534   4.529   1.911 -0.4629 -0.6407 -0.2593
 6533TIP3   OH219541   0.663   4.504   3.465 -0.2877  0.3511  0.2171
 6533TIP3    H119542   0.649   4.409   3.472 -1.0141  0.5420  1.8970
 6533TIP3    H219543   0.758   4.514   3.457 -0.1838 -0.4970  0.3185
 6534TIP3   OH219544   5.282   5.784   2.021 -0.2801 -0.3152 -0.0354
 6534TIP3    H119545   5.238   5.860   1.982  0.9527  0.4119 -0.0457
 6534TIP3    H219546   5.303   5.812   2.110  1.7332  0.0176 -0.5826
 6535TIP3   OH219547   5.977   5.514   4.751  0.7027 -0.0119 -0.1696
 6535TIP3    H119548   6.066   5.497   4.719  0.4309 -0.6588 -0.6055
 6535TIP3    H219549   5.959   5.441   4.810  0.8834  0.7277  0.8165
 6536TIP3   OH219550   7.579   4.614   6.521 -0.2697 -0.1146 -0.0875
 6536TIP3    H119551   7.487   4.632   6.500  0.1790  0.6214 -1.5376
 6536TIP3    H219552   7.594   4.661   6.604 -0.6934  1.4478 -0.8497
 6537TIP3   OH219553   2.070   0.961   5.926 -0.7519  0.1057 -0.2319
 6537TIP3    H119554   2.040   0.997   6.010  2.1075  2.2968  0.0049
 6537TIP3    H219555   2.112   0.878   5.949  1.3463  1.3818  0.8545
 6538TIP3   OH219556   0.734   2.033   0.142  0.0401  0.1099  0.2456
 6538TIP3    H119557   0.796   1.964   0.164 -0.7614 -1.0798 -1.1300
 6538TIP3    H219558   0.768   2.110   0.188 -0.2999 -1.6349  3.8017
 6539TIP3   OH219559   4.281   2.460   4.655 -0.1415 -0.0313  0.2403
 6539TIP3    H119560   4.376   2.449   4.646 -0.5280 -1.7693 -3.4731
 6539TIP3    H219561   4.268   2.555   4.649  1.2825  0.1188 -1.3562
 6540TIP3   OH219562   4.676   7.239   4.966 -0.2102  0.2183  0.1377
 6540TIP3    H119563   4.701   7.149   4.945 -1.0855  0.2143 -1.0344
 6540TIP3    H219564   4.735   7.293   4.913  1.9243  0.4588  2.6176
 6541TIP3   OH219565   2.041   1.835   0.764 -0.0673  0.4383 -0.0722
 6541TIP3    H119566   1.992   1.881   0.695  1.9368  0.6006 -1.4552
 6541TIP3    H219567   2.017   1.743   0.753 -2.0708  0.7554  1.0295
 6542TIP3   OH219568   3.759   5.463   5.630  0.8788 -0.4673 -0.3189
 6542TIP3    H119569   3.807   5.423   5.557  0.5138  0.7924 -1.2731
 6542TIP3    H219570   3.742   5.553   5.602  0.3390 -0.0844  1.1428
 6543TIP3   OH219571   0.519   3.267   6.559  0.1676 -0.1225 -0.0856
 6543TIP3    H119572   0.444   3.270   6.500  0.1625  2.8894 -0.0731
 6543TIP3    H219573   0.483   3.236   6.642 -0.1444 -2.7872 -1.1166
 6544TIP3   OH219574   4.943   4.015   1.302 -0.3586 -0.5949 -0.4740
 6544TIP3    H119575   4.951   3.957   1.378  2.3085  1.6935  1.2045
 6544TIP3    H219576   4.863   4.064   1.317 -0.8520 -1.4755 -0.1544
 6545TIP3   OH219577   8.139   7.045   0.525 -0.1455  0.0200  0.7841
 6545TIP3    H119578   8.067   7.102   0.550 -0.9488 -0.5798 -0.0976
 6545TIP3    H219579   8.213   7.105   0.512 -0.2285  0.5544  2.5103
 6546TIP3   OH219580   0.754   1.613   5.873  0.2417 -0.1775  0.4547
 6546TIP3    H119581   0.813   1.590   5.945 -0.2860  0.6329  1.1584
 6546TIP3    H219582   0.733   1.529   5.832  1.5437 -0.5291  0.4366
 6547TIP3   OH219583   7.020   4.789   1.676  0.1449  0.3654  0.1660
 6547TIP3    H119584   7.078   4.716   1.700 -0.3606  0.0961  0.5953
 6547TIP3    H219585   6.948   4.784   1.739 -0.7559  0.2153 -0.8536
 6548TIP3   OH219586   1.382   0.504   2.052 -0.0505 -0.1248  0.5423
 6548TIP3    H119587   1.380   0.599   2.039 -0.8224  0.0512  1.8370
 6548TIP3    H219588   1.308   0.472   2.000  1.5032 -0.3090 -1.7115
 6549TIP3   OH219589   1.099   6.061   0.192 -0.6843  0.0825  0.4146
 6549TIP3    H119590   1.049   5.984   0.220 -0.1192 -0.0527  1.0735
 6549TIP3    H219591   1.173   6.025   0.144 -2.7211  0.3388 -3.2858
 6550TIP3   OH219592   3.832   0.523   2.318  0.9008 -0.6109 -0.2935
 6550TIP3    H119593   3.787   0.607   2.317  0.5207 -0.7741 -2.2928
 6550TIP3    H219594   3.884   0.524   2.398  0.1576  1.1055  0.2194
 6551TIP3   OH219595   2.056   3.041   0.255  0.2729  0.2092  0.0328
 6551TIP3    H119596   2.106   2.970   0.294 -1.4780 -0.5215  1.0167
 6551TIP3    H219597   2.004   2.999   0.186  1.2865  1.0358 -1.2938
 6552TIP3   OH219598   6.262   6.815   2.027  0.5449  0.0904 -0.2881
 6552TIP3    H119599   6.172   6.845   2.014  1.1446  2.2760  0.1537
 6552TIP3    H219600   6.273   6.813   2.122  1.0772  0.2964 -0.3429
 6553TIP3   OH219601   7.984   0.133   2.919 -0.1391  0.5658  0.3978
 6553TIP3    H119602   8.024   0.165   2.838  0.6764  1.5730  1.1777
 6553TIP3    H219603   7.918   0.070   2.889  1.4574 -0.5382 -0.9597
 6554TIP3   OH219604   3.299   7.079   3.315 -0.8693 -0.1544  0.0468
 6554TIP3    H119605   3.315   7.015   3.245 -1.9258 -0.8729  0.4403
 6554TIP3    H219606   3.377   7.075   3.370 -0.1749  0.1675 -0.8784
 6555TIP3   OH219607   7.268   0.651   3.104 -0.0296 -0.3900  0.0834
 6555TIP3    H119608   7.340   0.635   3.043  0.2163 -0.1962  0.3174
 6555TIP3    H219609   7.276   0.744   3.126  1.2128 -0.8940  2.0503
 6556TIP3   OH219610   4.390   2.190   3.177  0.3696 -0.0769 -0.0231
 6556TIP3    H119611   4.349   2.154   3.255  0.4385  2.3334  1.2244
 6556TIP3    H219612   4.348   2.275   3.165  0.6257 -0.2246 -2.4359
 6557TIP3   OH219613   2.729   6.216   6.582  0.0168 -0.2401 -0.6519
 6557TIP3    H119614   2.675   6.144   6.614 -1.1883  1.1428  0.5639
 6557TIP3    H219615   2.787   6.176   6.517  0.5284 -2.6205  1.1489
 6558TIP3   OH219616   5.809   4.279   5.834  0.1947 -0.2901  0.9489
 6558TIP3    H119617   5.734   4.305   5.781 -0.3467  0.5868  2.0834
 6558TIP3    H219618   5.784   4.195   5.872  0.5898 -0.9243 -0.1731
 6559TIP3   OH219619   0.421   2.403   5.657  1.0734 -0.3247 -0.0568
 6559TIP3    H119620   0.404   2.467   5.588  0.9730 -0.5596 -0.2525
 6559TIP3    H219621   0.516   2.402   5.666  1.0646 -0.0246  0.0639
 6560TIP3   OH219622   4.881   2.816   0.826 -0.0513 -0.2630  0.0387
 6560TIP3    H119623   4.838   2.844   0.907  1.9380 -2.4158  1.9776
 6560TIP3    H219624   4.843   2.731   0.807  0.8510 -0.6263 -0.1903
 6561TIP3   OH219625   1.362   6.996   0.374  0.2679 -0.4572  0.0964
 6561TIP3    H119626   1.437   6.944   0.402  0.9711  0.1604 -0.5938
 6561TIP3    H219627   1.288   6.936   0.379  0.9656 -1.3507 -0.1052
 6562TIP3   OH219628   4.536   0.082   4.883  0.1118 -0.3790  0.1245
 6562TIP3    H119629   4.457   0.085   4.828 -0.2040 -2.2738  0.3841
 6562TIP3    H219630   4.539   0.168   4.925 -2.0844 -0.3971  0.4513
 6563TIP3   OH219631   0.151   1.986   2.251  0.0375  0.8626 -0.1301
 6563TIP3    H119632   0.060   1.985   2.223 -0.5296 -0.3131  1.5915
 6563TIP3    H219633   0.176   1.894   2.255  1.3490  1.1685 -0.6647
 6564TIP3   OH219634   5.064   7.085   5.324 -0.3026 -0.6100 -0.2368
 6564TIP3    H119635   5.040   7.148   5.256 -3.4915 -0.9832  0.4001
 6564TIP3    H219636   5.063   7.137   5.405 -0.7734 -1.0057  0.0159
 6565TIP3   OH219637   7.698   2.060   2.970 -0.2889  0.6237 -0.2602
 6565TIP3    H119638   7.605   2.059   2.991 -0.1068 -0.8764  0.6008
 6565TIP3    H219639   7.711   1.984   2.913  0.4510  0.7181 -0.2302
 6566TIP3   OH219640   4.886   3.210   3.743  0.0778  0.3529 -0.3471
 6566TIP3    H119641   4.793   3.229   3.728 -0.2972 -0.6377  0.5894
 6566TIP3    H219642   4.893   3.201   3.838  0.5943 -2.1262 -0.5626
 6567TIP3   OH219643   5.454   7.798   6.518 -0.4017 -0.8490 -0.0442
 6567TIP3    H119644   5.368   7.833   6.498 -1.0231 -0.6365  2.6353
 6567TIP3    H219645   5.437   7.710   6.552  0.6252 -1.5230 -1.1948
 6568TIP3   OH219646   2.040   6.068   3.043 -0.0954  0.3321 -0.0316
 6568TIP3    H119647   2.093   6.002   3.000 -2.7494 -1.9818 -0.0180
 6568TIP3    H219648   1.983   6.102   2.974 -1.1422  0.0139  0.6484
 6569TIP3   OH219649   2.358   2.509   3.353  0.2013  0.6655 -0.1001
 6569TIP3    H119650   2.397   2.428   3.387  1.0905  0.7667 -0.8564
 6569TIP3    H219651   2.291   2.531   3.418  0.6308 -0.1257  0.6446
 6570TIP3   OH219652   6.937   3.000   2.565 -0.1719  0.0060 -0.0174
 6570TIP3    H119653   6.994   3.075   2.583 -0.4217  0.2864 -0.3730
 6570TIP3    H219654   6.864   3.037   2.515 -0.4991 -0.4070  0.1486
 6571TIP3   OH219655   2.718   3.563   4.158  0.6838  0.2139  0.4177
 6571TIP3    H119656   2.705   3.641   4.212 -0.7228  0.1092  0.2485
 6571TIP3    H219657   2.703   3.592   4.069  2.4292  0.2464  0.0926
 6572TIP3   OH219658   0.498   0.341   4.403  0.1941 -0.3221  0.8963
 6572TIP3    H119659   0.515   0.351   4.310 -0.0935 -0.9717  0.7639
 6572TIP3    H219660   0.406   0.366   4.414  0.2491 -0.1737  1.0136
 6573TIP3   OH219661   0.648   3.995   0.526 -0.7317 -0.4841  0.1643
 6573TIP3    H119662   0.608   3.912   0.549  0.4358 -0.6122  1.9046
 6573TIP3    H219663   0.606   4.059   0.585  1.5784 -0.6449  2.1188
 6574TIP3   OH219664   6.150   0.024   2.726 -0.2906 -0.0021  0.2096
 6574TIP3    H119665   6.180   0.101   2.774  0.8323 -0.1609 -0.2189
 6574TIP3    H219666   6.093   0.058   2.658  1.4077  0.6250 -0.9556
 6575TIP3   OH219667   7.380   7.390   5.617 -0.2645 -0.0208 -0.5370
 6575TIP3    H119668   7.324   7.412   5.543  0.3669  1.6850 -0.5487
 6575TIP3    H219669   7.378   7.294   5.621 -1.3895 -0.0895 -1.8939
 6576TIP3   OH219670   7.006   0.192   1.544 -0.1693 -0.0267  0.4479
 6576TIP3    H119671   6.960   0.167   1.624  0.7488 -1.4057  0.5694
 6576TIP3    H219672   7.028   0.285   1.557 -0.5734 -0.0679  1.5111
 6577TIP3   OH219673   2.501   3.160   0.163  0.6363 -0.8570 -0.8265
 6577TIP3    H119674   2.500   3.239   0.109 -2.6197 -0.6387 -0.6591
 6577TIP3    H219675   2.528   3.090   0.104 -0.8641 -0.2963 -2.2425
 6578TIP3   OH219676   0.755   0.265   5.573 -0.7934  0.4889  0.3794
 6578TIP3    H119677   0.760   0.278   5.668  2.4011  1.3285  0.2288
 6578TIP3    H219678   0.753   0.353   5.536  2.2847  0.3954 -0.2997
 6579TIP3   OH219679   1.764   0.436   6.449  0.0870 -0.0467 -0.5404
 6579TIP3    H119680   1.800   0.445   6.361 -0.1257 -0.3733 -0.6624
 6579TIP3    H219681   1.790   0.516   6.494  2.2905 -0.8842 -0.1554
 6580TIP3   OH219682   4.328   3.327   5.018  0.3465  0.1053 -0.5766
 6580TIP3    H119683   4.273   3.386   4.966  0.1011  0.4001  0.0015
 6580TIP3    H219684   4.315   3.357   5.109  1.8467  0.5010 -0.4611
 6581TIP3   OH219685   0.986   0.154   1.708 -0.5169 -0.2698  0.0330
 6581TIP3    H119686   1.048   0.124   1.641  0.9731  1.0428  0.7614
 6581TIP3    H219687   0.996   0.092   1.779  1.0654  0.6981  0.7160
 6582TIP3   OH219688   7.073   2.198   0.184  0.5301  0.2184 -0.3220
 6582TIP3    H119689   7.086   2.195   0.278 -0.6792 -0.0417 -0.1429
 6582TIP3    H219690   7.159   2.220   0.148  0.9006  0.7493  0.8566
 6583TIP3   OH219691   7.553   5.825   0.589 -0.0291  0.2385 -0.2252
 6583TIP3    H119692   7.646   5.805   0.596  0.2790  1.5355 -0.4225
 6583TIP3    H219693   7.523   5.837   0.679  0.6639  2.6149 -0.2491
 6584TIP3   OH219694   5.830   7.455   3.436  0.0776 -0.0334  0.7169
 6584TIP3    H119695   5.763   7.486   3.376 -1.0310  0.0856  1.9742
 6584TIP3    H219696   5.864   7.535   3.476  1.1820 -0.0714 -0.0905
 6585TIP3   OH219697   5.644   5.595   2.462 -0.7015  0.2479  0.0074
 6585TIP3    H119698   5.702   5.543   2.405  1.5174  0.2424  2.1280
 6585TIP3    H219699   5.566   5.540   2.473  0.0696 -1.0299 -0.6926
 6586TIP3   OH219700   0.439   0.484   1.745  0.5247 -0.2829 -0.4698
 6586TIP3    H119701   0.411   0.491   1.836  0.5655 -0.3779 -0.4500
 6586TIP3    H219702   0.402   0.401   1.715  0.6681 -0.3405 -0.4859
 6587TIP3   OH219703   6.494   2.398   4.022  0.0167  0.6695  0.0182
 6587TIP3    H119704   6.570   2.348   4.050 -0.3232 -0.3689 -0.8418
 6587TIP3    H219705   6.420   2.339   4.034 -0.8326  1.9961  1.7859
 6588TIP3   OH219706   4.313   1.649   3.391 -0.2231  0.5832 -0.0731
 6588TIP3    H119707   4.290   1.575   3.448 -2.0080 -1.5655 -3.2394
 6588TIP3    H219708   4.263   1.723   3.425 -0.0466 -0.1631  1.9545
 6589TIP3   OH219709   0.547   1.315   6.064  0.1601 -0.3475 -0.0237
 6589TIP3    H119710   0.481   1.264   6.111  0.0987  0.0581  0.3413
 6589TIP3    H219711   0.620   1.322   6.125  0.7147 -1.1488 -0.5877
 6590TIP3   OH219712   7.020   2.775   4.310 -0.1032  0.7138 -0.5167
 6590TIP3    H119713   6.966   2.763   4.232  1.2478 -0.1810 -1.3703
 6590TIP3    H219714   6.962   2.756   4.384 -0.6008 -1.8227 -1.4609
 6591TIP3   OH219715   2.809   1.960   4.421  0.0770 -0.1895 -0.9894
 6591TIP3    H119716   2.828   1.984   4.511 -1.1040  3.3530 -1.5232
 6591TIP3    H219717   2.752   1.883   4.428 -2.0567  1.4526  1.4990
 6592TIP3   OH219718   3.189   3.491   4.464  0.5298 -0.5322  0.5537
 6592TIP3    H119719   3.141   3.535   4.534  0.7964  1.1319 -0.2715
 6592TIP3    H219720   3.136   3.506   4.385  1.5263 -0.1670 -0.0590
 6593TIP3   OH219721   1.682   0.047   0.948  0.3111 -0.0829  0.5006
 6593TIP3    H119722   1.749   0.112   0.928 -1.8192  1.7394 -1.4203
 6593TIP3    H219723   1.634   0.084   1.022  0.5479 -0.7153  0.9860
 6594TIP3   OH219724   3.251   3.883   3.578  0.6443  0.0991 -0.0898
 6594TIP3    H119725   3.191   3.814   3.550 -1.1200  1.9065 -1.0295
 6594TIP3    H219726   3.324   3.878   3.515 -0.3509  0.2237 -1.2893
 6595TIP3   OH219727   6.304   4.748   0.517  0.7905 -0.1731  0.3272
 6595TIP3    H119728   6.216   4.765   0.551  0.6745 -1.1606  0.5488
 6595TIP3    H219729   6.346   4.834   0.516 -0.1169  0.2808  0.3876
 6596TIP3   OH219730   0.335   3.332   2.944  0.3488 -0.8051  0.2800
 6596TIP3    H119731   0.280   3.317   3.021 -0.4567 -0.0784 -0.1389
 6596TIP3    H219732   0.425   3.331   2.978  0.0353 -1.1120  1.1224
 6597TIP3   OH219733   5.340   2.617   1.589 -0.0160 -0.0955 -0.3639
 6597TIP3    H119734   5.326   2.615   1.684  1.3636 -0.0192 -0.1368
 6597TIP3    H219735   5.342   2.525   1.564  1.4314 -0.1856 -0.0021
 6598TIP3   OH219736   5.351   3.162   3.512  0.4519  0.3356  0.2846
 6598TIP3    H119737   5.342   3.153   3.606 -1.8249 -2.5743 -0.0525
 6598TIP3    H219738   5.312   3.246   3.491 -2.5632 -0.5843  1.6960
 6599TIP3   OH219739   3.987   2.026   3.902  0.3173 -0.3770 -0.4048
 6599TIP3    H119740   3.928   2.099   3.884  0.4114  0.3385  1.8124
 6599TIP3    H219741   4.059   2.037   3.840 -0.3625  0.5825 -1.0532
 6600TIP3   OH219742   4.587   6.371   6.397  0.1510 -0.1615 -0.1101
 6600TIP3    H119743   4.541   6.330   6.323 -0.1556  1.4712 -0.8604
 6600TIP3    H219744   4.675   6.386   6.364 -0.0795  0.8752 -0.2832
 6601TIP3   OH219745   7.112   2.874   4.628  0.4361 -0.9266 -0.2246
 6601TIP3    H119746   7.092   2.810   4.559  0.4390 -0.6659 -0.4693
 6601TIP3    H219747   7.075   2.836   4.708  0.8291 -1.4468 -0.2850
 6602TIP3   OH219748   3.183   7.488   6.612  0.1446 -0.2175  0.1889
 6602TIP3    H119749   3.253   7.423   6.621 -1.1775 -2.7427 -4.4485
 6602TIP3    H219750   3.215   7.550   6.546 -0.6830  0.6626  0.5836
 6603TIP3   OH219751   0.302   0.331   0.627 -0.2864  0.4541 -0.0712
 6603TIP3    H119752   0.360   0.261   0.599 -1.2785 -0.4527  0.0944
 6603TIP3    H219753   0.281   0.310   0.718  0.6633  1.8370  0.5117
 6604TIP3   OH219754   6.002   5.194   1.933 -0.2491  0.3428 -0.1110
 6604TIP3    H119755   5.978   5.107   1.901 -1.0890  1.1210 -1.7045
 6604TIP3    H219756   6.014   5.246   1.854  2.5685  1.1215  0.7280
 6605TIP3   OH219757   4.136   0.462   5.929  0.5244  0.1560 -0.1623
 6605TIP3    H119758   4.078   0.443   6.003 -0.4773  0.0032 -0.9505
 6605TIP3    H219759   4.078   0.456   5.852  1.8441 -1.0976 -1.0897
 6606TIP3   OH219760   5.933   0.737   6.572  0.6616 -0.2490  0.5898
 6606TIP3    H119761   5.921   0.761   6.663  0.2405  1.9156  0.0237
 6606TIP3    H219762   5.968   0.816   6.531  0.6831 -1.1139 -1.1628
 6607TIP3   OH219763   3.842   3.504   2.308 -0.3623 -0.0084 -0.0123
 6607TIP3    H119764   3.811   3.594   2.310 -0.2418  0.0268  0.8330
 6607TIP3    H219765   3.775   3.456   2.260 -0.8111  0.3892  0.2120
 6608TIP3   OH219766   1.725   0.911   4.892  0.6410 -0.2035  0.3986
 6608TIP3    H119767   1.780   0.893   4.816  0.7169 -1.0934  0.6492
 6608TIP3    H219768   1.715   0.826   4.935  0.1881  0.1951  1.1075
 6609TIP3   OH219769   2.247   3.738   5.325 -0.7266  0.0843  0.0981
 6609TIP3    H119770   2.305   3.792   5.379 -0.0945 -1.2850  0.8481
 6609TIP3    H219771   2.276   3.753   5.235 -0.7302  1.1617  0.2633
 6610TIP3   OH219772   4.734   2.747   4.456 -0.0020  0.0427 -0.1376
 6610TIP3    H119773   4.650   2.743   4.502  0.5777  0.9734  1.0592
 6610TIP3    H219774   4.711   2.776   4.368 -1.1752 -2.0823 -0.6090
 6611TIP3   OH219775   4.413   6.737   1.426  0.1953  0.4551 -0.2921
 6611TIP3    H119776   4.363   6.681   1.486 -1.5048  0.0039 -2.0333
 6611TIP3    H219777   4.346   6.788   1.380  1.5892  2.3920 -0.2965
 6612TIP3   OH219778   0.907   3.626   3.112 -0.2720  0.6952 -0.7191
 6612TIP3    H119779   0.811   3.623   3.118 -0.1738 -0.6516  0.8203
 6612TIP3    H219780   0.924   3.648   3.021 -2.0544 -1.0648 -1.5547
 6613TIP3   OH219781   7.207   0.164   2.769  0.0775  0.0599  0.3054
 6613TIP3    H119782   7.214   0.233   2.835  0.4529  0.4057 -0.0867
 6613TIP3    H219783   7.203   0.211   2.685 -0.7474 -0.3613  0.0972
 6614TIP3   OH219784   1.679   0.489   6.005 -0.5032 -0.5638 -0.1687
 6614TIP3    H119785   1.605   0.433   5.983 -0.8911 -1.4661  2.9991
 6614TIP3    H219786   1.644   0.552   6.067  0.9794  0.2557 -0.1054
 6615TIP3   OH219787   6.254   5.801   1.920  0.0071  0.1030 -0.1201
 6615TIP3    H119788   6.229   5.739   1.988 -0.9992  0.4416 -0.1780
 6615TIP3    H219789   6.241   5.754   1.838  0.0637  0.1013 -0.1281
 6616TIP3   OH219790   7.311   4.942   3.624 -0.0756 -0.0006 -1.0456
 6616TIP3    H119791   7.218   4.963   3.619 -0.0712  0.3443  0.0208
 6616TIP3    H219792   7.345   4.999   3.693  0.3642 -2.0387  0.5315
 6617TIP3   OH219793   2.501   2.746   0.210 -0.3661  0.0628 -0.1655
 6617TIP3    H119794   2.587   2.705   0.201 -1.0248 -1.4548  0.2249
 6617TIP3    H219795   2.454   2.720   0.131 -1.6988 -2.2651  1.2930
 6618TIP3   OH219796   4.098   3.168   0.264 -0.3931  0.6525  0.1723
 6618TIP3    H119797   4.188   3.160   0.232 -0.0097  2.6786  0.6045
 6618TIP3    H219798   4.074   3.259   0.246 -2.1268  0.3404  0.6883
 6619TIP3   OH219799   5.964   7.659   3.765 -0.3573 -0.0122 -0.6047
 6619TIP3    H119800   6.005   7.637   3.682 -0.1770 -0.4948 -0.3908
 6619TIP3    H219801   6.006   7.741   3.792  0.1608 -0.2808 -0.5927
 6620TIP3   OH219802   0.683   3.857   0.807 -0.0218 -0.1238  0.0115
 6620TIP3    H119803   0.616   3.896   0.864 -1.1788 -1.5006 -0.3673
 6620TIP3    H219804   0.635   3.832   0.728  1.6495  2.2595 -1.8873
 6621TIP3   OH219805   1.213   5.726   3.959  0.2876  0.0631  0.1692
 6621TIP3    H119806   1.121   5.713   3.939  0.1038  1.9851 -0.4880
 6621TIP3    H219807   1.214   5.794   4.025  1.2416  0.6469 -0.4153
 6622TIP3   OH219808   8.229   7.287   6.622 -0.1753 -0.1453  0.0622
 6622TIP3    H119809   8.292   7.230   6.578  0.1437 -1.0026  1.5563
 6622TIP3    H219810   8.169   7.315   6.552 -0.1475 -2.0615 -0.7902
 6623TIP3   OH219811   8.177   3.196   0.086  0.2337 -0.4548  0.0126
 6623TIP3    H119812   8.244   3.133   0.059 -0.8181 -1.4874 -0.2576
 6623TIP3    H219813   8.136   3.156   0.163 -1.3252 -0.7614 -0.9441
 6624TIP3   OH219814   1.564   0.326   6.279  0.4456 -0.2581  0.3258
 6624TIP3    H119815   1.589   0.373   6.358 -1.4448 -1.4552  1.7005
 6624TIP3    H219816   1.469   0.332   6.276  0.4543 -0.4443 -1.7646
 6625TIP3   OH219817   2.432   7.191   3.235 -0.7346  0.0109 -0.7361
 6625TIP3    H119818   2.468   7.107   3.206  1.8345  0.9385 -0.4528
 6625TIP3    H219819   2.425   7.243   3.155 -0.2151  0.2507 -0.6302
 6626TIP3   OH219820   6.087   6.188   4.001  0.2769 -0.0774 -0.8146
 6626TIP3    H119821   6.171   6.222   4.032  0.5374 -1.0790 -0.3728
 6626TIP3    H219822   6.034   6.181   4.080 -0.9921  2.4965 -1.3255
 6627TIP3   OH219823   4.557   4.328   4.401 -0.4679 -1.0437 -0.7153
 6627TIP3    H119824   4.544   4.370   4.316 -1.5038 -1.3586 -0.7240
 6627TIP3    H219825   4.625   4.263   4.385 -0.4959 -0.9491 -1.2558
 6628TIP3   OH219826   7.809   4.745   5.167 -0.7407 -0.2290 -0.1417
 6628TIP3    H119827   7.735   4.742   5.227 -0.6497  1.0386  0.0595
 6628TIP3    H219828   7.798   4.826   5.118 -0.0491 -0.5428 -0.8451
 6629TIP3   OH219829   5.478   2.482   0.715 -0.0725  0.0336  0.2071
 6629TIP3    H119830   5.434   2.408   0.675  0.2130  0.8709 -1.7793
 6629TIP3    H219831   5.571   2.457   0.715 -0.0291  0.1923 -0.0207
 6630TIP3   OH219832   3.101   4.369   5.897  0.5054 -0.5327 -0.8299
 6630TIP3    H119833   3.069   4.278   5.892  1.5490 -0.9714  0.2257
 6630TIP3    H219834   3.167   4.368   5.966  0.6725  1.0040 -0.9384
 6631TIP3   OH219835   0.041   1.240   3.994 -0.2017 -0.1158 -0.1469
 6631TIP3    H119836   0.028   1.205   3.906  1.3443 -0.8138 -0.1209
 6631TIP3    H219837   0.134   1.259   3.999 -0.1216 -0.8278  1.6202
 6632TIP3   OH219838   3.170   2.330   1.628 -0.3606 -0.4395  0.7611
 6632TIP3    H119839   3.188   2.241   1.599  3.0302  0.4341 -0.3760
 6632TIP3    H219840   3.239   2.348   1.693 -1.0242  1.3216  1.0412
 6633TIP3   OH219841   3.137   0.630   0.802 -0.1632  0.0424 -0.1341
 6633TIP3    H119842   3.056   0.582   0.785 -1.5361  2.3230 -0.4135
 6633TIP3    H219843   3.132   0.654   0.895  0.1300  0.3229 -0.1881
 6634TIP3   OH219844   7.584   6.359   5.861 -0.1844 -0.2514 -0.1008
 6634TIP3    H119845   7.556   6.377   5.771 -1.1174 -1.0418  0.0215
 6634TIP3    H219846   7.641   6.433   5.883 -1.4513  0.9400 -0.6717
 6635TIP3   OH219847   2.382   0.585   0.451  0.5804 -0.0190 -0.7626
 6635TIP3    H119848   2.457   0.604   0.394  0.7460  0.8384 -0.2797
 6635TIP3    H219849   2.306   0.590   0.393  0.7651  0.6680 -0.9546
 6636TIP3   OH219850   4.594   2.797   4.794  0.0117  0.1249  0.0243
 6636TIP3    H119851   4.503   2.826   4.793  0.0280  0.3121 -2.1544
 6636TIP3    H219852   4.594   2.716   4.744  0.8952 -0.4941  0.9841
 6637TIP3   OH219853   5.070   1.405   6.638 -0.4879  0.5063  0.1909
 6637TIP3    H119854   5.042   1.393   6.547 -0.2054 -0.2682  0.1937
 6637TIP3    H219855   5.112   1.491   6.640  0.7999 -0.0678 -0.7516
 6638TIP3   OH219856   2.777   2.338   3.463 -0.0942  0.1765  0.0111
 6638TIP3    H119857   2.834   2.372   3.532  0.0790  1.3189 -0.6617
 6638TIP3    H219858   2.757   2.415   3.409  0.3504 -0.8150 -1.6287
 6639TIP3   OH219859   5.497   6.789   4.517  0.5393 -0.0036 -0.0549
 6639TIP3    H119860   5.421   6.765   4.464  2.7579 -0.3486 -3.4058
 6639TIP3    H219861   5.527   6.707   4.555  1.0649 -0.4957 -1.4529
 6640TIP3   OH219862   6.247   5.038   6.096 -0.0525 -0.6927 -0.5589
 6640TIP3    H119863   6.246   4.985   6.017  0.0757 -1.7083  0.1034
 6640TIP3    H219864   6.275   4.978   6.165 -0.5389  0.0715  0.3307
 6641TIP3   OH219865   5.199   3.976   3.404  0.0478  0.4064  0.2004
 6641TIP3    H119866   5.126   4.031   3.374  0.1500  0.5901  0.2899
 6641TIP3    H219867   5.276   4.013   3.361  0.2702  0.9816  1.0777
 6642TIP3   OH219868   7.075   1.082   2.547  0.5787 -0.3628  0.0534
 6642TIP3    H119869   7.045   1.165   2.509  0.0218 -0.3664  0.4625
 6642TIP3    H219870   7.151   1.106   2.600 -0.7575  0.2422  1.7850
 6643TIP3   OH219871   1.399   6.781   0.139  0.2556  0.1498 -0.0135
 6643TIP3    H119872   1.434   6.707   0.189 -0.9389  0.0783  0.7685
 6643TIP3    H219873   1.305   6.781   0.159  0.0331  1.1336 -0.9735
 6644TIP3   OH219874   5.150   5.322   5.331 -0.0977 -0.2705 -0.0721
 6644TIP3    H119875   5.211   5.271   5.385 -0.2673 -0.7770 -0.3480
 6644TIP3    H219876   5.084   5.353   5.393  0.9817  1.1696  0.4176
 6645TIP3   OH219877   7.851   3.526   5.868 -0.0701 -0.4519  0.0735
 6645TIP3    H119878   7.883   3.444   5.908  0.7105 -0.6016 -0.8382
 6645TIP3    H219879   7.796   3.497   5.796 -0.1935 -0.1712  0.0566
 6646TIP3   OH219880   4.051   7.762   5.805 -0.3991  0.3924 -0.6721
 6646TIP3    H119881   3.980   7.727   5.752 -0.2185  1.2580 -1.5228
 6646TIP3    H219882   4.130   7.733   5.760 -0.2406  0.7584 -0.6296
 6647TIP3   OH219883   5.253   7.711   5.536 -0.5791  0.3970 -0.2385
 6647TIP3    H119884   5.295   7.777   5.481  1.6087  2.4000  3.4202
 6647TIP3    H219885   5.313   7.637   5.534  0.3661  1.1073  0.6426
 6648TIP3   OH219886   4.163   4.195   2.358  0.0284  0.4312 -0.2836
 6648TIP3    H119887   4.120   4.275   2.327  0.3161  0.5819 -0.3029
 6648TIP3    H219888   4.209   4.222   2.438  0.0549  0.2660 -0.2424
 6649TIP3   OH219889   3.030   2.654   0.939 -0.1759 -0.0096 -0.6711
 6649TIP3    H119890   2.943   2.616   0.950  0.0420 -0.0740  1.2041
 6649TIP3    H219891   3.088   2.579   0.931 -0.0530 -0.0494  0.3999
 6650TIP3   OH219892   3.469   0.424   1.430 -0.3292 -0.2431  0.1812
 6650TIP3    H119893   3.476   0.331   1.449 -0.4003 -0.4249 -0.6384
 6650TIP3    H219894   3.559   0.450   1.406 -0.6628 -0.5734 -1.5805
 6651TIP3   OH219895   3.719   1.510   2.661  0.6087  0.2078 -0.0239
 6651TIP3    H119896   3.748   1.569   2.731  1.2692  2.3112 -1.9480
 6651TIP3    H219897   3.626   1.495   2.679  0.9863 -0.1515  1.8319
 6652TIP3   OH219898   0.306   3.129   2.758  0.0487 -0.3839  0.3471
 6652TIP3    H119899   0.331   3.187   2.830 -1.0584 -0.1343  0.5517
 6652TIP3    H219900   0.278   3.048   2.801  1.1544 -0.9218  0.0859
 6653TIP3   OH219901   2.876   6.826   6.105  0.0934  0.2170 -0.2030
 6653TIP3    H119902   2.808   6.835   6.038  1.6023  0.1526 -1.8194
 6653TIP3    H219903   2.898   6.733   6.105 -0.0295  0.1827  0.5442
 6654TIP3   OH219904   6.567   4.364   4.954  0.1551 -0.1126 -0.3630
 6654TIP3    H119905   6.510   4.402   5.020  0.8767  0.7581 -0.2308
 6654TIP3    H219906   6.604   4.438   4.907  1.5417 -0.6244 -0.1402
 6655TIP3   OH219907   4.632   1.546   4.312  0.0069  0.1439  0.6804
 6655TIP3    H119908   4.722   1.533   4.341 -0.7558 -0.6370  2.8252
 6655TIP3    H219909   4.606   1.462   4.275  0.0748  0.3072  0.2536
 6656TIP3   OH219910   4.258   2.694   4.963  0.0481  0.3451  0.1923
 6656TIP3    H119911   4.224   2.698   5.052  1.6462  0.2574  0.8385
 6656TIP3    H219912   4.247   2.602   4.938 -1.2944  0.5538 -0.1127
 6657TIP3   OH219913   3.104   6.716   6.518 -0.0133 -0.1629 -0.5502
 6657TIP3    H119914   3.032   6.727   6.580  1.0730  1.2042  0.5234
 6657TIP3    H219915   3.076   6.764   6.440  0.8061  2.8028  0.8401
 6658TIP3   OH219916   1.537   6.195   6.199 -0.5388 -0.0618  0.3256
 6658TIP3    H119917   1.487   6.149   6.131 -0.6289  0.7742 -0.2003
 6658TIP3    H219918   1.604   6.243   6.150 -1.4170  1.5876  0.6793
 6659TIP3   OH219919   0.356   1.228   5.210 -0.4231 -0.0604 -0.2452
 6659TIP3    H119920   0.394   1.315   5.194 -1.9179  0.6639  0.0077
 6659TIP3    H219921   0.304   1.239   5.290 -0.1803 -1.3477  0.1108
 6660TIP3   OH219922   1.163   3.949   5.890 -0.0755  0.2285 -1.0552
 6660TIP3    H119923   1.192   3.976   5.803  2.9248  1.2619  0.1245
 6660TIP3    H219924   1.242   3.953   5.944 -2.0490  1.0189  2.0486
 6661TIP3   OH219925   2.147   0.723   6.029  0.0112 -0.0188  0.1228
 6661TIP3    H119926   2.162   0.657   5.961  0.1733 -0.6560  0.7730
 6661TIP3    H219927   2.213   0.705   6.096 -0.2266  0.5283  0.5147
 6662TIP3   OH219928   7.761   2.151   3.634 -0.1533 -0.4288  0.2718
 6662TIP3    H119929   7.815   2.086   3.680  0.7235  0.1190  0.0336
 6662TIP3    H219930   7.814   2.178   3.559 -0.2900  0.9097  0.6286
 6663TIP3   OH219931   3.718   0.742   0.935  0.2941  0.2786  0.0036
 6663TIP3    H119932   3.798   0.690   0.939 -0.4586 -0.8232  1.5866
 6663TIP3    H219933   3.747   0.831   0.955  1.7131  0.7351 -3.4492
 6664TIP3   OH219934   3.655   4.075   5.221 -0.1744  0.1841  0.5773
 6664TIP3    H119935   3.694   4.153   5.260  0.0686  0.1505  0.4022
 6664TIP3    H219936   3.730   4.022   5.193 -0.3449  0.0868  0.3068
 6665TIP3   OH219937   5.419   1.787   5.241  0.4806 -0.0144 -0.9172
 6665TIP3    H119938   5.370   1.864   5.270  1.3589 -0.0519  0.7939
 6665TIP3    H219939   5.403   1.783   5.147 -0.7285  1.4306 -0.8182
 6666TIP3   OH219940   3.832   5.804   5.229 -0.7092 -0.1232 -0.7975
 6666TIP3    H119941   3.755   5.823   5.175  0.0754  0.9909 -1.5718
 6666TIP3    H219942   3.835   5.876   5.293 -1.1402 -0.9701  0.1970
 6667TIP3   OH219943   7.165   5.534   6.273 -0.4581  0.0677  0.1910
 6667TIP3    H119944   7.221   5.562   6.201 -1.7153  0.3976 -0.6922
 6667TIP3    H219945   7.164   5.438   6.266  0.5313  0.0141  0.6458
 6668TIP3   OH219946   7.560   5.249   2.084 -0.0610 -0.1533 -0.2229
 6668TIP3    H119947   7.652   5.233   2.059 -0.3843 -0.9772 -0.9462
 6668TIP3    H219948   7.515   5.261   2.001 -0.1302  3.3349  0.1873
 6669TIP3   OH219949   6.762   1.103   4.167  0.5863  0.4392  0.3234
 6669TIP3    H119950   6.831   1.091   4.102  1.7517 -0.7922  1.7282
 6669TIP3    H219951   6.689   1.050   4.134  0.9987  0.1826 -0.1892
 6670TIP3   OH219952   1.024   2.728   3.560 -0.2298  0.1788 -0.2743
 6670TIP3    H119953   1.084   2.753   3.490  1.4642  1.7995  1.6482
 6670TIP3    H219954   0.948   2.785   3.548  0.2875  0.8441 -0.4695
 6671TIP3   OH219955   7.266   1.951   1.649 -0.5146  0.4011  0.4708
 6671TIP3    H119956   7.186   1.930   1.696 -0.5892  0.5523  0.4140
 6671TIP3    H219957   7.240   1.951   1.556 -1.0899  3.0319  0.5558
 6672TIP3   OH219958   0.758   4.998   1.576  0.1596 -0.0429  0.0498
 6672TIP3    H119959   0.847   5.031   1.591  1.0712 -1.5545 -1.7433
 6672TIP3    H219960   0.770   4.922   1.520 -2.1057 -1.6594  1.6000
 6673TIP3   OH219961   6.162   5.478   6.385  0.2614  0.1021 -0.2112
 6673TIP3    H119962   6.183   5.485   6.479  0.5987 -0.2540 -0.2593
 6673TIP3    H219963   6.068   5.493   6.381  0.3265  0.6431  0.1275
 6674TIP3   OH219964   1.894   0.886   4.657  0.1211  0.7442 -0.3436
 6674TIP3    H119965   1.984   0.912   4.678  0.2567  1.0559 -1.2972
 6674TIP3    H219966   1.899   0.791   4.645 -0.0992  0.4235  1.6811
 6675TIP3   OH219967   0.742   4.528   5.400 -0.7090 -0.1392  0.6694
 6675TIP3    H119968   0.706   4.478   5.327 -3.3369 -0.6843  2.2006
 6675TIP3    H219969   0.822   4.568   5.365  0.5741 -3.8550 -1.2097
 6676TIP3   OH219970   5.052   7.067   5.632  0.0057 -0.3741 -0.2817
 6676TIP3    H119971   5.063   6.984   5.678  0.3801  0.0050  0.3210
 6676TIP3    H219972   4.970   7.057   5.585  0.5895 -1.4928 -1.0971
 6677TIP3   OH219973   2.758   2.291   2.496 -0.2711  0.0047  0.3065
 6677TIP3    H119974   2.769   2.342   2.416 -1.8842 -1.0211 -0.6294
 6677TIP3    H219975   2.840   2.243   2.506  0.9437  2.0661  0.7420
 6678TIP3   OH219976   7.359   4.373   1.328 -0.6755 -0.5958 -0.2255
 6678TIP3    H119977   7.426   4.352   1.263 -0.1209 -1.2686  0.5467
 6678TIP3    H219978   7.283   4.321   1.302 -0.6073 -0.5186 -0.5862
 6679TIP3   OH219979   7.585   0.227   6.492  0.3071  0.1487  0.5495
 6679TIP3    H119980   7.504   0.271   6.465  0.4708  1.4992  2.0761
 6679TIP3    H219981   7.622   0.193   6.411 -0.8613  1.1275 -0.4392
 6680TIP3   OH219982   6.429   2.338   3.105 -0.1511 -0.0619 -0.6526
 6680TIP3    H119983   6.493   2.298   3.164  0.3058  1.6154  0.0309
 6680TIP3    H219984   6.368   2.266   3.085  1.6573 -1.5811 -0.9861
 6681TIP3   OH219985   1.570   6.703   2.441  0.0468  0.7283 -0.7611
 6681TIP3    H119986   1.614   6.730   2.522  0.1357 -0.7729 -0.2650
 6681TIP3    H219987   1.636   6.651   2.395 -1.5229 -2.8781  0.7031
 6682TIP3   OH219988   0.252   3.060   5.754 -0.0340 -0.4827  0.2040
 6682TIP3    H119989   0.217   3.053   5.665 -2.3529 -0.5421  1.0533
 6682TIP3    H219990   0.292   3.147   5.757  0.0977 -0.4886 -0.8871
 6683TIP3   OH219991   1.470   3.616   4.408  0.5113 -1.1356 -0.3208
 6683TIP3    H119992   1.537   3.647   4.468 -0.0740 -0.9548  0.2528
 6683TIP3    H219993   1.485   3.667   4.328 -0.2109  0.4236  0.4890
 6684TIP3   OH219994   0.774   3.266   2.730 -0.4758  0.3225 -0.2783
 6684TIP3    H119995   0.721   3.245   2.653 -0.4590 -2.2434  0.3088
 6684TIP3    H219996   0.718   3.324   2.782 -2.2935 -1.3623 -0.2339
 6685TIP3   OH219997   7.091   2.170   4.619  0.0007  0.6462  0.0661
 6685TIP3    H119998   7.173   2.214   4.636  0.6141 -0.1398 -0.7244
 6685TIP3    H219999   7.100   2.084   4.660  0.8224 -0.6120 -2.4843
 6686TIP3   OH220000   4.418   2.370   6.630  0.6529  0.4306  0.4629
 6686TIP3    H120001   4.451   2.335   6.713 -1.0251  1.7520  1.7544
 6686TIP3    H220002   4.332   2.327   6.619  1.0411 -0.0643 -0.8511
 6687TIP3   OH220003   5.057   7.695   6.444 -0.2171 -0.5429 -0.4176
 6687TIP3    H120004   5.123   7.764   6.441  0.5962 -1.3073 -0.3691
 6687TIP3    H220005   5.097   7.625   6.495 -1.1247 -0.9611 -0.2520
 6688TIP3   OH220006   5.075   7.104   3.872  0.0615  0.6603 -0.1928
 6688TIP3    H120007   4.988   7.069   3.888  0.7651 -1.1966 -0.2417
 6688TIP3    H220008   5.134   7.047   3.922  1.3998  0.8591 -1.4788
 6689TIP3   OH220009   1.617   3.575   1.031  0.1165 -0.4984  0.3042
 6689TIP3    H120010   1.553   3.625   0.980  0.2697 -0.5448  0.0653
 6689TIP3    H220011   1.701   3.592   0.988  0.0720 -1.5211 -0.2049
 6690TIP3   OH220012   0.481   6.591   0.876  0.2149 -0.4545  0.7008
 6690TIP3    H120013   0.565   6.609   0.917 -0.1093  2.8875  0.1969
 6690TIP3    H220014   0.417   6.606   0.945 -0.1374  1.6521 -0.0123
 6691TIP3   OH220015   0.058   6.547   3.907  0.2981 -0.2264  0.2920
 6691TIP3    H120016   0.017   6.492   3.974  1.9919 -0.9313  0.7970
 6691TIP3    H220017   0.147   6.514   3.900  0.5677  0.7277 -1.3575
 6692TIP3   OH220018  -0.017   4.285   2.542 -0.7680  0.7099  0.8293
 6692TIP3    H120019   0.068   4.326   2.556 -0.5699  0.9280 -0.7965
 6692TIP3    H220020   0.001   4.191   2.547  0.0196  0.6753 -1.4426
 6693TIP3   OH220021   6.131   1.543   5.593  0.4309 -0.8924 -0.4803
 6693TIP3    H120022   6.117   1.616   5.653  1.6185 -1.5419  0.6194
 6693TIP3    H220023   6.115   1.580   5.506 -2.4993 -0.2158  0.2471
 6694TIP3   OH220024   2.092   2.393   5.914 -0.4934 -0.2809  0.4478
 6694TIP3    H120025   2.024   2.325   5.914 -1.3929  0.5820 -0.5443
 6694TIP3    H220026   2.122   2.397   5.823  0.4836 -0.2346  0.7596
 6695TIP3   OH220027   1.295   3.256   4.912  0.8428  0.0357 -0.5021
 6695TIP3    H120028   1.215   3.235   4.865  1.0674  1.8918 -1.8283
 6695TIP3    H220029   1.283   3.217   4.999 -0.7845 -1.0832 -1.1915
 6696TIP3   OH220030   6.455   2.671   1.024 -0.4268  0.3630  0.0316
 6696TIP3    H120031   6.411   2.747   1.062 -0.7098  0.4577 -0.4749
 6696TIP3    H220032   6.384   2.613   0.995 -0.2591  0.8516 -1.4718
 6697TIP3   OH220033   5.293   5.169   4.884  0.1341  0.0341  0.1002
 6697TIP3    H120034   5.269   5.215   4.964  0.6081 -1.1944  0.9801
 6697TIP3    H220035   5.210   5.149   4.841 -0.1067  1.0091  0.0867
 6698TIP3   OH220036   4.646   6.597   3.323  0.1707 -0.0031  0.5109
 6698TIP3    H120037   4.661   6.502   3.328  0.9579  0.1003  0.3015
 6698TIP3    H220038   4.578   6.607   3.257 -0.8376 -0.4998  1.4484
 6699TIP3   OH220039   5.335   2.475   4.619 -0.3051  0.3183  0.2198
 6699TIP3    H120040   5.345   2.397   4.673  0.9919  0.1242 -0.2606
 6699TIP3    H220041   5.254   2.516   4.650  0.7831  0.6571  2.8550
 6700TIP3   OH220042   7.915   4.914   2.982 -0.1328 -0.1257 -0.4905
 6700TIP3    H120043   7.928   4.903   2.888 -0.3161 -0.3150 -0.4928
 6700TIP3    H220044   7.904   5.009   2.994 -0.9195 -0.1771 -0.7616
 6701TIP3   OH220045   6.556   1.277   4.445  1.0073 -0.0271 -0.5444
 6701TIP3    H120046   6.547   1.233   4.360  0.0668  0.0717 -0.5121
 6701TIP3    H220047   6.590   1.209   4.504 -0.7346 -0.8477 -0.4134
 6702TIP3   OH220048   1.238   6.020   1.957 -0.0199 -0.1822 -0.4004
 6702TIP3    H120049   1.275   5.969   2.029  0.0097  1.0714  0.5095
 6702TIP3    H220050   1.147   6.034   1.982  0.1310  0.7277 -0.3155
 6703TIP3   OH220051   3.242   0.260   6.711 -0.3216 -0.3331 -0.1932
 6703TIP3    H120052   3.221   0.167   6.713 -1.1166 -0.1694 -0.7039
 6703TIP3    H220053   3.167   0.303   6.752  0.2871  0.0545  0.5670
 6704TIP3   OH220054   2.583   4.403   3.807  0.3137  0.1137 -0.1064
 6704TIP3    H120055   2.578   4.482   3.752 -2.5346 -2.0237 -3.3292
 6704TIP3    H220056   2.665   4.361   3.780 -0.2289 -0.0642 -1.5973
 6705TIP3   OH220057   1.762   0.144   5.673 -0.0981 -0.2808  0.0448
 6705TIP3    H120058   1.850   0.108   5.681  0.0291 -0.4936 -1.8601
 6705TIP3    H220059   1.775   0.230   5.632 -0.6431  0.6261  1.6900
 6706TIP3   OH220060   6.244   2.740   6.192  0.5760 -0.4854  0.1487
 6706TIP3    H120061   6.167   2.775   6.238  1.4981  0.2059  1.2537
 6706TIP3    H220062   6.304   2.714   6.263  1.7910  0.0071 -0.6590
 6707TIP3   OH220063   1.772   0.413   3.397  0.1415  0.0387 -0.2440
 6707TIP3    H120064   1.708   0.437   3.464  0.8219 -0.8065  0.7420
 6707TIP3    H220065   1.842   0.477   3.406  0.2113 -0.0463 -0.1858
 6708TIP3   OH220066   0.279   5.123   5.092  0.0946  0.3357 -0.1824
 6708TIP3    H120067   0.276   5.210   5.131 -0.2404  0.3196 -0.1702
 6708TIP3    H220068   0.369   5.094   5.105  0.6152  1.2786 -1.4830
 6709TIP3   OH220069   6.774   3.718   5.891 -0.3758  0.5399  0.5332
 6709TIP3    H120070   6.697   3.720   5.835 -0.1583  0.4758  0.2307
 6709TIP3    H220071   6.841   3.765   5.842  0.7625 -2.1550 -0.6919
 6710TIP3   OH220072   5.944   4.888   0.435  0.4219 -0.2960  0.1978
 6710TIP3    H120073   5.889   4.873   0.359  0.7145 -0.7106  0.0709
 6710TIP3    H220074   5.921   4.977   0.464 -0.7875 -0.7009  0.5417
 6711TIP3   OH220075   0.763   6.037   2.349 -0.4658  0.4302 -0.0086
 6711TIP3    H120076   0.697   5.984   2.305  0.7612 -0.4799 -0.8093
 6711TIP3    H220077   0.788   6.102   2.284 -0.9485  1.1282  0.4874
 6712TIP3   OH220078   1.856   2.556   4.969  0.2111  0.1833 -0.0874
 6712TIP3    H120079   1.893   2.470   4.989 -0.3458 -0.0422 -0.0272
 6712TIP3    H220080   1.808   2.544   4.888 -2.2381 -0.2803  1.3301
 6713TIP3   OH220081   4.050   5.780   4.016  0.0839  0.0410 -0.3446
 6713TIP3    H120082   4.069   5.870   4.044 -0.5256 -0.4452  1.7946
 6713TIP3    H220083   4.047   5.730   4.097 -0.2342 -1.8079 -1.4500
 6714TIP3   OH220084   4.508   4.933   6.041  0.4910 -0.3927 -0.0348
 6714TIP3    H120085   4.446   4.997   6.076  1.4800  0.9142 -0.5953
 6714TIP3    H220086   4.453   4.862   6.008 -0.6181 -0.0147  0.9352
 6715TIP3   OH220087   6.461   1.948   5.369 -0.0439 -0.1356  0.5793
 6715TIP3    H120088   6.382   1.933   5.421  1.2895 -1.8546  2.1881
 6715TIP3    H220089   6.525   1.982   5.431  1.0698 -0.6051 -0.2888
 6716TIP3   OH220090   2.827   0.857   4.096 -0.0509  0.3307  0.1587
 6716TIP3    H120091   2.867   0.786   4.146 -0.3639  1.1243  1.6112
 6716TIP3    H220092   2.898   0.919   4.082  0.1251 -0.0649 -0.7397
 6717TIP3   OH220093   8.118   0.911   1.377 -0.8560 -0.0782 -0.3270
 6717TIP3    H120094   8.079   0.998   1.388  1.8732  1.5123 -2.0254
 6717TIP3    H220095   8.149   0.888   1.464 -1.0349  0.9670  0.0340
 6718TIP3   OH220096   8.030   3.023   2.132  0.2326  0.6683  0.4632
 6718TIP3    H120097   7.967   3.077   2.179  2.0320  3.0949  0.2923
 6718TIP3    H220098   8.067   2.965   2.199 -2.8853 -1.7487  0.3439
 6719TIP3   OH220099   6.612   1.169   6.025 -0.5251  0.0615 -0.1500
 6719TIP3    H120100   6.636   1.087   5.982 -2.8625  0.2286 -1.9749
 6719TIP3    H220101   6.548   1.144   6.091 -1.4060  0.3868 -0.8537
 6720TIP3   OH220102   7.455   4.601   4.789  0.7046  0.4454  0.0895
 6720TIP3    H120103   7.526   4.660   4.764 -0.8889  1.6958 -1.7431
 6720TIP3    H220104   7.375   4.645   4.760 -0.6721 -1.9282 -0.0259
 6721TIP3   OH220105   1.417   5.195   6.541  0.3397 -0.4113 -0.3812
 6721TIP3    H120106   1.329   5.176   6.509  0.7299 -1.9737 -0.5856
 6721TIP3    H220107   1.450   5.263   6.482 -0.5472 -0.1632 -0.5979
 6722TIP3   OH220108   2.185   5.095   0.030  0.0095  0.0981 -0.5219
 6722TIP3    H120109   2.197   5.030   0.099 -0.1894  0.5735 -0.0337
 6722TIP3    H220110   2.247   5.165   0.053 -2.4304  1.8642  1.1498
 6723TIP3   OH220111   6.319   2.021   1.885  0.2269  0.1721 -0.1101
 6723TIP3    H120112   6.267   1.999   1.808 -1.4397  1.7927  0.4861
 6723TIP3    H220113   6.274   1.978   1.958  0.8379  0.0150  0.1837
 6724TIP3   OH220114   4.106   7.678   6.484  0.1563 -0.6206 -0.1059
 6724TIP3    H120115   4.084   7.728   6.405  0.1551  0.2460  0.4363
 6724TIP3    H220116   4.139   7.743   6.546  0.3937 -1.3275  0.5329
 6725TIP3   OH220117   3.109   1.423   6.615  0.1360 -0.6495 -0.0381
 6725TIP3    H120118   3.167   1.419   6.539 -1.2400 -0.4485 -1.1447
 6725TIP3    H220119   3.112   1.514   6.644 -0.9055 -0.2502 -1.1449
 6726TIP3   OH220120   7.298   6.212   1.355  0.3105 -0.1600  0.2802
 6726TIP3    H120121   7.249   6.131   1.367  1.1174 -0.3696  3.0281
 6726TIP3    H220122   7.231   6.281   1.351 -0.3582 -0.8608 -1.6119
 6727TIP3   OH220123   4.900   5.096   2.347  0.0886  0.6324  0.2440
 6727TIP3    H120124   4.944   5.166   2.298 -1.4835  1.2782 -0.3311
 6727TIP3    H220125   4.870   5.035   2.280  0.9095 -0.2955  0.6998
 6728TIP3   OH220126   2.122   7.419   4.588  0.1237  0.2624  0.2911
 6728TIP3    H120127   2.156   7.339   4.628 -0.3120  0.8830  2.0146
 6728TIP3    H220128   2.175   7.489   4.627  0.6244  0.8195 -1.3295
 6729TIP3   OH220129   7.768   6.505   0.964 -0.3602 -0.5235 -0.1865
 6729TIP3    H120130   7.733   6.535   0.881 -0.5766 -1.1481 -0.3238
 6729TIP3    H220131   7.717   6.427   0.986 -1.5947  0.6708  1.4629
 6730TIP3   OH220132   2.220   1.651   4.098  0.5575 -0.7241  0.1499
 6730TIP3    H120133   2.144   1.629   4.045 -0.2388  2.5286 -0.2735
 6730TIP3    H220134   2.183   1.686   4.179  1.2813  3.3147 -1.0288
 6731TIP3   OH220135   1.460   1.955   3.935  0.2422  0.1409 -0.3458
 6731TIP3    H120136   1.408   2.025   3.974  1.0159  1.2073 -1.1820
 6731TIP3    H220137   1.414   1.875   3.960 -0.9347  0.9619  0.2279
 6732TIP3   OH220138   5.209   0.023   6.541 -0.3645 -0.3727 -0.0190
 6732TIP3    H120139   5.191   0.036   6.448  1.8207  4.2452 -0.0988
 6732TIP3    H220140   5.285  -0.036   6.542  0.7748  0.9544 -1.4130
 6733TIP3   OH220141   1.943   3.717   5.002 -0.6029 -0.0212  0.2780
 6733TIP3    H120142   1.997   3.795   5.009 -0.5254  0.0243 -0.7920
 6733TIP3    H220143   2.002   3.645   5.023 -0.8552  0.2300  2.0452
 6734TIP3   OH220144   2.588   6.708   4.128  0.0037  0.0394 -0.0149
 6734TIP3    H120145   2.662   6.704   4.189 -0.0054 -0.6862 -0.0494
 6734TIP3    H220146   2.624   6.751   4.050  0.1790  0.3959  0.2568
 6735TIP3   OH220147   1.001   4.260   3.232 -0.5075 -0.0141 -0.0250
 6735TIP3    H120148   1.012   4.191   3.167  0.4070  0.9218 -0.9197
 6735TIP3    H220149   1.040   4.225   3.312  0.1560 -0.4442 -0.5279
 6736TIP3   OH220150   1.507   3.299   0.421 -0.1282 -0.2917 -0.0713
 6736TIP3    H120151   1.484   3.213   0.456 -1.5143  0.3094  0.6063
 6736TIP3    H220152   1.498   3.358   0.496  0.6036  0.4818 -0.5710
 6737TIP3   OH220153   3.138   5.800   4.644  0.4172  0.3571 -0.8173
 6737TIP3    H120154   3.066   5.863   4.636  0.7767  1.1106  1.2896
 6737TIP3    H220155   3.205   5.846   4.692  0.6170 -1.6927  1.0192
 6738TIP3   OH220156   7.552   4.847   6.698  0.0449  0.1115  0.5935
 6738TIP3    H120157   7.503   4.928   6.684  1.6374  1.0363  0.0518
 6738TIP3    H220158   7.526   4.817   6.785 -1.2687  0.6817  0.4204
 6739TIP3   OH220159   6.796   6.064   1.327 -0.8468  0.2593  0.3653
 6739TIP3    H120160   6.834   6.105   1.405  0.9875  0.1929 -0.4475
 6739TIP3    H220161   6.871   6.029   1.279 -2.1659 -2.4766  0.0956
 6740TIP3   OH220162   0.882   0.108   2.044  0.2497 -0.3054 -0.2692
 6740TIP3    H120163   0.799   0.151   2.022 -0.8614 -1.1298  1.9662
 6740TIP3    H220164   0.928   0.172   2.098  0.7253 -0.1586 -0.8408
 6741TIP3   OH220165   3.020   6.599   1.470  0.0388  0.2061 -0.3594
 6741TIP3    H120166   2.998   6.692   1.473  0.2726  0.2374  0.6079
 6741TIP3    H220167   3.029   6.573   1.561 -0.5622 -0.9015 -0.5908
 6742TIP3   OH220168   6.972   0.048   3.139  0.3171  0.1063 -0.3126
 6742TIP3    H120169   6.951   0.007   3.055 -0.2212  0.1720 -0.2132
 6742TIP3    H220170   6.943   0.139   3.128  0.1661  0.0912 -0.0219
 6743TIP3   OH220171   0.202   6.335   1.968 -0.2160  0.0678 -0.0689
 6743TIP3    H120172   0.173   6.409   2.021  1.9446  1.0164 -0.1181
 6743TIP3    H220173   0.287   6.361   1.934  0.1678 -2.0545 -0.9273
 6744TIP3   OH220174   0.782   0.543   6.660  0.3778 -0.2696  0.9886
 6744TIP3    H120175   0.748   0.629   6.636  1.3096 -0.1210  0.1706
 6744TIP3    H220176   0.867   0.561   6.701  2.0892 -0.9414 -2.0144
 6745TIP3   OH220177   5.796   0.785   4.885  0.3949  0.0727  0.2562
 6745TIP3    H120178   5.799   0.810   4.978  1.3266  1.6322 -0.1559
 6745TIP3    H220179   5.887   0.781   4.858  0.2297 -2.4095 -0.1312
 6746TIP3   OH220180   2.971   4.826   3.536 -0.0495 -0.1939  0.0951
 6746TIP3    H120181   3.051   4.788   3.500  0.1250 -0.6559  0.9322
 6746TIP3    H220182   2.935   4.879   3.465  0.5447 -0.6675 -0.5760
 6747TIP3   OH220183   1.375   5.407   5.279 -0.0830 -0.5458  0.1599
 6747TIP3    H120184   1.362   5.404   5.374  2.0328  2.2450  0.6510
 6747TIP3    H220185   1.324   5.483   5.250  0.8199 -0.2100 -0.6003
 6748TIP3   OH220186   3.979   0.650   0.926 -0.0558 -0.0315 -0.2185
 6748TIP3    H120187   3.993   0.558   0.950  1.3155  0.0638 -0.5976
 6748TIP3    H220188   3.984   0.651   0.830  0.9083  0.5832 -0.1684
 6749TIP3   OH220189   0.755   0.550   4.747  0.0335  0.7320  0.0191
 6749TIP3    H120190   0.832   0.494   4.741 -0.1920  0.5578 -1.8042
 6749TIP3    H220191   0.780   0.617   4.811  1.5492  0.4574 -0.2309
 6750TIP3   OH220192   2.896   2.382   6.716  0.2316  0.3404  0.2401
 6750TIP3    H120193   2.814   2.413   6.679 -0.1149  2.0847  2.2962
 6750TIP3    H220194   2.891   2.287   6.708 -2.0062  0.3919  0.3416
 6751TIP3   OH220195   1.195   2.187   5.856 -0.3047 -0.1730 -0.3888
 6751TIP3    H120196   1.186   2.168   5.950 -1.4048  0.8974 -0.2637
 6751TIP3    H220197   1.155   2.112   5.813 -1.8684  0.3752  0.0532
 6752TIP3   OH220198   1.737   6.517   0.513  0.0925 -0.3669  0.2428
 6752TIP3    H120199   1.757   6.423   0.509 -1.7605 -0.7856  0.1501
 6752TIP3    H220200   1.787   6.555   0.441 -0.1516 -1.4926 -0.5463
 6753TIP3   OH220201   1.707   0.541   3.677 -0.4718  0.1819  0.2109
 6753TIP3    H120202   1.716   0.634   3.700  0.4407 -0.0036  0.6350
 6753TIP3    H220203   1.792   0.502   3.700  0.4940 -0.0842 -3.2184
 6754TIP3   OH220204   3.469   5.300   2.144 -0.3433  0.1782  0.2222
 6754TIP3    H120205   3.409   5.316   2.071  0.3935  0.4806 -0.3345
 6754TIP3    H220206   3.430   5.228   2.192 -0.6025 -0.3542 -0.7601
 6755TIP3   OH220207   3.967   3.096   3.186  0.0944 -0.2545 -0.1353
 6755TIP3    H120208   4.019   3.136   3.117 -2.1304  0.7309 -1.3454
 6755TIP3    H220209   3.882   3.079   3.145 -0.6883 -1.4262  1.8406
 6756TIP3   OH220210   7.738   6.211   2.204 -0.2754 -0.4103 -0.0558
 6756TIP3    H120211   7.830   6.233   2.191 -0.7069  1.9223  0.4365
 6756TIP3    H220212   7.717   6.151   2.132  0.9308  1.2238 -1.8373
 6757TIP3   OH220213   6.012   4.498   6.433  0.2257 -0.5659  0.5924
 6757TIP3    H120214   6.009   4.424   6.493  0.6859 -0.5914  0.5855
 6757TIP3    H220215   5.920   4.518   6.415  0.0872 -2.0689 -0.5663
 6758TIP3   OH220216   7.388   2.406   2.307  0.2095 -0.5808 -0.0648
 6758TIP3    H120217   7.374   2.450   2.391  1.7661  0.1448 -0.1315
 6758TIP3    H220218   7.484   2.405   2.297  0.0897 -1.6041 -1.3373
 6759TIP3   OH220219   4.047   0.823   1.795  0.3826 -0.1179 -0.2677
 6759TIP3    H120220   3.963   0.848   1.834  0.9540 -0.5462  1.2908
 6759TIP3    H220221   4.022   0.773   1.717 -0.7903  0.7115 -0.4531
 6760TIP3   OH220222   4.657   1.793   0.033  0.2190  0.7734 -0.3480
 6760TIP3    H120223   4.697   1.747  -0.041 -1.0276 -1.1573  0.1100
 6760TIP3    H220224   4.713   1.773   0.107 -0.7224 -0.7461  0.0051
 6761TIP3   OH220225   8.093   0.209   4.270 -0.1305 -0.0466 -0.4988
 6761TIP3    H120226   8.132   0.296   4.265 -1.7186  0.7650  0.3798
 6761TIP3    H220227   8.114   0.169   4.186  2.1700  0.4675 -0.2397
 6762TIP3   OH220228   4.318   4.728   5.572 -0.5739 -0.2085  0.7673
 6762TIP3    H120229   4.326   4.821   5.553  1.9979 -0.2784  1.2095
 6762TIP3    H220230   4.320   4.686   5.486  0.7092  0.0503  0.6461
 6763TIP3   OH220231   6.121   2.810   3.507 -0.1915  0.2287 -0.3661
 6763TIP3    H120232   6.139   2.721   3.539  0.5712  0.5006  0.0030
 6763TIP3    H220233   6.151   2.867   3.578  0.5034  0.8153 -1.1067
 6764TIP3   OH220234   8.281   7.133   5.787  0.6318 -0.2237  0.2320
 6764TIP3    H120235   8.240   7.165   5.707  0.6525  1.0430  0.7038
 6764TIP3    H220236   8.270   7.038   5.784  2.8572 -0.5088 -2.5094
 6765TIP3   OH220237   6.854   2.419   4.923  0.1013  0.3943  0.5008
 6765TIP3    H120238   6.828   2.436   5.014 -1.8353 -0.8856  0.2583
 6765TIP3    H220239   6.939   2.377   4.929 -0.9969 -1.7995  1.9487
 6766TIP3   OH220240   6.015   5.707   6.104 -0.0102 -0.3502 -0.0053
 6766TIP3    H120241   6.009   5.782   6.164 -1.3484 -0.8213  0.4643
 6766TIP3    H220242   6.072   5.645   6.149  0.1654 -0.1073  0.1145
 6767TIP3   OH220243   5.607   4.610   4.895  0.3153  0.3175  0.3592
 6767TIP3    H120244   5.665   4.642   4.826 -0.0648  1.5963  0.6101
 6767TIP3    H220245   5.666   4.570   4.959  0.8917  1.1297  0.3600
 6768TIP3   OH220246   7.391   0.504   0.623  0.2223  0.3491 -0.0546
 6768TIP3    H120247   7.445   0.510   0.544 -0.9097  0.5205 -0.8445
 6768TIP3    H220248   7.352   0.591   0.631  0.4437  0.3780  0.7925
 6769TIP3   OH220249   4.222   4.027   1.464  0.2585 -0.6810  0.3037
 6769TIP3    H120250   4.149   4.070   1.509  0.7216  0.2741  0.1835
 6769TIP3    H220251   4.246   3.954   1.520 -0.6524 -0.8798  0.4473
 6770TIP3   OH220252   4.643   0.693   1.543 -0.2586 -0.1449  0.3542
 6770TIP3    H120253   4.565   0.647   1.511 -1.9753  2.5494  0.3392
 6770TIP3    H220254   4.692   0.712   1.463 -1.5822  1.4603 -0.1361
 6771TIP3   OH220255   6.976   6.429   1.044 -0.1712  0.2162  0.4278
 6771TIP3    H120256   6.941   6.341   1.060 -1.1816  0.4677 -0.2918
 6771TIP3    H220257   6.903   6.476   1.003  0.3031  1.4358  0.9441
 6772TIP3   OH220258   5.470   6.890   5.219 -0.3185 -0.3742 -0.1028
 6772TIP3    H120259   5.418   6.970   5.225  1.3881  0.8652 -0.9225
 6772TIP3    H220260   5.533   6.897   5.291  1.1487  0.0715 -1.3707
 6773TIP3   OH220261   6.930   4.637   1.009 -0.1479  0.0122 -0.0189
 6773TIP3    H120262   6.899   4.564   0.957 -0.6754  1.0267 -1.1867
 6773TIP3    H220263   6.887   4.626   1.094  1.3706 -2.1143  0.5534
 6774TIP3   OH220264   3.351   0.762   4.349  0.0671 -0.1678  0.0049
 6774TIP3    H120265   3.437   0.800   4.369 -0.6949  2.6357 -1.4035
 6774TIP3    H220266   3.344   0.768   4.253 -2.1239  0.9334  0.1590
 6775TIP3   OH220267   2.683   5.218   6.731 -0.3415  0.3315 -0.1062
 6775TIP3    H120268   2.764   5.260   6.760 -0.2890  0.4459 -0.4204
 6775TIP3    H220269   2.709   5.165   6.656 -0.1385 -1.3402  1.0845
 6776TIP3   OH220270   7.535   6.111   6.296  0.0599  0.3577  0.3850
 6776TIP3    H120271   7.599   6.055   6.252 -0.2709 -0.9750  1.5452
 6776TIP3    H220272   7.564   6.114   6.387 -1.0904  0.3544  0.7672
 6777TIP3   OH220273   5.987   1.482   1.416 -0.9226 -0.1107 -0.0434
 6777TIP3    H120274   5.925   1.413   1.394 -1.4707  0.4897 -0.4322
 6777TIP3    H220275   6.032   1.450   1.494 -0.1369 -1.5527 -1.0259
 6778TIP3   OH220276   0.788   2.991   2.549 -0.5655  0.2970 -0.4713
 6778TIP3    H120277   0.779   2.989   2.644 -1.1735 -0.8505 -0.5380
 6778TIP3    H220278   0.859   3.054   2.533 -1.7150  1.9398  0.6185
 6779TIP3   OH220279   1.569   6.639   6.163 -0.2706  0.7089  0.4406
 6779TIP3    H120280   1.655   6.636   6.204  0.2316 -0.6018 -0.6373
 6779TIP3    H220281   1.515   6.578   6.213  0.0050  0.0107 -0.1047
 6780TIP3   OH220282   6.232   5.639   2.504 -0.1379 -0.1994 -0.0435
 6780TIP3    H120283   6.160   5.692   2.469 -1.7166 -2.5888 -0.6124
 6780TIP3    H220284   6.230   5.559   2.452  1.2487 -1.4140  1.6849
 6781TIP3   OH220285   0.501   3.772   4.984  0.1944 -0.1010 -0.2738
 6781TIP3    H120286   0.582   3.814   4.954  0.4587 -0.0961  0.4479
 6781TIP3    H220287   0.432   3.831   4.953  0.4829  0.1055 -0.5373
 6782TIP3   OH220288   4.425   5.751   4.350  0.1399 -0.0712 -0.0029
 6782TIP3    H120289   4.389   5.796   4.274  0.8618  1.6413  0.5994
 6782TIP3    H220290   4.488   5.689   4.314 -0.9421 -0.6887 -0.8737
 6783TIP3   OH220291   4.255   4.282   0.288  0.3600 -0.2422 -0.2633
 6783TIP3    H120292   4.198   4.206   0.297  1.0976 -0.7490  0.2031
 6783TIP3    H220293   4.199   4.350   0.250 -0.8325 -0.4143  1.0967
 6784TIP3   OH220294   7.666   3.032   6.241  0.0098  0.6894 -0.0387
 6784TIP3    H120295   7.643   2.955   6.190  0.2587 -0.0348  0.9028
 6784TIP3    H220296   7.757   3.017   6.267 -0.1509  0.9669  0.7133
 6785TIP3   OH220297   4.725   2.880   4.193  0.2512 -0.3115  0.1303
 6785TIP3    H120298   4.772   2.872   4.110 -0.1563  0.2778 -0.1638
 6785TIP3    H220299   4.731   2.973   4.215 -0.5602 -0.2726  0.2094
 6786TIP3   OH220300   7.157   6.720   3.156 -0.2361 -0.3893  0.9130
 6786TIP3    H120301   7.204   6.678   3.228  0.8372 -0.0241  0.4538
 6786TIP3    H220302   7.066   6.693   3.167  0.2735 -2.1560  1.1102
 6787TIP3   OH220303   4.927   0.464   0.754 -0.1780 -0.4669 -0.9656
 6787TIP3    H120304   4.853   0.503   0.799 -0.2502 -2.3653  0.7104
 6787TIP3    H220305   4.891   0.429   0.673 -0.7833 -0.0168 -0.8931
 6788TIP3   OH220306   7.363   7.462   1.209 -0.1476  0.4487 -0.2557
 6788TIP3    H120307   7.333   7.382   1.164 -1.6165  0.3916  0.7560
 6788TIP3    H220308   7.287   7.520   1.209  0.3403  1.1227  0.6253
 6789TIP3   OH220309   1.581   5.943   0.867  0.7057  0.5984  0.3005
 6789TIP3    H120310   1.493   5.906   0.861  0.7953  0.3842  0.2740
 6789TIP3    H220311   1.622   5.920   0.783  0.8097  0.6361  0.3407
 6790TIP3   OH220312   5.148   5.026   5.123 -0.8935  0.1213  0.1280
 6790TIP3    H120313   5.199   5.106   5.110 -1.4982  1.0609  2.9046
 6790TIP3    H220314   5.067   5.041   5.074 -1.0035  1.2409  0.6200
 6791TIP3   OH220315   1.773   6.926   0.768 -0.1322 -0.2620 -0.4454
 6791TIP3    H120316   1.716   6.853   0.745  0.7921 -1.5096  0.9904
 6791TIP3    H220317   1.747   6.951   0.856 -0.2586  0.9832 -0.8227
 6792TIP3   OH220318   0.220   1.696   4.951  0.1949 -0.1689 -0.0642
 6792TIP3    H120319   0.235   1.606   4.920 -0.2563 -1.0191  2.0217
 6792TIP3    H220320   0.287   1.709   5.018 -2.0631 -0.4417  2.4151
 6793TIP3   OH220321   3.002   0.621   0.359  0.3838 -0.8437 -0.4719
 6793TIP3    H120322   2.951   0.696   0.329  0.6186 -0.2278  0.5888
 6793TIP3    H220323   3.069   0.659   0.416  0.9980 -1.7891 -0.5437
 6794TIP3   OH220324   7.456   4.251   5.175  0.5755  0.0296  0.1289
 6794TIP3    H120325   7.474   4.277   5.085  1.9468  0.1507  0.4089
 6794TIP3    H220326   7.367   4.282   5.192 -0.5700 -1.8860 -1.8410
 6795TIP3   OH220327   3.032   6.132   5.346  0.6069  0.3010  0.5446
 6795TIP3    H120328   3.103   6.193   5.365 -0.1703  1.9435 -1.4244
 6795TIP3    H220329   2.953   6.186   5.347 -0.3089 -0.9889  0.2621
 6796TIP3   OH220330   5.629   2.370   2.913 -0.4261 -0.0464  0.1648
 6796TIP3    H120331   5.563   2.317   2.868  0.3675 -0.4600 -0.5481
 6796TIP3    H220332   5.583   2.406   2.989 -1.0842 -1.5550  0.5395
 6797TIP3   OH220333   6.142   1.946   4.283  0.4974  0.3260  0.0565
 6797TIP3    H120334   6.079   2.006   4.324 -0.0731 -1.7146  2.4084
 6797TIP3    H220335   6.087   1.882   4.236  0.9574  0.0819 -0.1577
 6798TIP3   OH220336   2.781   2.349   5.815  0.4416  0.1741  0.8413
 6798TIP3    H120337   2.857   2.392   5.856  0.4799 -0.1498  1.1187
 6798TIP3    H220338   2.816   2.266   5.781  0.6034  0.8204 -0.6319
 6799TIP3   OH220339   4.593   2.740   5.203  0.3438 -0.1043  0.0023
 6799TIP3    H120340   4.553   2.795   5.136  1.7656 -1.8907 -2.4587
 6799TIP3    H220341   4.560   2.652   5.185  1.6856 -0.8133  0.8790
 6800TIP3   OH220342   7.361   2.334   0.678  0.0559 -0.3424  0.0293
 6800TIP3    H120343   7.423   2.385   0.729 -0.6586 -0.2773  0.8736
 6800TIP3    H220344   7.282   2.331   0.733 -0.7145 -0.3488 -1.0362
 6801TIP3   OH220345   2.095   6.505   3.480 -0.9525 -0.4632 -0.9287
 6801TIP3    H120346   2.018   6.472   3.434 -0.5011 -1.9693 -0.6352
 6801TIP3    H220347   2.160   6.516   3.411 -0.7360 -1.3244 -0.8684
 6802TIP3   OH220348   6.400   5.952   3.588  0.9112 -0.0761 -0.0628
 6802TIP3    H120349   6.448   5.936   3.506  1.1536 -0.5235  0.1645
 6802TIP3    H220350   6.346   6.029   3.569  1.7355  0.4610 -0.3222
 6803TIP3   OH220351   7.276   6.508   4.369  0.1658 -0.7092 -0.4164
 6803TIP3    H120352   7.349   6.499   4.308  0.9681  1.6481  0.1018
 6803TIP3    H220353   7.200   6.478   4.319  1.0704 -0.5752 -1.9327
 6804TIP3   OH220354   0.650   5.374   3.624 -0.3527  0.5216 -0.1986
 6804TIP3    H120355   0.562   5.410   3.614 -1.2195 -1.9696 -3.0084
 6804TIP3    H220356   0.643   5.316   3.699 -0.7764  1.2109  0.3066
 6805TIP3   OH220357   4.128   5.850   1.501  0.6085  0.0958  0.0892
 6805TIP3    H120358   4.121   5.808   1.587  1.7443 -0.9943 -0.3138
 6805TIP3    H220359   4.038   5.852   1.468  0.3025 -0.4535  0.8551
 6806TIP3   OH220360   5.180   6.686   3.706  0.6122 -0.9368  0.0958
 6806TIP3    H120361   5.236   6.638   3.766  0.3680 -0.5400  0.6427
 6806TIP3    H220362   5.117   6.620   3.675 -0.1517 -0.8344  1.3621
 6807TIP3   OH220363   3.054   5.478   4.305 -0.0610  0.8488 -0.1630
 6807TIP3    H120364   3.072   5.572   4.308  0.2806  0.7706  0.4398
 6807TIP3    H220365   2.962   5.470   4.329 -0.1022  1.0329 -0.2553
 6808TIP3   OH220366   3.489   5.698   4.450  0.7605 -0.2921 -0.1438
 6808TIP3    H120367   3.579   5.675   4.426  0.7512  0.0805 -0.5368
 6808TIP3    H220368   3.480   5.667   4.540  1.1033 -0.8330 -0.2901
 6809TIP3   OH220369   4.108   5.889   1.830  0.0592  0.0941  0.3430
 6809TIP3    H120370   4.014   5.874   1.820 -0.2061  1.1443  1.0830
 6809TIP3    H220371   4.126   5.967   1.777  1.3962 -2.4804 -3.4009
 6810TIP3   OH220372   7.446   7.044   3.708 -0.6119  0.0232 -0.0310
 6810TIP3    H120373   7.436   7.014   3.618 -1.8417 -0.4638  0.2396
 6810TIP3    H220374   7.536   7.022   3.731 -0.3089  0.0845 -1.1080
 6811TIP3   OH220375   3.737   1.776   3.326  0.1590  0.3506 -0.0333
 6811TIP3    H120376   3.675   1.840   3.361  0.2124 -0.3487  1.4289
 6811TIP3    H220377   3.744   1.797   3.233 -3.2297 -0.2803 -0.5830
 6812TIP3   OH220378   2.684   1.572   1.023 -1.2322 -0.2377 -0.0637
 6812TIP3    H120379   2.629   1.588   0.946  1.7915  3.1587 -1.8417
 6812TIP3    H220380   2.749   1.508   0.993 -0.3655  0.6953 -0.2370
 6813TIP3   OH220381   1.574   7.761   4.390  0.0734  0.7234 -0.2996
 6813TIP3    H120382   1.667   7.745   4.374 -0.1021 -1.7852  0.6559
 6813TIP3    H220383   1.559   7.725   4.477 -1.9624  0.3178 -0.7765
 6814TIP3   OH220384   4.182   5.282   1.291  0.0537 -0.2313  0.7798
 6814TIP3    H120385   4.160   5.375   1.294  0.1288 -0.2258  1.7624
 6814TIP3    H220386   4.198   5.258   1.383 -1.7973 -1.6495  0.7829
 6815TIP3   OH220387   1.455   5.903   6.626 -0.4951  0.0694  0.0296
 6815TIP3    H120388   1.546   5.912   6.597  0.0157 -0.3291  1.4419
 6815TIP3    H220389   1.428   5.993   6.646 -0.0942  0.0846  0.5157
 6816TIP3   OH220390   2.420   3.446   4.014 -0.0830  0.3233 -0.1929
 6816TIP3    H120391   2.481   3.519   4.014 -0.8800  1.0279 -0.9090
 6816TIP3    H220392   2.368   3.458   4.093  0.5715 -0.1656  0.3153
 6817TIP3   OH220393   8.128   4.491   2.687  0.0871  0.2464  0.2752
 6817TIP3    H120394   8.176   4.434   2.628  0.6970  1.3691 -0.3362
 6817TIP3    H220395   8.063   4.535   2.631  0.8621  1.5366  0.3391
 6818TIP3   OH220396   0.499   3.653   3.899 -0.1442  0.3240 -0.5116
 6818TIP3    H120397   0.543   3.662   3.983  0.5042  0.7815 -0.8912
 6818TIP3    H220398   0.521   3.565   3.869  0.9111  0.6972 -0.9017
 6819TIP3   OH220399   7.734   5.637   5.661  0.2982 -0.4092  0.0565
 6819TIP3    H120400   7.657   5.589   5.691 -0.9477 -1.0396 -3.6739
 6819TIP3    H220401   7.787   5.571   5.615  1.2685  0.7246 -0.5140
 6820TIP3   OH220402   5.413   4.275   2.513  0.0754 -0.1810 -0.4548
 6820TIP3    H120403   5.402   4.190   2.557 -0.0194  0.0574 -0.0067
 6820TIP3    H220404   5.387   4.259   2.423 -0.9707 -0.3759 -0.1306
 6821TIP3   OH220405   5.107   5.122   4.365  0.0002 -0.3914 -0.3405
 6821TIP3    H120406   5.170   5.186   4.397 -2.0464  2.6386 -1.8650
 6821TIP3    H220407   5.070   5.082   4.444  0.5765  1.1278  0.7302
 6822TIP3   OH220408   3.491   7.149   1.029  0.3633  0.3813  0.6867
 6822TIP3    H120409   3.483   7.237   0.993  1.7976  0.8519  1.4196
 6822TIP3    H220410   3.450   7.154   1.115 -0.5754  0.0102  0.2716
 6823TIP3   OH220411   5.231   3.087   2.711 -0.1367  0.3527 -0.5806
 6823TIP3    H120412   5.209   3.005   2.755  0.8924 -1.4766 -3.2460
 6823TIP3    H220413   5.319   3.109   2.742 -0.5032  0.6428  0.3104
 6824TIP3   OH220414   8.187   2.671   5.312  0.0548 -0.3172 -0.1302
 6824TIP3    H120415   8.202   2.656   5.219 -2.4627 -0.0805 -0.6612
 6824TIP3    H220416   8.153   2.588   5.344 -3.0232  0.6931 -0.4522
 6825TIP3   OH220417   3.023   4.798   2.248  0.4951  0.4646 -0.2536
 6825TIP3    H120418   3.111   4.763   2.263  0.0690 -0.2852  0.6228
 6825TIP3    H220419   3.035   4.893   2.244  1.3908  0.3516 -0.5317
 6826TIP3   OH220420   6.904   5.514   5.017  0.4171  0.6980  0.4485
 6826TIP3    H120421   6.996   5.536   5.004  1.2207 -1.6842  1.5010
 6826TIP3    H220422   6.877   5.477   4.932  0.4023  1.4468  0.1219
 6827TIP3   OH220423   0.191   5.478   5.760 -0.2029  0.2688  0.0500
 6827TIP3    H120424   0.215   5.521   5.678 -0.7194 -0.6571 -0.6144
 6827TIP3    H220425   0.220   5.387   5.749  1.0140  0.4496  1.4813
 6828TIP3   OH220426   0.731   1.283   0.748  0.4750 -0.9997  0.4097
 6828TIP3    H120427   0.725   1.200   0.794  1.2689 -1.8653 -0.9852
 6828TIP3    H220428   0.808   1.325   0.786  0.7116 -1.3914  0.3700
 6829TIP3   OH220429   8.189   0.733   2.455  0.1634 -0.9498 -0.0994
 6829TIP3    H120430   8.202   0.639   2.441 -1.1176 -1.4558  1.7063
 6829TIP3    H220431   8.116   0.738   2.516 -0.7891  1.2958 -1.2951
 6830TIP3   OH220432   5.976   2.926   0.478  0.4571  0.1152  0.1897
 6830TIP3    H120433   5.909   2.910   0.544  0.1041 -3.0404 -0.7568
 6830TIP3    H220434   6.036   2.852   0.486  0.5118 -0.3019 -2.8142
 6831TIP3   OH220435   6.351   1.536   4.282  0.1591 -0.6207 -0.3254
 6831TIP3    H120436   6.272   1.504   4.326 -0.8526 -0.8397 -2.2256
 6831TIP3    H220437   6.366   1.474   4.211 -0.0283  1.3159 -2.1619
 6832TIP3   OH220438   6.400   0.405   4.991 -0.8790  0.0924  0.2919
 6832TIP3    H120439   6.349   0.486   4.986 -1.3388 -0.0068  2.4286
 6832TIP3    H220440   6.465   0.422   5.059 -0.8212 -1.2275  0.5970
 6833TIP3   OH220441   4.654   0.950   1.658  0.7116 -0.4851  0.2654
 6833TIP3    H120442   4.651   0.859   1.627 -0.6438 -0.3769 -0.0044
 6833TIP3    H220443   4.563   0.979   1.655  0.9844  0.5640  1.3375
 6834TIP3   OH220444   8.011   2.877   1.669 -0.3783 -0.4763 -0.6445
 6834TIP3    H120445   8.042   2.913   1.752 -1.5939  1.5498 -0.9790
 6834TIP3    H220446   8.091   2.859   1.619  0.3669 -1.8320  0.9554
 6835TIP3   OH220447   7.592   1.620   4.786  0.1821 -0.4346  0.1952
 6835TIP3    H120448   7.658   1.687   4.803  0.1839 -0.8822  2.1792
 6835TIP3    H220449   7.588   1.614   4.690  2.2145  0.3751  0.0118
 6836TIP3   OH220450   5.498   0.930   2.911 -0.4755 -0.1044  0.2018
 6836TIP3    H120451   5.568   0.979   2.955  1.2123 -0.7488 -1.6102
 6836TIP3    H220452   5.517   0.940   2.817 -1.8046 -1.7587 -0.2953
 6837TIP3   OH220453   2.483   4.315   1.568  0.8825 -0.4777 -0.7139
 6837TIP3    H120454   2.466   4.409   1.575 -0.2375 -0.6660 -0.7227
 6837TIP3    H220455   2.511   4.303   1.477 -0.3244 -0.3305 -1.1293
 6838TIP3   OH220456   8.032   4.143   4.647 -0.7723 -0.0712 -0.2992
 6838TIP3    H120457   8.028   4.189   4.563  1.8568  1.7637  0.4615
 6838TIP3    H220458   8.054   4.210   4.711 -0.7793 -1.7418  1.5653
 6839TIP3   OH220459   0.700   5.525   6.516  0.1002 -0.8495 -0.6016
 6839TIP3    H120460   0.659   5.445   6.550 -1.7144 -0.5010 -1.8159
 6839TIP3    H220461   0.702   5.512   6.421 -0.5886  0.6698 -0.8591
 6840TIP3   OH220462   7.451   6.666   6.366 -0.0953 -0.0927 -0.2748
 6840TIP3    H120463   7.451   6.732   6.436  0.6305  1.6668 -1.8218
 6840TIP3    H220464   7.515   6.601   6.394 -0.1111  0.3725  0.8877
 6841TIP3   OH220465   6.164   1.447   5.285 -0.1089 -0.3799  0.0184
 6841TIP3    H120466   6.242   1.430   5.232 -0.5800 -1.0688 -0.4808
 6841TIP3    H220467   6.123   1.360   5.296  0.0584 -0.2870  1.6463
 6842TIP3   OH220468   6.284   6.956   5.484  0.2949  0.3017 -0.1850
 6842TIP3    H120469   6.248   6.869   5.466 -0.5465  0.7602 -0.7700
 6842TIP3    H220470   6.371   6.939   5.520 -0.3586 -0.8301  0.9664
 6843TIP3   OH220471   1.983   6.700   2.539 -0.4910  0.8786  0.2304
 6843TIP3    H120472   1.998   6.650   2.619 -1.5646 -0.3004 -0.2789
 6843TIP3    H220473   1.993   6.636   2.469 -0.7991  1.6273 -0.5092
 6844TIP3   OH220474   0.258   0.078   4.735 -0.0742 -0.8725  0.7624
 6844TIP3    H120475   0.231   0.073   4.644  0.0478  0.0765  0.6625
 6844TIP3    H220476   0.184   0.119   4.780  1.0246  1.5430  0.5263
 6845TIP3   OH220477   7.487   0.571   2.955 -0.0829  0.1426  0.5358
 6845TIP3    H120478   7.547   0.624   3.008  0.0232 -0.7601  1.3548
 6845TIP3    H220479   7.544   0.518   2.900 -0.1160 -0.5913  1.1917
 6846TIP3   OH220480   6.618   6.209   1.635  0.4819  0.4414 -0.1466
 6846TIP3    H120481   6.564   6.272   1.587  1.1020  1.4846  0.4925
 6846TIP3    H220482   6.706   6.222   1.601  0.6939  0.2499  0.3185
 6847TIP3   OH220483   0.259   6.732   6.488  0.2293 -0.4098  0.0066
 6847TIP3    H120484   0.232   6.807   6.434  1.6962  1.1509  1.3444
 6847TIP3    H220485   0.232   6.656   6.437  0.1364  0.9948 -2.1923
 6848TIP3   OH220486   7.304   2.051   0.799 -0.3830  0.1888  0.5748
 6848TIP3    H120487   7.246   1.976   0.785  0.4197 -0.4785  0.6882
 6848TIP3    H220488   7.293   2.105   0.720 -0.7507 -0.2065  0.3497
 6849TIP3   OH220489   3.006   3.998   2.453 -0.0190  0.0313 -0.5186
 6849TIP3    H120490   2.961   3.920   2.486 -0.9419  1.3119  1.4051
 6849TIP3    H220491   2.936   4.058   2.429  0.6460  1.1650  0.2877
 6850TIP3   OH220492   4.805   5.042   2.732 -0.1820  0.5216 -0.4029
 6850TIP3    H120493   4.805   5.012   2.641  2.2997  1.4686 -0.8055
 6850TIP3    H220494   4.776   5.133   2.727 -0.5498  0.4158 -0.1800
 6851TIP3   OH220495   0.826   2.677   6.024  0.1571  0.3402  0.5041
 6851TIP3    H120496   0.833   2.758   6.074  0.8425 -1.0347  2.7769
 6851TIP3    H220497   0.756   2.627   6.067 -1.6045  0.4148 -2.0126
 6852TIP3   OH220498   7.168   7.327   3.844  0.2162 -0.0217  0.1993
 6852TIP3    H120499   7.215   7.410   3.849 -0.8540  0.5682  1.1425
 6852TIP3    H220500   7.083   7.349   3.805  0.0078 -0.7038  0.2411
 6853TIP3   OH220501   2.495   5.276   1.594  0.2722 -0.3610 -0.3767
 6853TIP3    H120502   2.420   5.331   1.615  1.1158 -0.7533  4.9932
 6853TIP3    H220503   2.566   5.338   1.577 -0.2218  0.0672 -0.9171
 6854TIP3   OH220504   7.467   3.752   3.709  0.2133  0.4438  0.2072
 6854TIP3    H120505   7.376   3.747   3.738  0.0786  1.9652  0.0953
 6854TIP3    H220506   7.461   3.754   3.613  0.4311 -0.3781  0.1665
 6855TIP3   OH220507   4.666   3.900   5.415 -0.2223  0.2890  0.4914
 6855TIP3    H120508   4.608   3.971   5.386 -0.0681  0.7499  1.2700
 6855TIP3    H220509   4.691   3.925   5.504 -0.9730 -1.2651  1.1606
 6856TIP3   OH220510   6.670   0.485   4.323  0.3184 -0.4606  0.0752
 6856TIP3    H120511   6.615   0.547   4.371  1.5455  0.9988 -0.3215
 6856TIP3    H220512   6.626   0.401   4.333 -2.2686  0.7064 -0.6430
 6857TIP3   OH220513   4.102   1.543   1.743 -0.1751  0.1662 -0.0460
 6857TIP3    H120514   4.018   1.556   1.698  0.5229  0.0460 -1.4234
 6857TIP3    H220515   4.166   1.587   1.687  0.9326 -1.2751  0.0426
 6858TIP3   OH220516   5.520   0.267   3.970 -0.1920 -0.3848 -0.9165
 6858TIP3    H120517   5.456   0.315   3.918 -0.5260 -0.5952 -0.7094
 6858TIP3    H220518   5.573   0.335   4.011  2.1789 -0.1777 -3.9810
 6859TIP3   OH220519   7.541   4.572   1.417  0.3079 -0.1655 -0.0310
 6859TIP3    H120520   7.474   4.515   1.381  0.4384 -0.0809 -0.4138
 6859TIP3    H220521   7.615   4.514   1.435 -0.1937 -0.4377  1.3191
 6860TIP3   OH220522   1.234   6.653   5.498  0.1188 -0.0041  0.4070
 6860TIP3    H120523   1.317   6.631   5.455 -1.0866 -1.4341 -1.3584
 6860TIP3    H220524   1.260   6.686   5.584  2.5439  0.4279 -0.3946
 6861TIP3   OH220525   2.220   5.742   4.386 -0.5756  0.4052 -0.0710
 6861TIP3    H120526   2.201   5.708   4.299  0.7907  1.2147 -0.7183
 6861TIP3    H220527   2.209   5.837   4.378  3.7955  1.0620 -0.6787
 6862TIP3   OH220528   3.907   5.021   0.020 -0.0130  0.1194 -0.3498
 6862TIP3    H120529   3.843   4.955   0.047  1.4742 -1.0270  0.5832
 6862TIP3    H220530   3.981   5.009   0.081  2.0193 -0.1757 -2.6916
 6863TIP3   OH220531   0.421   5.759   3.839  0.3611  0.0982 -1.0521
 6863TIP3    H120532   0.465   5.844   3.845  1.3943 -0.5446  2.1748
 6863TIP3    H220533   0.432   5.734   3.747  1.4725  2.6656 -1.7247
 6864TIP3   OH220534   1.834   6.448   2.415 -0.6670  0.0950  0.2860
 6864TIP3    H120535   1.916   6.477   2.375  0.5149 -0.7107  1.9753
 6864TIP3    H220536   1.840   6.477   2.506 -2.5986  0.6076  0.2968
 6865TIP3   OH220537   3.323   5.925   4.801 -0.4045 -0.2946  0.1874
 6865TIP3    H120538   3.396   5.975   4.765 -0.2081  0.2603  1.3420
 6865TIP3    H220539   3.306   5.964   4.886 -2.5091  0.0345 -0.3251
 6866TIP3   OH220540   6.799   0.310   0.481  0.5050  0.3891 -0.4959
 6866TIP3    H120541   6.808   0.220   0.448 -0.3703  0.2514 -0.3833
 6866TIP3    H220542   6.757   0.357   0.409  0.7453  0.6558 -0.4619
 6867TIP3   OH220543   1.239   4.110   2.191 -0.5891  0.9789  0.0382
 6867TIP3    H120544   1.289   4.095   2.111  0.0405  1.9765  0.2183
 6867TIP3    H220545   1.176   4.038   2.194  0.1207  0.2959 -0.7616
 6868TIP3   OH220546   2.942   1.311   1.519 -0.2279 -0.3063  0.2622
 6868TIP3    H120547   2.979   1.254   1.586  0.2819 -1.9142 -1.3390
 6868TIP3    H220548   3.017   1.359   1.483 -0.4896  0.4875  0.7315
 6869TIP3   OH220549   0.217   3.818   0.349 -0.0001  0.3062 -0.3469
 6869TIP3    H120550   0.249   3.799   0.437 -0.1320 -2.2740 -0.7821
 6869TIP3    H220551   0.152   3.750   0.332  1.9193 -0.9948 -3.4156
 6870TIP3   OH220552   3.171   6.073   2.419 -0.0637  0.1107 -0.5118
 6870TIP3    H120553   3.258   6.062   2.380  0.2785  2.7405 -0.6692
 6870TIP3    H220554   3.184   6.057   2.512 -0.1223 -2.5181 -0.8618
 6871TIP3   OH220555   5.349   6.548   1.652 -0.0500 -0.0356 -0.1628
 6871TIP3    H120556   5.263   6.573   1.686  0.5174  0.6077  0.8091
 6871TIP3    H220557   5.364   6.460   1.687  0.4292  0.5302  1.0914
 6872TIP3   OH220558   1.173   6.792   2.399 -0.2247 -0.1548  0.2166
 6872TIP3    H120559   1.110   6.720   2.393 -1.6374  1.0066  0.4397
 6872TIP3    H220560   1.221   6.776   2.480  0.1131 -1.3070 -0.1897
 6873TIP3   OH220561   0.696   7.513   0.894 -0.0605 -0.5914  0.4873
 6873TIP3    H120562   0.633   7.577   0.926  1.1706  1.6269 -1.1509
 6873TIP3    H220563   0.643   7.440   0.862 -1.7704  0.8768 -0.2081
 6874TIP3   OH220564   5.701   6.271   5.151  0.0999 -0.2108  0.3906
 6874TIP3    H120565   5.681   6.359   5.184  1.3475 -0.3360  1.5522
 6874TIP3    H220566   5.663   6.270   5.063  1.5481  2.1172 -0.3557
 6875TIP3   OH220567   0.478   6.488   3.196  0.2799  0.0221 -0.1894
 6875TIP3    H120568   0.525   6.420   3.146  0.0747  0.2447 -0.6917
 6875TIP3    H220569   0.452   6.552   3.130  0.0900  0.3723  0.2245
 6876TIP3   OH220570   4.153   6.085   1.325 -0.5928 -0.3084 -0.7642
 6876TIP3    H120571   4.063   6.112   1.338 -0.1562  0.6832  0.3437
 6876TIP3    H220572   4.167   6.014   1.387  0.2664  1.6542  1.4557
 6877TIP3   OH220573   2.659   6.591   6.412  0.0882 -0.0248 -0.1529
 6877TIP3    H120574   2.594   6.648   6.371  0.5417  0.0792 -0.7542
 6877TIP3    H220575   2.624   6.503   6.403 -0.2881  0.0931  0.1465
 6878TIP3   OH220576   7.059   0.876   4.617 -0.1877 -0.2532  0.2289
 6878TIP3    H120577   7.110   0.797   4.631  1.0385  0.4904  0.1074
 6878TIP3    H220578   7.002   0.882   4.694  1.6656  0.1916  1.6439
 6879TIP3   OH220579   6.387   0.914   1.168 -0.4630 -0.4438  0.1920
 6879TIP3    H120580   6.465   0.864   1.192 -0.8664 -1.0621  0.2307
 6879TIP3    H220581   6.320   0.884   1.229 -0.4935  0.7807  0.7875
 6880TIP3   OH220582   7.009   6.126   3.059 -0.3793  0.0819  0.0000
 6880TIP3    H120583   6.995   6.038   3.024 -1.8004  0.3747 -0.2267
 6880TIP3    H220584   7.075   6.165   3.002 -0.1760 -0.6324 -0.2602
 6881TIP3   OH220585   5.531   5.562   0.373  0.3694 -0.2526  0.4545
 6881TIP3    H120586   5.563   5.606   0.294  0.0074  0.4881  0.7162
 6881TIP3    H220587   5.534   5.629   0.440 -1.5651 -0.2136  0.5411
 6882TIP3   OH220588   4.414   3.438   5.262  0.1092  0.3835 -0.0893
 6882TIP3    H120589   4.428   3.455   5.355 -1.3718  0.5574  0.1263
 6882TIP3    H220590   4.436   3.520   5.219 -2.1519  1.3446  0.4503
 6883TIP3   OH220591   1.387   0.929   4.859 -0.6221  0.3229  0.3672
 6883TIP3    H120592   1.341   0.849   4.884  0.6985 -1.4201 -2.2271
 6883TIP3    H220593   1.465   0.930   4.914 -1.2517  0.5150  1.2691
 6884TIP3   OH220594   3.872   0.318   4.606 -0.6824 -0.4301  0.1994
 6884TIP3    H120595   3.917   0.403   4.602 -0.5333 -0.4766  0.7230
 6884TIP3    H220596   3.818   0.315   4.528 -0.2089 -0.1189 -0.1456
 6885TIP3   OH220597   2.460   0.051   6.494  0.3025 -0.3250 -0.0460
 6885TIP3    H120598   2.511   0.059   6.574  1.2681 -1.4032 -0.5303
 6885TIP3    H220599   2.428  -0.040   6.495  2.0789 -1.0516 -1.8529
 6886TIP3   OH220600   1.410   4.955   0.791 -0.0920 -0.3015 -0.7357
 6886TIP3    H120601   1.338   4.894   0.778 -0.5353 -0.0306  0.3804
 6886TIP3    H220602   1.428   4.989   0.703 -0.5159 -1.2566 -1.2097
 6887TIP3   OH220603   5.998   1.600   4.898 -0.6696  0.2918  0.7258
 6887TIP3    H120604   6.080   1.647   4.907 -0.7789  0.6261  0.0631
 6887TIP3    H220605   6.022   1.518   4.854 -0.5314 -0.1213  1.5565
 6888TIP3   OH220606   3.419   5.916   2.592  0.1396  0.5288  0.3388
 6888TIP3    H120607   3.460   5.892   2.509  0.2516 -1.5767  0.9542
 6888TIP3    H220608   3.335   5.871   2.592  0.2218  0.3285  1.4387
 6889TIP3   OH220609   7.011   3.972   2.024  0.0552  0.0420 -0.5094
 6889TIP3    H120610   6.931   3.924   2.043  0.4618 -0.4585 -0.0350
 6889TIP3    H220611   6.988   4.064   2.038 -0.5841 -0.0493 -0.9213
 6890TIP3   OH220612   5.439   6.774   2.682  0.7537 -0.0301 -0.5154
 6890TIP3    H120613   5.469   6.793   2.593  0.4209  2.0021 -0.2373
 6890TIP3    H220614   5.353   6.734   2.670  0.2889  1.1059 -1.1031
 6891TIP3   OH220615   1.623   7.215   5.831  0.4090  0.1316  0.7401
 6891TIP3    H120616   1.654   7.200   5.742  2.1685 -1.1141  1.5210
 6891TIP3    H220617   1.532   7.184   5.830 -0.5094  2.4898 -1.2141
 6892TIP3   OH220618  -0.012   0.182   1.101  0.4102  0.2495 -0.1060
 6892TIP3    H120619   0.019   0.104   1.055  1.3750  0.9204 -0.6431
 6892TIP3    H220620   0.032   0.179   1.186 -1.3935 -1.0048  0.8301
 6893TIP3   OH220621   5.332   1.806   4.177 -0.1940  0.6126 -0.1498
 6893TIP3    H120622   5.282   1.848   4.248 -1.4882 -2.3849  0.8688
 6893TIP3    H220623   5.265   1.769   4.120  0.8838  0.0877 -1.1003
 6894TIP3   OH220624   6.395   4.287   1.461  0.2352  0.2701 -0.1179
 6894TIP3    H120625   6.455   4.214   1.453  0.9459  0.5610  1.8389
 6894TIP3    H220626   6.419   4.328   1.544 -1.8174  1.1800  0.0897
 6895TIP3   OH220627   0.627   6.859   2.010  0.4971  0.1395  0.4700
 6895TIP3    H120628   0.651   6.928   1.947 -0.2745 -0.3371 -0.3757
 6895TIP3    H220629   0.591   6.789   1.956  0.4928 -0.5890  1.3967
 6896TIP3   OH220630   7.610   4.153   0.188 -0.1407  0.0105  0.2899
 6896TIP3    H120631   7.563   4.099   0.124  0.4217 -0.4529  0.2589
 6896TIP3    H220632   7.599   4.106   0.271  3.1429 -2.0433 -0.2761
 6897TIP3   OH220633   2.654   6.272   4.132 -0.4555  0.6749  0.5753
 6897TIP3    H120634   2.573   6.294   4.178 -1.2864 -0.5961 -0.2045
 6897TIP3    H220635   2.707   6.225   4.197 -0.7526  0.6796  0.8205
 6898TIP3   OH220636   0.412   2.693   5.921 -0.2729 -0.1324  0.4692
 6898TIP3    H120637   0.493   2.695   5.869  0.5748 -0.1782  1.7545
 6898TIP3    H220638   0.384   2.784   5.926 -0.3258 -0.1180  0.0103
 6899TIP3   OH220639   1.451   2.579   0.362  0.5736 -0.0699  0.5137
 6899TIP3    H120640   1.395   2.655   0.350  0.3784 -0.3302 -0.2646
 6899TIP3    H220641   1.536   2.616   0.388 -0.3980  0.2518  3.6511
 6900TIP3   OH220642   0.305   1.650   6.032 -0.3332 -0.1357 -0.3069
 6900TIP3    H120643   0.399   1.636   6.037 -0.1068  1.1910 -0.5429
 6900TIP3    H220644   0.290   1.734   6.076 -1.3186  0.0025 -0.8700
 6901TIP3   OH220645   6.798   3.412   0.506 -0.0994  0.8821  0.5653
 6901TIP3    H120646   6.871   3.437   0.449 -1.0138  0.0148 -1.0518
 6901TIP3    H220647   6.840   3.383   0.587  1.4119 -0.0959 -0.5114
 6902TIP3   OH220648   1.675   0.970   6.649 -0.2190  0.0274 -0.1667
 6902TIP3    H120649   1.754   0.980   6.701  0.1011 -1.5967 -0.2948
 6902TIP3    H220650   1.625   1.050   6.665  1.1681  0.8059  0.3783
 6903TIP3   OH220651   0.376   5.215   0.237 -0.0299 -0.0391 -0.0740
 6903TIP3    H120652   0.309   5.163   0.281 -1.0271  2.0408  0.9753
 6903TIP3    H220653   0.397   5.285   0.298  0.8473  1.1577 -1.6651
 6904TIP3   OH220654   5.864   4.394   0.593 -0.0139 -0.2612  0.4223
 6904TIP3    H120655   5.782   4.416   0.637 -1.3254 -2.6593 -0.6308
 6904TIP3    H220656   5.910   4.478   0.585 -2.5415  1.2621  0.6518
 6905TIP3   OH220657   5.292   3.673   6.076  0.6340  0.5198  0.7533
 6905TIP3    H120658   5.229   3.672   6.148 -1.1210 -0.1917 -0.7225
 6905TIP3    H220659   5.271   3.752   6.026 -0.7106 -0.8832 -1.0384
 6906TIP3   OH220660   6.664   0.523   3.040 -0.1831 -0.2915 -0.2739
 6906TIP3    H120661   6.597   0.458   3.022  0.0086 -0.3004 -1.0055
 6906TIP3    H220662   6.633   0.570   3.117 -1.4703  0.2923 -1.1038
 6907TIP3   OH220663   6.968   7.054   6.547 -0.0512 -0.1381  0.2309
 6907TIP3    H120664   6.876   7.053   6.572 -0.4278 -1.5362 -1.1066
 6907TIP3    H220665   6.996   6.963   6.555  0.5897 -0.1221 -1.5265
 6908TIP3   OH220666   5.843   6.632   0.853 -0.6051  0.4045 -0.1974
 6908TIP3    H120667   5.756   6.672   0.853 -0.7269  0.2793 -2.4164
 6908TIP3    H220668   5.835   6.557   0.912 -1.9665  0.4940 -0.2244
 6909TIP3   OH220669   3.112   6.712   5.493  0.2320  0.0762 -0.8437
 6909TIP3    H120670   3.152   6.642   5.545  0.6215  0.9483  0.0659
 6909TIP3    H220671   3.063   6.764   5.557 -2.2694 -0.8368 -1.8856
 6910TIP3   OH220672   1.717   2.268   1.914 -0.6417  0.3046  0.0450
 6910TIP3    H120673   1.796   2.273   1.967 -0.6605 -0.9424  0.2225
 6910TIP3    H220674   1.743   2.304   1.829  0.7494 -1.8668 -0.5578
 6911TIP3   OH220675   6.898   2.694   0.441 -0.4234 -0.0801 -0.0032
 6911TIP3    H120676   6.827   2.733   0.389  1.1053  2.5050 -0.3414
 6911TIP3    H220677   6.955   2.654   0.376 -0.2387  0.1801 -0.0042
 6912TIP3   OH220678   4.344   5.675   3.247  0.4201 -0.2961  0.0025
 6912TIP3    H120679   4.270   5.626   3.211  0.3961 -0.1772 -0.1106
 6912TIP3    H220680   4.312   5.711   3.330  1.0202 -2.0466  1.0428
 6913TIP3   OH220681   0.297   4.031   3.776  0.5302  0.6082 -1.0019
 6913TIP3    H120682   0.262   4.003   3.861  0.6306  0.4067 -1.0242
 6913TIP3    H220683   0.262   3.968   3.713  0.3442  0.8419 -1.1299
 6914TIP3   OH220684   2.928   3.063   2.125  0.3633 -0.0521 -0.2988
 6914TIP3    H120685   2.922   3.002   2.198 -0.0671  0.5964  0.2226
 6914TIP3    H220686   2.960   3.010   2.052  0.8246 -0.7094  0.3585
 6915TIP3   OH220687   6.082   3.593   5.332  0.6188 -0.1632  0.2071
 6915TIP3    H120688   6.114   3.683   5.332  1.4363 -0.4094 -1.5478
 6915TIP3    H220689   6.161   3.540   5.317 -0.1587 -0.9896 -1.1510
 6916TIP3   OH220690   7.623   0.169   3.541 -0.1816  0.2052 -0.1940
 6916TIP3    H120691   7.701   0.165   3.597  0.3667  2.5706 -0.6835
 6916TIP3    H220692   7.554   0.127   3.593  0.8679  0.1586  1.2396
 6917TIP3   OH220693   6.458   4.335   3.079  0.2257  0.7055  0.2427
 6917TIP3    H120694   6.412   4.310   2.999 -1.0883 -0.9336  1.4578
 6917TIP3    H220695   6.549   4.347   3.051 -0.1430 -0.1508 -1.4469
 6918TIP3   OH220696   4.738   5.122   4.525  0.5124  0.2948 -0.1729
 6918TIP3    H120697   4.656   5.121   4.476  0.3788 -0.3585  0.0673
 6918TIP3    H220698   4.796   5.063   4.477 -0.3582 -2.2707  1.6972
 6919TIP3   OH220699   6.831   1.449   5.060  0.2219  0.2243 -0.0623
 6919TIP3    H120700   6.880   1.373   5.090 -0.4784  0.2000  1.0722
 6919TIP3    H220701   6.764   1.463   5.127  0.1034  1.6178 -0.4359
 6920TIP3   OH220702   7.267   7.558   6.030  0.0273  0.0915  0.9963
 6920TIP3    H120703   7.219   7.483   6.064  1.1935 -1.0209  0.2503
 6920TIP3    H220704   7.277   7.616   6.106  0.4009 -1.1832  1.9500
 6921TIP3   OH220705   6.707   6.443   5.244  0.1013  0.2224 -0.1508
 6921TIP3    H120706   6.680   6.354   5.220 -0.6417  0.4869 -0.3360
 6921TIP3    H220707   6.630   6.480   5.286  0.5590  0.6290  0.3356
 6922TIP3   OH220708   3.288   0.452   5.172  0.2693  0.2791 -0.4024
 6922TIP3    H120709   3.321   0.513   5.105  1.3881 -0.4550 -0.5382
 6922TIP3    H220710   3.367   0.415   5.211 -0.4002 -1.0338 -0.2672
 6923TIP3   OH220711   4.058   1.048   3.948  0.1984 -0.8194 -0.2542
 6923TIP3    H120712   4.143   1.024   3.912  0.0914 -0.9215 -0.4393
 6923TIP3    H220713   4.079   1.093   4.030  0.3797 -1.7483  0.2118
 6924TIP3   OH220714   7.597   5.458   5.807  0.0946 -0.3119 -0.0281
 6924TIP3    H120715   7.677   5.409   5.825  0.3312  0.4508  1.1072
 6924TIP3    H220716   7.568   5.489   5.893  0.0818  1.6873 -0.7079
 6925TIP3   OH220717   0.939   1.769   2.933 -0.0557 -0.4265  0.2210
 6925TIP3    H120718   0.971   1.855   2.959 -0.4447 -0.8329  2.1231
 6925TIP3    H220719   0.972   1.758   2.843  2.6722  0.4076  1.0090
 6926TIP3   OH220720   0.039   7.613   1.292 -0.2885 -0.0372 -0.0918
 6926TIP3    H120721   0.081   7.528   1.277 -0.4960 -0.5389  1.7961
 6926TIP3    H220722  -0.051   7.591   1.319 -0.5131  0.8129 -0.1122
 6927TIP3   OH220723   6.929   2.556   5.573  0.1208  0.2071  0.0235
 6927TIP3    H120724   6.901   2.605   5.496  0.7567 -0.2160 -0.4896
 6927TIP3    H220725   6.871   2.585   5.643 -1.7044 -0.7475 -1.0228
 6928TIP3   OH220726   3.225   1.339   5.031  0.4205 -0.3278  0.0248
 6928TIP3    H120727   3.253   1.252   5.002 -0.3870 -1.3251  2.0596
 6928TIP3    H220728   3.292   1.365   5.094  0.3821  0.2983 -0.1928
 6929TIP3   OH220729   2.798   0.990   1.689  0.0928  0.0885 -0.7834
 6929TIP3    H120730   2.758   1.050   1.626 -0.7901  0.0540 -0.2656
 6929TIP3    H220731   2.878   1.035   1.718  0.3705  0.2167 -1.7172
 6930TIP3   OH220732   5.727   4.075   0.866 -0.4195  0.0563  0.1225
 6930TIP3    H120733   5.634   4.054   0.853 -0.1312 -0.0972 -2.2047
 6930TIP3    H220734   5.770   3.989   0.872 -0.2766  0.1037 -0.2168
 6931TIP3   OH220735   7.658   4.309   0.680 -0.3431 -0.1225  0.3739
 6931TIP3    H120736   7.582   4.367   0.671  0.4178  0.7261 -1.0001
 6931TIP3    H220737   7.730   4.368   0.704  0.5297 -0.3758 -1.4081
 6932TIP3   OH220738   4.762   1.981   6.274  0.7756 -0.8839  0.1844
 6932TIP3    H120739   4.770   2.046   6.344  1.1335 -0.5568 -0.1540
 6932TIP3    H220740   4.686   1.928   6.299  1.4068 -1.3164  1.2559
 6933TIP3   OH220741   5.799   2.356   6.494 -0.3242 -0.2716  0.4110
 6933TIP3    H120742   5.711   2.381   6.466  0.2603  0.9307 -0.4432
 6933TIP3    H220743   5.857   2.403   6.435  0.9135 -0.3866  1.4927
 6934TIP3   OH220744   2.343   1.337   6.768  0.3399  0.7606 -0.3510
 6934TIP3    H120745   2.274   1.401   6.749 -0.4664  0.0892  0.2703
 6934TIP3    H220746   2.304   1.252   6.746 -0.6750 -0.1288  3.8818
 6935TIP3   OH220747   3.292   6.839   6.231 -0.1078  0.9232 -0.2343
 6935TIP3    H120748   3.332   6.903   6.172  0.6448 -0.8111 -1.6982
 6935TIP3    H220749   3.313   6.872   6.319  0.0643  2.7657 -0.9166
 6936TIP3   OH220750   3.525   2.538   0.353 -0.0335 -0.3398  0.3684
 6936TIP3    H120751   3.581   2.541   0.275  0.4942 -2.6152  0.5984
 6936TIP3    H220752   3.563   2.605   0.411  0.8293 -0.0252 -0.5224
 6937TIP3   OH220753   2.209   1.503   4.488 -0.0851  0.3244 -0.1810
 6937TIP3    H120754   2.202   1.598   4.483  0.7419  0.5299  1.6827
 6937TIP3    H220755   2.303   1.486   4.500 -0.3779 -0.6192  0.9562
 6938TIP3   OH220756   7.218   3.567   1.883  0.1423  0.0883 -0.0000
 6938TIP3    H120757   7.237   3.481   1.921 -1.3903 -0.9183 -1.3783
 6938TIP3    H220758   7.123   3.569   1.874  0.3144  0.8266 -2.4289
 6939TIP3   OH220759   7.301   2.258   3.799  0.0713  0.3952  0.1835
 6939TIP3    H120760   7.292   2.172   3.758 -0.1814  0.8996 -0.8380
 6939TIP3    H220761   7.395   2.272   3.804  0.1172  0.0423  0.4175
 6940TIP3   OH220762   4.247   7.196   1.697  0.1696 -0.3822 -0.3913
 6940TIP3    H120763   4.309   7.260   1.731 -0.6141 -0.1273  0.6207
 6940TIP3    H220764   4.255   7.203   1.602 -0.0345  1.3666 -0.3125
 6941TIP3   OH220765   2.766   2.516   0.961 -0.9982 -0.1605  0.7818
 6941TIP3    H120766   2.750   2.433   0.916 -0.5521 -0.4647  1.1751
 6941TIP3    H220767   2.679   2.553   0.975 -1.1289  0.2957 -0.9740
 6942TIP3   OH220768   5.336   0.405   3.816 -0.0207 -0.1842  0.3640
 6942TIP3    H120769   5.328   0.405   3.720  1.1622 -0.2370  0.2429
 6942TIP3    H220770   5.259   0.452   3.847 -0.5072 -0.3100 -0.6094
 6943TIP3   OH220771   2.854   3.937   5.452  0.0271  0.2543 -0.2169
 6943TIP3    H120772   2.816   3.954   5.538 -1.3798  0.2391 -0.8131
 6943TIP3    H220773   2.900   4.018   5.430 -0.3189  0.5647  0.1872
 6944TIP3   OH220774   3.711   4.415   5.926  0.4133 -0.0073  0.5886
 6944TIP3    H120775   3.704   4.352   5.998  1.3721  0.7448  1.3627
 6944TIP3    H220776   3.715   4.500   5.968 -1.7566  0.7013 -0.4719
 6945TIP3   OH220777   6.908   7.362   5.438 -0.0968  0.3547  0.1477
 6945TIP3    H120778   6.944   7.416   5.368  0.6908 -1.0556 -0.5838
 6945TIP3    H220779   6.914   7.273   5.405  0.3456 -0.3664  2.0335
 6946TIP3   OH220780   0.087   1.177   5.156 -0.3029  0.0908 -0.0195
 6946TIP3    H120781   0.181   1.184   5.170 -0.1288  0.1744 -1.1078
 6946TIP3    H220782   0.073   1.217   5.070 -1.5039  1.1680  0.6386
 6947TIP3   OH220783   6.679   5.007   1.246  0.0932  0.0681  0.6922
 6947TIP3    H120784   6.703   5.089   1.204  0.5497 -0.8799 -0.9797
 6947TIP3    H220785   6.665   5.030   1.338  1.8861  1.6895  0.6161
 6948TIP3   OH220786   4.131   6.124   5.027 -1.0046 -0.0016  0.2761
 6948TIP3    H120787   4.195   6.186   5.061 -0.3337 -0.3216 -0.3845
 6948TIP3    H220788   4.113   6.065   5.101 -0.6168  0.1474  0.4931
 6949TIP3   OH220789   2.977   6.006   6.494 -0.0366 -0.1277  0.5049
 6949TIP3    H120790   3.072   6.019   6.491 -0.2968  2.1797  0.3008
 6949TIP3    H220791   2.941   6.082   6.448 -1.9363 -2.1722 -1.6754
 6950TIP3   OH220792   7.283   6.835   1.349 -0.2392 -0.0823  0.0433
 6950TIP3    H120793   7.293   6.741   1.334 -0.4913 -0.3007  1.1423
 6950TIP3    H220794   7.372   6.869   1.351 -0.1353 -0.3438 -0.0864
 6951TIP3   OH220795   5.351   7.782   0.048  0.6415  0.0798  0.2688
 6951TIP3    H120796   5.386   7.799  -0.040  1.1979  1.6948  0.7704
 6951TIP3    H220797   5.318   7.692   0.043  2.1801 -0.4650 -1.0908
 6952TIP3   OH220798   6.773   5.910   0.058  0.5043 -0.1715  0.4934
 6952TIP3    H120799   6.835   5.982   0.044  0.7683 -0.6157 -0.8020
 6952TIP3    H220800   6.689   5.953   0.075  1.2018  0.4454  2.6592
 6953TIP3   OH220801   0.234   6.223   5.455  0.3275 -0.6475 -0.6630
 6953TIP3    H120802   0.146   6.228   5.494  1.2193  1.3755  1.3518
 6953TIP3    H220803   0.223   6.258   5.367 -0.6209  1.7874  0.3039
 6954TIP3   OH220804   7.810   2.118   4.002  0.1776 -0.0392  0.1962
 6954TIP3    H120805   7.750   2.070   4.059 -0.7303 -1.0106 -1.4957
 6954TIP3    H220806   7.837   2.194   4.053 -0.9419 -0.6374  1.7326
 6955TIP3   OH220807   0.006   0.241   4.504  0.6186 -0.1180 -0.5382
 6955TIP3    H120808   0.074   0.184   4.468  0.4698  0.6066 -2.0552
 6955TIP3    H220809  -0.066   0.235   4.441  0.0105  0.5754  0.0727
 6956TIP3   OH220810   6.235   2.304   4.523 -0.1009  0.2000  0.3699
 6956TIP3    H120811   6.248   2.395   4.548  0.5660  0.5483 -1.1263
 6956TIP3    H220812   6.143   2.298   4.499  0.3423  1.1291 -1.8189
 6957TIP3   OH220813   7.466   0.083   5.899  0.5940  0.5563 -0.4275
 6957TIP3    H120814   7.373   0.107   5.901  0.2896 -0.5399 -0.9877
 6957TIP3    H220815   7.468  -0.010   5.921  1.6305  0.7121  0.2440
 6958TIP3   OH220816   2.053   4.139   0.362 -0.0537  0.2769  0.7058
 6958TIP3    H120817   2.018   4.176   0.281 -1.9432 -1.4884  0.6503
 6958TIP3    H220818   2.148   4.151   0.354 -0.2163  0.5600 -1.5532
 6959TIP3   OH220819   2.506   3.769   5.752 -0.6750  0.3150  0.0364
 6959TIP3    H120820   2.430   3.711   5.753  0.7396 -1.6712  1.7832
 6959TIP3    H220821   2.513   3.803   5.841 -0.4071  1.7619 -0.5003
 6960TIP3   OH220822   5.100   6.728   0.286  0.4582  0.5691 -0.2543
 6960TIP3    H120823   5.136   6.746   0.373 -0.4326 -0.3300  0.3129
 6960TIP3    H220824   5.031   6.793   0.275 -0.2865 -0.1155  0.2600
 6961TIP3   OH220825   0.241   5.455   1.521  0.6771  0.2994 -0.4797
 6961TIP3    H120826   0.315   5.515   1.527  2.5419 -1.6982 -1.9628
 6961TIP3    H220827   0.177   5.502   1.466  1.2766  1.6232 -0.0837
 6962TIP3   OH220828   5.187   5.272   4.118 -0.2037 -0.0270  0.6512
 6962TIP3    H120829   5.140   5.267   4.201 -0.7602 -0.0285  0.3431
 6962TIP3    H220830   5.221   5.183   4.104 -3.3021 -1.0937 -0.9356
 6963TIP3   OH220831   2.990   1.862   4.240  0.5379  0.0899 -0.6698
 6963TIP3    H120832   2.929   1.891   4.308  0.8287 -0.9097  0.0542
 6963TIP3    H220833   3.071   1.910   4.258  0.3575  0.4533 -0.8298
 6964TIP3   OH220834   6.498   4.710   1.229 -0.3181 -0.3622 -0.1829
 6964TIP3    H120835   6.446   4.635   1.201 -0.7344 -0.2266  0.2241
 6964TIP3    H220836   6.527   4.751   1.147  0.1500 -1.1250 -0.4034
 6965TIP3   OH220837   2.361   7.246   6.240  0.4901  0.3654  0.3500
 6965TIP3    H120838   2.321   7.333   6.235  1.2153  0.6790 -0.2726
 6965TIP3    H220839   2.401   7.233   6.153 -2.4966 -2.0290 -0.8546
 6966TIP3   OH220840   6.883   4.108   6.621 -0.4101  0.2211 -0.0363
 6966TIP3    H120841   6.791   4.091   6.600 -0.1403 -0.9056 -0.3618
 6966TIP3    H220842   6.931   4.034   6.582  0.4818 -0.0084  1.4376
 6967TIP3   OH220843   2.937   1.027   1.098 -0.0040  0.1328 -0.7650
 6967TIP3    H120844   3.005   1.014   1.164 -0.4572 -0.2925 -0.3712
 6967TIP3    H220845   2.855   1.019   1.147 -0.3535 -0.6709 -1.4577
 6968TIP3   OH220846   8.112   6.008   0.582 -0.3319  0.6070  0.1718
 6968TIP3    H120847   8.084   6.097   0.557 -1.5664  0.2381  0.1869
 6968TIP3    H220848   8.059   5.987   0.658 -1.3580 -0.8227 -0.8882
 6969TIP3   OH220849   5.243   4.151   1.052 -0.2741  0.0077 -0.6461
 6969TIP3    H120850   5.261   4.090   1.124  2.4659 -0.7314 -1.8401
 6969TIP3    H220851   5.175   4.209   1.087 -0.3530 -1.4222  1.8623
 6970TIP3   OH220852   6.581   0.248   2.761 -0.0634  0.0513  0.1737
 6970TIP3    H120853   6.669   0.229   2.729 -0.0923  0.2857 -0.0436
 6970TIP3    H220854   6.578   0.208   2.848  0.6170  0.9526  0.6267
 6971TIP3   OH220855   6.179   4.469   0.623 -0.7800  0.9850  0.3713
 6971TIP3    H120856   6.226   4.496   0.702 -0.6596 -1.5928  1.2637
 6971TIP3    H220857   6.111   4.535   0.612 -0.6190  1.5719  2.4703
 6972TIP3   OH220858   0.278   5.781   1.341  0.2121  0.1396 -0.2860
 6972TIP3    H120859   0.315   5.868   1.323 -1.2550  0.3678 -2.6700
 6972TIP3    H220860   0.338   5.720   1.299  1.4877 -0.1097  1.7748
 6973TIP3   OH220861   2.687   1.391   0.752 -0.1752  0.0881 -0.4284
 6973TIP3    H120862   2.675   1.383   0.658  1.3796 -0.6751 -0.5948
 6973TIP3    H220863   2.704   1.302   0.782  0.4278  0.4701  0.4042
 6974TIP3   OH220864   3.470   5.032   6.667 -0.6797 -0.0856  0.0203
 6974TIP3    H120865   3.561   5.006   6.655 -0.7596 -0.4804  0.2608
 6974TIP3    H220866   3.453   5.094   6.596 -0.3387 -0.3086 -0.2590
 6975TIP3   OH220867   1.344   1.894   2.002  0.2902  0.2364  0.0827
 6975TIP3    H120868   1.307   1.939   1.926  0.8312 -1.8377 -1.4745
 6975TIP3    H220869   1.422   1.944   2.024 -0.9736  2.0753  0.6490
 6976TIP3   OH220870   2.732   5.018   4.228  0.1115 -0.1259  0.5238
 6976TIP3    H120871   2.652   5.066   4.207  0.7965  2.1346  2.5589
 6976TIP3    H220872   2.746   4.960   4.153 -2.6434  0.4039 -0.5144
 6977TIP3   OH220873   5.594   4.049   2.900  0.5286 -0.4072  0.2114
 6977TIP3    H120874   5.644   3.968   2.907  0.9631 -0.0925  0.9926
 6977TIP3    H220875   5.660   4.118   2.900  0.1149  0.0210  1.2835
 6978TIP3   OH220876   3.517   5.457   2.686  0.2334  0.3296  0.2393
 6978TIP3    H120877   3.564   5.532   2.651 -0.1701  0.9678  1.0356
 6978TIP3    H220878   3.560   5.438   2.769  0.7274 -0.7223 -0.2376
 6979TIP3   OH220879   4.668   3.783   4.701 -0.2324  0.1106  0.1483
 6979TIP3    H120880   4.666   3.827   4.785 -0.0060 -0.4639  0.4608
 6979TIP3    H220881   4.587   3.809   4.658  0.6058  2.1377 -0.3622
 6980TIP3   OH220882   0.430   3.730   0.938  0.0108 -0.0317  0.1048
 6980TIP3    H120883   0.425   3.805   0.878 -0.8630 -0.8624 -0.8981
 6980TIP3    H220884   0.473   3.765   1.016 -0.9939  1.6935 -0.0709
 6981TIP3   OH220885   5.352   3.256   5.020 -0.0693  0.6068 -0.0306
 6981TIP3    H120886   5.354   3.235   4.926 -2.6906 -0.7361  0.1166
 6981TIP3    H220887   5.398   3.340   5.026 -1.9711  2.0563 -2.9602
 6982TIP3   OH220888   4.296   1.130   3.223 -0.3446 -0.5538 -0.0583
 6982TIP3    H120889   4.212   1.167   3.196  0.2967  0.4050 -0.8210
 6982TIP3    H220890   4.313   1.060   3.160 -1.7810 -2.5885  1.6627
 6983TIP3   OH220891   3.238   5.328   4.730 -0.3625 -0.6123  0.1527
 6983TIP3    H120892   3.185   5.295   4.657  0.4777 -2.0248  0.1510
 6983TIP3    H220893   3.192   5.408   4.758 -1.6628 -0.9868 -0.7863
 6984TIP3   OH220894   6.614   5.954   0.882  0.2438  0.4634 -0.4965
 6984TIP3    H120895   6.642   6.038   0.847 -1.5289  1.1295 -0.4298
 6984TIP3    H220896   6.526   5.942   0.847 -0.4972 -0.1954  1.4719
 6985TIP3   OH220897   5.711   3.232   3.021 -0.5719  0.2678 -0.1578
 6985TIP3    H120898   5.771   3.197   2.955  0.6585 -0.7146  1.4026
 6985TIP3    H220899   5.767   3.249   3.097 -2.4259 -2.5922  2.0904
 6986TIP3   OH220900   1.728   0.839   1.131 -0.2464 -0.0765 -0.2798
 6986TIP3    H120901   1.676   0.829   1.051 -0.0684 -0.5335 -0.3457
 6986TIP3    H220902   1.817   0.855   1.099 -0.0885 -0.7103 -0.1880
 6987TIP3   OH220903   6.528   4.392   1.084 -0.0293  0.3219 -0.1426
 6987TIP3    H120904   6.455   4.400   1.145 -0.3998  0.6702 -0.6267
 6987TIP3    H220905   6.547   4.298   1.082  0.1027  0.3303  0.6377
 6988TIP3   OH220906   5.570   5.677   0.127  0.9200 -0.1147 -0.1849
 6988TIP3    H120907   5.611   5.724   0.055 -0.4412  2.1224  0.3676
 6988TIP3    H220908   5.477   5.674   0.104  0.9034 -2.4986 -0.0961
 6989TIP3   OH220909   0.831   2.844   1.472  0.0866  0.1958 -0.0431
 6989TIP3    H120910   0.871   2.931   1.483  0.9942 -0.1858 -0.1877
 6989TIP3    H220911   0.827   2.808   1.561 -1.2888  0.7880  0.1632
 6990TIP3   OH220912   6.905   2.770   2.712  0.8739  0.3651 -0.2311
 6990TIP3    H120913   6.978   2.794   2.769  2.8169  0.7594 -2.6980
 6990TIP3    H220914   6.897   2.844   2.651 -1.8851  0.5025  0.1846
 6991TIP3   OH220915   6.520   3.804   5.712 -0.5491  0.1427 -0.6415
 6991TIP3    H120916   6.519   3.886   5.662  0.2278 -0.6871 -2.0760
 6991TIP3    H220917   6.447   3.812   5.773 -1.2649  1.3747 -1.6256
 6992TIP3   OH220918   1.089   4.252   4.696  0.3366 -0.5494 -0.0822
 6992TIP3    H120919   1.167   4.302   4.669  0.4009  0.0859  1.1975
 6992TIP3    H220920   1.125   4.176   4.742  0.2120 -1.1530 -0.9564
 6993TIP3   OH220921   5.088   4.289   4.422 -0.1748  0.0444 -0.0720
 6993TIP3    H120922   5.069   4.353   4.353 -0.6330 -0.9595 -0.9017
 6993TIP3    H220923   5.160   4.237   4.388  0.6407  0.5045  0.8811
 6994TIP3   OH220924   1.243   2.489   6.542  0.3691  0.5220  0.4162
 6994TIP3    H120925   1.254   2.516   6.451 -0.7076 -0.0607  0.0934
 6994TIP3    H220926   1.153   2.513   6.564  0.8936  1.5311  1.6548
 6995TIP3   OH220927   7.050   1.763   1.102  0.0959 -0.6207 -0.0151
 6995TIP3    H120928   7.099   1.809   1.034 -0.2058 -2.3667 -1.4878
 6995TIP3    H220929   6.966   1.740   1.060 -1.4578  1.0118  1.9784
 6996TIP3   OH220930   5.635   4.388   3.343 -0.0755 -0.5846 -0.3845
 6996TIP3    H120931   5.542   4.393   3.364 -0.8394 -0.4510 -3.3065
 6996TIP3    H220932   5.657   4.296   3.354 -0.1528 -0.4041  1.6116
 6997TIP3   OH220933   7.833   3.507   6.634 -0.1629  0.4782  0.5131
 6997TIP3    H120934   7.778   3.552   6.571 -0.5057 -0.9762 -0.2533
 6997TIP3    H220935   7.865   3.430   6.588  0.4787 -0.0316  1.7614
 6998TIP3   OH220936   0.620   7.445   6.687 -0.5378 -0.4658  0.4587
 6998TIP3    H120937   0.614   7.501   6.764 -0.0487  1.6860 -0.9715
 6998TIP3    H220938   0.535   7.456   6.644 -0.5163 -1.0036  0.2811
 6999TIP3   OH220939   5.649   0.774   5.674  0.5516 -0.2983 -0.6856
 6999TIP3    H120940   5.572   0.828   5.687  0.4480 -0.6063  0.0234
 6999TIP3    H220941   5.633   0.730   5.590  0.1790 -0.0063 -0.7718
 7000TIP3   OH220942   6.858   4.243   0.434  0.0059  0.5802  0.9802
 7000TIP3    H120943   6.885   4.320   0.483 -0.3249  1.4796 -0.2069
 7000TIP3    H220944   6.926   4.178   0.451 -0.9819  0.1755  4.0742
 7001TIP3   OH220945   5.533   1.162   5.913  0.1258  0.9284  0.1598
 7001TIP3    H120946   5.501   1.204   5.992  0.4173 -0.5266  1.0788
 7001TIP3    H220947   5.621   1.131   5.936  2.4999  4.9075 -2.2918
 7002TIP3   OH220948   1.985   3.037   3.745 -0.5073 -0.2181  0.3413
 7002TIP3    H120949   2.017   2.967   3.688 -0.7011  0.0070 -0.0480
 7002TIP3    H220950   1.892   3.045   3.723 -0.1646  1.1678 -0.6871
 7003TIP3   OH220951   6.415   0.244   0.667 -0.1877  0.0874  0.3676
 7003TIP3    H120952   6.371   0.193   0.599 -1.1741  2.8923 -1.2606
 7003TIP3    H220953   6.457   0.179   0.722 -3.8433 -2.6715  0.2751
 7004TIP3   OH220954   4.896   6.678   2.092 -0.2327  0.6034 -0.0167
 7004TIP3    H120955   4.952   6.729   2.034  1.6784 -0.7374  0.5410
 7004TIP3    H220956   4.843   6.743   2.138  1.6882  2.0567  0.2357
 7005TIP3   OH220957   2.537   2.723   6.281  0.4250  0.9721  0.5902
 7005TIP3    H120958   2.603   2.768   6.333  0.7191  1.2351 -0.0021
 7005TIP3    H220959   2.566   2.734   6.191 -1.1476  2.2715  0.2094
 7006TIP3   OH220960   0.801   2.990   5.984 -0.0848 -0.1008  0.6103
 7006TIP3    H120961   0.745   3.062   6.013 -1.6862 -1.3498  0.7522
 7006TIP3    H220962   0.827   2.945   6.065  1.8344  0.9066  0.6213
 7007TIP3   OH220963   1.384   5.520   2.798  0.0264  0.3055  0.3574
 7007TIP3    H120964   1.449   5.538   2.865 -0.3596 -1.7607  1.3524
 7007TIP3    H220965   1.324   5.595   2.802 -0.2743  0.0139  2.7014
 7008TIP3   OH220966   3.675   0.793   6.045  0.5388  0.1781  0.0099
 7008TIP3    H120967   3.714   0.875   6.016  0.0884  0.6559  0.7275
 7008TIP3    H220968   3.602   0.820   6.101  0.6006 -0.7121  0.5274
 7009TIP3   OH220969   8.129   6.153   3.844 -0.1700  0.1675 -0.0457
 7009TIP3    H120970   8.075   6.130   3.919 -1.8214  1.3501 -0.7899
 7009TIP3    H220971   8.066   6.168   3.773  1.2788 -0.2252 -1.4860
 7010TIP3   OH220972   6.887   5.277   6.090  0.4444 -0.3347 -1.0490
 7010TIP3    H120973   6.897   5.345   6.023 -0.6858  0.5945 -0.3313
 7010TIP3    H220974   6.833   5.210   6.049  0.0159  0.0862 -1.1897
 7011TIP3   OH220975   1.205   5.739   2.747  0.9046 -0.1629  0.0214
 7011TIP3    H120976   1.226   5.732   2.654  1.2573 -0.8811  0.1424
 7011TIP3    H220977   1.149   5.663   2.764  1.2519 -0.3164  0.4976
 7012TIP3   OH220978   2.785   1.554   0.243  0.1111 -0.0140 -0.0317
 7012TIP3    H120979   2.834   1.533   0.164 -1.1649 -1.9657 -0.3758
 7012TIP3    H220980   2.743   1.472   0.269 -1.3560  1.0870  1.3586
 7013TIP3   OH220981   6.237   0.634   6.748  0.3053 -0.0555  0.0448
 7013TIP3    H120982   6.199   0.557   6.706  1.6910 -1.1575  0.7181
 7013TIP3    H220983   6.243   0.699   6.679  0.6979 -1.1367 -0.9699
 7014TIP3   OH220984   0.327   1.805   6.297  0.2917  0.1413  0.7270
 7014TIP3    H120985   0.346   1.854   6.217  1.6649 -1.8021 -0.2379
 7014TIP3    H220986   0.234   1.819   6.312  0.3863  2.0375 -0.1376
 7015TIP3   OH220987   5.773   1.833   5.442  0.0948  0.3830 -0.1587
 7015TIP3    H120988   5.848   1.877   5.482 -0.5905  1.2103  0.2653
 7015TIP3    H220989   5.798   1.820   5.351  0.1309  2.1581 -0.4402
 7016TIP3   OH220990   1.384   6.173   6.651 -0.0392 -0.1546  0.0299
 7016TIP3    H120991   1.411   6.198   6.562 -0.1428 -2.7328 -0.8227
 7016TIP3    H220992   1.288   6.170   6.646 -0.0606  0.0953  0.3380
 7017TIP3   OH220993   2.815   0.217   6.295 -0.2743 -0.1329  0.4083
 7017TIP3    H120994   2.909   0.219   6.276 -0.3961  0.2168 -0.1665
 7017TIP3    H220995   2.798   0.125   6.319  0.0877 -0.3465 -0.1243
 7018TIP3   OH220996   2.150   4.564   0.253  0.0214  0.1645 -0.8528
 7018TIP3    H120997   2.195   4.540   0.334  0.3093 -1.0941 -1.3724
 7018TIP3    H220998   2.083   4.626   0.281  2.2464  2.4283 -0.0872
 7019TIP3   OH220999   1.660   0.418   3.139  0.1444  0.2883  0.5041
 7019TIP3    H121000   1.706   0.436   3.221  0.4035  1.8761  0.0453
 7019TIP3    H221001   1.569   0.404   3.165  0.5250 -1.0405  1.2276
 7020TIP3   OH221002   2.529   6.076   1.927 -0.9159  0.2854 -0.5787
 7020TIP3    H121003   2.560   6.133   1.997 -0.7409  1.3643 -1.5022
 7020TIP3    H221004   2.536   6.129   1.847 -2.8089 -0.2594 -1.1802
 7021TIP3   OH221005   6.688   6.800   1.659 -0.0646 -0.0628 -0.0713
 7021TIP3    H121006   6.780   6.807   1.686 -0.2756  0.4953  0.5191
 7021TIP3    H221007   6.666   6.888   1.628 -0.8802  0.2774  1.3734
 7022TIP3   OH221008   6.265   4.173   4.914 -0.0228  0.1695 -0.2997
 7022TIP3    H121009   6.243   4.265   4.899 -1.7407 -0.2398 -0.4661
 7022TIP3    H221010   6.190   4.125   4.881  0.6496 -1.2884  0.2229
 7023TIP3   OH221011   8.059   7.291   2.238 -0.4355 -0.9689 -0.0908
 7023TIP3    H121012   7.983   7.237   2.220 -0.3298 -1.5279  1.0483
 7023TIP3    H221013   8.133   7.239   2.205 -0.5173 -0.4761 -1.0938
 7024TIP3   OH221014   0.536   7.428   3.419 -0.3133 -0.1103  0.3504
 7024TIP3    H121015   0.618   7.398   3.458  0.4563  0.4678 -0.7569
 7024TIP3    H221016   0.563   7.493   3.353 -1.6268 -0.2362 -0.3534
 7025TIP3   OH221017   2.029   3.381   2.253  0.4633  0.8173  0.0691
 7025TIP3    H121018   1.939   3.350   2.265  0.3057 -0.3635 -3.2226
 7025TIP3    H221019   2.022   3.477   2.259 -1.1153  0.7752 -0.6056
 7026TIP3   OH221020   0.097   7.225   2.755 -0.4409 -0.2250 -0.6252
 7026TIP3    H121021   0.179   7.244   2.710  0.5460 -1.3300  0.6231
 7026TIP3    H221022   0.040   7.299   2.733  0.1100 -0.4752 -3.2459
 7027TIP3   OH221023   3.469   0.837   1.947  0.1214  0.3890  0.1532
 7027TIP3    H121024   3.552   0.852   1.991 -1.0659 -1.9335  3.5810
 7027TIP3    H221025   3.452   0.743   1.959 -3.2978  0.8878  0.2731
 7028TIP3   OH221026   0.077   2.763   1.838 -0.9079  0.5981 -0.8670
 7028TIP3    H121027   0.060   2.670   1.851 -0.2539  0.6241  0.2907
 7028TIP3    H221028   0.001   2.808   1.874  0.6977  0.6555  2.8936
 7029TIP3   OH221029   3.646   1.978   2.363  0.0912  0.3568 -0.2593
 7029TIP3    H121030   3.610   1.972   2.274 -1.0502 -1.5070  0.2769
 7029TIP3    H221031   3.579   2.023   2.413 -0.0781 -0.2038  0.0297
 7030TIP3   OH221032   2.110   4.200   1.136 -0.2649 -0.1657 -0.5779
 7030TIP3    H121033   2.086   4.262   1.067 -2.7093  0.9336  1.1046
 7030TIP3    H221034   2.132   4.256   1.211 -1.6314 -1.2602  0.6983
 7031TIP3   OH221035   0.460   3.360   1.464 -0.0966  0.6995 -0.2759
 7031TIP3    H121036   0.447   3.440   1.413  0.5001  0.3333 -1.0027
 7031TIP3    H221037   0.385   3.359   1.524 -1.2794  0.7164 -1.6865
 7032TIP3   OH221038   7.314   0.558   1.607  0.2816  0.1659 -0.2404
 7032TIP3    H121039   7.387   0.508   1.643  0.4254 -0.5305 -1.4693
 7032TIP3    H221040   7.355   0.628   1.556  0.1467 -1.0436 -2.0856
 7033TIP3   OH221041   6.624   3.444   3.436 -0.4473  0.0738  0.4155
 7033TIP3    H121042   6.550   3.503   3.427 -0.1726  0.4954  0.8921
 7033TIP3    H221043   6.651   3.426   3.346 -0.5893  0.5976  0.2638
 7034TIP3   OH221044   1.431   0.851   1.520 -0.5198 -0.1673  0.1515
 7034TIP3    H121045   1.473   0.798   1.453 -0.1678 -0.4320  0.5723
 7034TIP3    H221046   1.438   0.941   1.488  1.2657 -0.0825  0.6525
 7035TIP3   OH221047   7.095   6.771   2.337  0.3805 -0.0503 -0.1067
 7035TIP3    H121048   7.101   6.785   2.431  0.0236  0.7109 -0.1878
 7035TIP3    H221049   7.093   6.676   2.326 -0.5857 -0.1362  0.7203
 7036TIP3   OH221050   7.609   7.756   1.072  0.3190 -0.0308 -0.1779
 7036TIP3    H121051   7.544   7.743   1.141  0.0486  0.4403 -0.3412
 7036TIP3    H221052   7.678   7.808   1.114 -0.4389  1.3699 -0.5890
 7037TIP3   OH221053   2.619   2.350   0.807  0.3955 -0.0031  0.1927
 7037TIP3    H121054   2.553   2.289   0.773  0.6988 -0.9651  1.2543
 7037TIP3    H221055   2.571   2.431   0.825 -1.2589 -1.5519  3.7380
 7038TIP3   OH221056   2.818   6.029   1.710  0.1627 -0.0266 -0.0243
 7038TIP3    H121057   2.814   5.997   1.800 -1.2055 -1.8878 -0.6822
 7038TIP3    H221058   2.728   6.052   1.688  0.0461 -1.6349 -1.5436
 7039TIP3   OH221059   4.819   3.815   4.471  0.0713 -0.6389  0.1706
 7039TIP3    H121060   4.827   3.801   4.565 -0.1875 -0.2498  0.2526
 7039TIP3    H221061   4.799   3.729   4.435  3.2878 -1.4774  0.0767
 7040TIP3   OH221062   5.302   4.684   5.924 -0.3485 -0.2378  0.0707
 7040TIP3    H121063   5.249   4.644   5.855  0.6053 -0.6202 -0.4515
 7040TIP3    H221064   5.259   4.657   6.005  0.3637 -2.5152 -0.2487
 7041TIP3   OH221065   3.887   6.305   6.474  0.9127  0.3721  0.0389
 7041TIP3    H121066   3.820   6.289   6.542  0.5615 -0.9219 -0.5653
 7041TIP3    H221067   3.856   6.383   6.428 -1.3710 -1.3383 -1.5497
 7042TIP3   OH221068   0.686   2.888   1.855 -0.3374 -0.0261 -0.1510
 7042TIP3    H121069   0.705   2.869   1.947 -0.8619 -0.2248 -0.0829
 7042TIP3    H221070   0.618   2.825   1.831 -0.4787  0.2824 -0.5678
 7043TIP3   OH221071   7.484   1.742   2.380  0.3872 -0.0301  0.2594
 7043TIP3    H121072   7.411   1.802   2.400 -0.2406 -0.8633  0.5499
 7043TIP3    H221073   7.551   1.765   2.444 -1.3419 -2.2006  3.0931
 7044TIP3   OH221074   5.642   3.191   1.631 -0.0243  0.6497  0.1032
 7044TIP3    H121075   5.615   3.266   1.684  0.0262  0.8180 -0.1090
 7044TIP3    H221076   5.562   3.162   1.588 -0.1186  0.3501  0.4705
 7045TIP3   OH221077   7.033   0.272   6.125 -0.6403  0.1091  0.2939
 7045TIP3    H121078   7.035   0.295   6.219 -1.1122  0.6345  0.1790
 7045TIP3    H221079   6.967   0.204   6.118  0.3550 -0.9175  0.5446
 7046TIP3   OH221080   5.330   5.912   1.668  0.7827 -0.4604  0.6816
 7046TIP3    H121081   5.282   5.931   1.588 -2.1862  1.9912  2.7866
 7046TIP3    H221082   5.263   5.915   1.737  3.3221 -1.3144  3.4039
 7047TIP3   OH221083   3.328   1.627   3.125 -0.0117  0.3677 -0.2067
 7047TIP3    H121084   3.416   1.654   3.101  0.6750 -0.6254  1.0506
 7047TIP3    H221085   3.295   1.698   3.180  0.0830  0.6467 -0.5092
 7048TIP3   OH221086   3.746   4.292   5.377 -0.0855  0.1494  0.0108
 7048TIP3    H121087   3.813   4.282   5.445  1.4708  2.4482 -1.0674
 7048TIP3    H221088   3.744   4.385   5.358 -2.5062 -0.0577 -1.1570
 7049TIP3   OH221089   1.740   6.614   5.303 -0.0477  0.0946 -0.6772
 7049TIP3    H121090   1.779   6.694   5.338 -0.7531  0.1657 -0.0136
 7049TIP3    H221091   1.740   6.554   5.377 -0.9723  0.0273 -0.7206
 7050TIP3   OH221092   0.115   2.588   3.755  0.0149 -0.4444 -0.6383
 7050TIP3    H121093   0.090   2.585   3.663  1.6530  1.2238 -1.1868
 7050TIP3    H221094   0.063   2.659   3.791 -1.0438 -1.4560 -0.0860
 7051TIP3   OH221095   0.270   2.058   5.733 -0.2300  0.0339  0.7900
 7051TIP3    H121096   0.284   2.128   5.797  3.9692  0.8043 -0.6507
 7051TIP3    H221097   0.333   1.990   5.759  1.0777  0.0622 -1.9446
 7052TIP3   OH221098   2.776   4.148   2.403  0.1764 -0.8913  0.2885
 7052TIP3    H121099   2.749   4.233   2.435 -0.1976 -1.2022  0.8133
 7052TIP3    H221100   2.798   4.162   2.311  2.1219  0.2060  0.8695
 7053TIP3   OH221101   0.847   2.505   2.491  0.1029  0.5934  0.6190
 7053TIP3    H121102   0.813   2.427   2.536 -0.4104  0.6330  0.2993
 7053TIP3    H221103   0.831   2.488   2.398 -0.0058  1.0803  0.5483
 7054TIP3   OH221104   0.170   1.081   0.014 -0.3774  0.1194  0.3529
 7054TIP3    H121105   0.099   1.017   0.013  0.3066 -0.6631  0.7177
 7054TIP3    H221106   0.211   1.070   0.100  1.1635 -0.5569 -0.4237
 7055TIP3   OH221107   4.894   2.683   5.236 -0.3534 -0.8613 -0.2004
 7055TIP3    H121108   4.833   2.756   5.235  0.4793 -0.1530 -0.3436
 7055TIP3    H221109   4.931   2.680   5.148  0.4397 -0.7431  0.1204
 7056TIP3   OH221110   6.517   3.415   1.632  0.5763 -0.0375  0.0670
 7056TIP3    H121111   6.566   3.438   1.553  1.4723  0.8199  0.8390
 7056TIP3    H221112   6.484   3.327   1.615  1.7138 -0.3201 -0.8192
 7057TIP3   OH221113   7.363   3.058   1.109  0.2156 -0.4956  0.2148
 7057TIP3    H121114   7.362   3.025   1.199 -0.0725  0.0850  0.4274
 7057TIP3    H221115   7.417   2.995   1.061 -0.4797 -1.3903  0.5684
 7058TIP3   OH221116   7.035   0.436   5.201 -0.0493 -0.1006 -0.3096
 7058TIP3    H121117   7.001   0.463   5.285 -1.1842 -0.2201 -0.7130
 7058TIP3    H221118   6.960   0.442   5.141  0.3717 -1.3526 -1.0051
 7059TIP3   OH221119   2.936   5.425   5.665 -0.5457 -0.0026 -0.0405
 7059TIP3    H121120   2.980   5.340   5.672  0.7919  0.5236 -1.4371
 7059TIP3    H221121   2.914   5.432   5.572 -0.3983  1.2730  0.0022
 7060TIP3   OH221122   4.810   3.186   0.906 -0.4178 -0.2741  0.1579
 7060TIP3    H121123   4.867   3.109   0.908  0.7505  0.5792  0.9428
 7060TIP3    H221124   4.849   3.247   0.969 -0.2943  1.6910 -1.6900
 7061TIP3   OH221125   0.007   2.413   0.358 -0.7511  0.0280 -0.5707
 7061TIP3    H121126   0.039   2.416   0.268  0.3443  0.7657 -0.1717
 7061TIP3    H221127   0.040   2.493   0.398  0.0261 -0.9784  0.8861
 7062TIP3   OH221128   0.249   5.104   2.790  0.5298  0.5103  0.1434
 7062TIP3    H121129   0.173   5.115   2.846 -0.6693  0.7250 -1.4460
 7062TIP3    H221130   0.294   5.188   2.792 -0.8667  1.3382 -1.0741
 7063TIP3   OH221131   4.681   2.180   6.704 -0.2290 -0.1959  0.2032
 7063TIP3    H121132   4.643   2.215   6.785 -0.2083  0.6260 -0.1240
 7063TIP3    H221133   4.758   2.131   6.732 -0.4308 -0.2273  0.7105
 7064TIP3   OH221134   7.901   1.860   5.297 -0.0608 -0.2148  0.1867
 7064TIP3    H121135   7.865   1.910   5.370 -0.2821  1.7040 -1.1840
 7064TIP3    H221136   7.828   1.808   5.264 -0.3029 -0.0435  0.4588
 7065TIP3   OH221137   4.397   4.285   2.042 -0.2543 -0.0091  0.6852
 7065TIP3    H121138   4.412   4.192   2.060 -1.2912 -0.5488 -1.0421
 7065TIP3    H221139   4.337   4.286   1.967 -1.5542  2.0624  1.6755
 7066TIP3   OH221140   2.597   6.555   4.398 -0.0887  0.0168  0.2670
 7066TIP3    H121141   2.592   6.460   4.384 -0.1158 -0.1924  1.5545
 7066TIP3    H221142   2.615   6.564   4.491 -1.1448  1.3025  0.3724
 7067TIP3   OH221143   5.351   5.149   5.790  0.0551  0.1035  0.3264
 7067TIP3    H121144   5.276   5.089   5.795 -0.3036  0.4919 -0.2676
 7067TIP3    H221145   5.416   5.101   5.739  0.0590 -0.0809  0.5043
 7068TIP3   OH221146   5.142   0.191   1.151  0.2086  0.9000  0.4319
 7068TIP3    H121147   5.202   0.252   1.193 -1.0193  1.2522  1.7742
 7068TIP3    H221148   5.123   0.230   1.066  3.1665 -0.0941 -0.8325
 7069TIP3   OH221149   2.859   1.146   6.580 -0.6189  0.1617 -0.0184
 7069TIP3    H121150   2.820   1.129   6.665 -2.7866  1.4315 -0.6857
 7069TIP3    H221151   2.856   1.241   6.571 -0.2412  0.0611 -1.4476
 7070TIP3   OH221152   3.040   5.702   3.692  0.3423  0.1498  0.0972
 7070TIP3    H121153   3.126   5.663   3.706  0.6530  0.7634 -0.0707
 7070TIP3    H221154   3.042   5.784   3.743  0.9124  1.6212 -2.1315
 7071TIP3   OH221155   6.075   4.258   5.750  0.0018  0.3960 -0.0611
 7071TIP3    H121156   5.980   4.256   5.761  0.1925  0.9105  2.2149
 7071TIP3    H221157   6.088   4.276   5.657 -2.0835 -1.6836 -0.8711
 7072TIP3   OH221158   2.817   4.250   6.557  0.1331 -0.4080 -0.3055
 7072TIP3    H121159   2.839   4.333   6.600  0.9297 -0.1863 -1.1093
 7072TIP3    H221160   2.836   4.265   6.465  2.5200 -2.1539 -0.2080
 7073TIP3   OH221161   4.547   2.953   2.082  0.0721 -0.0012  0.1152
 7073TIP3    H121162   4.618   2.899   2.045  1.1264  1.1620  0.3769
 7073TIP3    H221163   4.580   3.042   2.077 -2.2524  0.8413 -1.6974
 7074TIP3   OH221164   1.385   1.048   1.940 -0.7709  0.1382  0.2440
 7074TIP3    H121165   1.439   1.085   2.010  0.9502 -1.9111  0.1285
 7074TIP3    H221166   1.437   1.061   1.860 -0.2594 -2.0289  0.1492
 7075TIP3   OH221167   7.606   2.433   4.379  0.1080 -0.1165  0.1372
 7075TIP3    H121168   7.539   2.412   4.445  1.2427 -0.8152  1.1106
 7075TIP3    H221169   7.639   2.519   4.407  0.1336 -0.1117  0.0916
 7076TIP3   OH221170   4.441   7.497   5.118 -0.8421  0.1697  0.3006
 7076TIP3    H121171   4.513   7.442   5.148 -1.3351  0.0486  1.2869
 7076TIP3    H221172   4.480   7.553   5.050 -0.1415 -0.8083 -0.1221
 7077TIP3   OH221173   6.684   7.022   4.364  0.8460  0.1866 -0.4378
 7077TIP3    H121174   6.612   6.995   4.306  0.4400 -0.4003  0.3299
 7077TIP3    H221175   6.744   6.948   4.364  0.6098 -0.0043  0.2701
 7078TIP3   OH221176   5.104   3.906   2.455  0.4040 -0.1123 -0.1183
 7078TIP3    H121177   5.079   3.837   2.517  1.4211  0.5861  1.1165
 7078TIP3    H221178   5.125   3.981   2.511 -1.1717  1.3843 -1.4477
 7079TIP3   OH221179   4.331   3.909   1.092 -0.2737 -0.1799  0.0864
 7079TIP3    H121180   4.397   3.848   1.123 -1.1562 -1.7526 -1.0330
 7079TIP3    H221181   4.262   3.906   1.159 -0.3575 -0.4909 -0.0127
 7080TIP3   OH221182   1.362   7.141   5.594 -0.2886 -0.5688  0.5498
 7080TIP3    H121183   1.369   7.102   5.681  1.2929 -0.7807  0.3499
 7080TIP3    H221184   1.453   7.154   5.566 -0.7795  0.4672 -0.6356
 7081TIP3   OH221185   7.024   6.656   5.859 -0.6364 -0.6954  0.2944
 7081TIP3    H121186   6.996   6.747   5.857 -2.0952 -1.1355 -0.6991
 7081TIP3    H221187   7.032   6.635   5.952  0.9491  0.7692  0.5405
 7082TIP3   OH221188   3.198   1.909   3.767 -0.1007 -0.3895  0.3086
 7082TIP3    H121189   3.144   1.853   3.823 -0.9696 -0.8373 -0.9382
 7082TIP3    H221190   3.134   1.962   3.719  0.6679  0.6528  0.4186
 7083TIP3   OH221191   6.061   2.217   0.964  0.0401  0.5414 -0.2285
 7083TIP3    H121192   6.093   2.174   0.884 -1.3133 -0.3491 -0.3145
 7083TIP3    H221193   6.137   2.218   1.022  0.3756 -1.0847 -0.5984
 7084TIP3   OH221194   1.402   0.849   3.119  0.5570  0.1609  0.3787
 7084TIP3    H121195   1.350   0.784   3.166  0.5067  0.1284  0.2793
 7084TIP3    H221196   1.489   0.810   3.114 -0.1380 -1.3444 -2.3739
 7085TIP3   OH221197   3.942   0.192   0.078 -0.5801 -0.4904  0.0758
 7085TIP3    H121198   3.997   0.217   0.003 -0.8246 -0.7348 -0.1850
 7085TIP3    H221199   3.958   0.099   0.089 -1.6329 -0.7557 -0.5749
 7086TIP3   OH221200   8.210   2.856   1.033 -0.2549 -0.3127 -0.7599
 7086TIP3    H121201   8.237   2.782   1.087  1.8477 -0.1464 -1.5019
 7086TIP3    H221202   8.292   2.897   1.006 -1.3277  1.1235 -1.9903
 7087TIP3   OH221203   2.545   3.392   0.028 -0.2870 -0.5501  0.1646
 7087TIP3    H121204   2.573   3.392  -0.064  0.4607 -1.2819  0.3713
 7087TIP3    H221205   2.605   3.453   0.071 -1.5761  0.9459 -0.0673
 7088TIP3   OH221206   3.215   2.036   5.074  0.0464  0.1500  0.1850
 7088TIP3    H121207   3.168   2.078   5.002 -2.1057  0.7444  1.7907
 7088TIP3    H221208   3.251   1.956   5.037 -1.3895  0.2007 -1.4509
 7089TIP3   OH221209   2.696   3.040   2.847  0.2556  0.0336 -0.2815
 7089TIP3    H121210   2.626   3.008   2.790 -0.4989  2.2651 -0.6951
 7089TIP3    H221211   2.679   2.998   2.931 -1.0287 -0.1647 -0.6235
 7090TIP3   OH221212   8.217   1.598   1.216  0.7816 -0.0138  0.9287
 7090TIP3    H121213   8.243   1.632   1.131  3.4844  0.2078  1.7421
 7090TIP3    H221214   8.298   1.561   1.252 -0.4331 -0.6863  3.1280
 7091TIP3   OH221215   2.340   3.337   6.388  0.0847  0.4103  0.1100
 7091TIP3    H121216   2.408   3.338   6.456 -1.3038 -0.1889  1.5737
 7091TIP3    H221217   2.308   3.246   6.387 -1.6155  0.9681  0.4514
 7092TIP3   OH221218   6.234   4.438   5.362 -0.2330  0.1313  1.3146
 7092TIP3    H121219   6.299   4.436   5.292 -1.3544  0.9718  0.2012
 7092TIP3    H221220   6.181   4.516   5.343 -1.0335 -0.0513  2.6785
 7093TIP3   OH221221   6.452   7.085   4.110 -0.1477  0.4938 -0.1689
 7093TIP3    H121222   6.516   7.016   4.092 -0.3464 -0.0754  1.2484
 7093TIP3    H221223   6.380   7.067   4.049  0.6022  0.5702 -1.1008
 7094TIP3   OH221224   6.198   5.095   3.527 -0.7540 -0.3635  0.5834
 7094TIP3    H121225   6.267   5.161   3.533  0.3960 -1.5588  0.9301
 7094TIP3    H221226   6.122   5.135   3.569 -0.2427  0.9293  0.3018
 7095TIP3   OH221227   4.288   2.031   3.373 -0.2076  0.1566 -0.3476
 7095TIP3    H121228   4.314   2.027   3.465 -0.4836  0.6041 -0.2485
 7095TIP3    H221229   4.192   2.026   3.376 -0.1689 -1.4361 -0.6990
 7096TIP3   OH221230   8.173   4.738   5.667 -0.5481  0.2892 -0.1706
 7096TIP3    H121231   8.123   4.665   5.704 -1.1403 -0.8811 -3.0083
 7096TIP3    H221232   8.125   4.762   5.588  1.4537  1.5485 -1.0869
 7097TIP3   OH221233   2.746   5.782   4.467 -0.1128  0.5435 -0.3603
 7097TIP3    H121234   2.762   5.708   4.409  1.3211  1.0929 -0.7350
 7097TIP3    H221235   2.656   5.772   4.496 -0.1305 -1.0014 -0.8767
 7098TIP3   OH221236   2.336   6.468   0.669 -0.5978 -0.4512 -0.4678
 7098TIP3    H121237   2.354   6.457   0.575 -0.8372  2.3532 -0.9294
 7098TIP3    H221238   2.258   6.416   0.685 -1.7327  0.5804 -2.3366
 7099TIP3   OH221239   1.545   6.131   5.198 -0.2820  0.4064  0.1274
 7099TIP3    H121240   1.490   6.059   5.167  0.5890 -0.8354  1.3406
 7099TIP3    H221241   1.512   6.150   5.286  0.0787  0.8963  0.1630
 7100TIP3   OH221242   7.709   1.414   0.748 -0.0586 -0.5251  0.3681
 7100TIP3    H121243   7.740   1.350   0.685  2.8880 -0.9382  2.0526
 7100TIP3    H221244   7.731   1.376   0.834 -0.7111  1.5195  1.5059
 7101TIP3   OH221245   1.619   1.733   5.968 -0.5890 -0.3354  0.1917
 7101TIP3    H121246   1.583   1.819   5.947  0.1738  0.3302  1.4197
 7101TIP3    H221247   1.665   1.747   6.051 -0.0640 -1.8300  0.1798
 7102TIP3   OH221248   4.501   3.681   3.535  0.0791 -0.4977  0.1214
 7102TIP3    H121249   4.542   3.626   3.602  0.5150 -0.3099  0.0144
 7102TIP3    H221250   4.558   3.669   3.458 -0.4365 -0.7452 -0.2271
 7103TIP3   OH221251   7.181   5.938   2.346 -0.1662 -0.5089 -0.4488
 7103TIP3    H121252   7.203   5.875   2.415 -2.9595 -0.9366  0.2189
 7103TIP3    H221253   7.150   6.015   2.394 -2.6178 -0.9895 -1.1040
 7104TIP3   OH221254   0.687   5.419   6.253 -0.7943 -0.2201  0.1804
 7104TIP3    H121255   0.680   5.325   6.239  1.0503 -0.4420  0.5163
 7104TIP3    H221256   0.767   5.444   6.207 -1.2655  1.1880  0.0887
 7105TIP3   OH221257   3.388   6.379   2.209  0.4379 -0.2316  0.0907
 7105TIP3    H121258   3.316   6.440   2.194  0.7449  0.0177 -0.3994
 7105TIP3    H221259   3.435   6.376   2.125  1.4486  0.2133  0.6207
 7106TIP3   OH221260   7.741   3.501   1.327 -0.2618  0.4312  0.0752
 7106TIP3    H121261   7.764   3.443   1.400  0.1785 -0.2659 -0.5945
 7106TIP3    H221262   7.811   3.487   1.263  0.5403  2.6555  0.3999
 7107TIP3   OH221263   3.446   0.148   1.474  0.0691 -0.0736 -0.2322
 7107TIP3    H121264   3.511   0.078   1.479  0.4489  0.1878 -1.1584
 7107TIP3    H221265   3.362   0.103   1.466  0.2258 -0.4167  0.0534
 7108TIP3   OH221266   6.056   2.396   5.038 -0.1520 -0.1611  0.0944
 7108TIP3    H121267   6.102   2.398   5.122 -0.0535  0.6519  0.0281
 7108TIP3    H221268   5.983   2.335   5.052 -1.6099  1.7810  1.5746
 7109TIP3   OH221269   4.502   6.866   3.574 -0.2150 -0.0769  0.1632
 7109TIP3    H121270   4.582   6.841   3.528  0.2754 -1.5626  1.6821
 7109TIP3    H221271   4.508   6.961   3.584  1.7807 -0.2385  0.9403
 7110TIP3   OH221272   4.648   6.011   1.805  0.0456  0.0644  0.3658
 7110TIP3    H121273   4.574   5.970   1.760 -0.4794  0.4307  0.8801
 7110TIP3    H221274   4.608   6.076   1.863  0.8879  1.6040 -0.7121
 7111TIP3   OH221275   7.591   0.423   2.392  0.2199  0.2731 -0.6648
 7111TIP3    H121276   7.551   0.498   2.349  0.0998  0.1079 -0.8444
 7111TIP3    H221277   7.544   0.347   2.357  0.4565  0.1024 -0.6172
 7112TIP3   OH221278   0.924   6.805   4.953 -0.2450  0.6844 -0.8624
 7112TIP3    H121279   1.017   6.822   4.939  0.2897 -2.6271 -2.2077
 7112TIP3    H221280   0.922   6.739   5.022 -1.7575  1.7961  0.2220
 7113TIP3   OH221281   1.157   6.443   2.278  0.1184  0.2305 -0.5012
 7113TIP3    H121282   1.122   6.377   2.338  0.2175 -2.7013 -3.3540
 7113TIP3    H221283   1.244   6.463   2.313 -0.1169 -0.7663  0.7363
 7114TIP3   OH221284   0.999   2.733   0.477 -0.4493 -0.0128 -0.3496
 7114TIP3    H121285   0.911   2.770   0.468 -0.9466 -0.2727  2.5150
 7114TIP3    H221286   0.989   2.640   0.459 -0.6117  0.0727 -0.6995
 7115TIP3   OH221287   0.559   7.275   0.836 -0.2643  0.3919 -0.0475
 7115TIP3    H121288   0.483   7.302   0.784 -1.4023  1.9301  2.2069
 7115TIP3    H221289   0.535   7.189   0.871 -0.4252  0.3275 -0.3115
 7116TIP3   OH221290   5.228   1.222   6.256  0.2585 -0.1678 -0.1658
 7116TIP3    H121291   5.197   1.303   6.296  1.6977 -0.1487  0.9998
 7116TIP3    H221292   5.182   1.153   6.304 -0.1038 -0.0804 -0.3809
 7117TIP3   OH221293   0.137   4.344   4.760  0.4885 -0.2831  0.3484
 7117TIP3    H121294   0.116   4.300   4.842  0.1111 -0.0280  0.3906
 7117TIP3    H221295   0.222   4.306   4.733 -0.6773 -2.4247 -0.5864
 7118TIP3   OH221296   2.507   1.851   5.992 -0.3108  0.5722 -0.0011
 7118TIP3    H121297   2.581   1.808   5.949  0.2377  0.6069  0.8828
 7118TIP3    H221298   2.546   1.925   6.038 -0.9475  0.8058  0.1675
 7119TIP3   OH221299   1.950   5.343   3.324  0.3101 -0.2077 -0.3659
 7119TIP3    H121300   2.045   5.337   3.333  0.2090 -3.0332 -0.4591
 7119TIP3    H221301   1.934   5.332   3.231 -0.1745 -1.7352 -0.1233
 7120TIP3   OH221302   8.000   3.893   0.996  0.5752 -0.9072 -0.0096
 7120TIP3    H121303   7.954   3.876   1.079  0.5335 -2.7267 -0.3647
 7120TIP3    H221304   7.955   3.969   0.959  0.1983 -0.4394  1.3234
 7121TIP3   OH221305   6.098   5.359   1.286  0.9164  0.0669  0.1597
 7121TIP3    H121306   6.128   5.445   1.315  2.2581 -0.3205 -0.0263
 7121TIP3    H221307   6.155   5.336   1.213  0.6863 -1.0446  0.3043
 7122TIP3   OH221308   5.210   0.474   6.206 -0.9126 -0.3679 -0.0577
 7122TIP3    H121309   5.119   0.474   6.176 -0.6465 -0.5384 -0.8937
 7122TIP3    H221310   5.229   0.566   6.226 -1.6602 -0.5048  1.3936
 7123TIP3   OH221311   5.884   1.047   5.426 -0.2122 -0.1246  0.1979
 7123TIP3    H121312   5.788   1.043   5.430 -0.2997  1.0522 -0.3038
 7123TIP3    H221313   5.909   1.092   5.506 -0.0000 -1.1890  0.7479
 7124TIP3   OH221314   1.315   1.890   6.123  0.4932  0.3838  0.4675
 7124TIP3    H121315   1.284   1.976   6.151 -0.0142 -0.2855  2.0642
 7124TIP3    H221316   1.387   1.909   6.064  0.5055  1.9061  0.9278
 7125TIP3   OH221317   2.076   7.390   3.463 -0.1207  0.7545  0.1298
 7125TIP3    H121318   2.072   7.479   3.497 -1.1588  0.9532 -0.4760
 7125TIP3    H221319   2.033   7.336   3.530 -1.9536  1.1122 -0.7118
 7126TIP3   OH221320   1.875   7.721   5.292  0.9983 -0.0092  0.1171
 7126TIP3    H121321   1.966   7.710   5.316  1.1112 -1.9852 -0.9824
 7126TIP3    H221322   1.875   7.724   5.196  0.0126  1.1824  0.1251
 7127TIP3   OH221323   6.345   7.592   4.307 -0.2884  0.2858  0.2281
 7127TIP3    H121324   6.273   7.554   4.357 -0.1304  0.6421  0.7354
 7127TIP3    H221325   6.363   7.675   4.351 -0.2188  0.6557 -0.4900
 7128TIP3   OH221326   3.145   2.679   0.013 -0.5073  0.4871  0.4623
 7128TIP3    H121327   3.217   2.653  -0.045 -1.0105  3.1432 -1.5635
 7128TIP3    H221328   3.182   2.746   0.069 -1.1034  1.1102  0.1293
 7129TIP3   OH221329   7.390   0.917   3.729  0.0942  0.3445 -0.4824
 7129TIP3    H121330   7.440   0.993   3.759  1.2723 -0.9815  1.0798
 7129TIP3    H221331   7.456   0.856   3.697 -0.6983 -0.6486 -0.2682
 7130TIP3   OH221332   1.448   3.854   2.168 -0.2324  0.2100 -0.4401
 7130TIP3    H121333   1.387   3.804   2.222 -0.7428  0.5347 -0.7084
 7130TIP3    H221334   1.501   3.904   2.230  1.2791 -1.7423 -0.0776
 7131TIP3   OH221335   4.496   5.569   3.023 -0.2192  0.2505 -0.3671
 7131TIP3    H121336   4.448   5.624   3.085 -4.4078 -1.5760 -1.6447
 7131TIP3    H221337   4.556   5.518   3.077 -1.8029  0.6033  1.8606
 7132TIP3   OH221338   2.306   4.814   3.044  0.3768  0.8023  0.6444
 7132TIP3    H121339   2.278   4.883   3.104  1.1376  1.8580 -0.1919
 7132TIP3    H221340   2.400   4.827   3.034  0.0877  1.5002 -1.7917
 7133TIP3   OH221341   5.683   2.317   1.921 -0.8304 -0.0427 -0.0140
 7133TIP3    H121342   5.679   2.222   1.924 -0.4669 -0.0463  0.3523
 7133TIP3    H221343   5.596   2.344   1.892 -0.8364 -0.4978 -0.4340
 7134TIP3   OH221344   6.665   0.902   4.952  0.4912  0.0174 -0.7526
 7134TIP3    H121345   6.654   0.832   5.016  0.0278  0.3181 -0.4981
 7134TIP3    H221346   6.632   0.866   4.870  3.1259 -1.1737 -1.3896
 7135TIP3   OH221347   2.199   1.730   3.359 -0.1115  0.2671  0.0619
 7135TIP3    H121348   2.271   1.779   3.398  0.6533 -0.3013 -0.5868
 7135TIP3    H221349   2.136   1.797   3.332  1.0055  0.9308 -1.0119
 7136TIP3   OH221350   2.005   5.816   1.314  0.2829 -0.2751 -0.3481
 7136TIP3    H121351   1.960   5.848   1.392  1.5307  0.3425  0.1490
 7136TIP3    H221352   1.961   5.859   1.241 -0.0727  0.1336  0.1029
 7137TIP3   OH221353   5.841   3.566   2.061  0.2705  0.0656 -0.7503
 7137TIP3    H121354   5.747   3.581   2.049  0.0193 -0.9406 -0.2006
 7137TIP3    H221355   5.855   3.478   2.026  0.8794 -0.0380 -0.2609
 7138TIP3   OH221356   0.734   5.791   3.692  0.3847  0.0887 -0.9611
 7138TIP3    H121357   0.826   5.803   3.716  0.7595 -0.7311 -1.9494
 7138TIP3    H221358   0.700   5.880   3.682  1.0786  0.3948 -0.6424
 7139TIP3   OH221359   0.687   2.890   2.804 -0.1842  0.2940  0.8408
 7139TIP3    H121360   0.606   2.862   2.760 -0.0065 -0.5170  1.0186
 7139TIP3    H221361   0.740   2.810   2.810  1.4274  1.1409 -0.9280
 7140TIP3   OH221362   6.908   7.664   3.954 -0.0950  0.3225 -0.4359
 7140TIP3    H121363   6.894   7.709   4.038  2.2865  2.0767 -0.8565
 7140TIP3    H221364   7.003   7.652   3.950 -0.4684 -3.3326 -1.1715
 7141TIP3   OH221365   0.412   3.143   0.813 -0.3455 -0.2676  0.0623
 7141TIP3    H121366   0.480   3.155   0.747 -0.0271  1.4136  0.6456
 7141TIP3    H221367   0.458   3.147   0.897 -0.9763 -0.6302  0.4364
 7142TIP3   OH221368   4.868   7.123   6.096 -0.1285  0.8486 -0.0421
 7142TIP3    H121369   4.808   7.076   6.038  0.3748  0.3852 -0.1957
 7142TIP3    H221370   4.939   7.061   6.112  0.2245  1.3291  0.2783
 7143TIP3   OH221371   6.819   5.002   3.699  0.0736  0.1639 -0.3732
 7143TIP3    H121372   6.800   4.975   3.789 -1.6051 -0.4279 -0.8632
 7143TIP3    H221373   6.733   5.017   3.660  0.7782  0.5568 -1.8391
 7144TIP3   OH221374   1.004   5.865   3.808  0.4000 -0.0615  0.4134
 7144TIP3    H121375   1.067   5.874   3.737 -0.7559 -0.4109 -0.7068
 7144TIP3    H221376   1.001   5.951   3.849 -1.3655  1.2185 -2.1486
 7145TIP3   OH221377   2.510   5.657   5.130  0.4851 -0.1430  0.0570
 7145TIP3    H121378   2.595   5.652   5.174  0.8460  1.2779 -0.4137
 7145TIP3    H221379   2.523   5.612   5.047  0.6712 -0.2528  0.1455
 7146TIP3   OH221380   7.713   3.725   6.068  0.1199  0.0819 -0.3939
 7146TIP3    H121381   7.710   3.695   5.978  1.2564  0.8718 -0.7123
 7146TIP3    H221382   7.752   3.812   6.063 -0.3261  0.3682  0.8027
 7147TIP3   OH221383   7.537   1.544   0.554 -0.4249  0.4008 -0.5865
 7147TIP3    H121384   7.580   1.516   0.635 -0.4863  3.1366  0.5105
 7147TIP3    H221385   7.600   1.603   0.513 -1.9975  2.3790 -0.3059
 7148TIP3   OH221386   7.033   4.973   5.541  0.1794 -0.1272  0.6088
 7148TIP3    H121387   7.030   5.022   5.624  0.0445 -0.7313  0.9620
 7148TIP3    H221388   6.962   4.910   5.548 -0.0835  0.0740 -0.1371
 7149TIP3   OH221389   6.312   2.217   4.076  0.6775 -0.3357 -0.2830
 7149TIP3    H121390   6.348   2.152   4.136  1.4260  0.3486  0.0361
 7149TIP3    H221391   6.217   2.210   4.086  0.7305 -1.4435 -0.3429
 7150TIP3   OH221392   4.805   5.909   1.348 -0.1014  1.1583 -0.3001
 7150TIP3    H121393   4.738   5.853   1.308 -0.3200  0.4345  1.0068
 7150TIP3    H221394   4.797   5.993   1.301 -2.5784  1.4125  0.3982
 7151TIP3   OH221395   7.687   1.781   5.578  0.0151  0.1399 -0.8141
 7151TIP3    H121396   7.592   1.780   5.564 -0.2187  2.5184  0.2523
 7151TIP3    H221397   7.705   1.696   5.618 -1.5060 -0.7141 -1.8167
 7152TIP3   OH221398   8.192   5.659   5.065 -0.3923  0.1107 -0.2100
 7152TIP3    H121399   8.182   5.746   5.027 -0.3404  1.0831  1.9020
 7152TIP3    H221400   8.113   5.612   5.036 -0.4782  0.8784 -1.2736
 7153TIP3   OH221401   4.073   5.029   5.467 -0.0699 -0.1307  0.0275
 7153TIP3    H121402   4.066   5.106   5.410 -0.8041  0.1955  0.5374
 7153TIP3    H221403   4.039   5.059   5.551 -1.6209 -1.3555 -0.1258
 7154TIP3   OH221404   2.795   7.280   3.405  0.4492 -0.2927 -0.1677
 7154TIP3    H121405   2.866   7.217   3.390  1.1301  0.4698 -0.1645
 7154TIP3    H221406   2.833   7.347   3.462 -0.6024 -0.4478  0.7521
 7155TIP3   OH221407   6.160   4.518   6.197 -0.2392 -0.2189  0.2786
 7155TIP3    H121408   6.139   4.602   6.155 -0.8820  0.2970  1.5858
 7155TIP3    H221409   6.098   4.511   6.269  1.8144 -0.3172  2.1324
 7156TIP3   OH221410   3.437   7.355   3.705 -0.4606  0.4197 -0.1607
 7156TIP3    H121411   3.393   7.392   3.781 -1.7664  1.6765 -1.4596
 7156TIP3    H221412   3.388   7.276   3.684  0.0971 -0.1024  0.4724
 7157TIP3   OH221413   7.066   5.797   3.506 -0.1349  0.4389  0.4749
 7157TIP3    H121414   7.151   5.812   3.466  0.0090 -1.5366 -0.1184
 7157TIP3    H221415   7.084   5.781   3.598  0.4595 -1.9213  0.0220
 7158TIP3   OH221416   5.314   5.998   6.179 -0.4227 -0.2292 -0.3061
 7158TIP3    H121417   5.339   5.972   6.268 -0.9201 -0.2116 -0.1582
 7158TIP3    H221418   5.395   6.032   6.141  0.0893 -1.4091 -0.2978
 7159TIP3   OH221419   5.370   6.536   1.327  0.4306  0.5897 -0.4846
 7159TIP3    H121420   5.461   6.509   1.344  0.3952  0.4017 -0.5911
 7159TIP3    H221421   5.325   6.519   1.409  1.3125  4.4108  0.9991
 7160TIP3   OH221422   2.038   7.197   1.267 -0.1064  0.6141  0.0700
 7160TIP3    H121423   1.999   7.121   1.224  0.6132  0.4614 -0.3131
 7160TIP3    H221424   1.964   7.237   1.314 -0.5264 -0.2281  0.1608
 7161TIP3   OH221425   2.965   4.720   4.916 -0.1433  0.1218 -0.2472
 7161TIP3    H121426   3.017   4.766   4.850  0.2991  1.2505  0.8415
 7161TIP3    H221427   3.025   4.706   4.989 -0.4934 -1.5153 -0.2307
 7162TIP3   OH221428   4.064   4.204   3.455 -0.1604  0.3921 -0.1644
 7162TIP3    H121429   3.971   4.224   3.452  0.0273  1.4479  0.3978
 7162TIP3    H221430   4.102   4.253   3.382 -0.2023 -1.0979 -1.2343
 7163TIP3   OH221431   3.753   4.793   3.674 -0.7075 -0.2045 -0.3180
 7163TIP3    H121432   3.693   4.867   3.672 -0.1536  0.2425 -0.5779
 7163TIP3    H221433   3.705   4.725   3.721 -0.9488  0.5514  0.5601
 7164TIP3   OH221434   5.641   2.938   6.225 -0.2278 -0.0660  0.4783
 7164TIP3    H121435   5.586   2.975   6.294 -1.9339 -0.3703 -0.6481
 7164TIP3    H221436   5.709   3.003   6.211 -0.6549  0.6210  1.4834
 7165TIP3   OH221437   0.244   7.552   1.071  0.3526  0.4166  0.3408
 7165TIP3    H121438   0.234   7.523   0.980 -1.0062  0.8062  0.3527
 7165TIP3    H221439   0.164   7.601   1.090  0.8600  0.8026  1.5834
 7166TIP3   OH221440   0.506   4.588   3.908  0.4382 -0.1530 -0.2826
 7166TIP3    H121441   0.581   4.533   3.931 -0.5093 -0.9110  1.1530
 7166TIP3    H221442   0.507   4.592   3.813  0.8133 -2.3042 -0.4190
 7167TIP3   OH221443   3.038   7.333   5.701  0.0599  0.2537 -0.6191
 7167TIP3    H121444   3.017   7.309   5.792  0.0930  0.1885 -0.6283
 7167TIP3    H221445   2.984   7.409   5.683 -0.8118 -0.4157 -0.9265
 7168TIP3   OH221446   8.082   6.508   3.709  0.1108 -0.4194  0.1444
 7168TIP3    H121447   8.166   6.518   3.755  2.1779  0.6927 -3.4631
 7168TIP3    H221448   8.098   6.440   3.644 -1.9397 -0.4312 -0.4115
 7169TIP3   OH221449   1.431   1.649   2.053  0.4203 -0.1367 -0.2265
 7169TIP3    H121450   1.360   1.589   2.074  0.1916  0.6116  1.2632
 7169TIP3    H221451   1.387   1.725   2.015  0.6990 -0.7980 -1.9838
 7170TIP3   OH221452   1.388   7.508   0.626  0.3373  0.3730 -0.0411
 7170TIP3    H121453   1.436   7.435   0.666 -0.1568  0.5494  0.8893
 7170TIP3    H221454   1.391   7.578   0.690 -0.1255  0.8054 -0.4767
 7171TIP3   OH221455   3.535   0.426   3.070 -0.0880 -0.4755 -0.0496
 7171TIP3    H121456   3.585   0.399   2.993 -0.9532 -0.6390 -0.5708
 7171TIP3    H221457   3.585   0.499   3.106  0.5066 -0.6122 -0.5724
 7172TIP3   OH221458   5.688   5.394   4.977  0.1926 -0.3555 -0.0073
 7172TIP3    H121459   5.636   5.399   4.897  0.7264 -0.7021 -0.3833
 7172TIP3    H221460   5.723   5.483   4.989  0.5995 -0.4424 -0.5003
 7173TIP3   OH221461   4.633   2.064   5.282 -0.2280 -0.0584  0.3918
 7173TIP3    H121462   4.657   2.157   5.288 -2.1230  0.5058  0.0784
 7173TIP3    H221463   4.633   2.046   5.188  0.3568 -0.4608  0.4634
 7174TIP3   OH221464   0.167   6.519   6.351 -0.4929 -0.5507  0.9593
 7174TIP3    H121465   0.074   6.536   6.364 -0.1440  1.0210  1.6099
 7174TIP3    H221466   0.180   6.430   6.383 -1.4791 -0.2231  2.3271
 7175TIP3   OH221467   4.644   2.107   1.246  0.4498  0.3231  0.0897
 7175TIP3    H121468   4.626   2.119   1.339 -0.6209  2.6389 -0.3524
 7175TIP3    H221469   4.725   2.156   1.231  1.0418 -0.6793 -0.0848
 7176TIP3   OH221470   3.052   3.221   6.492  0.1963  0.0685 -0.1140
 7176TIP3    H121471   3.138   3.260   6.480  0.8899 -1.1385  0.6769
 7176TIP3    H221472   3.030   3.184   6.406  0.6836 -0.0212 -0.2044
 7177TIP3   OH221473   7.070   1.213   1.695  0.2612 -0.1053 -0.0672
 7177TIP3    H121474   7.159   1.241   1.714  1.3517  0.2282 -4.4647
 7177TIP3    H221475   7.018   1.293   1.694  0.6910  0.1709 -0.7701
 7178TIP3   OH221476   0.911   1.855   6.118  0.5925 -0.4431  0.2318
 7178TIP3    H121477   0.901   1.948   6.095 -1.4109 -0.4663  0.8071
 7178TIP3    H221478   0.987   1.826   6.068  0.8359  1.3411 -0.5079
 7179TIP3   OH221479   3.392   0.477   1.154  0.1042  0.8952 -0.3215
 7179TIP3    H121480   3.426   0.455   1.241 -0.1932 -0.7353 -0.5923
 7179TIP3    H221481   3.297   0.475   1.164  0.0636  0.3772 -0.7438
 7180TIP3   OH221482   7.409   5.821   4.705  0.2258 -0.0818 -0.3161
 7180TIP3    H121483   7.314   5.816   4.711  0.0967  0.4555 -1.6025
 7180TIP3    H221484   7.431   5.910   4.733  0.2922 -0.0264 -0.5381
 7181TIP3   OH221485   4.115   5.062   0.184  0.3775  0.7137  0.2756
 7181TIP3    H121486   4.175   5.010   0.238  0.2251  1.0819  0.8207
 7181TIP3    H221487   4.046   5.089   0.245 -1.2262 -1.0420 -0.6911
 7182TIP3   OH221488   2.117   3.329   0.984  0.6719 -0.3049 -0.3599
 7182TIP3    H121489   2.039   3.361   0.939  0.8461  0.2052 -0.3180
 7182TIP3    H221490   2.190   3.365   0.933  0.9058 -1.8984 -1.1986
 7183TIP3   OH221491   1.808   2.571   3.010  0.2871 -0.0425  0.7431
 7183TIP3    H121492   1.841   2.653   3.047 -1.4397  1.2741 -0.4862
 7183TIP3    H221493   1.746   2.538   3.074 -0.6417  0.7799  0.2805
 7184TIP3   OH221494   5.254   7.380   3.927 -0.0481 -0.5711  0.8106
 7184TIP3    H121495   5.223   7.303   3.880  1.1031 -1.2202  1.0690
 7184TIP3    H221496   5.197   7.386   4.004 -1.0502 -0.3126  0.0703
 7185TIP3   OH221497   0.666   6.389   6.282 -0.0583 -0.5900  0.1164
 7185TIP3    H121498   0.642   6.460   6.342 -0.3724 -0.6268  0.0365
 7185TIP3    H221499   0.762   6.389   6.282 -0.0279  0.7113 -0.8973
 7186TIP3   OH221500   5.055   1.631   0.945  0.1925  0.4744  0.7485
 7186TIP3    H121501   5.002   1.704   0.975 -1.0694  0.5721 -1.5063
 7186TIP3    H221502   5.137   1.672   0.915 -0.2420  0.8863  0.1127
 7187TIP3   OH221503   1.963   6.852   5.031  0.1157 -0.0838  0.6851
 7187TIP3    H121504   1.921   6.766   5.025  2.0453 -1.0774  0.6466
 7187TIP3    H221505   2.033   6.849   4.966  0.8996  1.1009  1.4290
 7188TIP3   OH221506   0.393   2.856   4.938  0.0874  0.5040 -0.3536
 7188TIP3    H121507   0.421   2.768   4.912  0.4821  0.6149 -0.3180
 7188TIP3    H221508   0.430   2.868   5.026 -2.0636 -0.2480  0.7140
 7189TIP3   OH221509   0.608   2.047   2.345  0.8371  0.2287  0.3485
 7189TIP3    H121510   0.656   2.032   2.264  0.8568  3.7876 -0.4659
 7189TIP3    H221511   0.670   2.023   2.414  0.7429 -3.0834 -0.5603
 7190TIP3   OH221512   1.745   3.164   5.321 -0.6425 -0.5751 -0.0016
 7190TIP3    H121513   1.714   3.137   5.408 -1.3771 -1.6695 -0.5821
 7190TIP3    H221514   1.667   3.161   5.266 -0.1297 -0.1375 -0.7616
 7191TIP3   OH221515   0.172   4.981   4.732  0.3104  0.5155 -0.1788
 7191TIP3    H121516   0.098   4.954   4.678  0.7904  3.3224 -2.4747
 7191TIP3    H221517   0.249   4.967   4.677  1.0550  1.4557  0.5727
 7192TIP3   OH221518   0.131   4.172   6.178  0.4516  0.0335 -0.3597
 7192TIP3    H121519   0.207   4.182   6.121 -0.1766  1.5068 -1.0161
 7192TIP3    H221520   0.065   4.130   6.123  0.0613  0.8600 -0.5500
 7193TIP3   OH221521   8.296   7.074   0.168 -0.1740  0.4531 -0.2172
 7193TIP3    H121522   8.335   7.002   0.217  0.5904  1.1912  0.2862
 7193TIP3    H221523   8.203   7.069   0.188 -0.2406 -0.8214 -0.7609
 7194TIP3   OH221524   3.541   6.727   0.181 -0.1343  0.0904 -0.2292
 7194TIP3    H121525   3.622   6.676   0.189 -0.1748  0.2190  1.5704
 7194TIP3    H221526   3.471   6.664   0.199 -0.4504  0.0387 -1.5269
 7195TIP3   OH221527   4.817   2.170   0.815 -0.2174  0.4082  0.7830
 7195TIP3    H121528   4.784   2.216   0.737 -0.0825 -1.1052 -0.1993
 7195TIP3    H221529   4.772   2.213   0.888 -2.0816  0.4073 -0.2915
 7196TIP3   OH221530   0.150   2.539   0.146  0.0960  0.0435 -0.2029
 7196TIP3    H121531   0.169   2.524   0.054  2.2140  2.7561 -0.3108
 7196TIP3    H221532   0.097   2.618   0.148 -0.6158 -0.4317  0.9004
 7197TIP3   OH221533   1.477   5.571   1.031 -0.5828 -0.2263 -0.0250
 7197TIP3    H121534   1.501   5.555   0.939 -1.3182 -2.1885  0.0841
 7197TIP3    H221535   1.548   5.532   1.081 -0.3129  0.6209  0.2729
 7198TIP3   OH221536   7.578   5.498   4.484 -0.0600 -0.0370 -1.1630
 7198TIP3    H121537   7.611   5.577   4.528  0.6782 -0.5478 -0.7702
 7198TIP3    H221538   7.571   5.522   4.392  0.8007  0.2867 -1.1474
 7199TIP3   OH221539   0.022   0.444   5.448  0.4070 -0.2679 -0.2162
 7199TIP3    H121540  -0.055   0.448   5.504 -0.5337  1.3421 -1.5509
 7199TIP3    H221541   0.038   0.350   5.436 -0.8596 -0.6274  0.7244
 7200TIP3   OH221542   7.216   3.024   3.868  0.9282  0.3962  0.1726
 7200TIP3    H121543   7.280   2.991   3.806  0.2903 -2.1044  0.7319
 7200TIP3    H221544   7.171   2.946   3.900 -1.1503  1.8996  1.1693
 7201TIP3   OH221545   4.619   5.273   1.189 -0.0823 -0.1349 -0.0821
 7201TIP3    H121546   4.622   5.358   1.233  0.0191 -1.0373  1.7616
 7201TIP3    H221547   4.708   5.239   1.198 -0.0781 -0.3853 -0.9699
 7202TIP3   OH221548   3.560   2.091   6.615  0.0499 -0.5113 -0.0076
 7202TIP3    H121549   3.494   2.131   6.557  2.1076  2.7962 -0.2973
 7202TIP3    H221550   3.628   2.061   6.555  0.3458 -0.8227  0.4851
 7203TIP3   OH221551   5.389   7.298   1.086 -0.3765  0.2251  0.0111
 7203TIP3    H121552   5.404   7.203   1.085  0.5465  0.3621 -0.5319
 7203TIP3    H221553   5.322   7.311   1.153  1.2870 -0.5488  1.9086
 7204TIP3   OH221554   6.266   4.661   3.300  0.0931 -0.6707  0.2945
 7204TIP3    H121555   6.212   4.665   3.221 -0.1538  0.6603  0.5072
 7204TIP3    H221556   6.231   4.730   3.357 -0.0248 -1.8704  1.7676
 7205TIP3   OH221557   3.500   6.627   3.293  0.0605 -0.2834 -0.3741
 7205TIP3    H121558   3.412   6.626   3.332 -0.0412  0.0192 -0.5931
 7205TIP3    H221559   3.491   6.574   3.213  0.0112 -0.0325 -0.5357
 7206TIP3   OH221560   6.889   3.907   2.542  0.4777 -0.0227  0.4688
 7206TIP3    H121561   6.859   3.965   2.472 -1.1896 -0.7209  0.5727
 7206TIP3    H221562   6.873   3.956   2.622  2.6009  0.8717  0.4116
 7207TIP3   OH221563   1.994   7.155   6.094  0.0334 -0.4338 -0.2937
 7207TIP3    H121564   1.951   7.107   6.164 -1.4898  0.7580 -0.3508
 7207TIP3    H221565   1.970   7.109   6.014 -1.7780  0.5756 -0.3900
 7208TIP3   OH221566   1.116   6.572   2.721 -0.0979 -0.3071  0.1487
 7208TIP3    H121567   1.199   6.559   2.674 -0.1624  0.3209 -0.1429
 7208TIP3    H221568   1.142   6.573   2.814  0.3034  0.4519  0.0360
 7209TIP3   OH221569   5.126   6.856   2.365  0.2338 -0.0980 -0.1318
 7209TIP3    H121570   5.062   6.901   2.420 -0.0349 -0.4770 -0.1245
 7209TIP3    H221571   5.209   6.865   2.411  0.0976  0.0022  0.0940
 7210TIP3   OH221572   5.079   5.907   1.194  0.6687 -0.4769 -0.3955
 7210TIP3    H121573   5.097   5.909   1.288  1.2482  0.8826 -0.5079
 7210TIP3    H221574   5.126   5.831   1.162 -1.0272 -2.0513  0.6773
 7211TIP3   OH221575   1.594   2.401   0.783  0.2660 -0.0733 -0.1664
 7211TIP3    H121576   1.592   2.458   0.860 -1.0933 -0.7306  0.3107
 7211TIP3    H221577   1.534   2.442   0.721 -0.4749 -0.7891  0.0572
 7212TIP3   OH221578   0.657   5.051   2.586 -0.0444  0.1169  0.4095
 7212TIP3    H121579   0.568   5.022   2.562  0.1398  0.2728 -0.5270
 7212TIP3    H221580   0.643   5.119   2.652 -0.6326  0.2198  0.1881
 7213TIP3   OH221581   4.187   1.534   3.626 -0.2839 -0.0971 -0.6224
 7213TIP3    H121582   4.116   1.591   3.595 -2.0006 -1.9110 -0.2203
 7213TIP3    H221583   4.146   1.479   3.693  1.9372 -0.1276  0.8260
 7214TIP3   OH221584   8.103   2.613   6.621  0.6615 -0.4032 -0.4293
 7214TIP3    H121585   8.178   2.633   6.677  0.6144 -1.1678 -0.0909
 7214TIP3    H221586   8.103   2.684   6.556  1.8433 -0.5476 -0.6100
 7215TIP3   OH221587   7.783   3.257   2.465  0.3231 -0.0662  0.2494
 7215TIP3    H121588   7.861   3.311   2.452 -0.3334  0.4756 -1.8070
 7215TIP3    H221589   7.715   3.300   2.414 -0.7557 -1.7568  0.1818
 7216TIP3   OH221590   2.387   4.668   6.421 -0.1640  0.1377  0.2635
 7216TIP3    H121591   2.366   4.585   6.463 -0.2888 -0.6937 -1.3601
 7216TIP3    H221592   2.345   4.734   6.475 -0.9850 -0.9452  0.9766
 7217TIP3   OH221593   5.907   0.667   5.478 -0.1969 -0.5194  0.5566
 7217TIP3    H121594   5.893   0.610   5.402 -0.0218 -2.6459  2.0416
 7217TIP3    H221595   5.936   0.750   5.440 -1.4003 -1.0614 -1.7611
 7218TIP3   OH221596   4.622   1.388   0.175 -0.8794  0.6818  0.4761
 7218TIP3    H121597   4.586   1.475   0.159 -1.2163  0.8665  2.1089
 7218TIP3    H221598   4.547   1.329   0.167 -0.9545  0.7195  0.9089
 7219TIP3   OH221599   4.998   3.003   5.423  0.1672 -0.1495 -0.3082
 7219TIP3    H121600   4.944   3.030   5.348  1.0473  2.2575 -0.1667
 7219TIP3    H221601   4.974   3.064   5.493  1.9625  0.0109  0.2242
 7220TIP3   OH221602   7.603   0.369   2.807 -0.2074  0.1647  0.2959
 7220TIP3    H121603   7.672   0.380   2.741  0.9587 -0.2915  1.4044
 7220TIP3    H221604   7.534   0.320   2.762  1.5072 -2.1142  0.0046
 7221TIP3   OH221605   5.465   1.416   6.599 -0.5279  0.6085  0.3224
 7221TIP3    H121606   5.422   1.443   6.680 -0.3225  1.8668  0.0314
 7221TIP3    H221607   5.543   1.369   6.628 -1.6432 -1.0279  0.8481
 7222TIP3   OH221608   3.035   4.324   2.424  0.0969  0.1209 -0.0267
 7222TIP3    H121609   3.099   4.378   2.378 -0.0978  0.3005 -0.0842
 7222TIP3    H221610   2.965   4.309   2.360 -0.2302  0.4667  0.2488
 7223TIP3   OH221611   3.888   4.313   3.751  0.4440 -0.2062 -0.2017
 7223TIP3    H121612   3.860   4.281   3.665  0.1696 -1.4892  0.3362
 7223TIP3    H221613   3.814   4.364   3.783 -0.9336 -2.6221  0.7202
 7224TIP3   OH221614   6.294   0.664   1.582 -0.1544  0.2230  0.1189
 7224TIP3    H121615   6.294   0.688   1.674  0.5411 -0.1883  0.2349
 7224TIP3    H221616   6.350   0.586   1.578  3.2724  2.5340 -1.2271
 7225TIP3   OH221617   4.186   0.117   3.178 -0.0617  0.3421 -0.3812
 7225TIP3    H121618   4.127   0.041   3.176 -0.3624  0.5478  0.2668
 7225TIP3    H221619   4.264   0.085   3.222 -0.9505  0.8958  1.7371
 7226TIP3   OH221620   2.672   0.309   2.953  0.3708 -0.6325 -0.2306
 7226TIP3    H121621   2.632   0.347   3.031 -0.5915 -1.3921 -0.3353
 7226TIP3    H221622   2.757   0.276   2.984 -0.0209 -0.9744  0.5168
 7227TIP3   OH221623   1.418   5.510   6.688 -0.6164 -0.4189  0.2377
 7227TIP3    H121624   1.451   5.538   6.603 -0.0386  0.4893  0.7496
 7227TIP3    H221625   1.445   5.418   6.695 -0.1567 -0.3292 -0.3130
 7228TIP3   OH221626   1.693   2.092   3.298 -0.3419  0.7700  0.5746
 7228TIP3    H121627   1.602   2.077   3.274  0.0154 -0.2922 -0.2312
 7228TIP3    H221628   1.739   2.101   3.214  0.5797 -0.6604  0.8756
 7229TIP3   OH221629   1.622   0.483   1.390  0.0176 -0.2907  0.4118
 7229TIP3    H121630   1.576   0.563   1.361 -1.3295 -1.2157 -0.1127
 7229TIP3    H221631   1.616   0.424   1.316  1.3019 -0.7803  0.6827
 7230TIP3   OH221632   3.098   3.426   2.354 -0.0496 -0.4874  0.1843
 7230TIP3    H121633   3.120   3.394   2.442  1.4936 -1.5009 -0.5186
 7230TIP3    H221634   3.128   3.516   2.354  1.1268 -0.8571  0.3248
 7231TIP3   OH221635   2.536   0.033   0.379  0.1151  0.8679  0.0750
 7231TIP3    H121636   2.501  -0.055   0.393 -0.6187  0.7008 -2.3581
 7231TIP3    H221637   2.463   0.092   0.399  0.4219  0.9094  1.1148
 7232TIP3   OH221638   7.670   3.428   5.627  0.6649  0.2032 -0.3865
 7232TIP3    H121639   7.648   3.335   5.619  1.6285 -0.4266  2.9348
 7232TIP3    H221640   7.729   3.444   5.553  1.0045 -2.0060 -0.6739
 7233TIP3   OH221641   4.444   4.686   0.507  0.4656 -0.3772 -0.2124
 7233TIP3    H121642   4.358   4.698   0.467  0.8528 -0.5864 -1.1294
 7233TIP3    H221643   4.446   4.752   0.577  0.0048  0.4251 -0.9241
 7234TIP3   OH221644   4.884   6.012   2.932 -0.4302  0.2554  0.2297
 7234TIP3    H121645   4.812   6.034   2.872  0.6508 -0.8042 -1.5309
 7234TIP3    H221646   4.960   6.056   2.895 -0.2094  1.8928  2.4360
 7235TIP3   OH221647   5.693   5.598   0.681 -0.1475 -0.2800  0.0783
 7235TIP3    H121648   5.703   5.525   0.742 -0.2815 -0.6479 -0.3310
 7235TIP3    H221649   5.679   5.675   0.736 -1.6139 -0.8086  0.4776
 7236TIP3   OH221650   2.757   5.672   1.316 -0.4896  0.1991  0.2060
 7236TIP3    H121651   2.742   5.578   1.305  1.3524 -0.0639 -0.4044
 7236TIP3    H221652   2.812   5.696   1.241  1.4135  1.1364  1.8113
 7237TIP3   OH221653   6.409   7.694   1.758  0.4090 -0.1737 -0.0181
 7237TIP3    H121654   6.421   7.622   1.697 -2.5930 -0.5820 -0.3062
 7237TIP3    H221655   6.433   7.773   1.709 -1.1246 -0.5773 -1.4902
 7238TIP3   OH221656   1.483   1.407   1.634 -0.3774 -0.1017 -0.0472
 7238TIP3    H121657   1.422   1.468   1.675  1.3204  1.1871  0.6956
 7238TIP3    H221658   1.539   1.462   1.579  0.4581 -1.1610 -0.2948
 7239TIP3   OH221659   2.105   7.223   3.256  0.0336 -0.1351 -0.0899
 7239TIP3    H121660   2.100   7.294   3.320 -2.1041  1.3783 -1.7910
 7239TIP3    H221661   2.013   7.199   3.240  0.5405 -0.9331 -2.0717
 7240TIP3   OH221662   3.832   2.329   0.606  0.3050  0.3599  0.0317
 7240TIP3    H121663   3.912   2.345   0.657 -0.4719  1.8801  0.8477
 7240TIP3    H221664   3.791   2.254   0.650  1.9119 -1.3328 -1.2307
 7241TIP3   OH221665   2.050   0.605   2.904  0.1753 -0.2468 -0.0254
 7241TIP3    H121666   2.118   0.537   2.903  1.2128  0.7143  0.9835
 7241TIP3    H221667   1.969   0.558   2.923  0.9519 -1.1690  1.1624
 7242TIP3   OH221668   2.906   4.263   3.194 -0.4079  0.1252  0.1902
 7242TIP3    H121669   2.882   4.243   3.284 -0.1032  0.8063  0.4303
 7242TIP3    H221670   2.964   4.192   3.168 -0.5942 -0.1383  0.4886
 7243TIP3   OH221671   0.791   7.297   1.306 -0.5721  0.1801  0.2102
 7243TIP3    H121672   0.866   7.251   1.268 -1.2677 -0.1196 -0.8720
 7243TIP3    H221673   0.813   7.390   1.298 -0.5836  0.1153 -0.7330
 7244TIP3   OH221674   3.335   6.260   2.586  0.0350 -0.0802  0.4268
 7244TIP3    H121675   3.354   6.342   2.540  2.9724 -0.5610  0.6110
 7244TIP3    H221676   3.381   6.193   2.536  0.4926 -1.0951  2.1388
 7245TIP3   OH221677   7.797   5.839   2.464  0.1197  0.2555  0.4396
 7245TIP3    H121678   7.757   5.923   2.444 -0.5137 -0.0851  0.2223
 7245TIP3    H221679   7.734   5.774   2.430  0.8661 -0.2994  0.0824
 7246TIP3   OH221680   3.105   2.310   0.778  0.3364 -0.6005  0.2145
 7246TIP3    H121681   3.114   2.356   0.861 -0.9093  0.3906 -0.1673
 7246TIP3    H221682   3.194   2.311   0.741  0.2307  2.5265 -0.2616
 7247TIP3   OH221683   0.525   4.624   2.841 -0.1739  0.1413 -0.1589
 7247TIP3    H121684   0.536   4.612   2.936 -1.7576 -0.8132 -0.0708
 7247TIP3    H221685   0.431   4.636   2.829  0.1454  1.6413 -1.4915
 7248TIP3   OH221686   0.912   1.538   1.347  0.1612  0.2202  0.4015
 7248TIP3    H121687   0.839   1.502   1.398 -1.8078  2.4275 -0.6945
 7248TIP3    H221688   0.987   1.534   1.406 -1.2041 -0.6537  2.1551
 7249TIP3   OH221689   1.222   0.686   0.069  0.1740  0.1736  0.6442
 7249TIP3    H121690   1.136   0.675   0.027 -0.1803 -0.0358  1.4080
 7249TIP3    H221691   1.249   0.598   0.093  1.3174  0.0528 -0.9317
 7250TIP3   OH221692   5.240   6.298   0.209 -0.5297 -0.2090  0.6802
 7250TIP3    H121693   5.195   6.367   0.161  2.0623  0.2216 -1.3463
 7250TIP3    H221694   5.182   6.223   0.203 -3.3886  1.6017  2.8368
 7251TIP3   OH221695   0.721   6.209   0.010 -0.0032  0.2938  0.1035
 7251TIP3    H121696   0.749   6.132  -0.039  1.0034 -1.0157  2.5753
 7251TIP3    H221697   0.798   6.233   0.062 -0.3438  2.9303 -0.4893
 7252TIP3   OH221698   2.616   7.525   1.485  0.1078  0.3137 -0.3120
 7252TIP3    H121699   2.662   7.608   1.498  1.0794 -0.4379  1.3758
 7252TIP3    H221700   2.684   7.463   1.462 -0.4916 -0.2064 -0.7099
 7253TIP3   OH221701   3.744   5.892   5.613  0.3223  0.0636  0.0854
 7253TIP3    H121702   3.802   5.873   5.688  1.0294 -2.5361 -0.9992
 7253TIP3    H221703   3.733   5.807   5.570 -0.3921  1.4000 -2.5435
 7254TIP3   OH221704   3.489   7.293   2.680 -0.6890 -0.3133 -0.9521
 7254TIP3    H121705   3.557   7.235   2.715 -1.9462 -0.4737  1.4319
 7254TIP3    H221706   3.423   7.296   2.749 -1.8186  2.0360 -2.0402
 7255TIP3   OH221707   6.926   2.660   5.309  0.1328  0.6466 -0.1256
 7255TIP3    H121708   6.852   2.671   5.250  0.0960 -1.0146 -0.4499
 7255TIP3    H221709   6.985   2.602   5.262  0.3001 -0.3744  1.2817
 7256TIP3   OH221710   0.398   5.325   2.779 -0.0330  0.4607 -0.2681
 7256TIP3    H121711   0.409   5.413   2.741 -2.2114 -0.4915 -3.4467
 7256TIP3    H221712   0.481   5.281   2.761  1.1346  1.7845  1.4691
 7257TIP3   OH221713   3.295   7.290   2.880  0.3524 -0.7478 -0.3096
 7257TIP3    H121714   3.275   7.384   2.888  0.8715 -0.6005 -0.7394
 7257TIP3    H221715   3.225   7.247   2.929 -0.4368 -0.1835 -0.9127
 7258TIP3   OH221716   6.920   0.700   5.652 -0.0498 -0.1823  0.2436
 7258TIP3    H121717   6.965   0.648   5.719  0.0807 -0.4859 -0.0712
 7258TIP3    H221718   6.832   0.661   5.647 -0.3760  0.4568  0.9082
 7259TIP3   OH221719   4.449   0.408   4.398  0.2534 -0.3356 -0.4472
 7259TIP3    H121720   4.361   0.418   4.362 -0.9566  0.4774  2.4370
 7259TIP3    H221721   4.455   0.316   4.424 -1.1011  0.2289  2.2477
 7260TIP3   OH221722   4.006   7.535   0.642 -0.2691 -0.6720 -0.4008
 7260TIP3    H121723   3.938   7.499   0.585 -1.0918  0.4851 -0.1669
 7260TIP3    H221724   4.088   7.500   0.606 -0.9047 -1.2731 -1.2947
 7261TIP3   OH221725   4.731   4.758   5.094 -0.0033 -0.3227 -0.1445
 7261TIP3    H121726   4.696   4.674   5.067  1.9911 -0.6837 -1.9528
 7261TIP3    H221727   4.685   4.822   5.039  1.3362 -0.7031 -1.8205
 7262TIP3   OH221728   2.165   1.357   5.493  0.0084 -0.4130 -0.1312
 7262TIP3    H121729   2.071   1.344   5.504 -0.5798  1.5791 -2.1483
 7262TIP3    H221730   2.181   1.447   5.522  1.0221 -0.2498 -1.1134
 7263TIP3   OH221731   8.147   0.101   0.510 -0.2356 -0.2622 -0.0756
 7263TIP3    H121732   8.159   0.127   0.602 -0.0185 -1.1170  0.1469
 7263TIP3    H221733   8.233   0.117   0.470 -0.0934 -0.6707  0.0669
 7264TIP3   OH221734   6.908   2.737   2.173  0.2920  0.2385 -0.7637
 7264TIP3    H121735   6.992   2.749   2.129  0.3272  2.1294 -0.2709
 7264TIP3    H221736   6.922   2.770   2.261 -0.6414 -0.5967 -0.2804
 7265TIP3   OH221737   2.267   2.282   1.271  0.0274 -0.2172 -0.0451
 7265TIP3    H121738   2.194   2.341   1.294 -0.4192 -0.5378 -0.6219
 7265TIP3    H221739   2.312   2.267   1.354 -0.1744  0.5070  0.2057
 7266TIP3   OH221740   5.502   4.207   0.458 -0.0117 -0.0982 -0.3134
 7266TIP3    H121741   5.481   4.157   0.537 -0.2725  0.5310  0.0298
 7266TIP3    H221742   5.493   4.298   0.486  0.2819  0.1321 -0.9705
 7267TIP3   OH221743   7.669   7.233   5.190 -0.0691  0.3466  0.4492
 7267TIP3    H121744   7.672   7.147   5.231  0.4855 -0.4384 -1.1814
 7267TIP3    H221745   7.575   7.250   5.179 -0.1882  0.0446  0.9315
 7268TIP3   OH221746   7.341   2.829   3.699 -0.4708 -0.6100  0.0168
 7268TIP3    H121747   7.389   2.808   3.779 -0.3351  0.7673  0.3117
 7268TIP3    H221748   7.290   2.750   3.680  2.5935 -2.5733 -0.8488
 7269TIP3   OH221749   3.897   1.110   1.619 -0.1223 -0.4678  0.3941
 7269TIP3    H121750   3.972   1.093   1.563 -0.1374  0.7175 -0.0039
 7269TIP3    H221751   3.935   1.143   1.701 -0.1705 -0.7774  0.5432
 7270TIP3   OH221752   7.726   0.814   6.444 -0.0621  0.0502  0.0106
 7270TIP3    H121753   7.805   0.844   6.401 -0.4614  0.5649 -0.3781
 7270TIP3    H221754   7.753   0.737   6.495  0.3912 -0.6544 -1.2676
 7271TIP3   OH221755   2.939   2.603   3.154  0.1976 -0.2060  0.0535
 7271TIP3    H121756   2.867   2.596   3.216 -1.0164  1.3953 -1.0822
 7271TIP3    H221757   2.931   2.526   3.098 -2.2024  1.0869 -1.5549
 7272TIP3   OH221758   1.997   5.513   3.877  0.6239 -0.3146 -0.4211
 7272TIP3    H121759   1.970   5.601   3.848 -1.2146 -1.0244 -0.9833
 7272TIP3    H221760   1.926   5.484   3.935  2.5317 -0.3565  2.0879
 7273TIP3   OH221761   7.216   5.400   3.014 -0.1092  0.0628 -0.5318
 7273TIP3    H121762   7.306   5.390   2.981  0.8235 -0.1159  1.8539
 7273TIP3    H221763   7.199   5.318   3.062 -1.2502  0.4314 -0.2736
 7274TIP3   OH221764   4.533   0.388   6.259  0.3169 -0.3225 -0.2784
 7274TIP3    H121765   4.446   0.420   6.283  0.7853  1.5734 -0.8743
 7274TIP3    H221766   4.591   0.462   6.277  1.3713 -0.5177 -2.5256
 7275TIP3   OH221767   1.011   2.828   6.193  0.2293  0.1682 -0.0208
 7275TIP3    H121768   0.929   2.845   6.239 -0.1698 -1.2970 -0.1575
 7275TIP3    H221769   1.043   2.746   6.230  3.1859  2.0607  2.1506
 7276TIP3   OH221770   0.864   5.336   2.565  0.1365  0.6450  0.2910
 7276TIP3    H121771   0.850   5.416   2.514  0.7638  0.3615 -0.3473
 7276TIP3    H221772   0.892   5.271   2.501 -0.4818 -0.1306  0.7834
 7277TIP3   OH221773   7.871   0.974   4.390 -0.3796  0.1476 -0.7072
 7277TIP3    H121774   7.860   1.068   4.376  1.4280  0.6470  0.7681
 7277TIP3    H221775   7.909   0.967   4.478 -0.8095 -2.0019 -0.6318
 7278TIP3   OH221776   1.422   1.789   0.455 -0.7607  0.2044  0.1356
 7278TIP3    H121777   1.480   1.834   0.516 -1.8232 -0.9272  2.1059
 7278TIP3    H221778   1.430   1.696   0.479 -0.7150 -0.3675 -1.9321
 7279TIP3   OH221779   3.638   6.452   0.395  0.1687  0.3190 -0.1490
 7279TIP3    H121780   3.553   6.469   0.435  0.0026 -0.1005 -0.3160
 7279TIP3    H221781   3.696   6.518   0.433 -0.6442  1.8436 -1.4478
 7280TIP3   OH221782   6.176   4.975   0.660  0.5933 -0.2936  0.1265
 7280TIP3    H121783   6.205   4.970   0.751  0.7046  0.4110  0.1370
 7280TIP3    H221784   6.083   4.954   0.662  0.0517  1.9348  0.7269
 7281TIP3   OH221785   3.385   1.778   0.671  0.5039  0.0553  0.0823
 7281TIP3    H121786   3.294   1.805   0.658  0.0935 -1.3648 -0.1802
 7281TIP3    H221787   3.431   1.859   0.693 -1.3465  0.4390  3.1268
 7282TIP3   OH221788   0.297   5.869   6.143  0.1877  0.1707  0.4028
 7282TIP3    H121789   0.388   5.897   6.131  0.0228  0.6254  0.1713
 7282TIP3    H221790   0.303   5.788   6.193  0.7597 -0.1713 -0.1985
 7283TIP3   OH221791   6.877   2.194   6.454 -0.2883 -0.3711  0.5149
 7283TIP3    H121792   6.830   2.202   6.371  1.3304  1.0148 -0.3305
 7283TIP3    H221793   6.960   2.152   6.431  0.7159  1.1727  1.1579
 7284TIP3   OH221794   7.696   1.868   4.895 -0.3004 -0.1862 -0.2023
 7284TIP3    H121795   7.631   1.903   4.835 -0.0764 -0.4390 -0.5955
 7284TIP3    H221796   7.677   1.910   4.979 -0.9781 -0.2686 -0.3111
 7285TIP3   OH221797   2.274   3.423   0.510  0.1326  0.3565  0.2150
 7285TIP3    H121798   2.257   3.359   0.441  0.3813  0.0439  0.4431
 7285TIP3    H221799   2.365   3.448   0.498  0.6395 -0.8208  1.3425
 7286TIP3   OH221800   2.653   0.917   1.901  0.6569  0.1666  0.2421
 7286TIP3    H121801   2.691   0.950   1.819 -0.1054 -0.0440 -0.2092
 7286TIP3    H221802   2.567   0.883   1.875  0.4758 -0.0506  1.1070
 7287TIP3   OH221803   0.900   2.768   2.102 -0.0847  0.2989 -0.4552
 7287TIP3    H121804   0.819   2.776   2.152  0.6136  1.2194  0.5828
 7287TIP3    H221805   0.922   2.858   2.077  0.9510  0.1408 -0.1547
 7288TIP3   OH221806   0.504   2.957   3.593 -0.2557 -0.2973 -0.7987
 7288TIP3    H121807   0.490   3.026   3.528  0.3471 -0.6759 -1.3405
 7288TIP3    H221808   0.509   2.876   3.542  1.1428 -0.4952 -0.4061
 7289TIP3   OH221809   4.656   2.262   3.209 -0.0929 -0.4282  0.4317
 7289TIP3    H121810   4.639   2.295   3.297  0.6917 -0.4901  0.6128
 7289TIP3    H221811   4.575   2.218   3.183 -0.2084 -0.7113  1.2548
 7290TIP3   OH221812   2.314   5.458   2.799 -0.3043 -0.5174 -0.4978
 7290TIP3    H121813   2.289   5.439   2.709  0.8255  1.0461 -1.1801
 7290TIP3    H221814   2.283   5.548   2.814 -1.7132 -1.2105  1.1630
 7291TIP3   OH221815   1.971   3.305   3.077  0.3180  0.2117  0.2620
 7291TIP3    H121816   1.931   3.388   3.103  0.6569  1.5725 -3.0782
 7291TIP3    H221817   2.065   3.319   3.091  0.1765 -0.9042  2.7688
 7292TIP3   OH221818   5.858   1.602   1.032  0.2367 -0.3317  0.1975
 7292TIP3    H121819   5.945   1.637   1.051  0.0786  0.2030 -0.0248
 7292TIP3    H221820   5.827   1.567   1.116  0.4355 -0.0093  0.4068
 7293TIP3   OH221821   5.505   3.323   4.456  0.1457 -0.0947  0.0007
 7293TIP3    H121822   5.578   3.380   4.430  1.0581 -1.8132 -1.4149
 7293TIP3    H221823   5.533   3.285   4.539  0.5373 -0.1672 -0.1597
 7294TIP3   OH221824   2.005   2.907   5.240  0.7645  0.8576 -0.6666
 7294TIP3    H121825   2.037   2.988   5.279  1.7242 -0.0453  0.4679
 7294TIP3    H221826   1.950   2.868   5.308  2.0734 -0.5021 -0.3661
 7295TIP3   OH221827   5.457   6.172   4.196  0.6288  0.2312 -0.4306
 7295TIP3    H121828   5.389   6.229   4.232  0.3021  0.3211 -1.1794
 7295TIP3    H221829   5.511   6.230   4.143 -0.3519 -0.3341 -2.0974
 7296TIP3   OH221830   1.974   4.319   1.379  0.2758  0.5784  0.2675
 7296TIP3    H121831   1.941   4.402   1.413  0.9043  1.2907 -0.8322
 7296TIP3    H221832   2.040   4.292   1.443  0.0901  0.9304  0.6136
 7297TIP3   OH221833   1.237   2.805   1.207 -0.3112 -0.3266 -0.8680
 7297TIP3    H121834   1.302   2.791   1.276 -1.1753  0.1893  0.0742
 7297TIP3    H221835   1.154   2.782   1.247 -1.0554  1.6656 -1.1314
 7298TIP3   OH221836   8.125   6.939   3.146  0.2251 -0.6412 -0.3752
 7298TIP3    H121837   8.189   6.902   3.207 -1.3812 -0.8120  1.3075
 7298TIP3    H221838   8.171   6.944   3.062  2.2609 -1.1950  0.6461
 7299TIP3   OH221839   7.317   1.807   5.261 -0.3111 -0.3605 -0.0893
 7299TIP3    H121840   7.270   1.725   5.278 -0.6837 -0.2199 -0.4347
 7299TIP3    H221841   7.356   1.796   5.174  3.0257 -1.7553  1.4032
 7300TIP3   OH221842   6.711   3.393   3.164  0.1515  0.0995  0.2276
 7300TIP3    H121843   6.723   3.488   3.156 -0.1610  0.1772  0.6320
 7300TIP3    H221844   6.794   3.355   3.136  0.6284  0.5355  1.0112
 7301TIP3   OH221845   1.827   3.296   1.015  0.2000  0.0356 -0.0226
 7301TIP3    H121846   1.828   3.373   0.959 -1.0782 -1.0506 -1.6497
 7301TIP3    H221847   1.834   3.222   0.954  0.1181 -1.1713  1.3723
 7302TIP3   OH221848   2.382   6.988   0.104  0.0395  0.1758  0.3332
 7302TIP3    H121849   2.413   7.077   0.091 -0.1394  0.0636 -0.9257
 7302TIP3    H221850   2.345   6.962   0.020  0.3885 -1.2041  0.5747
 7303TIP3   OH221851   4.748   1.187   4.040 -0.1974 -0.1797  0.2205
 7303TIP3    H121852   4.768   1.111   3.986  0.3614 -1.0012  1.5488
 7303TIP3    H221853   4.755   1.261   3.980  1.5244 -0.9542 -0.5885
 7304TIP3   OH221854   5.002   5.840   4.877  0.1347  0.2957  0.8592
 7304TIP3    H121855   5.034   5.818   4.790  1.2517 -0.1644  1.3704
 7304TIP3    H221856   4.920   5.886   4.862 -0.5089 -1.2140 -0.3633
 7305TIP3   OH221857   7.590   2.893   0.056  0.3178 -0.0138  0.7080
 7305TIP3    H121858   7.567   2.926   0.143  0.7273  0.5435  0.6096
 7305TIP3    H221859   7.676   2.932   0.037  1.2430 -1.8204  0.9557
 7306TIP3   OH221860   4.868   2.779   3.045  0.0996  0.3776 -0.7294
 7306TIP3    H121861   4.897   2.742   2.962  1.3368 -0.9787  0.2473
 7306TIP3    H221862   4.783   2.737   3.062 -0.0425  0.4763 -1.1823
 7307TIP3   OH221863   2.534   6.922   5.639 -0.3232 -0.1149  0.0608
 7307TIP3    H121864   2.461   6.932   5.578  0.7828 -2.5749 -1.8320
 7307TIP3    H221865   2.607   6.894   5.584  1.8592  1.4345  2.0084
 7308TIP3   OH221866   4.427   1.553   3.090 -0.4869 -0.0010  0.0682
 7308TIP3    H121867   4.469   1.487   3.144 -0.2678 -0.8580 -1.0943
 7308TIP3    H221868   4.497   1.616   3.070 -0.4348  0.0273  0.3442
 7309TIP3   OH221869   0.987   4.455   4.514  0.6998 -0.2207  0.5044
 7309TIP3    H121870   1.030   4.376   4.546  1.1439  0.5092  1.7743
 7309TIP3    H221871   0.951   4.430   4.429  1.3446 -1.6087  0.6151
 7310TIP3   OH221872   5.429   5.860   5.832  0.3099  0.1841  0.5075
 7310TIP3    H121873   5.505   5.893   5.785 -0.6880  0.0660 -1.2840
 7310TIP3    H221874   5.407   5.778   5.787 -0.4108 -0.1826  1.4950
 7311TIP3   OH221875   3.003   3.076   5.493 -0.3285  0.8584  0.4755
 7311TIP3    H121876   2.992   3.028   5.575  0.9874 -0.4971 -0.0902
 7311TIP3    H221877   2.915   3.084   5.458 -0.7497  0.2079  1.3529
 7312TIP3   OH221878   4.888   0.794   3.007  0.0996 -0.0112 -0.5292
 7312TIP3    H121879   4.812   0.834   3.050 -0.5398 -0.4315 -1.2321
 7312TIP3    H221880   4.852   0.754   2.928  0.8613 -1.2828 -0.2569
 7313TIP3   OH221881   3.417   0.446   0.559  0.7079 -0.2500  0.4540
 7313TIP3    H121882   3.323   0.462   0.552  0.9707  1.2566 -0.0865
 7313TIP3    H221883   3.445   0.502   0.631  1.1013 -1.2228  1.0830
 7314TIP3   OH221884   6.192   0.758   5.674 -0.0115 -0.1202  0.0272
 7314TIP3    H121885   6.111   0.790   5.714 -0.2198  1.9728 -1.8478
 7314TIP3    H221886   6.176   0.665   5.659 -2.1511  0.2485 -0.3806
 7315TIP3   OH221887   2.874   1.689   2.521 -0.1135  0.3417  0.3779
 7315TIP3    H121888   2.854   1.598   2.499  0.4488  0.1001  0.8398
 7315TIP3    H221889   2.864   1.693   2.616  4.4434 -0.5017  1.1389
 7316TIP3   OH221890   5.386   0.528   4.121  0.1160  0.9539 -0.2824
 7316TIP3    H121891   5.313   0.578   4.085  0.3328  0.2510 -1.7721
 7316TIP3    H221892   5.344   0.459   4.172 -0.2610  0.8425 -0.7325
 7317TIP3   OH221893   3.925   2.532   1.176 -0.3769  0.4165 -0.2615
 7317TIP3    H121894   4.011   2.497   1.200 -0.1491 -0.0006 -1.6386
 7317TIP3    H221895   3.944   2.621   1.145 -0.6170  0.7930  0.6371
 7318TIP3   OH221896   2.634   0.517   1.646  0.1728 -0.7867 -0.2140
 7318TIP3    H121897   2.728   0.531   1.648 -0.0226  0.4825  1.5065
 7318TIP3    H221898   2.615   0.467   1.726 -0.5989 -1.2593 -0.6721
 7319TIP3   OH221899   4.728   5.029   3.509  0.3009 -0.0754  0.4957
 7319TIP3    H121900   4.791   4.962   3.482  2.0396  1.3350  0.8357
 7319TIP3    H221901   4.686   4.993   3.587  0.9153 -0.9275  0.4481
 7320TIP3   OH221902   3.520   0.780   1.290 -0.2125 -0.2430  0.3786
 7320TIP3    H121903   3.613   0.795   1.302 -0.0171 -1.7302  0.9808
 7320TIP3    H221904   3.489   0.751   1.376 -1.7024  2.2962  0.8032
 7321TIP3   OH221905   1.795   2.698   4.139 -0.2185  0.7380  0.2364
 7321TIP3    H121906   1.716   2.663   4.097  0.4657  0.0075 -0.4586
 7321TIP3    H221907   1.824   2.768   4.081  1.1044 -0.7038 -0.9291
 7322TIP3   OH221908   1.903   3.922   0.428  0.0224  0.2219  0.0247
 7322TIP3    H121909   1.961   3.996   0.410  0.5209 -0.3513 -0.8293
 7322TIP3    H221910   1.900   3.873   0.346 -2.3823  0.6753 -0.2320
 7323TIP3   OH221911   7.427   3.998   5.743  0.2177 -0.1349 -0.3131
 7323TIP3    H121912   7.379   4.004   5.660 -0.0847 -0.3851 -0.1593
 7323TIP3    H221913   7.418   3.906   5.769 -2.6225  0.5583  1.6963
 7324TIP3   OH221914   1.158   6.532   0.628  0.1636 -0.1838 -0.2422
 7324TIP3    H121915   1.114   6.454   0.660 -0.0543 -1.1262 -2.6224
 7324TIP3    H221916   1.093   6.577   0.575  1.4539 -0.7646 -2.4973
 7325TIP3   OH221917   1.642   7.324   2.520 -0.5959  0.2273  0.2585
 7325TIP3    H121918   1.602   7.324   2.607 -1.3373 -0.3032 -0.0732
 7325TIP3    H221919   1.678   7.236   2.510 -2.5964 -0.5241 -0.8826
 7326TIP3   OH221920   6.346   1.784   0.889  0.0404 -0.5157  0.2088
 7326TIP3    H121921   6.252   1.777   0.869 -0.1271 -2.4544  1.4808
 7326TIP3    H221922   6.370   1.699   0.924  1.9503  0.4371  1.3992
 7327TIP3   OH221923   5.086   5.512   0.263  0.1574  0.1097  0.7466
 7327TIP3    H121924   5.125   5.494   0.177  0.9919  1.4653  0.8064
 7327TIP3    H221925   4.994   5.491   0.253  0.3945 -0.5125 -0.2448
 7328TIP3   OH221926   3.815   2.947   2.809  0.6830  0.3899 -0.4997
 7328TIP3    H121927   3.826   2.950   2.714 -0.0495 -0.6532 -0.6258
 7328TIP3    H221928   3.784   2.859   2.827  1.2886  0.4096  0.7699
 7329TIP3   OH221929   3.727   2.201   0.157 -0.1231 -0.0720 -0.0948
 7329TIP3    H121930   3.658   2.140   0.130  1.1781 -1.2975 -0.7949
 7329TIP3    H221931   3.750   2.172   0.246 -1.1494  0.9770  0.5529
 7330TIP3   OH221932   6.037   0.737   5.068  0.0908 -0.1371 -0.2903
 7330TIP3    H121933   6.043   0.641   5.070  1.4587 -0.0739 -0.5789
 7330TIP3    H221934   6.040   0.763   5.160  0.5695 -0.3268 -0.2536
 7331TIP3   OH221935   0.379   4.811   0.775  0.4935 -0.8713  0.4601
 7331TIP3    H121936   0.329   4.760   0.711  0.7594  0.2079 -0.6428
 7331TIP3    H221937   0.428   4.874   0.722 -0.2393  0.9022  1.8050
 7332TIP3   OH221938   5.551   1.464   1.867  0.2486 -0.6015  0.0924
 7332TIP3    H121939   5.576   1.538   1.811 -0.8684 -0.3953 -0.1520
 7332TIP3    H221940   5.558   1.387   1.810 -0.0242 -0.4972 -0.0867
 7333TIP3   OH221941   6.587   1.323   2.685  0.3330  0.5375  0.1096
 7333TIP3    H121942   6.535   1.244   2.699  1.8672 -0.3925  0.8300
 7333TIP3    H221943   6.558   1.356   2.600 -1.1007 -0.1692  0.2872
 7334TIP3   OH221944   1.111   0.605   2.721 -0.4243 -0.0524 -0.0538
 7334TIP3    H121945   1.040   0.579   2.663 -1.8741 -0.7467  1.9231
 7334TIP3    H221946   1.133   0.695   2.695 -0.6247 -0.5384 -1.9905
 7335TIP3   OH221947   7.728   4.394   2.912  0.5204 -0.4085  0.6010
 7335TIP3    H121948   7.813   4.414   2.951  0.3472  0.0973  0.7270
 7335TIP3    H221949   7.664   4.430   2.974  0.2464  0.7307 -0.3098
 7336TIP3   OH221950   3.935   1.601   6.059 -0.3390  0.1403  0.3296
 7336TIP3    H121951   3.972   1.544   6.126  1.0672  0.1219 -0.4247
 7336TIP3    H221952   3.987   1.583   5.981  0.6895  2.9610  0.2490
 7337TIP3   OH221953   6.937   6.801   2.077  0.3665  0.0430  0.2175
 7337TIP3    H121954   7.004   6.762   2.020 -0.6654 -0.3691 -0.7564
 7337TIP3    H221955   6.970   6.889   2.095  0.3926  0.4565 -1.6412
 7338TIP3   OH221956   5.934   0.904   4.296  0.2269 -0.0692 -0.3467
 7338TIP3    H121957   5.935   0.923   4.202 -2.4098  1.4760 -0.1636
 7338TIP3    H221958   5.853   0.854   4.310 -1.0630  2.2720  1.4124
 7339TIP3   OH221959   2.831   6.745   0.653 -0.7694  0.7281  0.0195
 7339TIP3    H121960   2.760   6.681   0.651 -0.6828  0.5544  1.3454
 7339TIP3    H221961   2.854   6.751   0.746  1.7265 -0.0846 -0.4745
 7340TIP3   OH221962   5.397   2.869   5.635 -0.1480  0.1229 -0.5684
 7340TIP3    H121963   5.352   2.845   5.554 -0.7418 -0.3630 -0.0964
 7340TIP3    H221964   5.438   2.953   5.615 -2.9194  1.6019 -0.3891
 7341TIP3   OH221965   7.927   5.471   5.542 -0.4762 -0.4947 -0.2581
 7341TIP3    H121966   7.928   5.403   5.475  0.5485 -1.3861  0.6224
 7341TIP3    H221967   8.008   5.457   5.592 -0.9050  0.5315  0.7806
 7342TIP3   OH221968   1.294   1.364   0.638 -0.3007  0.1319  0.2149
 7342TIP3    H121969   1.235   1.303   0.593  0.2456  0.2041 -0.6233
 7342TIP3    H221970   1.328   1.314   0.712  1.0054 -0.9973 -1.0823
 7343TIP3   OH221971   4.240   1.850   2.876  0.2408  0.5164  0.4408
 7343TIP3    H121972   4.316   1.887   2.832  0.9424 -1.4389 -0.1312
 7343TIP3    H221973   4.259   1.859   2.969  0.9335  0.5143  0.3019
 7344TIP3   OH221974   2.927   1.037   6.193 -0.5234  0.3520  0.1488
 7344TIP3    H121975   2.930   0.969   6.261 -1.4046 -1.5668 -1.5973
 7344TIP3    H221976   2.914   0.988   6.112  2.5222  2.3291 -1.7438
 7345TIP3   OH221977   6.515   3.328   2.701 -0.1928 -0.1137 -0.4073
 7345TIP3    H121978   6.501   3.421   2.719 -0.6435 -0.3266  0.3819
 7345TIP3    H221979   6.505   3.321   2.606 -0.2192  0.6275 -0.4711
 7346TIP3   OH221980   6.148   3.057   0.251  0.2478 -0.2720 -0.2201
 7346TIP3    H121981   6.184   3.144   0.234 -0.8114  0.3894  0.7831
 7346TIP3    H221982   6.201   2.998   0.197  1.5521  0.8780 -0.2484
 7347TIP3   OH221983   3.387   0.389   3.304  0.0131  0.1173  0.1838
 7347TIP3    H121984   3.431   0.435   3.233 -1.6736  1.0341 -0.3036
 7347TIP3    H221985   3.455   0.378   3.371  1.3496  0.1738 -1.1158
 7348TIP3   OH221986   7.726   0.903   1.175 -0.5022  0.6404 -0.1840
 7348TIP3    H121987   7.792   0.911   1.105 -0.0842 -0.7424  0.0294
 7348TIP3    H221988   7.653   0.857   1.133 -0.2735 -0.1386  0.2499
 7349TIP3   OH221989   5.061   4.531   5.181 -0.5230  0.8108 -0.2937
 7349TIP3    H121990   4.995   4.467   5.208 -0.6639  0.4149 -1.5171
 7349TIP3    H221991   5.015   4.615   5.183 -1.4446  0.4002 -2.2562
 7350TIP3   OH221992   0.705   3.870   3.263  0.3319  0.6094  0.0190
 7350TIP3    H121993   0.658   3.816   3.326  1.0811 -0.7648 -0.5553
 7350TIP3    H221994   0.717   3.814   3.186  0.6234  1.7891 -0.8373
 7351TIP3   OH221995   3.893   5.633   2.063  0.7649  1.0128 -0.4143
 7351TIP3    H121996   3.971   5.683   2.086  0.4484  1.6916 -0.7984
 7351TIP3    H221997   3.824   5.698   2.053  0.2801  0.4779 -0.6536
 7352TIP3   OH221998   7.411   3.896   1.879  0.3318  0.1322 -0.4219
 7352TIP3    H121999   7.407   3.979   1.831 -1.2844  1.0905  1.2233
 7352TIP3    H222000   7.319   3.872   1.892  0.7755 -1.4203 -0.0326
 7353TIP3   OH222001   3.973   6.044   0.787  1.0482 -0.3155 -0.1838
 7353TIP3    H122002   3.968   6.129   0.744  0.1919 -1.1990 -1.9436
 7353TIP3    H222003   4.005   5.984   0.719 -0.3869 -1.7762  0.3611
 7354TIP3   OH222004   0.025   0.295   5.060  0.9489  0.2412  0.4124
 7354TIP3    H122005  -0.006   0.381   5.032  1.8849  0.5158  0.1532
 7354TIP3    H222006  -0.000   0.235   4.989 -0.4309  0.1377  0.9748
 7355TIP3   OH222007   7.018   1.910   5.888  0.6903  0.0153  0.3481
 7355TIP3    H122008   6.994   1.915   5.981 -0.7496  1.2929 -0.0478
 7355TIP3    H222009   6.985   1.825   5.859  3.9600 -1.8682  1.6739
 7356TIP3   OH222010   2.648   2.219   1.147 -0.2610  0.1230  0.6752
 7356TIP3    H122011   2.694   2.195   1.066 -0.5678 -2.2518  1.1495
 7356TIP3    H222012   2.576   2.275   1.117  0.4282  0.4060 -0.5316
 7357TIP3   OH222013   0.984   0.195   1.301 -0.2066 -0.7807  0.7747
 7357TIP3    H122014   1.034   0.136   1.357  0.3489 -1.0489  0.0151
 7357TIP3    H222015   1.049   0.251   1.260 -0.4201 -1.6365 -0.8139
 7358TIP3   OH222016   3.556   5.929   3.089  0.0561  0.1701 -0.0623
 7358TIP3    H122017   3.567   6.021   3.066  0.9100 -0.0125 -0.4240
 7358TIP3    H222018   3.578   5.925   3.182 -1.4764  0.5770  0.3415
 7359TIP3   OH222019   5.911   1.478   2.546  0.4489  0.0088  0.2694
 7359TIP3    H122020   5.950   1.564   2.561 -0.0159  0.3574 -0.5052
 7359TIP3    H222021   5.960   1.420   2.605  2.3914  0.3488 -0.9148
 7360TIP3   OH222022   1.429   5.553   0.317  0.1027 -0.3274 -0.2262
 7360TIP3    H122023   1.418   5.532   0.410 -0.7792 -1.3858 -0.5520
 7360TIP3    H222024   1.348   5.525   0.276  1.3891 -2.2477 -1.6912
 7361TIP3   OH222025   3.235   6.668   3.107  0.4036 -0.4298  0.0632
 7361TIP3    H122026   3.236   6.681   3.202 -1.0114 -2.8308  0.4739
 7361TIP3    H222027   3.279   6.584   3.094  0.1444 -0.3694 -1.3671
 7362TIP3   OH222028   6.154   5.769   4.747 -0.2607 -0.3994 -0.2530
 7362TIP3    H122029   6.093   5.710   4.702  1.9298 -0.0335 -4.1504
 7362TIP3    H222030   6.112   5.855   4.742  0.0209 -0.3299 -1.9567
 7363TIP3   OH222031   1.970   5.980   0.056  0.3456  0.2289  0.0939
 7363TIP3    H122032   2.010   6.047   0.111  2.0577 -0.7556  0.1173
 7363TIP3    H222033   1.983   6.011  -0.034 -2.2748  1.7383  0.1246
 7364TIP3   OH222034   3.723   6.372   5.394 -0.0977  0.2978  0.2834
 7364TIP3    H122035   3.732   6.279   5.370 -2.4392  0.2422 -0.6308
 7364TIP3    H222036   3.812   6.400   5.416  0.5419 -2.4333  1.6500
 7365TIP3   OH222037   3.972   2.137   2.071  0.2059 -0.2647 -0.7173
 7365TIP3    H122038   4.025   2.204   2.114 -0.3880 -0.2575  0.0101
 7365TIP3    H222039   4.037   2.081   2.027  1.0480 -1.4561  1.8288
 7366TIP3   OH222040   7.701   6.745   5.898  0.4621 -0.2017 -0.3595
 7366TIP3    H122041   7.706   6.758   5.993  0.6305  1.0278 -0.5269
 7366TIP3    H222042   7.612   6.773   5.875  1.4345  2.6748 -0.9913
 7367TIP3   OH222043   2.447   5.426   5.578 -0.1174  0.2737 -0.4136
 7367TIP3    H122044   2.506   5.375   5.633 -0.0339  1.1682  0.3652
 7367TIP3    H222045   2.480   5.415   5.489  0.2902 -0.4736 -0.1733
 7368TIP3   OH222046   1.992   0.580   3.444 -0.3846 -0.4332  0.0376
 7368TIP3    H122047   2.003   0.665   3.485 -1.7798  0.4651 -1.3696
 7368TIP3    H222048   2.077   0.562   3.403  0.7248 -0.9118  2.3672
 7369TIP3   OH222049   1.416   6.849   5.625  0.2528 -0.0555 -0.4135
 7369TIP3    H122050   1.509   6.868   5.636  0.1168 -0.6450  2.5447
 7369TIP3    H222051   1.388   6.813   5.709 -2.1547 -2.0970 -1.9016
 7370TIP3   OH222052   3.062   1.850   2.622  0.1111 -0.0982 -0.2343
 7370TIP3    H122053   3.002   1.923   2.640 -0.5532 -1.0126  1.5391
 7370TIP3    H222054   3.012   1.792   2.564  0.4883  0.6424 -1.3158
 7371TIP3   OH222055   7.865   0.257   5.794  0.6666 -0.0157 -0.4732
 7371TIP3    H122056   7.854   0.195   5.722 -0.2342  0.4078 -0.7186
 7371TIP3    H222057   7.776   0.269   5.828  1.0607 -0.0996  0.6174
 7372TIP3   OH222058   2.551   7.124   5.284 -0.1548  0.0449 -0.7018
 7372TIP3    H122059   2.624   7.153   5.229  0.2198  2.4907  0.9096
 7372TIP3    H222060   2.473   7.160   5.241  0.2132  2.7802  0.6790
 7373TIP3   OH222061   3.403   6.378   5.082 -0.4512 -0.0288  0.4682
 7373TIP3    H122062   3.413   6.379   5.177 -0.3784  3.1826  0.5482
 7373TIP3    H222063   3.309   6.388   5.067 -0.2221  2.8553  0.3707
 7374TIP3   OH222064   2.283   4.520   3.809  0.0649 -0.4237 -0.7409
 7374TIP3    H122065   2.331   4.572   3.873  0.3584 -0.5096 -0.8841
 7374TIP3    H222066   2.241   4.584   3.752 -1.3859 -0.3311  0.3762
 7375TIP3   OH222067   0.623   1.116   2.758 -0.3568 -0.3794 -0.9528
 7375TIP3    H122068   0.557   1.166   2.806  1.5224  0.3665  1.0133
 7375TIP3    H222069   0.593   1.118   2.667 -2.2919  1.0931 -0.3546
 7376TIP3   OH222070   3.559   7.376   3.168  0.3127  0.1390 -0.1369
 7376TIP3    H122071   3.588   7.297   3.123 -2.6123  0.5552 -3.1631
 7376TIP3    H222072   3.603   7.448   3.122 -1.7851  0.5048 -1.7172
 7377TIP3   OH222073   6.866   0.771   3.649  0.2007 -0.8223  0.7582
 7377TIP3    H122074   6.843   0.748   3.739 -1.1862  0.0676  0.6670
 7377TIP3    H222075   6.829   0.859   3.637 -1.0851 -1.5526 -1.1711
 7378TIP3   OH222076   6.296   7.747   3.154 -0.3956 -0.0291  0.2614
 7378TIP3    H122077   6.214   7.727   3.109 -0.2064 -1.4699  0.5096
 7378TIP3    H222078   6.303   7.680   3.222  0.6772  0.4573  0.6557
 7379TIP3   OH222079   4.394   1.562   6.012  0.0405  0.1474  0.5429
 7379TIP3    H122080   4.415   1.531   6.100  0.4829  1.2188  0.8333
 7379TIP3    H222081   4.322   1.623   6.025 -0.5054 -0.3805  0.0397
 7380TIP3   OH222082   6.945   6.466   2.932 -0.1766 -0.0376 -0.3326
 7380TIP3    H122083   6.945   6.429   3.020 -0.6222  0.6309 -0.0423
 7380TIP3    H222084   6.853   6.476   2.910 -0.0680 -0.0900 -0.8346
 7381TIP3   OH222085   5.060   1.381   0.835  0.6004  0.0458 -0.2743
 7381TIP3    H122086   5.007   1.396   0.757 -0.8525  0.0800  0.6808
 7381TIP3    H222087   5.049   1.460   0.887 -0.3785 -0.8701  1.0053
 7382TIP3   OH222088   2.493   3.958   3.738  0.4274  0.2452  0.1998
 7382TIP3    H122089   2.445   3.995   3.664  2.3501  0.2259 -1.1062
 7382TIP3    H222090   2.478   4.020   3.809 -0.4894  0.8881 -0.5244
 7383TIP3   OH222091   3.635   3.133   3.808 -0.2799  0.6886 -0.3544
 7383TIP3    H122092   3.699   3.062   3.805 -0.4888  0.4744  0.1210
 7383TIP3    H222093   3.651   3.184   3.729 -1.1612 -0.8035 -1.5422
 7384TIP3   OH222094   1.575   0.073   6.452 -0.4480 -0.1464 -0.3802
 7384TIP3    H122095   1.561   0.167   6.460 -2.1819 -0.5607  3.1141
 7384TIP3    H222096   1.670   0.064   6.442 -0.3850  1.9518 -2.5025
 7385TIP3   OH222097   5.410   6.624   0.899 -0.4590 -0.3335 -0.2412
 7385TIP3    H122098   5.344   6.680   0.941  1.8446  2.0099  0.5032
 7385TIP3    H222099   5.395   6.537   0.935 -1.0926  0.7958  2.4138
 7386TIP3   OH222100   5.625   5.733   6.303  0.0087  0.8995 -0.1337
 7386TIP3    H122101   5.635   5.703   6.213 -1.1932  0.9594 -0.2950
 7386TIP3    H222102   5.536   5.767   6.308 -0.2867 -0.0144  1.3435
 7387TIP3   OH222103   6.670   2.954   0.665 -0.1084  0.7340 -0.0816
 7387TIP3    H122104   6.701   2.992   0.747  1.3124 -0.6119  0.0382
 7387TIP3    H222105   6.742   2.969   0.603 -0.6122  0.5321 -0.7269
 7388TIP3   OH222106   8.296   3.203   4.949  0.5529 -0.2272  0.0379
 7388TIP3    H122107   8.340   3.234   5.028 -1.0506 -0.0314  0.8963
 7388TIP3    H222108   8.208   3.178   4.979 -0.2379  0.2608 -1.7452
 7389TIP3   OH222109   4.391   3.741   2.916 -0.0211  0.1902  0.5581
 7389TIP3    H122110   4.323   3.768   2.978 -0.0160 -2.5478  1.9394
 7389TIP3    H222111   4.368   3.651   2.894  2.6025 -0.5025  0.3330
 7390TIP3   OH222112   1.169   0.668   3.155  0.4258  0.6925 -0.0222
 7390TIP3    H122113   1.146   0.739   3.215 -1.8478  1.0504 -1.2166
 7390TIP3    H222114   1.085   0.629   3.130  1.4508 -0.8404 -1.3090
 7391TIP3   OH222115   7.894   1.265   6.334  0.1218 -0.1689 -0.3930
 7391TIP3    H122116   7.898   1.232   6.424 -0.1317 -0.8765 -0.6322
 7391TIP3    H222117   7.982   1.249   6.299  0.8320  1.9221  0.3306
 7392TIP3   OH222118   4.154   5.074   0.888  0.3886 -0.7561  0.2068
 7392TIP3    H122119   4.076   5.122   0.916  1.0828  0.2568  0.4464
 7392TIP3    H222120   4.226   5.135   0.904  1.2725 -1.8225  0.3397
 7393TIP3   OH222121   1.023   5.042   0.936  0.1179  0.1782  0.2599
 7393TIP3    H122122   0.971   4.963   0.952  1.6695 -1.7515 -3.0453
 7393TIP3    H222123   0.958   5.109   0.915 -1.2266 -1.3631 -0.8418
 7394TIP3   OH222124   2.489   0.092   2.963 -0.6278 -0.2915  0.3268
 7394TIP3    H122125   2.558   0.158   2.956 -1.8983  1.0490 -0.0061
 7394TIP3    H222126   2.501   0.036   2.887  0.3550 -0.3476  0.5117
 7395TIP3   OH222127   1.283   5.784   3.247  0.3036 -0.1998 -0.3856
 7395TIP3    H122128   1.262   5.718   3.313 -1.3047 -0.0156 -0.6550
 7395TIP3    H222129   1.377   5.798   3.255  0.6157 -2.2526 -0.0974
 7396TIP3   OH222130   4.111   2.313   0.710  0.4073  0.5868  0.1888
 7396TIP3    H122131   4.100   2.218   0.704 -0.4464  0.5967  1.4283
 7396TIP3    H222132   4.169   2.335   0.637  1.3498 -1.0041  0.4308
 7397TIP3   OH222133   5.755   1.189   6.374 -0.2960 -0.5650 -0.0549
 7397TIP3    H122134   5.678   1.139   6.400  0.5500 -0.8676  2.0653
 7397TIP3    H222135   5.762   1.175   6.279 -0.1884 -4.4203  0.3489
 7398TIP3   OH222136   0.860   7.297   6.303 -0.4845  0.0016  0.3282
 7398TIP3    H122137   0.871   7.328   6.213 -0.7348 -0.7185  0.0353
 7398TIP3    H222138   0.784   7.343   6.336 -2.3592 -1.9705 -0.9140
 7399TIP3   OH222139   1.859   7.079   5.612  0.7727 -0.0713  0.4377
 7399TIP3    H122140   1.848   7.165   5.571  1.0138 -0.5228 -0.6097
 7399TIP3    H222141   1.779   7.031   5.589  0.9008 -0.3231  0.5142
 7400TIP3   OH222142   8.071   1.509   2.257 -0.4005  0.7653  0.3356
 7400TIP3    H122143   8.106   1.518   2.345 -0.5468  0.5380  0.4197
 7400TIP3    H222144   8.020   1.589   2.242 -0.1277  0.9421  0.3392
 7401TIP3   OH222145   7.169   6.618   1.650 -0.4771 -0.1178  0.1645
 7401TIP3    H122146   7.200   6.529   1.643  1.7947  0.6041  0.4146
 7401TIP3    H222147   7.145   6.628   1.743 -0.4145 -0.3626  0.2065
 7402TIP3   OH222148   1.395   2.548   0.634  0.4924  0.1441  0.0887
 7402TIP3    H122149   1.303   2.539   0.659  0.5994  1.5029  1.0686
 7402TIP3    H222150   1.394   2.544   0.538 -0.8777  2.2065 -0.0415
 7403TIP3   OH222151   3.804   6.648   0.207 -0.3258  0.3217  0.4869
 7403TIP3    H122152   3.852   6.709   0.150 -0.3956  0.4928  0.6110
 7403TIP3    H222153   3.836   6.561   0.181  0.3055  0.4520  0.7944
 7404TIP3   OH222154   2.490   4.336   2.341  0.5157  0.6084 -0.0431
 7404TIP3    H122155   2.548   4.401   2.380 -0.8368  1.2567  0.9766
 7404TIP3    H222156   2.487   4.265   2.405 -1.4960  1.5559  1.0117
 7405TIP3   OH222157   6.435   5.949   4.491 -0.4252  0.1846  0.3080
 7405TIP3    H122158   6.416   5.856   4.502  1.8255 -0.6703 -1.9992
 7405TIP3    H222159   6.486   5.972   4.569 -0.4955 -0.6564  0.6154
 7406TIP3   OH222160   5.582   4.765   1.367  1.0915  0.3371 -0.1070
 7406TIP3    H122161   5.635   4.686   1.382  1.3131  0.8732  2.2586
 7406TIP3    H222162   5.493   4.731   1.355  0.9927 -0.2560  2.0022
 7407TIP3   OH222163   4.428   2.477   0.269  0.2775  0.3207  0.0997
 7407TIP3    H122164   4.359   2.491   0.204 -0.4947 -0.5907  0.6867
 7407TIP3    H222165   4.462   2.390   0.249  0.7654  0.4730  0.2584
 7408TIP3   OH222166   7.665   2.682   6.387  0.5342 -0.4229 -0.8861
 7408TIP3    H122167   7.576   2.652   6.406  0.9652 -1.2964 -0.2016
 7408TIP3    H222168   7.677   2.757   6.445  0.7471 -1.1972  0.1016
 7409TIP3   OH222169   0.545   7.658   1.801 -0.6471  0.1314  0.4019
 7409TIP3    H122170   0.533   7.566   1.826 -1.3659  0.9824  3.7564
 7409TIP3    H222171   0.640   7.668   1.790 -0.4223 -0.7442  1.3800
 7410TIP3   OH222172   4.971   3.826   5.351 -0.0749 -0.6344 -0.1270
 7410TIP3    H122173   5.065   3.833   5.340  0.0457  0.5991  1.2934
 7410TIP3    H222174   4.951   3.884   5.425 -2.2160  0.8800 -1.7345
 7411TIP3   OH222175   4.674   5.392   3.132  0.0681  0.4200 -0.0143
 7411TIP3    H122176   4.692   5.366   3.223  2.6183  2.2406  0.1240
 7411TIP3    H222177   4.742   5.348   3.081  0.6697  1.9036 -0.5453
 7412TIP3   OH222178   4.779   1.281   2.261  0.4349 -0.0887 -0.1093
 7412TIP3    H122179   4.776   1.200   2.209  2.7538 -0.2084 -0.1265
 7412TIP3    H222180   4.739   1.347   2.204  2.4188 -0.3298 -1.8936
 7413TIP3   OH222181   7.358   0.870   2.061  0.0747 -0.2718  0.5556
 7413TIP3    H122182   7.278   0.860   2.113  1.0938 -0.1562  2.2022
 7413TIP3    H222183   7.429   0.851   2.122  1.3540  0.4545 -0.6518
 7414TIP3   OH222184   0.392   5.806   2.972  0.5080 -0.4468 -0.2597
 7414TIP3    H122185   0.468   5.857   2.943  0.7788 -0.3573  0.5794
 7414TIP3    H222186   0.371   5.750   2.897  0.0360  1.0698 -1.3248
 7415TIP3   OH222187   6.982   4.232   3.880 -0.5593  0.1782  0.4394
 7415TIP3    H122188   7.057   4.290   3.880 -1.8116  1.8738  0.7473
 7415TIP3    H222189   6.943   4.242   3.967 -2.0654  0.6142 -0.2460
 7416TIP3   OH222190   7.279   1.886   2.510 -0.4687 -0.5903 -0.0298
 7416TIP3    H122191   7.229   1.806   2.498 -0.1854 -0.7497 -0.1575
 7416TIP3    H222192   7.217   1.948   2.548 -0.2366 -1.4272  1.8196
 7417TIP3   OH222193   3.156   2.778   3.841 -0.0927 -0.1903 -0.0975
 7417TIP3    H122194   3.084   2.734   3.886  1.6038 -0.6716  2.3496
 7417TIP3    H222195   3.218   2.709   3.821 -0.0503  0.2890 -1.7645
 7418TIP3   OH222196   4.752   7.804   0.680 -0.4456 -0.2871  0.4179
 7418TIP3    H122197   4.786   7.781   0.594  0.5295  1.6208  0.2526
 7418TIP3    H222198   4.786   7.735   0.738  0.5951 -0.4857 -0.3897
 7419TIP3   OH222199   4.786   6.402   0.097  1.0694  0.0587  0.3375
 7419TIP3    H122200   4.760   6.462   0.027  2.2946  1.0048  0.6559
 7419TIP3    H222201   4.770   6.450   0.178 -0.3308 -1.0309  0.7477
 7420TIP3   OH222202   4.490   2.613   0.659 -0.8575 -0.0905  0.0955
 7420TIP3    H122203   4.403   2.645   0.636  0.6884  2.7228 -2.6088
 7420TIP3    H222204   4.526   2.579   0.578 -0.0217 -3.0914  1.5712
 7421TIP3   OH222205   6.880   1.013   2.863  0.2146 -0.1391 -0.3929
 7421TIP3    H122206   6.842   0.940   2.912  1.5058 -1.0280 -0.6502
 7421TIP3    H222207   6.832   1.015   2.780 -1.1983  0.6345  0.4069
 7422TIP3   OH222208   2.826   2.587   4.507 -0.4011 -0.2371  0.0170
 7422TIP3    H122209   2.824   2.592   4.411 -0.1629  0.8661  0.0526
 7422TIP3    H222210   2.736   2.604   4.533 -0.3027  0.3224  0.0082
 7423TIP3   OH222211   1.105   7.506   1.692  0.0547  0.4532 -0.1758
 7423TIP3    H122212   1.049   7.502   1.614  0.9863  2.3941 -1.0048
 7423TIP3    H222213   1.053   7.554   1.756  0.2252  0.9925 -0.4432
 7424TIP3   OH222214   7.419   4.453   0.693 -0.0430  0.2956  0.0168
 7424TIP3    H122215   7.361   4.479   0.765  0.4270  0.1926  0.4456
 7424TIP3    H222216   7.369   4.470   0.614 -0.4023  0.8446  0.3540
 7425TIP3   OH222217   4.604   6.779   6.336 -0.0340  0.5307 -0.1209
 7425TIP3    H122218   4.601   6.874   6.347 -2.8788  0.5999 -0.6034
 7425TIP3    H222219   4.602   6.766   6.241  0.4382 -0.0128 -0.0591
 7426TIP3   OH222220   4.037   3.371   5.478  0.2714  0.0598  0.0840
 7426TIP3    H122221   4.023   3.439   5.412  0.0823  0.1802  0.2459
 7426TIP3    H222222   4.129   3.347   5.468  0.0091 -0.6304 -0.9017
 7427TIP3   OH222223   7.934   7.689   4.493 -0.3244 -0.1074  0.0250
 7427TIP3    H122224   7.901   7.624   4.431 -0.2283  0.0918 -0.2365
 7427TIP3    H222225   7.960   7.764   4.438  1.0561 -0.4560  0.1690
 7428TIP3   OH222226   2.570   5.879   2.118 -0.0514 -0.2201  0.1418
 7428TIP3    H122227   2.537   5.945   2.058  0.4396  0.8252  0.9847
 7428TIP3    H222228   2.503   5.810   2.117 -1.1236  0.7866  0.0727
 7429TIP3   OH222229   2.526   1.299   1.068 -0.3532  0.4736 -0.3805
 7429TIP3    H122230   2.524   1.394   1.080  1.5681  0.3686  1.2993
 7429TIP3    H222231   2.608   1.283   1.022 -0.9271 -0.3586 -1.1420
 7430TIP3   OH222232   7.712   2.004   4.446 -0.5990 -0.0317  0.3489
 7430TIP3    H122233   7.732   2.085   4.493 -0.4365 -0.1408  0.4725
 7430TIP3    H222234   7.711   2.028   4.354  2.6708 -0.4716  0.0803
 7431TIP3   OH222235   5.222   6.218   2.009  0.0954 -0.2344  0.2259
 7431TIP3    H122236   5.212   6.312   2.022  1.5896  0.0882 -0.6259
 7431TIP3    H222237   5.209   6.180   2.095  1.1475  0.9347  0.9340
 7432TIP3   OH222238   4.845   2.560   5.933 -0.2133  0.0862  0.2350
 7432TIP3    H122239   4.917   2.499   5.948 -0.2955  0.2708  1.5064
 7432TIP3    H222240   4.766   2.510   5.955 -0.2105  0.9498  2.5186
 7433TIP3   OH222241   2.192   3.105   6.414  0.0609  0.0006 -0.3742
 7433TIP3    H122242   2.135   3.048   6.467  0.9757  0.1840  0.8519
 7433TIP3    H222243   2.250   3.046   6.368 -1.3670 -0.2195 -2.0091
 7434TIP3   OH222244   3.802   1.069   3.237 -0.6531 -0.1321 -0.0846
 7434TIP3    H122245   3.709   1.078   3.258 -0.5199 -0.7704  0.8434
 7434TIP3    H222246   3.847   1.080   3.321 -0.0600 -2.3664 -0.0639
 7435TIP3   OH222247   8.117   5.839   6.382  0.3704  0.0886 -0.5968
 7435TIP3    H122248   8.113   5.933   6.366  1.0363  0.2652  0.2164
 7435TIP3    H222249   8.209   5.816   6.366  0.9489  0.1580  2.1098
 7436TIP3   OH222250   7.205   4.487   2.291 -0.2548 -0.4408 -0.2647
 7436TIP3    H122251   7.249   4.475   2.375  2.6798  1.9010 -1.2964
 7436TIP3    H222252   7.164   4.573   2.297  0.0860 -0.2005 -1.2555
 7437TIP3   OH222253   2.186   3.533   6.529  0.4425  0.4424  0.1593
 7437TIP3    H122254   2.199   3.459   6.469 -0.2086 -1.0603  1.7645
 7437TIP3    H222255   2.128   3.593   6.482 -2.9535 -2.3131  0.4346
 7438TIP3   OH222256   1.495   7.642   3.515  0.8618  0.2040  0.3303
 7438TIP3    H122257   1.465   7.726   3.549  0.0409 -0.1243  0.4406
 7438TIP3    H222258   1.469   7.642   3.423  0.3266 -0.1706  0.4785
 7439TIP3   OH222259   2.420   4.534   2.694  0.1002 -0.4804  0.3869
 7439TIP3    H122260   2.434   4.451   2.649  0.0791  0.5137 -1.5461
 7439TIP3    H222261   2.502   4.551   2.741  0.0559 -1.6251  0.9102
 7440TIP3   OH222262   3.278   4.466   2.339 -0.1266 -0.2817 -0.7386
 7440TIP3    H122263   3.321   4.499   2.261 -0.7857  1.4577 -0.4214
 7440TIP3    H222264   3.339   4.485   2.410 -0.3540 -0.0699 -0.5974
 7441TIP3   OH222265   3.763   7.515   1.484 -0.0202 -0.6095 -0.1873
 7441TIP3    H122266   3.753   7.550   1.395 -0.7998 -0.8287 -0.1854
 7441TIP3    H222267   3.851   7.477   1.484 -0.6310 -2.1231 -1.3917
 7442TIP3   OH222268   2.491   2.078   4.317 -0.1659 -0.4222 -0.3229
 7442TIP3    H122269   2.567   2.123   4.355 -0.5957  3.4984 -3.3842
 7442TIP3    H222270   2.415   2.118   4.360 -0.5647 -1.0922 -0.3859
 7443TIP3   OH222271   0.736   4.403   6.102 -0.4311 -0.4630 -0.2480
 7443TIP3    H122272   0.806   4.361   6.052 -0.3965 -0.4010 -0.2512
 7443TIP3    H222273   0.761   4.390   6.193  0.7028  1.4483 -0.2477
 7444TIP3   OH222274   7.797   1.428   4.664  0.4884  0.0572  0.2459
 7444TIP3    H122275   7.790   1.445   4.758  0.4812 -2.2899  0.7446
 7444TIP3    H222276   7.832   1.339   4.659 -4.1127 -1.9570 -1.8484
 7445TIP3   OH222277   7.803   4.107   0.567  0.2286 -0.0630 -0.6369
 7445TIP3    H122278   7.731   4.044   0.565  0.6803 -0.7706  1.7433
 7445TIP3    H222279   7.768   4.181   0.617  0.7270  0.1908 -0.6606
 7446TIP3   OH222280   3.688   7.725   2.913 -0.4967  0.0761  0.4529
 7446TIP3    H122281   3.711   7.788   2.980  1.7000 -0.0735 -0.0656
 7446TIP3    H222282   3.725   7.642   2.945 -0.5931 -0.2675 -0.3019
 7447TIP3   OH222283   4.165   5.466   2.433  0.9134 -0.0372 -0.0438
 7447TIP3    H122284   4.250   5.492   2.467  1.0109  1.6810 -1.4585
 7447TIP3    H222285   4.154   5.518   2.354 -1.0930 -0.8438 -0.3538
 7448TIP3   OH222286   3.279   2.890   4.571 -0.0239  0.2401 -0.1620
 7448TIP3    H122287   3.229   2.856   4.645  0.5276 -1.0225 -0.3500
 7448TIP3    H222288   3.214   2.900   4.501 -0.2501 -0.1892 -0.0193
 7449TIP3   OH222289   7.953   1.467   1.144 -0.9577 -0.0423 -0.1656
 7449TIP3    H122290   7.889   1.538   1.139 -0.2680  0.7192  1.2267
 7449TIP3    H222291   8.038   1.511   1.135 -0.5773 -1.0743 -2.3852
 7450TIP3   OH222292   2.858   4.510   5.544 -0.6271 -0.4125 -0.2743
 7450TIP3    H122293   2.930   4.537   5.487  0.4052 -1.4030  0.4902
 7450TIP3    H222294   2.882   4.545   5.630 -0.5566 -1.5315  0.1846
 7451TIP3   OH222295   1.368   5.932   5.133  0.2428  0.1387  0.4288
 7451TIP3    H122296   1.291   5.987   5.118  0.8936  0.8777 -0.2997
 7451TIP3    H222297   1.368   5.869   5.062 -0.3860 -0.6945  1.1472
 7452TIP3   OH222298   5.730   3.462   4.307  0.4468 -0.4868  0.3295
 7452TIP3    H122299   5.727   3.552   4.339  2.3708 -0.5538  0.8079
 7452TIP3    H222300   5.690   3.466   4.220  0.5620  0.8382  0.3200
 7453TIP3   OH222301   5.760   5.198   6.531 -0.3980 -0.2952 -0.2335
 7453TIP3    H122302   5.687   5.201   6.592 -0.2464  0.8216 -0.0859
 7453TIP3    H222303   5.815   5.272   6.556  1.0989 -1.4548  0.0399
 7454TIP3   OH222304   3.734   0.538   6.061 -0.1563 -0.1777  0.3039
 7454TIP3    H122305   3.713   0.631   6.051 -0.5591 -0.2903  0.0725
 7454TIP3    H222306   3.781   0.532   6.144  0.0970  0.2682  0.1934
 7455TIP3   OH222307   5.880   0.366   4.252 -0.4746  0.2677  0.3106
 7455TIP3    H122308   5.832   0.411   4.183  1.6284  3.1527  0.5788
 7455TIP3    H222309   5.811   0.327   4.307 -2.3286  1.3121 -1.1470
 7456TIP3   OH222310   6.850   5.241   3.426  0.4856  0.2358  0.4348
 7456TIP3    H122311   6.793   5.269   3.354  1.4227  1.0989 -0.0041
 7456TIP3    H222312   6.827   5.150   3.441 -1.4948  0.7505  0.7633
 7457TIP3   OH222313   4.992   4.924   3.319  0.1820 -0.3768  0.9106
 7457TIP3    H122314   5.084   4.947   3.331  0.6809 -0.1108 -2.3890
 7457TIP3    H222315   4.979   4.846   3.373  2.4865 -0.7021  1.0877
 7458TIP3   OH222316   0.376   2.202   6.124  0.4278  0.4898  0.0997
 7458TIP3    H122317   0.363   2.226   6.032 -0.3579 -0.0691  0.0638
 7458TIP3    H222318   0.328   2.120   6.136  1.5058 -0.0886  0.7115
 7459TIP3   OH222319   5.077   3.934   0.810 -0.3531 -0.7070  0.1387
 7459TIP3    H122320   5.068   4.029   0.799 -1.4659 -1.0535 -2.8712
 7459TIP3    H222321   4.987   3.903   0.823 -0.3147 -1.5258 -1.3253
 7460TIP3   OH222322   7.732   2.409   6.402  0.1924 -0.4144 -0.2410
 7460TIP3    H122323   7.743   2.503   6.418 -0.9900 -0.3651  0.4423
 7460TIP3    H222324   7.700   2.403   6.312 -1.8217  0.0386  0.3971
 7461TIP3   OH222325   0.981   6.819   3.973  0.2179 -0.0680  0.3656
 7461TIP3    H122326   0.970   6.908   3.940  1.0028 -0.8514 -2.2288
 7461TIP3    H222327   0.892   6.784   3.979 -0.0019  0.3938 -0.1284
 7462TIP3   OH222328   2.866   7.193   1.414  0.5121 -0.8849 -0.1367
 7462TIP3    H122329   2.836   7.123   1.471 -1.0058  0.7316  1.1605
 7462TIP3    H222330   2.795   7.206   1.351 -0.0430  0.6169  0.7448
 7463TIP3   OH222331   6.261   4.133   1.172 -0.7365 -0.2384 -0.0834
 7463TIP3    H122332   6.315   4.169   1.102 -1.9323  1.3393 -0.2444
 7463TIP3    H222333   6.298   4.046   1.188  2.3399  1.0327  0.3794
 7464TIP3   OH222334   6.067   7.035   6.531 -0.1669  0.5272 -0.1447
 7464TIP3    H122335   6.049   7.118   6.575  0.3727  0.5832 -0.0263
 7464TIP3    H222336   6.078   7.058   6.439 -1.1951  0.4227 -0.3151
 7465TIP3   OH222337   2.867   2.868   3.037 -0.8086  0.3112  0.7885
 7465TIP3    H122338   2.872   2.790   3.092 -1.3240 -0.5666 -0.3661
 7465TIP3    H222339   2.782   2.907   3.058 -0.3581  0.8372  1.6955
 7466TIP3   OH222340   3.347   5.490   0.802 -0.1764 -0.0895  0.6790
 7466TIP3    H122341   3.380   5.416   0.854 -0.5681 -0.3527  0.5648
 7466TIP3    H222342   3.418   5.554   0.802  0.4433 -0.7638  0.1903
 7467TIP3   OH222343   5.355   5.846   4.503  0.6288 -0.0525  0.2433
 7467TIP3    H122344   5.349   5.898   4.584 -1.2178  0.2452 -0.0352
 7467TIP3    H222345   5.395   5.905   4.440  0.0012  0.5094  0.3553
 7468TIP3   OH222346   7.050   6.034   2.111  0.1367  0.2879 -0.1458
 7468TIP3    H122347   7.090   6.007   2.029 -1.0226 -0.2180 -0.5526
 7468TIP3    H222348   7.088   5.975   2.177  0.4520  0.1619 -0.4386
 7469TIP3   OH222349   4.166   2.926   1.227  0.4300  0.6690  0.1160
 7469TIP3    H122350   4.132   2.932   1.138  0.0519  1.0177  0.2803
 7469TIP3    H222351   4.097   2.963   1.282 -1.2077 -3.2274  1.0288
 7470TIP3   OH222352   2.468   5.460   4.035  0.1472 -0.5207 -0.3632
 7470TIP3    H122353   2.384   5.438   3.995  1.3732 -1.5144 -2.5684
 7470TIP3    H222354   2.509   5.521   3.973  1.7969 -1.4886 -0.2942
 7471TIP3   OH222355   4.937   4.076   6.388 -0.1639 -0.3238 -0.8247
 7471TIP3    H122356   4.999   4.148   6.389 -0.7046  0.1917  1.1948
 7471TIP3    H222357   4.984   4.002   6.426 -0.2749 -0.4075 -0.8465
 7472TIP3   OH222358  -0.008   5.513   4.749 -0.0752  0.6806 -0.1674
 7472TIP3    H122359   0.072   5.477   4.787  0.0225  2.1615  1.1592
 7472TIP3    H222360  -0.020   5.466   4.667  1.8722  0.0712 -0.1400
 7473TIP3   OH222361   2.758   6.021   1.390 -0.2410 -0.0486  0.2843
 7473TIP3    H122362   2.679   5.988   1.433 -0.2519  1.0915  1.1858
 7473TIP3    H222363   2.768   6.110   1.423  0.3415  0.5095 -1.3027
 7474TIP3   OH222364   1.250   6.944   3.643  0.0445  0.0633 -0.6606
 7474TIP3    H122365   1.289   6.963   3.729  1.4803 -0.6255 -1.1266
 7474TIP3    H222366   1.223   7.030   3.610 -0.1913  0.3807  0.3184
 7475TIP3   OH222367   7.111   1.006   0.400 -0.1423  0.1012 -0.8405
 7475TIP3    H122368   7.152   1.087   0.431  1.3635 -0.7782 -0.4367
 7475TIP3    H222369   7.180   0.962   0.350 -1.0434 -0.7763 -1.3362
 7476TIP3   OH222370   6.808   1.803   3.570  0.4965  0.6198  0.3374
 7476TIP3    H122371   6.825   1.802   3.476 -1.3562 -0.7568 -0.0496
 7476TIP3    H222372   6.755   1.882   3.584 -1.0297 -0.2526 -0.2072
 7477TIP3   OH222373   1.839   1.688   0.070  0.3809 -0.0289  0.2479
 7477TIP3    H122374   1.824   1.712   0.161  1.0354 -1.5303  0.7889
 7477TIP3    H222375   1.876   1.767   0.030 -1.3501  1.1536  0.8558
 7478TIP3   OH222376   7.628   5.518   2.751 -0.1212  0.2779  0.1488
 7478TIP3    H122377   7.636   5.487   2.661  0.0313  0.5779  0.0567
 7478TIP3    H222378   7.638   5.613   2.745  0.6668  0.2320  0.5767
 7479TIP3   OH222379   2.473   2.973   2.690  0.0915  0.4386 -0.0262
 7479TIP3    H122380   2.419   2.923   2.752  0.6814  0.8109  0.8019
 7479TIP3    H222381   2.455   3.065   2.711  0.4138  0.5663 -0.3065
 7480TIP3   OH222382   6.768   2.103   3.087 -0.0778  0.5003 -0.2687
 7480TIP3    H122383   6.676   2.109   3.116 -0.2547 -0.7936 -0.5059
 7480TIP3    H222384   6.817   2.151   3.154 -0.9170  1.1423 -0.0962
 7481TIP3   OH222385   6.545   6.073   0.531 -0.1845 -0.2417  0.1278
 7481TIP3    H122386   6.595   6.101   0.608  1.9957 -0.9099 -0.9593
 7481TIP3    H222387   6.542   6.150   0.475  0.7821 -0.5289 -0.3476
 7482TIP3   OH222388   4.028   1.895   2.231 -0.2074 -0.0357 -0.6371
 7482TIP3    H122389   4.118   1.876   2.207 -0.1291  1.1041 -1.2765
 7482TIP3    H222390   4.020   1.990   2.223 -1.2541 -0.0388  0.1488
 7483TIP3   OH222391   5.063   2.019   1.428  0.0107  0.0881  0.1498
 7483TIP3    H122392   5.109   1.942   1.463 -0.3167  0.8164  2.2917
 7483TIP3    H222393   5.119   2.049   1.356  0.1483 -2.1169 -0.7574
 7484TIP3   OH222394   4.318   0.195   3.495  0.8083 -0.1835 -0.1940
 7484TIP3    H122395   4.361   0.140   3.561  1.0402  2.0674  1.6574
 7484TIP3    H222396   4.352   0.164   3.411  2.2197 -1.7066  0.8775
 7485TIP3   OH222397   1.806   3.703   1.777 -0.5239 -0.2313 -0.6296
 7485TIP3    H122398   1.793   3.771   1.711  2.4677  2.2555  1.0537
 7485TIP3    H222399   1.889   3.661   1.752  1.7488  2.0480  2.2424
 7486TIP3   OH222400   3.559   6.256   6.394 -0.1400  0.5390  0.5406
 7486TIP3    H122401   3.614   6.333   6.377  0.6540 -0.1880 -0.3207
 7486TIP3    H222402   3.596   6.217   6.473 -0.2291  0.7617  0.6934
 7487TIP3   OH222403   7.425   6.632   2.425 -0.1726  0.3931  0.3078
 7487TIP3    H122404   7.428   6.552   2.478  1.3731  0.6782  0.6943
 7487TIP3    H222405   7.381   6.606   2.344 -0.3419 -0.6606  0.7292
 7488TIP3   OH222406   2.343   4.609   4.198  0.0520 -0.4069 -0.2249
 7488TIP3    H122407   2.418   4.652   4.156  0.8428  0.5939  2.0705
 7488TIP3    H222408   2.268   4.635   4.144  0.8415  1.8629 -0.3431
 7489TIP3   OH222409   7.410   6.438   4.711 -0.4151  0.8225  0.1900
 7489TIP3    H122410   7.400   6.522   4.665  0.7041 -0.3451 -2.3732
 7489TIP3    H222411   7.467   6.386   4.654  1.2279 -0.7408  3.0413
 7490TIP3   OH222412   7.387   2.604   6.436  0.6524 -0.5375  0.1233
 7490TIP3    H122413   7.337   2.537   6.388  0.1528 -0.5577  0.6650
 7490TIP3    H222414   7.333   2.625   6.512 -0.1180  1.8674 -0.9995
 7491TIP3   OH222415   7.287   6.676   5.627 -0.1651 -0.2701 -0.4398
 7491TIP3    H122416   7.378   6.651   5.612 -0.4624 -0.3784 -2.3791
 7491TIP3    H222417   7.237   6.596   5.607 -0.7475  0.1310 -0.6148
 7492TIP3   OH222418   5.778   7.502   2.788  0.0278  0.1509 -0.2606
 7492TIP3    H122419   5.722   7.451   2.731  1.1167 -0.0713 -1.1644
 7492TIP3    H222420   5.718   7.561   2.834 -0.7284  1.7660 -3.0795
 7493TIP3   OH222421   2.885   3.623   6.625 -0.2228  0.1391  0.7946
 7493TIP3    H122422   2.873   3.548   6.682  1.6758 -1.2731 -0.5130
 7493TIP3    H222423   2.971   3.658   6.649  0.8769 -0.8162 -1.4450
 7494TIP3   OH222424   4.505   4.063   6.384  0.0787  0.2156  0.0223
 7494TIP3    H122425   4.562   4.037   6.311 -0.1630 -0.0843 -0.0629
 7494TIP3    H222426   4.422   4.086   6.343 -0.1169 -0.1341  0.2158
 7495TIP3   OH222427   5.764   5.981   6.050  0.4168 -0.2980  0.0869
 7495TIP3    H122428   5.821   6.017   6.118 -1.0784 -0.8405  1.6880
 7495TIP3    H222429   5.697   6.048   6.037  0.4027 -0.4209 -0.5102
 7496TIP3   OH222430   5.499   7.234   3.621  0.2142  0.3417 -0.2615
 7496TIP3    H122431   5.409   7.252   3.594  0.7381  2.1323 -0.9433
 7496TIP3    H222432   5.536   7.184   3.548 -0.7853 -2.3318  0.9432
 7497TIP3   OH222433   5.514   2.472   3.130 -0.2543  0.2500 -0.2923
 7497TIP3    H122434   5.482   2.421   3.205 -2.3810 -0.2424 -1.4410
 7497TIP3    H222435   5.597   2.509   3.159 -1.1448  0.3254  2.4226
 7498TIP3   OH222436   1.579   0.045   6.182 -0.2738  0.8325  0.5259
 7498TIP3    H122437   1.573   0.139   6.198  2.5092  1.1870 -0.0420
 7498TIP3    H222438   1.582   0.005   6.269 -2.0267  1.1657  0.7730
 7499TIP3   OH222439   7.620   3.419   3.621  0.0135  0.4364  0.0986
 7499TIP3    H122440   7.538   3.469   3.628 -0.1847  0.1289 -0.0093
 7499TIP3    H222441   7.608   3.364   3.544 -0.5455 -1.1878  1.2970
 7500TIP3   OH222442   5.903   0.203   4.006 -0.3652 -0.1635  0.0290
 7500TIP3    H122443   5.843   0.211   4.081 -0.6477 -1.3086 -0.0474
 7500TIP3    H222444   5.910   0.291   3.971 -0.1053  0.4261  1.5022
 7501TIP3   OH222445   0.724   7.118   4.333  0.0789 -0.3148  0.6406
 7501TIP3    H122446   0.686   7.137   4.419  2.2845 -0.3829  1.6890
 7501TIP3    H222447   0.711   7.024   4.321 -2.6361  0.1011 -0.3999
 7502TIP3   OH222448   7.056   4.242   2.600  0.2281 -0.2627  0.0657
 7502TIP3    H122449   7.104   4.161   2.581  0.5069  0.1883 -1.2483
 7502TIP3    H222450   6.995   4.252   2.527 -0.3017  0.3517  0.5768
 7503TIP3   OH222451   4.406   5.738   5.177  0.7241  0.3006  0.2301
 7503TIP3    H122452   4.357   5.768   5.101  2.3847  1.0430 -0.5976
 7503TIP3    H222453   4.403   5.643   5.172 -0.0559  0.3344 -0.1578
 7504TIP3   OH222454   7.730   0.157   0.225  0.0177  0.1809  0.2287
 7504TIP3    H122455   7.810   0.143   0.276  0.7897 -0.1955 -1.0396
 7504TIP3    H222456   7.753   0.225   0.162 -0.9529  0.7282  0.4510
 7505TIP3   OH222457   7.285   7.720   5.240 -0.2254  0.6261  0.6039
 7505TIP3    H122458   7.310   7.778   5.167 -0.5215  1.0710  0.8556
 7505TIP3    H222459   7.196   7.693   5.219 -0.6725  1.5279  1.2847
 7506TIP3   OH222460   0.658   1.284   4.189 -0.1506 -0.1659  0.6226
 7506TIP3    H122461   0.708   1.362   4.164 -0.6187 -0.1305 -0.2364
 7506TIP3    H222462   0.633   1.300   4.280 -0.3502  0.7549  0.4144
 7507TIP3   OH222463   0.442   2.311   3.089  0.0733 -0.2294 -0.0689
 7507TIP3    H122464   0.352   2.283   3.076 -0.1004 -0.1197  0.8303
 7507TIP3    H222465   0.436   2.381   3.154  0.8489 -0.5641  0.3773
 7508TIP3   OH222466   2.869   5.892   2.976  0.2383  0.1144 -0.6207
 7508TIP3    H122467   2.776   5.914   2.988  0.1922 -0.3573 -0.0469
 7508TIP3    H222468   2.905   5.892   3.065  1.0205  1.2399 -0.9111
 7509TIP3   OH222469   4.315   3.530   4.249  0.3732 -0.4592 -0.4994
 7509TIP3    H122470   4.235   3.514   4.199 -0.7744 -0.7710  1.3586
 7509TIP3    H222471   4.361   3.446   4.247 -1.6994 -1.8477  2.3490
 7510TIP3   OH222472   3.246   1.242   1.609  0.5340 -0.0236 -0.0447
 7510TIP3    H122473   3.285   1.275   1.528  1.5742 -0.2095  0.3702
 7510TIP3    H222474   3.219   1.320   1.656  1.2400  0.1597  0.0694
 7511TIP3   OH222475   0.461   4.377   4.911 -0.1669 -0.0819 -0.1239
 7511TIP3    H122476   0.514   4.298   4.906 -0.5042 -0.2563 -1.2354
 7511TIP3    H222477   0.427   4.389   4.822 -1.3993  0.4241  0.3954
 7512TIP3   OH222478   6.929   2.154   2.646 -0.7572 -0.1201 -0.4288
 7512TIP3    H122479   6.901   2.068   2.676 -2.0088  0.0804 -0.9427
 7512TIP3    H222480   6.862   2.214   2.679  1.0192  0.9664  1.4864
 7513TIP3   OH222481   2.890   0.370   5.647  0.6806  0.0379 -0.4161
 7513TIP3    H122482   2.840   0.451   5.650  0.4609 -0.0150 -1.9004
 7513TIP3    H222483   2.943   0.377   5.568 -0.9505 -2.1658 -1.8412
 7514TIP3   OH222484   7.828   3.240   3.740 -0.5384 -0.3883 -0.1108
 7514TIP3    H122485   7.904   3.298   3.738 -0.6985 -0.1714  0.0421
 7514TIP3    H222486   7.754   3.297   3.719 -0.7100 -0.5162  0.1423
 7515TIP3   OH222487   7.520   7.381   4.803 -0.0334  0.0815  0.2261
 7515TIP3    H122488   7.438   7.407   4.760 -0.0269 -4.0413 -2.9142
 7515TIP3    H222489   7.498   7.301   4.850  1.8368 -0.1715  0.7432
 7516TIP3   OH222490   6.255   1.870   5.524  0.0059  0.1387  1.0255
 7516TIP3    H122491   6.251   1.836   5.613 -1.2404 -1.7046  0.3284
 7516TIP3    H222492   6.178   1.833   5.481 -0.0872  1.9660 -0.4976
 7517TIP3   OH222493   7.426   6.281   4.261  0.0697 -0.4855  0.2585
 7517TIP3    H122494   7.464   6.201   4.297 -0.1891 -0.0873  1.4942
 7517TIP3    H222495   7.411   6.262   4.169 -1.9160 -2.5903  0.9352
 7518TIP3   OH222496   2.219   1.580   6.674 -0.1019  0.0581 -0.7477
 7518TIP3    H122497   2.283   1.543   6.613  1.9689  0.6552  0.9196
 7518TIP3    H222498   2.246   1.671   6.686 -1.1572  0.2822  0.1583
 7519TIP3   OH222499   7.978   0.156   5.311 -0.5367  0.0818 -0.0061
 7519TIP3    H122500   7.977   0.191   5.222  0.0451  0.2522  0.0519
 7519TIP3    H222501   8.069   0.167   5.341 -1.0783  1.5133  1.2020
 7520TIP3   OH222502   6.576   4.097   5.045  0.1717  0.2563  0.4044
 7520TIP3    H122503   6.622   4.101   5.129  2.2538  0.5439 -0.6670
 7520TIP3    H222504   6.574   4.188   5.015 -1.0664  0.2336  0.3772
 7521TIP3   OH222505   0.279   5.125   6.683 -0.1410  0.0380  0.2310
 7521TIP3    H122506   0.363   5.139   6.726  0.3839 -0.0232 -0.7509
 7521TIP3    H222507   0.218   5.181   6.731  0.5726  0.4972  0.6205
 7522TIP3   OH222508   5.820   7.199   1.757 -0.3270  0.0725 -0.1278
 7522TIP3    H122509   5.904   7.193   1.802 -1.6348 -2.7089  2.2358
 7522TIP3    H222510   5.820   7.125   1.696 -1.0400  0.0752 -0.1365
 7523TIP3   OH222511   1.399   6.788   2.696  0.3340 -0.7035  0.6234
 7523TIP3    H122512   1.483   6.805   2.654 -0.1819  0.6815  0.1158
 7523TIP3    H222513   1.391   6.692   2.694  1.8173 -0.8533  0.5517
 7524TIP3   OH222514   7.775   1.754   4.298 -0.5193 -0.1445 -0.0947
 7524TIP3    H122515   7.778   1.660   4.278  1.0442 -0.1610  0.0971
 7524TIP3    H222516   7.805   1.796   4.217  1.1080  0.0344  0.5566
 7525TIP3   OH222517   3.215   3.452   6.506  0.0714  0.1927 -0.3016
 7525TIP3    H122518   3.151   3.502   6.456 -0.2287 -2.1347 -2.4387
 7525TIP3    H222519   3.293   3.449   6.450  1.1450  0.6836  1.0868
 7526TIP3   OH222520   0.043   0.494   0.311  0.1256  0.3643  0.4779
 7526TIP3    H122521  -0.052   0.505   0.313  0.1415  0.4920  1.9969
 7526TIP3    H222522   0.056   0.399   0.303 -0.1399  0.3054  0.7250
 7527TIP3   OH222523   4.455   7.369   0.183 -0.0893  0.1125 -0.5023
 7527TIP3    H122524   4.517   7.324   0.240 -1.7781 -1.1413  0.4322
 7527TIP3    H222525   4.508   7.431   0.133  1.5211  1.0101  2.1470
 7528TIP3   OH222526   6.280   1.824   2.328  0.4241 -0.4046  0.1845
 7528TIP3    H122527   6.375   1.826   2.316  0.6613 -4.7481 -0.1346
 7528TIP3    H222528   6.245   1.865   2.248  1.9886  0.0497 -0.3078
 7529TIP3   OH222529   2.016   7.709   5.824 -0.1894 -0.1352  0.0997
 7529TIP3    H122530   1.947   7.651   5.856 -1.0316  0.7244 -0.1191
 7529TIP3    H222531   1.970   7.789   5.799  0.8491  0.3241 -0.3775
 7530TIP3   OH222532   0.953   1.018   6.568 -0.0247  0.1889 -0.2227
 7530TIP3    H122533   0.973   1.047   6.657 -0.9699  1.3140 -0.3640
 7530TIP3    H222534   0.859   1.031   6.559 -0.0229 -0.4162 -1.2191
 7531TIP3   OH222535   0.685   7.097   3.433  0.3967 -0.4421  0.0707
 7531TIP3    H122536   0.742   7.030   3.471  1.4367 -0.0690 -0.7535
 7531TIP3    H222537   0.718   7.179   3.469 -1.0965 -0.3715  1.3516
 7532TIP3   OH222538   4.531   6.618   0.991 -0.2809 -0.2414 -0.3039
 7532TIP3    H122539   4.555   6.530   0.960 -0.0688  0.1316 -1.2299
 7532TIP3    H222540   4.524   6.608   1.086  1.2132 -0.9317 -0.2235
 7533TIP3   OH222541   0.269   5.028   4.339  0.6575  0.5229 -0.3713
 7533TIP3    H122542   0.291   5.015   4.247  0.8038  2.6677 -0.6998
 7533TIP3    H222543   0.202   5.097   4.338 -1.3788 -1.3235  0.9970
 7534TIP3   OH222544   2.629   2.046   0.515  0.1498  0.1232  0.2860
 7534TIP3    H122545   2.618   1.970   0.572  1.2614  1.4093  2.3227
 7534TIP3    H222546   2.723   2.065   0.519  0.0388  1.0604 -0.9480
 7535TIP3   OH222547   3.134   0.343   0.206 -0.2002  0.0237 -0.2809
 7535TIP3    H122548   3.226   0.359   0.183 -0.3069 -0.3019 -0.9479
 7535TIP3    H222549   3.084   0.385   0.136 -0.6078  1.2758  0.7146
 7536TIP3   OH222550   6.542   1.549   4.499  0.0633 -0.6363  0.6971
 7536TIP3    H122551   6.575   1.460   4.482  3.6700  0.6418  0.0089
 7536TIP3    H222552   6.468   1.559   4.439  0.0397 -2.9055  0.2488
 7537TIP3   OH222553   2.444   6.295   2.998 -0.1451  0.0282  0.5344
 7537TIP3    H122554   2.450   6.249   3.082 -1.1738 -0.7887  0.1751
 7537TIP3    H222555   2.431   6.226   2.933 -1.2379  0.7605 -0.0656
 7538TIP3   OH222556   5.055   5.256   6.492  0.0171  0.1860  0.0531
 7538TIP3    H122557   5.081   5.346   6.471  0.7696 -0.1633 -0.5191
 7538TIP3    H222558   5.132   5.217   6.532 -0.1038 -0.3883 -0.2595
 7539TIP3   OH222559   4.828   3.511   1.964 -0.1906 -0.6924  0.1386
 7539TIP3    H122560   4.785   3.446   1.909  1.8009 -2.9434  1.0244
 7539TIP3    H222561   4.803   3.487   2.053 -0.4121  0.5497  0.4203
 7540TIP3   OH222562   7.373   5.054   1.821  0.2827  0.3009  0.6222
 7540TIP3    H122563   7.445   5.001   1.857  0.6148  0.1347 -0.2396
 7540TIP3    H222564   7.415   5.106   1.752 -0.5429 -0.3647 -0.4281
 7541TIP3   OH222565   1.855   7.448   4.511  0.6347 -0.6909 -0.2718
 7541TIP3    H122566   1.811   7.508   4.571  1.4699  0.7695 -1.0650
 7541TIP3    H222567   1.941   7.434   4.551  0.3117 -1.7014  0.1024
 7542TIP3   OH222568   4.466   6.586   6.002  0.2698 -0.1584 -0.0904
 7542TIP3    H122569   4.455   6.651   5.933 -0.1764  0.0786  0.2007
 7542TIP3    H222570   4.389   6.529   5.995  0.9609 -1.0542 -0.7488
 7543TIP3   OH222571   3.248   1.116   5.242  0.1615 -0.1584  0.4698
 7543TIP3    H122572   3.196   1.042   5.212 -2.6642  2.0054 -0.3719
 7543TIP3    H222573   3.333   1.104   5.200 -1.0695 -1.5149 -1.8510
 7544TIP3   OH222574   7.073   0.455   1.522  0.0414 -0.1182  0.2381
 7544TIP3    H122575   7.046   0.511   1.450  0.8716  0.1586  0.1386
 7544TIP3    H222576   7.158   0.488   1.549 -0.8712  0.7413  2.3307
 7545TIP3   OH222577   4.990   6.349   2.472  0.4844  0.3434  0.1584
 7545TIP3    H122578   4.903   6.371   2.438  0.6677  0.7995 -0.0205
 7545TIP3    H222579   5.050   6.409   2.427  0.7920  0.6441  0.9467
 7546TIP3   OH222580   4.472   6.288   1.430  0.1236 -0.0008 -0.5028
 7546TIP3    H122581   4.494   6.222   1.364 -2.3683 -0.9465 -0.4925
 7546TIP3    H222582   4.379   6.305   1.417  0.3603  2.4749  0.4705
 7547TIP3   OH222583   1.996   4.980   4.067 -0.1635  0.8286 -0.0065
 7547TIP3    H122584   1.969   4.909   4.126 -1.4398  1.4355  0.1770
 7547TIP3    H222585   1.920   4.994   4.011  0.9948  0.3234 -1.7920
 7548TIP3   OH222586   7.556   1.962   1.269  0.4207 -0.4593  0.3536
 7548TIP3    H122587   7.630   2.001   1.222 -0.3073  0.9705  0.3477
 7548TIP3    H222588   7.504   1.921   1.200  0.9421 -1.0288  0.2953
 7549TIP3   OH222589   0.090   5.967   0.520 -0.0979  0.0786  0.1408
 7549TIP3    H122590   0.009   5.997   0.561 -0.2736  0.3479 -0.4051
 7549TIP3    H222591   0.139   5.926   0.592  0.4020  2.1290  1.0326
 7550TIP3   OH222592   2.784   1.243   1.001 -0.3098 -0.6326  0.1935
 7550TIP3    H122593   2.814   1.198   1.080 -0.0003 -0.7820 -0.0062
 7550TIP3    H222594   2.865   1.265   0.954 -0.4884 -0.4699 -0.0408
 7551TIP3   OH222595   1.310   6.940   5.009 -0.1600  0.6054 -0.4993
 7551TIP3    H122596   1.247   6.974   4.945 -0.9978 -0.6228 -0.3588
 7551TIP3    H222597   1.276   6.854   5.033  1.5449 -0.0659 -0.3549
 7552TIP3   OH222598   8.091   3.269   1.621 -0.3649  0.0315 -0.2814
 7552TIP3    H122599   8.061   3.229   1.703  1.1560  0.5414  0.5773
 7552TIP3    H222600   8.130   3.197   1.572 -0.3958 -0.0993 -0.1129
 7553TIP3   OH222601   3.956   1.998   3.544 -0.9640 -0.6067  0.1016
 7553TIP3    H122602   3.942   2.085   3.508  1.4859 -0.0255  0.3936
 7553TIP3    H222603   3.873   1.975   3.586 -1.1464  2.3127  1.5209
 7554TIP3   OH222604   1.052   4.528   0.876  0.0534 -0.2963  0.6961
 7554TIP3    H122605   0.985   4.491   0.819  0.3684 -1.6292  1.1628
 7554TIP3    H222606   1.007   4.545   0.959 -0.2883  1.1930  0.2404
 7555TIP3   OH222607   1.075   1.340   4.297 -0.6938 -0.3128  0.5626
 7555TIP3    H122608   1.036   1.263   4.339 -1.1225 -0.6474 -0.4119
 7555TIP3    H222609   1.167   1.338   4.324 -0.9749 -0.4649  1.5334
 7556TIP3   OH222610   4.704   2.501   1.765 -0.1516 -0.5890  0.3283
 7556TIP3    H122611   4.795   2.508   1.735  0.3475  0.6981  1.9671
 7556TIP3    H222612   4.680   2.591   1.789 -1.7148 -0.9847  0.3688
 7557TIP3   OH222613   2.356   6.451   6.479 -0.2092 -0.0489 -0.7548
 7557TIP3    H122614   2.341   6.541   6.451 -0.9453 -0.2174 -0.9294
 7557TIP3    H222615   2.291   6.400   6.431 -0.9044 -0.4617  0.5904
 7558TIP3   OH222616   7.038   6.654   4.282 -0.0880 -0.5639  0.7433
 7558TIP3    H122617   6.959   6.624   4.238  0.9987 -0.2420 -1.5988
 7558TIP3    H222618   7.037   6.609   4.366 -3.2862  0.2943  1.2945
 7559TIP3   OH222619   7.510   2.752   3.904  0.6531  0.0959 -0.7325
 7559TIP3    H122620   7.555   2.701   3.971  0.3752 -0.9580 -1.3199
 7559TIP3    H222621   7.513   2.842   3.936 -1.1405 -0.6022  1.6285
 7560TIP3   OH222622   6.880   5.980   4.445 -0.4835 -0.1622  0.2426
 7560TIP3    H122623   6.860   6.035   4.521 -0.7649  0.6603 -0.4183
 7560TIP3    H222624   6.945   6.030   4.396 -0.6790 -0.4587 -0.3243
 7561TIP3   OH222625   2.478   1.148   0.086 -0.3127  0.0179  0.1139
 7561TIP3    H122626   2.433   1.158   0.170  0.5086  1.2755  0.4145
 7561TIP3    H222627   2.461   1.230   0.040  1.1144  0.2521 -0.0247
 7562TIP3   OH222628   7.241   6.174   5.679 -0.3802  0.3819  0.2184
 7562TIP3    H122629   7.223   6.122   5.601  1.0579 -0.3049  0.3187
 7562TIP3    H222630   7.239   6.112   5.751  1.2215  0.4490  0.3553
 7563TIP3   OH222631   5.150   6.557   5.315  0.1277 -0.1235 -0.4306
 7563TIP3    H122632   5.181   6.493   5.251 -1.4522 -0.2433 -1.1394
 7563TIP3    H222633   5.073   6.515   5.355  0.5392  0.3300  0.9123
 7564TIP3   OH222634   3.300   0.828   5.733 -0.3254  0.4516 -0.4632
 7564TIP3    H122635   3.311   0.906   5.787 -1.3114  1.1606 -1.2515
 7564TIP3    H222636   3.302   0.861   5.643 -1.3334 -0.3356 -0.7927
 7565TIP3   OH222637   6.783   6.013   2.774  0.1980  1.0575 -0.6178
 7565TIP3    H122638   6.791   6.037   2.682 -0.8282 -0.1133 -1.0402
 7565TIP3    H222639   6.703   6.058   2.803 -0.8420 -0.4830 -0.9854
 7566TIP3   OH222640   6.192   6.511   1.148 -0.1847  0.3711  0.2743
 7566TIP3    H122641   6.150   6.450   1.088  0.8157 -0.7966  0.7283
 7566TIP3    H222642   6.137   6.510   1.227 -0.0088 -0.1836  0.3926
 7567TIP3   OH222643   3.612   7.545   3.583  0.0895 -0.1154 -0.2608
 7567TIP3    H122644   3.587   7.453   3.592 -0.1549 -0.3638 -2.8102
 7567TIP3    H222645   3.566   7.589   3.654 -1.9152 -1.5986 -0.5441
 7568TIP3   OH222646   3.960   2.497   5.547 -0.2789  0.0345 -0.0059
 7568TIP3    H122647   4.002   2.527   5.466 -2.0265  1.9686 -0.2799
 7568TIP3    H222648   3.891   2.437   5.518 -0.6191  0.3865  0.0593
 7569TIP3   OH222649   0.019   4.360   1.921 -0.1134  0.2101  0.4647
 7569TIP3    H122650   0.040   4.353   2.014 -0.4204 -1.3921  0.4511
 7569TIP3    H222651   0.103   4.356   1.877 -0.0072  0.3830  0.6514
 7570TIP3   OH222652   2.271   6.959   6.741 -0.0285  0.0291  0.6304
 7570TIP3    H122653   2.274   6.950   6.645 -0.3412  0.2798  0.5917
 7570TIP3    H222654   2.291   7.051   6.757 -2.1122  0.5472  0.6454
 7571TIP3   OH222655   1.365   3.424   5.396  0.1644  0.0447  0.6591
 7571TIP3    H122656   1.352   3.506   5.348  0.1979 -0.0983  0.4002
 7571TIP3    H222657   1.417   3.370   5.336  1.5156  0.4179  1.4629
 7572TIP3   OH222658   1.595   7.630   4.621  0.2442  0.4532 -0.0364
 7572TIP3    H122659   1.563   7.544   4.593  1.9962 -0.5632  0.9353
 7572TIP3    H222660   1.620   7.618   4.713  1.5267  1.6964 -0.1907
 7573TIP3   OH222661   2.613   0.760   2.950 -0.3476 -0.4851 -0.1664
 7573TIP3    H122662   2.539   0.817   2.932 -0.6338 -1.3555 -2.0772
 7573TIP3    H222663   2.619   0.755   3.045 -2.2078  0.2761  0.0143
 7574TIP3   OH222664   5.758   3.348   6.116 -0.0688  0.1231  0.0711
 7574TIP3    H122665   5.680   3.403   6.113 -1.9537 -2.3868 -0.1264
 7574TIP3    H222666   5.802   3.364   6.033 -1.5141  0.0672 -0.7367
 7575TIP3   OH222667   2.107   6.527   5.243 -0.5081  0.2864 -0.1209
 7575TIP3    H122668   2.082   6.502   5.154 -2.5891 -3.4615  1.3107
 7575TIP3    H222669   2.026   6.558   5.283 -0.2337 -0.5955  1.1894
 7576TIP3   OH222670   7.638   3.209   0.428 -0.5155 -0.2452  0.0037
 7576TIP3    H122671   7.656   3.301   0.411  1.3282 -0.7609 -1.1413
 7576TIP3    H222672   7.672   3.193   0.516  1.2866 -0.3010 -0.6591
 7577TIP3   OH222673   3.657   4.466   0.252  0.2742 -0.0455 -0.2048
 7577TIP3    H122674   3.742   4.480   0.294 -0.3319  1.0299  0.7075
 7577TIP3    H222675   3.665   4.505   0.166  0.5514  0.4881  0.0641
 7578TIP3   OH222676   4.423   5.315   6.003  0.2426  0.3690 -0.1516
 7578TIP3    H122677   4.413   5.234   5.953 -0.6154 -0.3180  1.0915
 7578TIP3    H222678   4.512   5.310   6.038 -0.8266 -1.7118  2.6440
 7579TIP3   OH222679   6.238   1.058   0.983 -0.0689 -0.1503  0.0127
 7579TIP3    H122680   6.295   1.006   1.040  0.6688  0.1015 -0.4757
 7579TIP3    H222681   6.191   1.116   1.042 -0.1575 -0.6768  0.4696
 7580TIP3   OH222682   3.522   6.016   4.612  0.4394  0.2740  0.3290
 7580TIP3    H122683   3.497   6.013   4.519  0.1761  1.0763  0.3693
 7580TIP3    H222684   3.601   5.962   4.617 -0.2426 -0.8111 -0.1352
 7581TIP3   OH222685   6.384   6.747   3.397 -0.5295  0.2214  0.1122
 7581TIP3    H122686   6.464   6.774   3.443  1.0503  0.2607 -2.4890
 7581TIP3    H222687   6.395   6.653   3.384  0.6306  0.6713 -2.8473
 7582TIP3   OH222688   0.269   4.258   0.812  0.2590 -0.3960 -0.3255
 7582TIP3    H122689   0.221   4.341   0.808 -0.5524 -0.8611 -0.6468
 7582TIP3    H222690   0.252   4.225   0.900 -1.1424 -1.1925 -0.8668
 7583TIP3   OH222691   6.623   6.808   3.553  0.2495  0.6628 -0.3663
 7583TIP3    H122692   6.676   6.877   3.513 -0.6943  0.1028 -2.7005
 7583TIP3    H222693   6.687   6.747   3.589  1.1246  1.5846 -0.3024
 7584TIP3   OH222694   5.630   7.604   2.995  0.0240 -0.0597  0.4372
 7584TIP3    H122695   5.647   7.593   3.089  0.1518 -1.6473  0.2597
 7584TIP3    H222696   5.535   7.594   2.987  0.2722 -3.0833  0.0960
 7585TIP3   OH222697   0.378   0.810   3.353  0.7341  0.3543 -0.0930
 7585TIP3    H122698   0.361   0.890   3.402 -1.8167  1.2209 -2.1232
 7585TIP3    H222699   0.315   0.746   3.387  1.9093 -0.4505  0.6581
 7586TIP3   OH222700   4.944   0.599   0.029 -0.2927  0.4460  0.0733
 7586TIP3    H122701   4.873   0.659   0.005 -0.5559 -0.0194 -0.3245
 7586TIP3    H222702   4.906   0.512   0.021  0.7917  0.0978 -1.7860
 7587TIP3   OH222703   4.187   6.436   0.379 -0.5609  0.4448 -0.0257
 7587TIP3    H122704   4.184   6.518   0.331  0.6620  0.4280 -0.1766
 7587TIP3    H222705   4.241   6.455   0.456 -2.3974  0.4407  1.3160
 7588TIP3   OH222706   2.485   7.706   5.449 -0.3254  0.1841  0.0051
 7588TIP3    H122707   2.483   7.680   5.541  1.0240  0.2279  0.0611
 7588TIP3    H222708   2.577   7.700   5.424 -0.3648  2.0561 -0.7916
 7589TIP3   OH222709   1.851   2.038   1.687 -0.3791  0.4464  0.3978
 7589TIP3    H122710   1.787   2.100   1.720 -2.2879 -0.5481 -1.1923
 7589TIP3    H222711   1.805   1.954   1.687  0.8117 -0.2600 -1.0906
 7590TIP3   OH222712   6.674   5.704   0.965 -0.2451 -0.2217  0.2489
 7590TIP3    H122713   6.590   5.657   0.969  0.4498 -1.7053 -1.2521
 7590TIP3    H222714   6.649   5.795   0.948 -1.5604 -0.5062  0.5120
 7591TIP3   OH222715   7.713   5.230   6.356 -0.4356 -0.0423 -0.0499
 7591TIP3    H122716   7.642   5.249   6.295 -0.1933  0.3836 -0.2073
 7591TIP3    H222717   7.751   5.148   6.324 -0.1332  0.3212 -0.6420
 7592TIP3   OH222718   7.990   0.948   5.224  0.3343  0.4095 -0.0188
 7592TIP3    H122719   7.972   0.871   5.278 -3.2699  0.1759 -1.2829
 7592TIP3    H222720   8.071   0.926   5.177  0.4347 -1.7706  1.0633
 7593TIP3   OH222721   0.407   0.315   2.916  0.4462  0.4091  0.2991
 7593TIP3    H122722   0.479   0.313   2.853 -1.0956  0.1768 -1.5529
 7593TIP3    H222723   0.409   0.228   2.957  1.4499  0.5528  0.5717
 7594TIP3   OH222724   4.841   3.203   5.599 -0.5134  0.0781  0.7944
 7594TIP3    H122725   4.759   3.171   5.637 -0.9526  0.8223  0.5064
 7594TIP3    H222726   4.854   3.289   5.639 -0.0399  0.0998  0.5969
 7595TIP3   OH222727   3.149   3.257   2.145 -0.0188  0.1195 -0.4547
 7595TIP3    H122728   3.074   3.266   2.087  0.8109  0.7074 -1.4825
 7595TIP3    H222729   3.129   3.314   2.219 -0.7715 -0.0775 -0.4998
 7596TIP3   OH222730   5.083   2.264   0.681  0.7907  0.1723  0.2509
 7596TIP3    H122731   5.039   2.242   0.764  0.4737 -2.5466 -0.5332
 7596TIP3    H222732   5.014   2.302   0.627  0.6924  0.7810  0.7880
 7597TIP3   OH222733   3.063   5.778   5.052  0.0285  0.3829  0.4629
 7597TIP3    H122734   3.096   5.704   5.102 -0.0537 -0.2050 -0.3415
 7597TIP3    H222735   3.137   5.807   4.999 -0.4445 -0.2721 -0.5630
 7598TIP3   OH222736   0.865   2.483   2.196  0.4423  0.0338  0.1563
 7598TIP3    H122737   0.861   2.563   2.145 -1.2390 -0.5116 -0.6410
 7598TIP3    H222738   0.786   2.435   2.172  0.3687 -0.9516  2.1252
 7599TIP3   OH222739   7.894   5.827   2.005 -0.0995 -0.2222 -0.1451
 7599TIP3    H122740   7.950   5.871   2.070 -1.6804 -0.2001  1.2893
 7599TIP3    H222741   7.810   5.817   2.050 -0.9355 -1.2021 -1.8478
 7600TIP3   OH222742   3.646   6.169   2.975 -0.1638  0.7903 -0.0756
 7600TIP3    H122743   3.725   6.211   3.008  1.3119 -0.8017 -1.3803
 7600TIP3    H222744   3.579   6.237   2.978  1.2593  2.2112  0.9798
 7601TIP3   OH222745   6.934   6.268   2.190 -0.0532  0.1805  0.9529
 7601TIP3    H122746   6.858   6.274   2.131 -0.8303 -0.8960  1.8182
 7601TIP3    H222747   6.969   6.180   2.176  0.6174  0.4212  1.0789
 7602TIP3   OH222748   6.383   3.443   6.542 -0.1515 -0.4640 -0.2532
 7602TIP3    H122749   6.302   3.402   6.513  0.2443 -0.5536 -1.2993
 7602TIP3    H222750   6.430   3.373   6.588 -0.8747 -0.2694  0.8000
 7603TIP3   OH222751   7.688   0.746   2.247  0.3738 -0.0085  0.6216
 7603TIP3    H122752   7.608   0.697   2.265  1.7392 -2.2793  0.8099
 7603TIP3    H222753   7.746   0.725   2.319  1.2178  1.5153  0.4231
 7604TIP3   OH222754   5.423   4.330   2.013  0.0276 -0.0911  0.1574
 7604TIP3    H122755   5.362   4.292   1.950  0.3901  0.3772 -0.4825
 7604TIP3    H222756   5.509   4.296   1.987  0.2588  0.5909  0.0208
 7605TIP3   OH222757   4.453   5.612   2.140 -0.0260 -0.0861 -0.9321
 7605TIP3    H122758   4.384   5.562   2.184  0.7749 -0.4013  0.0128
 7605TIP3    H222759   4.409   5.692   2.109 -0.4328  0.7343  1.5084
 7606TIP3   OH222760   6.828   0.101   4.309  0.0700 -0.1335  0.0361
 7606TIP3    H122761   6.872   0.072   4.389 -3.4179 -3.6446  1.0359
 7606TIP3    H222762   6.750   0.147   4.340 -0.6885 -0.4198 -1.3571
 7607TIP3   OH222763   5.544   3.391   4.739 -0.3639 -0.5364 -0.1281
 7607TIP3    H122764   5.516   3.480   4.761 -0.2974 -0.0559 -1.8487
 7607TIP3    H222765   5.636   3.388   4.765 -0.8923 -0.8115  1.8428
 7608TIP3   OH222766   0.092   1.001   5.983 -0.6024 -0.4632  0.0778
 7608TIP3    H122767   0.018   1.058   5.963  0.0796  1.1810  1.9111
 7608TIP3    H222768   0.088   0.932   5.917 -1.9003  1.3044 -1.8034
 7609TIP3   OH222769   2.453   5.005   5.365 -0.2008  0.0215 -0.4839
 7609TIP3    H122770   2.391   5.014   5.292 -0.3598  0.8668 -0.2558
 7609TIP3    H222771   2.441   4.916   5.396 -2.3396  0.5814  0.4604
 7610TIP3   OH222772   3.052   4.004   4.900 -0.0714  0.1548 -0.2700
 7610TIP3    H122773   3.102   3.937   4.948 -1.1551 -0.5605 -0.1036
 7610TIP3    H222774   3.068   4.085   4.947 -1.0316 -0.5186  1.2750
 7611TIP3   OH222775   0.475   1.597   0.465 -0.3234  0.1462  0.6971
 7611TIP3    H122776   0.386   1.607   0.501 -0.2796  0.6157  0.6727
 7611TIP3    H222777   0.507   1.686   0.454  0.5030 -0.0205  1.5692
 7612TIP3   OH222778   3.987   0.117   2.831 -0.2510 -0.0079  0.6358
 7612TIP3    H122779   4.021   0.106   2.742 -3.2456 -0.1774 -0.6150
 7612TIP3    H222780   3.957   0.030   2.856 -0.9548  0.3601  1.1129
 7613TIP3   OH222781   1.752   4.846   5.038  0.0311 -0.0284 -0.1558
 7613TIP3    H122782   1.751   4.790   5.115  0.8125  1.2778  0.8592
 7613TIP3    H222783   1.719   4.930   5.069  0.0433  0.4316 -1.3370
 7614TIP3   OH222784   5.407   0.243   4.898  0.9264  0.3824  0.1719
 7614TIP3    H122785   5.335   0.295   4.933  0.3782 -0.4815  0.3499
 7614TIP3    H222786   5.426   0.283   4.812  0.0976  0.4907  0.0344
 7615TIP3   OH222787   3.424   5.688   4.693  0.0281  0.0291  0.1089
 7615TIP3    H122788   3.393   5.772   4.727  1.6383  0.3608  0.8558
 7615TIP3    H222789   3.384   5.623   4.752 -0.8539  0.2879 -0.1904
 7616TIP3   OH222790   1.957   7.726   6.111  0.3955 -0.4390 -0.0508
 7616TIP3    H122791   1.976   7.796   6.174  1.6623 -0.9587  0.1897
 7616TIP3    H222792   1.887   7.760   6.057  0.5693  0.7753  0.4584
 7617TIP3   OH222793   4.646   5.156   0.927  0.1795 -0.2516 -0.2315
 7617TIP3    H122794   4.693   5.075   0.944  0.2233 -0.4007 -1.0173
 7617TIP3    H222795   4.632   5.194   1.013  1.5988 -0.2741  0.0341
 7618TIP3   OH222796   4.650   1.846   6.778  0.1035 -0.1892  0.6710
 7618TIP3    H122797   4.651   1.758   6.816  0.7298 -0.4497  0.0767
 7618TIP3    H222798   4.723   1.846   6.715 -1.5715 -0.1774 -1.3962
 7619TIP3   OH222799   1.324   7.077   5.845  0.8643 -0.0756  0.2393
 7619TIP3    H122800   1.338   7.105   5.936  0.2369 -1.0709  0.6574
 7619TIP3    H222801   1.230   7.085   5.832  1.0690  1.1110 -0.7047
 7620TIP3   OH222802   2.860   4.412   0.947 -0.1419  0.1072 -0.0449
 7620TIP3    H122803   2.853   4.403   0.851 -1.0566  1.2109 -0.0959
 7620TIP3    H222804   2.883   4.503   0.961  2.4234 -0.5902  0.7206
 7621TIP3   OH222805   5.084   2.388   5.093 -0.9445 -0.3364 -0.5098
 7621TIP3    H122806   5.131   2.454   5.144  1.1178 -0.5894 -1.9797
 7621TIP3    H222807   5.064   2.319   5.156  1.2772 -0.5048  0.1129
 7622TIP3   OH222808   3.066   0.503   1.856 -0.0670 -0.2810 -0.0198
 7622TIP3    H122809   3.104   0.549   1.931 -0.6252  0.3538 -0.1177
 7622TIP3    H222810   3.038   0.418   1.892 -0.5947  0.1322  0.5598
 7623TIP3   OH222811   0.681   4.867   4.391  0.4897  0.0326  0.4930
 7623TIP3    H122812   0.739   4.939   4.366 -0.7290  0.4135 -1.4904
 7623TIP3    H222813   0.627   4.902   4.461  1.7401  0.0880  1.4675
 7624TIP3   OH222814   4.968   0.815   1.022 -0.0871 -0.3086 -0.0918
 7624TIP3    H122815   4.950   0.908   1.009  1.2303 -0.0872 -0.4834
 7624TIP3    H222816   4.886   0.771   1.002 -0.6397  0.7494 -0.1815
 7625TIP3   OH222817   7.620   4.827   1.383  0.1098  0.1727  0.7003
 7625TIP3    H122818   7.667   4.868   1.456  0.7231  0.2616  0.2666
 7625TIP3    H222819   7.582   4.747   1.421  1.0611 -0.1760  0.9514
 7626TIP3   OH222820   0.644   4.535   0.271 -0.4740 -0.0059 -0.2748
 7626TIP3    H122821   0.665   4.557   0.180 -1.6993 -1.2752 -0.8916
 7626TIP3    H222822   0.628   4.441   0.270 -0.1422 -0.1014  1.3415
 7627TIP3   OH222823   4.119   6.950   0.622  0.5167  1.5633 -0.2008
 7627TIP3    H122824   4.061   6.944   0.698 -0.2410  1.5627 -0.7752
 7627TIP3    H222825   4.121   6.861   0.586  1.6722  1.3299  0.3892
 7628TIP3   OH222826   2.302   7.093   5.171  0.2581 -0.0028  0.4241
 7628TIP3    H122827   2.281   7.113   5.080  0.5795  1.0183  0.5590
 7628TIP3    H222828   2.227   7.044   5.203  0.3145 -0.7162 -0.5036
 7629TIP3   OH222829   5.377   4.883   0.963 -0.4179  0.0709 -0.2551
 7629TIP3    H122830   5.397   4.860   1.054  0.7184 -0.0291 -0.5227
 7629TIP3    H222831   5.302   4.942   0.970  0.6521  1.3691  0.8708
 7630TIP3   OH222832   4.259   5.808   4.964  0.5691  0.4361  0.2162
 7630TIP3    H122833   4.269   5.733   4.906  1.9629 -0.1380  1.1377
 7630TIP3    H222834   4.165   5.814   4.980  0.4247 -1.0745  0.0694
 7631TIP3   OH222835   7.423   6.996   4.236  0.3147 -0.3174 -0.0102
 7631TIP3    H122836   7.360   6.950   4.292 -0.1432  0.9413  0.5232
 7631TIP3    H222837   7.400   6.968   4.147 -0.4925 -0.4688  0.2367
 7632TIP3   OH222838   3.415   0.046   4.316 -0.3230  0.1701  0.5586
 7632TIP3    H122839   3.336   0.070   4.364 -0.5867  2.2597 -0.7892
 7632TIP3    H222840   3.425   0.115   4.250  2.1080 -0.5418  0.0802
 7633TIP3   OH222841   5.645   0.999   0.162  0.5902 -0.5709 -0.2041
 7633TIP3    H122842   5.716   1.057   0.189  0.0068  0.4785 -0.8215
 7633TIP3    H222843   5.610   0.964   0.243 -0.0671  1.2157  0.3245
 7634TIP3   OH222844   4.078   1.010   2.316 -0.0722  0.4397  0.1427
 7634TIP3    H122845   4.075   0.965   2.231  0.7448  1.0960 -0.2523
 7634TIP3    H222846   4.154   1.067   2.310 -1.0405  1.8448  0.6391
 7635TIP3   OH222847   0.856   0.377   3.870  0.6668 -0.2759 -0.0944
 7635TIP3    H122848   0.812   0.406   3.950 -1.1483  2.1670 -1.8246
 7635TIP3    H222849   0.920   0.446   3.851  0.0040 -0.0135 -1.5212
 7636TIP3   OH222850   6.999   3.559   3.487  0.7190  0.6887 -0.1070
 7636TIP3    H122851   7.057   3.489   3.456  0.7777  0.6970 -0.0175
 7636TIP3    H222852   6.977   3.532   3.576 -0.0411  0.2857 -0.4077
 7637TIP3   OH222853   3.792   1.740   2.789 -0.5814 -0.5071 -0.1942
 7637TIP3    H122854   3.880   1.719   2.757 -0.4226 -1.3086  0.7299
 7637TIP3    H222855   3.802   1.746   2.884 -0.9067  2.4870 -0.2734
 7638TIP3   OH222856   8.043   3.366   0.358 -0.3514  0.2540  0.6357
 7638TIP3    H122857   8.005   3.367   0.445  3.2774 -0.4205  2.4079
 7638TIP3    H222858   8.047   3.274   0.334 -1.6624  0.4492 -0.5123
 7639TIP3   OH222859   2.456   3.944   6.005 -1.1467 -0.5142  0.0139
 7639TIP3    H122860   2.496   3.995   6.075 -0.2299 -0.8741 -0.2301
 7639TIP3    H222861   2.436   4.008   5.937 -0.7815 -0.3536  0.0547
 7640TIP3   OH222862   7.855   0.728   4.272 -0.3559 -0.3676  0.7429
 7640TIP3    H122863   7.861   0.817   4.306  0.3248 -0.3707  0.6384
 7640TIP3    H222864   7.772   0.727   4.224 -0.9414 -0.1350  1.7118
 7641TIP3   OH222865   1.914   1.673   1.086 -0.0129 -0.4462 -0.4259
 7641TIP3    H122866   1.927   1.592   1.037  2.4789 -0.4119  0.0268
 7641TIP3    H222867   2.002   1.698   1.114 -0.9363  1.4412  1.0257
 7642TIP3   OH222868   1.012   5.949   6.279 -0.2171 -0.1509 -0.0596
 7642TIP3    H122869   1.094   5.998   6.271  1.0338 -1.5375  2.7342
 7642TIP3    H222870   0.943   6.016   6.280  1.3850  1.7263  3.4615
 7643TIP3   OH222871   2.518   2.876   2.033  0.3556 -0.2326 -0.1791
 7643TIP3    H122872   2.572   2.907   2.105  1.4313 -4.6134  1.2503
 7643TIP3    H222873   2.428   2.890   2.062  0.7722  0.2259  0.9236
 7644TIP3   OH222874   3.343   0.121   4.638 -0.3127 -0.3436 -0.3744
 7644TIP3    H122875   3.269   0.126   4.576 -0.9061  0.5993  0.3784
 7644TIP3    H222876   3.302   0.119   4.724  0.5484  1.3414  0.1119
 7645TIP3   OH222877   4.470   6.746   5.790 -0.1586 -0.4414 -0.1671
 7645TIP3    H122878   4.407   6.811   5.758  0.1152 -0.4927 -0.8213
 7645TIP3    H222879   4.549   6.762   5.738  0.9446  0.7183  1.7623
 7646TIP3   OH222880   0.648   4.904   2.833  0.4829 -0.3476  0.1676
 7646TIP3    H122881   0.554   4.887   2.841  0.4865 -1.7146 -2.1089
 7646TIP3    H222882   0.658   4.948   2.749  1.8863 -0.0355  0.4659
 7647TIP3   OH222883   4.442   2.995   2.389 -0.2719 -0.2988  0.1635
 7647TIP3    H122884   4.521   3.048   2.379  0.1971 -0.4405  2.4880
 7647TIP3    H222885   4.370   3.058   2.388  0.1445  0.2131  1.1413
 7648TIP3   OH222886   3.088   7.431   0.047 -0.5033 -0.0127 -0.1146
 7648TIP3    H122887   3.129   7.513   0.020 -2.5650  1.1512  0.0539
 7648TIP3    H222888   3.034   7.405  -0.028 -1.4355 -0.1037  0.5667
 7649TIP3   OH222889   2.767   4.481   4.177  0.0993  0.9423  0.3849
 7649TIP3    H122890   2.781   4.390   4.149  0.3385  1.1682 -0.2458
 7649TIP3    H222891   2.707   4.474   4.251 -0.4690  0.3149 -0.1161
 7650TIP3   OH222892   5.597   1.156   3.101 -0.2748  0.0776 -0.1837
 7650TIP3    H122893   5.685   1.171   3.066 -0.0132  1.7880  1.0668
 7650TIP3    H222894   5.545   1.230   3.070 -1.6528 -1.4825 -1.8595
 7651TIP3   OH222895   8.047   1.167   2.045  0.7342 -0.4831  0.2516
 7651TIP3    H122896   8.016   1.162   2.135 -0.6214  3.5851  0.2459
 7651TIP3    H222897   8.102   1.246   2.044  0.3167 -0.1182 -2.5226
 7652TIP3   OH222898   6.791   7.253   1.456 -0.3053 -0.2796  0.2687
 7652TIP3    H122899   6.864   7.314   1.467 -0.9454  0.9854 -1.8717
 7652TIP3    H222900   6.814   7.202   1.379 -2.0844  0.8769 -1.1088
 7653TIP3   OH222901   7.488   0.950   6.112  0.0796 -0.2045 -0.0276
 7653TIP3    H122902   7.536   0.967   6.192 -1.1769  0.1789  0.6732
 7653TIP3    H222903   7.496   0.855   6.099  0.6948 -0.1992  0.2666
 7654TIP3   OH222904   1.305   1.584   1.758 -0.6842  0.0992 -0.5463
 7654TIP3    H122905   1.294   1.570   1.852  0.2874  1.8587 -0.1416
 7654TIP3    H222906   1.274   1.673   1.742 -0.3196  0.0251 -1.8131
 7655TIP3   OH222907   8.145   5.573   6.063  0.1334 -0.0902 -0.1984
 7655TIP3    H122908   8.177   5.609   5.980 -0.7376  0.0443 -0.4779
 7655TIP3    H222909   8.143   5.479   6.049  0.2974 -0.0908 -0.2198
 7656TIP3   OH222910   4.476   7.360   5.911  0.5186 -0.0201 -0.1869
 7656TIP3    H122911   4.423   7.432   5.943 -1.5392 -1.1502 -0.9055
 7656TIP3    H222912   4.455   7.354   5.818  0.7828 -1.4498 -0.1725
 7657TIP3   OH222913   2.008   2.226   0.521  0.1349  0.1015 -0.3937
 7657TIP3    H122914   2.013   2.290   0.593 -1.1478  1.2764 -1.2984
 7657TIP3    H222915   2.080   2.250   0.463  0.4311 -0.0848 -0.1068
 7658TIP3   OH222916   2.660   4.316   5.578  0.3599  0.5913 -0.6325
 7658TIP3    H122917   2.611   4.331   5.497  0.6196 -0.9377 -1.0902
 7658TIP3    H222918   2.726   4.385   5.578  0.8820  0.1453 -2.1585
 7659TIP3   OH222919   0.312   1.794   1.014  0.9297 -0.5194 -0.5010
 7659TIP3    H122920   0.368   1.825   1.085 -0.1456  1.6818 -0.5149
 7659TIP3    H222921   0.305   1.869   0.955  0.0612 -1.5964 -1.8226
 7660TIP3   OH222922   2.270   6.977   6.225  0.4169  0.3219  0.0984
 7660TIP3    H122923   2.289   6.968   6.132 -2.0986  1.0852 -0.5872
 7660TIP3    H222924   2.269   7.071   6.241  2.6582  0.1914  1.3973
 7661TIP3   OH222925   1.962   0.447   3.722 -0.1920  0.3713  0.2176
 7661TIP3    H122926   1.957   0.537   3.754  0.1070  0.3129  0.4382
 7661TIP3    H222927   1.997   0.455   3.633  0.8107  0.4146  0.5954
 7662TIP3   OH222928   3.271   0.243   5.441  0.0207  0.5564  0.1554
 7662TIP3    H122929   3.247   0.192   5.519  1.6184  1.6380  1.4010
 7662TIP3    H222930   3.247   0.333   5.462  0.5156  0.8751 -0.5955
 7663TIP3   OH222931   2.856   1.887   4.909 -0.4244  0.2261  0.3400
 7663TIP3    H122932   2.788   1.921   4.967 -1.9708 -2.0081 -0.0173
 7663TIP3    H222933   2.853   1.792   4.922  1.8899 -0.0398 -0.5476
 7664TIP3   OH222934   0.996   2.575   4.832 -0.0781 -0.3833 -0.4138
 7664TIP3    H122935   0.981   2.543   4.921 -1.9989  1.4590  0.0266
 7664TIP3    H222936   1.029   2.664   4.844  1.6627 -0.8316 -1.5737
 7665TIP3   OH222937   4.638   6.182   2.457 -0.0932  0.6606 -0.1400
 7665TIP3    H122938   4.553   6.170   2.414 -0.7072 -1.9181  1.4921
 7665TIP3    H222939   4.702   6.146   2.396 -0.4603  0.5392 -0.4548
 7666TIP3   OH222940   4.412   4.299   3.892 -0.3678 -0.2978  0.0535
 7666TIP3    H122941   4.490   4.249   3.866 -0.0926  0.6258 -0.9430
 7666TIP3    H222942   4.352   4.289   3.818  0.1600  1.8002 -0.7174
 7667TIP3   OH222943   5.399   6.328   1.793  0.2850  0.4879  0.1867
 7667TIP3    H122944   5.353   6.244   1.796  0.1542  0.5755  0.8169
 7667TIP3    H222945   5.460   6.324   1.867  0.6767  0.7274 -0.1179
 7668TIP3   OH222946   0.601   2.668   6.171  0.3656 -0.8589  0.2276
 7668TIP3    H122947   0.538   2.656   6.101  0.6702 -1.5497  0.0635
 7668TIP3    H222948   0.559   2.631   6.248  0.8355 -1.9404 -0.0269
 7669TIP3   OH222949   3.776   0.682   1.623  0.0346 -0.5495  0.2289
 7669TIP3    H122950   3.765   0.750   1.690  1.7579  0.1032 -0.1007
 7669TIP3    H222951   3.858   0.639   1.646  0.6790 -0.2892 -1.4534
 7670TIP3   OH222952   8.061   3.041   1.240 -0.1704 -0.3872  0.3365
 7670TIP3    H122953   8.101   2.995   1.167 -2.1632 -0.7233 -0.6214
 7670TIP3    H222954   8.013   3.113   1.200  0.8287  1.0565  1.5927
 7671TIP3   OH222955   0.301   1.463   4.748  0.9464  0.0564 -0.3399
 7671TIP3    H122956   0.385   1.425   4.721  0.7884 -1.2325  0.8622
 7671TIP3    H222957   0.236   1.397   4.723  0.4826  0.2849  0.2426
 7672TIP3   OH222958   3.698   4.952   4.677 -0.0514 -0.0988 -0.3957
 7672TIP3    H122959   3.715   4.879   4.617 -0.2787 -2.5519  2.3144
 7672TIP3    H222960   3.785   4.987   4.696  0.0980  0.1128 -1.3951
 7673TIP3   OH222961   1.325   1.433   2.588 -0.2470 -0.5252  0.3266
 7673TIP3    H122962   1.297   1.455   2.677 -4.3334 -0.9093 -0.6620
 7673TIP3    H222963   1.356   1.343   2.594  0.9637 -0.0771  1.5257
 7674TIP3   OH222964   0.342   1.073   6.513  0.2510  0.3774  0.1096
 7674TIP3    H122965   0.388   1.142   6.465 -1.7010  2.1818  0.6567
 7674TIP3    H222966   0.256   1.068   6.471 -0.0875 -0.8668  0.8939
 7675TIP3   OH222967   4.490   1.589   1.688 -0.0100 -0.4588 -0.4550
 7675TIP3    H122968   4.420   1.607   1.626 -2.7404  1.3680  2.8472
 7675TIP3    H222969   4.474   1.499   1.718 -0.4968 -0.3058 -0.2565
 7676TIP3   OH222970   2.326   4.634   2.187 -0.1544  0.1212  0.1703
 7676TIP3    H122971   2.262   4.629   2.115  1.7419 -2.0483 -1.5423
 7676TIP3    H222972   2.298   4.565   2.248  0.1755 -0.4078 -0.2674
 7677TIP3   OH222973   1.488   4.155   4.979 -0.1553  0.7657 -0.0257
 7677TIP3    H122974   1.564   4.183   4.928 -0.7497  1.8807 -0.3333
 7677TIP3    H222975   1.444   4.237   5.003 -0.5530  0.2051  1.2492
 7678TIP3   OH222976   5.174   3.338   1.925  0.3647 -0.8617  0.0717
 7678TIP3    H122977   5.215   3.423   1.910 -0.1237 -0.8353 -1.2774
 7678TIP3    H222978   5.138   3.344   2.014 -3.7612  2.1521 -1.4931
 7679TIP3   OH222979   2.513   4.024   2.417 -0.8175 -0.0726  0.2820
 7679TIP3    H122980   2.539   3.941   2.457  0.6976  1.1961  2.1559
 7679TIP3    H222981   2.595   4.066   2.393 -1.4631  1.3447  0.4289
 7680TIP3   OH222982   2.658   6.413   6.087 -0.2233  0.0191 -0.3491
 7680TIP3    H122983   2.656   6.368   6.003  2.1220 -1.2467  0.2058
 7680TIP3    H222984   2.613   6.354   6.148 -0.7335  0.3208 -0.4269
 7681TIP3   OH222985   3.036   2.832   6.472 -0.0622  0.0566 -0.3432
 7681TIP3    H122986   3.063   2.860   6.559 -1.8255  0.3914  0.1357
 7681TIP3    H222987   3.099   2.874   6.413 -0.6987  2.4784  0.5596
 7682TIP3   OH222988   0.754   3.589   0.758 -0.1322 -0.0903 -0.0669
 7682TIP3    H122989   0.715   3.673   0.733 -1.4254 -1.2729 -2.4526
 7682TIP3    H222990   0.682   3.539   0.797 -0.1007 -1.0005 -1.1171
 7683TIP3   OH222991   2.515   4.397   5.358 -0.5729 -0.2280  0.0259
 7683TIP3    H122992   2.576   4.464   5.326 -1.3229  0.1430 -0.6521
 7683TIP3    H222993   2.537   4.319   5.307 -2.2507  0.5511 -2.0521
 7684TIP3   OH222994   6.897   7.172   3.150 -0.2968 -0.3039 -0.6068
 7684TIP3    H122995   6.834   7.179   3.078 -0.3037 -0.1775 -0.5900
 7684TIP3    H222996   6.855   7.114   3.213  0.9475 -2.9368 -2.0159
 7685TIP3   OH222997   6.010   0.822   1.624  0.0110  0.0576  0.2834
 7685TIP3    H122998   5.986   0.863   1.541  0.6440 -1.6217 -0.7758
 7685TIP3    H222999   6.093   0.778   1.606 -1.0061 -2.3622  1.1016
 7686TIP3   OH223000   6.726   6.387   4.465 -0.2453  0.1012 -0.0566
 7686TIP3    H123001   6.659   6.445   4.502  0.9702  1.0723  0.7168
 7686TIP3    H223002   6.677   6.317   4.424 -1.7430  0.9031  0.2878
 7687TIP3   OH223003   5.159   1.518   0.106 -0.5497 -0.0693 -0.3093
 7687TIP3    H123004   5.143   1.571   0.184  1.1948  1.7232 -1.0852
 7687TIP3    H223005   5.199   1.437   0.140  0.1955  0.6835  0.6735
 7688TIP3   OH223006   4.574   2.032   2.296  0.5879  0.4318  0.1285
 7688TIP3    H123007   4.501   1.989   2.339  0.8432  0.9297  1.0861
 7688TIP3    H223008   4.534   2.084   2.226  0.3099 -1.6655 -1.3572
 7689TIP3   OH223009   7.996   0.764   5.424  0.7595  0.3729 -0.0235
 7689TIP3    H123010   7.990   0.729   5.513  2.3582 -2.1166 -0.7796
 7689TIP3    H223011   8.090   0.772   5.408  0.4868  3.1970 -0.6803
 7690TIP3   OH223012   3.675   6.250   6.039 -0.5154 -0.1907  0.6221
 7690TIP3    H123013   3.657   6.190   6.112  0.3152  0.7127  1.6047
 7690TIP3    H223014   3.633   6.209   5.964 -1.3254 -1.2080  1.5831
 7691TIP3   OH223015   5.192   5.694   5.262  0.3084  0.0812 -0.5428
 7691TIP3    H123016   5.231   5.715   5.347 -1.0974 -1.3891  0.5260
 7691TIP3    H223017   5.201   5.599   5.254  3.1124  0.3823 -3.4935
 7692TIP3   OH223018   3.644   0.483   3.454  0.3689  0.3970  0.6798
 7692TIP3    H123019   3.710   0.523   3.511  0.3376  3.2201 -1.0356
 7692TIP3    H223020   3.632   0.547   3.384 -3.7555 -0.2374  0.5726
 7693TIP3   OH223021   4.740   3.565   5.379  0.0968 -0.8076  0.1116
 7693TIP3    H123022   4.688   3.554   5.458  0.6999  0.6137  0.7466
 7693TIP3    H223023   4.743   3.660   5.366  0.9778 -0.9631 -0.9572
 7694TIP3   OH223024   2.169   7.307   2.093  0.0037 -0.1151  0.1254
 7694TIP3    H123025   2.246   7.308   2.036 -0.6961 -0.8873 -0.8846
 7694TIP3    H223026   2.168   7.393   2.134  0.0330  0.8381 -1.7504
 7695TIP3   OH223027   3.910   6.295   3.002 -0.3366  0.2487  0.0074
 7695TIP3    H123028   3.881   6.291   3.093 -1.8753  1.0298 -0.4026
 7695TIP3    H223029   3.978   6.362   3.001 -0.0494 -0.0257  0.6375
 7696TIP3   OH223030   0.598   4.966   6.377 -0.0455 -0.0901 -0.2049
 7696TIP3    H123031   0.504   4.982   6.372 -0.3075 -0.8813  1.5002
 7696TIP3    H223032   0.607   4.872   6.362  0.4733 -0.0341 -0.2690
 7697TIP3   OH223033   6.355   1.780   3.944 -0.0059  0.3657  0.0373
 7697TIP3    H123034   6.367   1.857   3.887 -1.0755  0.4698 -0.0591
 7697TIP3    H223035   6.353   1.817   4.032 -0.3784  0.4270  0.0014
 7698TIP3   OH223036   7.281   1.202   0.744  0.2339 -0.1463  0.0703
 7698TIP3    H123037   7.198   1.161   0.719  0.8425 -2.1197  1.0675
 7698TIP3    H223038   7.344   1.169   0.681  0.6691 -0.4547  0.6553
 7699TIP3   OH223039   7.295   0.872   0.263 -0.2014  0.0192 -0.1573
 7699TIP3    H123040   7.309   0.907   0.175 -0.8481 -0.2978 -0.3956
 7699TIP3    H223041   7.246   0.790   0.249 -2.6431  1.2411  0.5937
 7700TIP3   OH223042   3.521   4.063   6.757  0.1472 -0.3960  0.0470
 7700TIP3    H123043   3.506   4.156   6.778 -1.5280 -0.4000 -0.9483
 7700TIP3    H223044   3.616   4.056   6.745  0.5036  0.8223  1.7298
 7701TIP3   OH223045   3.364   0.826   2.243 -0.4561 -0.3929 -0.4135
 7701TIP3    H123046   3.394   0.742   2.278 -0.1527 -0.8951 -1.8175
 7701TIP3    H223047   3.416   0.892   2.289  0.8947 -1.1081 -0.8872
 7702TIP3   OH223048   1.276   6.436   1.756 -0.0418  0.6075  0.5023
 7702TIP3    H123049   1.297   6.436   1.662 -1.2515 -0.5223  0.1912
 7702TIP3    H223050   1.332   6.367   1.792 -1.0601 -0.4165  0.1966
 7703TIP3   OH223051   3.677   1.177   1.992 -0.4876 -0.4250  0.0871
 7703TIP3    H123052   3.772   1.183   1.996 -0.5259  0.1293  0.3139
 7703TIP3    H223053   3.659   1.126   1.913 -0.0543  0.8930 -0.8905
 7704TIP3   OH223054   6.181   2.107   5.185  0.1482  0.0362 -0.0284
 7704TIP3    H123055   6.219   2.127   5.099 -1.1952  0.2604 -0.5986
 7704TIP3    H223056   6.139   2.022   5.173  0.4822 -0.2250  0.6009
 7705TIP3   OH223057   0.124   5.294   6.453 -0.2778 -0.0268  0.4124
 7705TIP3    H123058   0.034   5.304   6.423 -0.3392 -1.4612  0.0204
 7705TIP3    H223059   0.134   5.360   6.522 -0.9558  1.5532 -0.9501
 7706TIP3   OH223060   1.868   1.169   2.310  0.4957  0.0079 -0.1240
 7706TIP3    H123061   1.856   1.223   2.233 -1.8625 -0.0502  0.1207
 7706TIP3    H223062   1.863   1.079   2.277 -2.1731 -0.0371  0.2099
 7707TIP3   OH223063   4.945   3.565   2.932 -0.4362  0.9280 -0.3039
 7707TIP3    H123064   4.983   3.650   2.954 -0.3867  0.4700  1.5156
 7707TIP3    H223065   4.946   3.516   3.013  0.7545 -1.3314 -1.5928
 7708TIP3   OH223066   6.900   5.415   5.845 -0.3136  0.0232  0.9836
 7708TIP3    H123067   6.984   5.455   5.867  2.0178 -1.7279 -3.3695
 7708TIP3    H223068   6.857   5.479   5.787 -1.4585  0.3747  2.1784
 7709TIP3   OH223069   7.197   5.585   4.928  0.0929 -0.0937 -0.0269
 7709TIP3    H123070   7.263   5.597   4.997  0.8263  1.5701 -0.9613
 7709TIP3    H223071   7.222   5.505   4.883  1.5939  0.6056 -0.4708
 7710TIP3   OH223072   1.506   1.904   2.648 -0.3116  0.1852  0.5205
 7710TIP3    H123073   1.413   1.894   2.665 -0.4979 -1.5056 -1.1506
 7710TIP3    H223074   1.511   1.945   2.562  0.3269 -2.9049 -1.0954
 7711TIP3   OH223075   6.155   2.755   0.576 -0.2270 -0.0486 -0.4387
 7711TIP3    H123076   6.233   2.703   0.556 -0.9533 -1.4105  0.1740
 7711TIP3    H223077   6.158   2.767   0.670 -2.3956 -2.9703  0.1571
 7712TIP3   OH223078   2.766   3.629   4.452  1.0514 -0.3220 -0.0878
 7712TIP3    H123079   2.833   3.640   4.519 -0.2983 -0.7265  1.4010
 7712TIP3    H223080   2.725   3.544   4.473  1.4406 -1.0817 -2.2246
 7713TIP3   OH223081   7.380   1.463   2.291 -0.3813  0.2499 -0.1036
 7713TIP3    H123082   7.418   1.537   2.338  0.9130 -0.4032 -0.0625
 7713TIP3    H223083   7.429   1.459   2.209 -1.4743  0.3536 -0.7741
 7714TIP3   OH223084   6.214   7.206   1.593  0.4091 -0.0209 -0.0869
 7714TIP3    H123085   6.252   7.175   1.511  0.8741 -1.5472  0.6769
 7714TIP3    H223086   6.289   7.237   1.643  0.0055  2.0367 -0.6505
 7715TIP3   OH223087   5.723   4.817   4.401 -0.3782  0.1684 -0.0377
 7715TIP3    H123088   5.632   4.845   4.405 -0.5211 -0.2077 -0.5140
 7715TIP3    H223089   5.762   4.871   4.333 -0.0742  0.7817  0.6128
 7716TIP3   OH223090   3.257   6.087   6.517  0.0724 -0.5428  0.9807
 7716TIP3    H123091   3.347   6.093   6.488 -0.0649  0.2464  0.7116
 7716TIP3    H223092   3.259   6.021   6.587  1.0933  0.4578  1.9264
 7717TIP3   OH223093   6.261   0.519   0.246  0.0588  0.6473 -0.0887
 7717TIP3    H123094   6.254   0.612   0.266 -1.6001  0.2975  1.1570
 7717TIP3    H223095   6.175   0.482   0.267  0.1368 -0.9144 -2.1270
 7718TIP3   OH223096   1.122   7.017   4.367 -0.0645 -0.0901  0.4457
 7718TIP3    H123097   1.076   7.082   4.315  1.4844  0.4296 -0.3384
 7718TIP3    H223098   1.109   7.045   4.458 -1.1162  0.1320  0.2381
 7719TIP3   OH223099   6.373   0.374   3.160 -0.5108 -0.1227 -0.3521
 7719TIP3    H123100   6.349   0.443   3.099 -0.2441 -1.0424 -1.5454
 7719TIP3    H223101   6.435   0.415   3.220 -0.6464  0.7665 -0.8101
 7720TIP3   OH223102   5.135   6.192   4.337  0.0044 -0.2624 -0.1562
 7720TIP3    H123103   5.165   6.283   4.330 -0.4327 -0.0567  0.5093
 7720TIP3    H223104   5.104   6.184   4.427  0.0410 -1.0775 -0.2094
 7721TIP3   OH223105   7.033   4.449   5.601 -0.0730  0.0363  0.4332
 7721TIP3    H123106   7.099   4.453   5.671 -0.6551 -1.6362  1.1111
 7721TIP3    H223107   7.083   4.464   5.521  0.6855  1.5196  1.1418
 7722TIP3   OH223108   1.985   0.798   2.022 -0.4550  0.5113 -0.1743
 7722TIP3    H123109   1.976   0.746   1.942 -0.5339 -0.6035  0.5408
 7722TIP3    H223110   2.071   0.775   2.056 -1.0844 -0.3169  0.9368
 7723TIP3   OH223111   1.081   3.071   4.350 -0.0034  0.2234  0.6933
 7723TIP3    H123112   1.079   3.108   4.439  1.2416  1.6164  0.1918
 7723TIP3    H223113   1.097   2.977   4.364 -1.3179  0.1496  1.9648
 7724TIP3   OH223114   6.699   1.850   1.879  0.4908 -0.1038  0.2561
 7724TIP3    H123115   6.772   1.825   1.936  0.4430  2.6446  1.7245
 7724TIP3    H223116   6.679   1.941   1.904 -2.0305 -0.0241 -1.6011
 7725TIP3   OH223117   4.096   4.117   0.636 -0.2116  0.0114  0.4893
 7725TIP3    H123118   4.093   4.055   0.564 -0.6325 -0.3815  0.8392
 7725TIP3    H223119   4.189   4.138   0.646 -0.2883  1.3560 -1.2390
 7726TIP3   OH223120   2.717   3.893   5.238  0.1038  0.0920 -0.5181
 7726TIP3    H123121   2.638   3.852   5.273 -0.4420  2.1723  0.9018
 7726TIP3    H223122   2.775   3.901   5.314 -0.3249  2.9566 -0.3858
 7727TIP3   OH223123   0.888   6.091   3.384  0.6495 -0.0784 -0.0733
 7727TIP3    H123124   0.877   5.996   3.382 -2.5011  0.1670 -1.6165
 7727TIP3    H223125   0.895   6.113   3.477 -2.5099 -1.6289  0.6756
 7728TIP3   OH223126   3.990   1.649   0.161 -0.7277  0.4929 -0.1799
 7728TIP3    H123127   3.909   1.624   0.204 -1.6624  0.2428 -1.9869
 7728TIP3    H223128   3.972   1.734   0.121 -0.3046  0.1980 -1.0415
 7729TIP3   OH223129   2.169   5.636   4.157 -0.0882 -0.1122  0.0032
 7729TIP3    H123130   2.103   5.570   4.133 -0.3308 -0.3913  1.3501
 7729TIP3    H223131   2.219   5.650   4.077 -2.7923  1.3403 -1.5994
 7730TIP3   OH223132   4.102   5.276   5.294  0.1885  0.5276  0.7060
 7730TIP3    H123133   4.079   5.260   5.202  1.6221  1.1670  0.1988
 7730TIP3    H223134   4.110   5.372   5.299  0.8311  0.4454  1.3093
 7731TIP3   OH223135   0.561   6.498   4.327 -0.1420 -0.3862  0.2378
 7731TIP3    H123136   0.574   6.544   4.410  1.3814  0.2395 -0.3191
 7731TIP3    H223137   0.483   6.540   4.289 -0.8197 -0.6378  1.2967
 7732TIP3   OH223138   0.706   6.108   5.450  0.2541  0.4382 -0.4197
 7732TIP3    H123139   0.754   6.063   5.519 -0.6437  0.7550  0.4362
 7732TIP3    H223140   0.774   6.152   5.398  1.1362 -1.6298 -1.1357
 7733TIP3   OH223141   6.734   3.602   5.596 -0.1247  0.7071  0.2961
 7733TIP3    H123142   6.656   3.652   5.619 -0.5406 -0.3369  1.2461
 7733TIP3    H223143   6.733   3.599   5.500 -1.8436 -0.1666  0.3031
 7734TIP3   OH223144   8.178   0.491   0.581  0.3389 -0.1495  0.0018
 7734TIP3    H123145   8.128   0.457   0.656 -0.6566 -0.2152 -0.6702
 7734TIP3    H223146   8.168   0.423   0.514  1.6703 -0.3396 -0.0258
 7735TIP3   OH223147   7.997   3.228   4.585  0.3455 -0.6493 -0.3466
 7735TIP3    H123148   8.071   3.218   4.645  0.5271 -0.8561 -0.6027
 7735TIP3    H223149   8.031   3.280   4.513  0.9867 -2.7960 -1.6958
 7736TIP3   OH223150   5.226   5.859   5.050  0.5379 -0.2018  0.0136
 7736TIP3    H123151   5.165   5.830   4.983  2.1842 -2.2903 -0.7056
 7736TIP3    H223152   5.206   5.805   5.126  0.1356  0.5989  0.4924
 7737TIP3   OH223153   6.320   3.234   3.469 -0.5247  0.7222  0.0306
 7737TIP3    H123154   6.246   3.232   3.407 -1.7937 -0.7806  1.4754
 7737TIP3    H223155   6.385   3.175   3.430 -1.2706 -0.1336  0.0303
 7738TIP3   OH223156   5.527   6.917   0.281  0.4095  0.1477 -0.0785
 7738TIP3    H123157   5.455   6.907   0.344  0.6847 -0.3948  0.1572
 7738TIP3    H223158   5.573   6.833   0.284 -0.4043 -0.4274 -2.0372
 7739TIP3   OH223159   3.791   1.039   3.846  0.2834 -0.1581 -0.0560
 7739TIP3    H123160   3.745   1.118   3.874  0.9744  0.7791 -1.4823
 7739TIP3    H223161   3.882   1.055   3.867  0.2809 -1.0770  0.7028
 7740TIP3   OH223162   5.552   1.735   5.558  0.1301 -0.6601 -0.5427
 7740TIP3    H123163   5.540   1.656   5.506  1.1650 -0.9235 -0.4100
 7740TIP3    H223164   5.621   1.784   5.513 -1.4041  0.8447 -1.3700
 7741TIP3   OH223165   7.160   2.297   1.659 -1.1085 -0.3013  0.1329
 7741TIP3    H123166   7.085   2.243   1.684  1.0358 -3.1054  1.0807
 7741TIP3    H223167   7.224   2.283   1.729  0.8770  0.7180 -1.3686
 7742TIP3   OH223168   4.205   2.716   4.670  0.0521 -0.6528 -0.2226
 7742TIP3    H123169   4.215   2.739   4.578  1.0211 -0.7081 -0.1331
 7742TIP3    H223170   4.246   2.788   4.717  1.6246 -1.7309  0.1000
 7743TIP3   OH223171   7.735   2.911   4.196  0.0969  0.8237 -0.0886
 7743TIP3    H123172   7.775   2.966   4.264  1.1951 -0.7296  0.5984
 7743TIP3    H223173   7.809   2.879   4.144 -0.5458  0.3243 -0.7246
 7744TIP3   OH223174   1.850   3.606   6.740  0.6325 -0.0579  0.0038
 7744TIP3    H123175   1.825   3.596   6.648 -2.3926  0.3778  0.6848
 7744TIP3    H223176   1.921   3.670   6.738 -0.4631  1.2105 -1.9515
 7745TIP3   OH223177   4.725   1.851   1.648  0.4874  0.3480 -0.0178
 7745TIP3    H123178   4.642   1.896   1.662  0.5872  0.6480 -0.3952
 7745TIP3    H223179   4.789   1.921   1.639  1.0401  0.1235  1.7547
 7746TIP3   OH223180   0.642   1.918   4.240 -0.2623  0.2135 -0.3282
 7746TIP3    H123181   0.708   1.856   4.211  0.4667  0.9810 -0.3268
 7746TIP3    H223182   0.565   1.864   4.258  0.7306 -0.8619  0.9027
 7747TIP3   OH223183   2.420   0.889   4.614  0.4746 -0.2437  0.6790
 7747TIP3    H123184   2.465   0.882   4.699 -0.0381  0.5529  1.0277
 7747TIP3    H223185   2.340   0.838   4.627  0.0427  0.4822  0.9301
 7748TIP3   OH223186   0.824   0.837   2.447 -0.0423 -0.1988 -0.1792
 7748TIP3    H123187   0.792   0.751   2.475 -2.0800  0.9925  1.3087
 7748TIP3    H223188   0.845   0.883   2.528 -0.9929  1.4552 -0.8340
 7749TIP3   OH223189   5.756   1.848   0.154 -0.4833  0.7345  0.1313
 7749TIP3    H123190   5.709   1.890   0.225  0.2793 -0.1208  1.1749
 7749TIP3    H223191   5.834   1.902   0.141  0.6375 -0.4417  1.6590
 7750TIP3   OH223192   5.154   7.253   1.232  0.0747 -0.0633 -0.2678
 7750TIP3    H123193   5.062   7.236   1.250 -0.3031  1.0562 -1.0028
 7750TIP3    H223194   5.200   7.176   1.265 -0.9492  0.1128  1.6672
 7751TIP3   OH223195   0.084   2.523   2.372  0.2453 -0.0300  0.2174
 7751TIP3    H123196   0.009   2.467   2.393  0.3577 -0.1256  0.3658
 7751TIP3    H223197   0.055   2.576   2.298  0.2760 -0.5704 -0.1868
 7752TIP3   OH223198   7.258   1.580   1.408 -0.0991 -0.3342  0.4563
 7752TIP3    H123199   7.322   1.611   1.344  0.0125  0.1043  0.7783
 7752TIP3    H223200   7.310   1.529   1.471 -0.3323 -1.5158 -0.2761
 7753TIP3   OH223201   7.862   7.747   3.230  0.3701  0.5739  0.1353
 7753TIP3    H123202   7.833   7.838   3.225  0.7786  0.7135  0.2939
 7753TIP3    H223203   7.781   7.696   3.236  0.1510  0.9424  0.3118
 7754TIP3   OH223204   7.121   2.090   4.104 -0.4378 -0.0757 -0.2877
 7754TIP3    H123205   7.197   2.142   4.130  0.1719 -0.3260 -1.4726
 7754TIP3    H223206   7.127   2.010   4.157 -1.0073  0.7394  1.0571
 7755TIP3   OH223207   7.778   1.693   0.810 -0.0745 -0.3239  0.1026
 7755TIP3    H123208   7.862   1.672   0.852  2.1167  0.1803 -3.6208
 7755TIP3    H223209   7.754   1.614   0.763 -0.8684  0.0777 -0.1903
 7756TIP3   OH223210   7.498   4.901   3.296  0.0168  0.3283  0.2172
 7756TIP3    H123211   7.496   4.972   3.360  3.0868  0.9476 -0.2443
 7756TIP3    H223212   7.588   4.870   3.297 -0.0523 -0.3309 -3.0302
 7757TIP3   OH223213   5.181   5.621   1.463  0.1534 -0.1048 -0.2086
 7757TIP3    H123214   5.160   5.569   1.541 -2.6440 -0.3798 -1.0116
 7757TIP3    H223215   5.144   5.707   1.481 -0.0694 -0.0206 -1.0110
 7758TIP3   OH223216   3.246   6.160   6.124 -0.0511 -0.0598 -0.2463
 7758TIP3    H123217   3.213   6.226   6.185 -0.4211  0.3407 -0.8670
 7758TIP3    H223218   3.305   6.208   6.066 -1.6095  0.1221 -1.7796
 7759TIP3   OH223219   7.764   3.795   1.086  0.5108 -0.0217 -0.7043
 7759TIP3    H123220   7.740   3.846   1.009 -0.1181 -1.5189 -1.5410
 7759TIP3    H223221   7.779   3.707   1.053  0.9310 -0.5417  0.7933
 7760TIP3   OH223222   5.291   6.242   3.443 -0.5192  0.0488 -0.7737
 7760TIP3    H123223   5.254   6.159   3.413 -3.1874  0.6812  0.4139
 7760TIP3    H223224   5.296   6.232   3.538  2.6337  0.0074 -0.8531
 7761TIP3   OH223225   4.930   4.551   0.735 -0.3343  0.9141 -0.0353
 7761TIP3    H123226   4.985   4.598   0.673  0.1524 -0.2899 -0.5273
 7761TIP3    H223227   4.872   4.497   0.681  0.7918 -0.9428  0.5182
 7762TIP3   OH223228   4.935   4.149   2.965 -0.2395  0.3235  0.0856
 7762TIP3    H123229   5.027   4.171   2.950 -0.2591 -0.4693 -1.4870
 7762TIP3    H223230   4.887   4.230   2.946  0.0587  0.4283 -0.2268
 7763TIP3   OH223231   2.822   1.637   6.321 -0.4302  0.0607  0.0895
 7763TIP3    H123232   2.863   1.720   6.346  1.2032 -0.3134 -1.1762
 7763TIP3    H223233   2.770   1.658   6.243  1.5225 -0.3981 -1.4154
 7764TIP3   OH223234   6.845   5.105   0.924 -0.6264 -0.7414  0.5189
 7764TIP3    H123235   6.924   5.059   0.895 -0.6431  0.2432 -1.1933
 7764TIP3    H223236   6.789   5.036   0.960 -0.1433 -1.8807 -0.8266
 7765TIP3   OH223237   2.178   7.376   1.082  0.4537  0.3720 -0.1916
 7765TIP3    H123238   2.224   7.408   1.160  2.1826  0.0990 -1.0612
 7765TIP3    H223239   2.110   7.319   1.117 -0.8850  2.6854  1.2587
 7766TIP3   OH223240   5.737   6.267   4.619 -0.1523  0.1977  0.2003
 7766TIP3    H123241   5.745   6.175   4.593  1.2244 -0.1339  1.6068
 7766TIP3    H223242   5.652   6.273   4.661  0.5247 -0.9473  1.8258
 7767TIP3   OH223243   3.150   0.253   2.067 -0.4805  0.2032  0.5288
 7767TIP3    H123244   3.216   0.185   2.078  1.5709  1.9547 -0.2974
 7767TIP3    H223245   3.067   0.206   2.068  0.7977 -2.1928  0.7921
 7768TIP3   OH223246   3.447   5.278   0.910 -0.7080 -0.2475 -0.3805
 7768TIP3    H123247   3.479   5.280   1.001  0.7361 -0.2533 -0.8642
 7768TIP3    H223248   3.505   5.216   0.866 -1.1677  0.0294 -1.3882
 7769TIP3   OH223249   1.291   1.268   0.184 -0.1251 -0.5061 -0.0949
 7769TIP3    H123250   1.215   1.225   0.224 -0.1407 -0.3381  0.0588
 7769TIP3    H223251   1.256   1.348   0.145  0.5721  2.0244  3.8333
 7770TIP3   OH223252   3.742   7.784   6.309  0.0348 -0.3232 -0.5289
 7770TIP3    H123253   3.671   7.793   6.373  0.4913  1.0504 -0.1835
 7770TIP3    H223254   3.776   7.696   6.324  1.1315  0.4552  2.2293
 7771TIP3   OH223255   6.535   5.330   3.840 -0.6626 -0.6411  0.6437
 7771TIP3    H123256   6.608   5.342   3.779 -0.2623 -0.9512  1.0489
 7771TIP3    H223257   6.531   5.413   3.888 -0.1977 -0.8214  1.0092
 7772TIP3   OH223258   7.863   0.596   3.844  0.1378  0.0725 -0.9465
 7772TIP3    H123259   7.829   0.566   3.760 -0.0709  0.1849 -0.9029
 7772TIP3    H223260   7.879   0.516   3.894  1.4783 -0.0704 -1.5509
 7773TIP3   OH223261   1.940   6.854   5.309 -0.3912  0.6805  0.0796
 7773TIP3    H123262   1.908   6.849   5.219  0.1949  0.6665 -0.1341
 7773TIP3    H223263   1.996   6.931   5.310  0.8044 -0.1636  0.0319
 7774TIP3   OH223264   7.246   5.445   0.748  0.2676  1.1222 -0.1006
 7774TIP3    H123265   7.151   5.452   0.735  0.3880  1.6352 -0.7787
 7774TIP3    H223266   7.283   5.468   0.663  1.0091  1.1756  0.2320
 7775TIP3   OH223267   4.877   3.663   6.079 -0.6790  0.2360 -0.6814
 7775TIP3    H123268   4.795   3.689   6.039 -0.4691  0.3155 -1.0665
 7775TIP3    H223269   4.939   3.657   6.006 -0.2362  0.6018 -0.3468
 7776TIP3   OH223270   4.680   0.193   5.403  0.7992  0.2120  0.3569
 7776TIP3    H123271   4.650   0.166   5.316 -0.0665 -0.6395  0.9013
 7776TIP3    H223272   4.601   0.191   5.457  1.4276  0.1976  1.2985
 7777TIP3   OH223273   0.561   7.102   5.401 -0.1963  0.3569  0.5465
 7777TIP3    H123274   0.498   7.127   5.334 -3.8048 -0.0853  3.4481
 7777TIP3    H223275   0.614   7.181   5.415 -0.4856  0.9706 -1.5478
 7778TIP3   OH223276   1.688   7.317   6.730  0.1551  0.1526  0.6643
 7778TIP3    H123277   1.630   7.259   6.680  1.6359 -0.5000 -0.3874
 7778TIP3    H223278   1.769   7.266   6.741  1.1163  1.6191  0.6503
 7779TIP3   OH223279   3.395   4.071   5.129 -0.0096  0.3757  0.2539
 7779TIP3    H123280   3.372   3.984   5.162 -1.1241 -0.3212 -2.1335
 7779TIP3    H223281   3.490   4.076   5.139 -0.0863 -0.4863  1.7529
 7780TIP3   OH223282   8.115   3.101   5.695  0.0580  0.3958  0.3235
 7780TIP3    H123283   8.149   3.017   5.664 -1.2897  0.5321 -1.7777
 7780TIP3    H223284   8.020   3.095   5.681 -0.1119  2.1307  0.4377
 7781TIP3   OH223285   7.331   0.346   4.587 -0.4649  0.6631 -0.2499
 7781TIP3    H123286   7.344   0.354   4.682  1.6439 -2.4280 -0.1311
 7781TIP3    H223287   7.386   0.415   4.550  0.6886  0.3325  0.7643
 7782TIP3   OH223288   1.907   6.678   4.769 -0.1860  0.3757  0.0881
 7782TIP3    H123289   1.981   6.672   4.709  0.0564  0.7052  0.3461
 7782TIP3    H223290   1.833   6.644   4.720  0.3354 -0.9244  0.1749
 7783TIP3   OH223291   5.066   3.535   0.341  0.6366 -0.0982  0.4348
 7783TIP3    H123292   5.083   3.444   0.317 -0.8014 -0.1806 -0.3530
 7783TIP3    H223293   4.983   3.532   0.390 -0.5508  1.0012 -1.4105
 7784TIP3   OH223294   2.129   6.436   3.018  0.0334 -0.0212  0.4392
 7784TIP3    H123295   2.183   6.358   3.003 -0.0441  0.1098 -0.5523
 7784TIP3    H223296   2.160   6.470   3.102  0.4917 -0.7700  0.5861
 7785TIP3   OH223297   8.225   3.671   5.378  0.3775  0.1451 -0.2755
 7785TIP3    H123298   8.153   3.612   5.400 -1.0551  0.9919 -2.2755
 7785TIP3    H223299   8.215   3.745   5.437 -0.6871  0.4299 -0.7881
 7786TIP3   OH223300   0.565   5.113   1.950  0.2441 -0.1039 -0.0094
 7786TIP3    H123301   0.540   5.113   1.858  1.8664  0.6941 -0.4971
 7786TIP3    H223302   0.603   5.026   1.965  2.1584  0.5360 -0.7965
 7787TIP3   OH223303   7.909   6.289   1.121  0.2676  0.2916 -0.1918
 7787TIP3    H123304   7.852   6.340   1.063  2.2508 -0.4348 -3.0301
 7787TIP3    H223305   7.870   6.201   1.123 -0.0436  0.4337 -0.0839
 7788TIP3   OH223306   0.918   0.319   2.762 -0.0491  0.1693  0.2626
 7788TIP3    H123307   0.979   0.349   2.829  0.5206  0.1762 -0.2491
 7788TIP3    H223308   0.940   0.370   2.684 -0.9829  0.4603  0.1769
 7789TIP3   OH223309   7.293   2.573   4.560  0.3220 -0.2674  0.1233
 7789TIP3    H123310   7.198   2.573   4.565  0.3578  0.7649  1.7584
 7789TIP3    H223311   7.321   2.623   4.638  2.1637  0.0472 -0.6819
 7790TIP3   OH223312   4.439   2.734   0.332 -0.2672  0.3476  0.1223
 7790TIP3    H123313   4.483   2.761   0.251 -2.2858 -1.3009 -1.6576
 7790TIP3    H223314   4.440   2.639   0.330  0.4759  0.2348  2.5971
 7791TIP3   OH223315   0.731   1.183   3.942 -0.1481 -0.2165 -0.6799
 7791TIP3    H123316   0.818   1.223   3.944 -0.3062  0.1040  0.0954
 7791TIP3    H223317   0.688   1.214   4.021 -0.7509 -0.8724 -0.7363
 7792TIP3   OH223318   6.907   1.830   3.289  0.5331  0.2953 -0.6364
 7792TIP3    H123319   6.937   1.889   3.220  1.9086 -0.6096 -0.8439
 7792TIP3    H223320   6.845   1.771   3.245 -0.3380  1.1383 -0.5722
 7793TIP3   OH223321   2.849   3.754   2.436 -0.2846 -0.1079 -0.3494
 7793TIP3    H123322   2.781   3.751   2.503 -0.7612  0.1722 -0.8147
 7793TIP3    H223323   2.812   3.808   2.366  0.5119  0.2566 -0.5006
 7794TIP3   OH223324   1.646   0.126   1.213  0.0153  0.2287 -0.3551
 7794TIP3    H123325   1.597   0.196   1.171 -2.0509 -1.2093 -0.5080
 7794TIP3    H223326   1.602   0.113   1.297  0.9642 -0.2375  0.0831
 7795TIP3   OH223327   1.185   5.215   4.061 -0.0134 -0.3513  0.1285
 7795TIP3    H123328   1.187   5.146   4.128 -0.1257 -0.9257 -0.4536
 7795TIP3    H223329   1.108   5.267   4.083 -0.4458 -0.9482  0.0395
 7796TIP3   OH223330   7.655   1.403   1.328 -0.6059  0.3656 -0.0923
 7796TIP3    H123331   7.704   1.476   1.292 -1.2930  1.3525  0.8952
 7796TIP3    H223332   7.711   1.326   1.314  0.6009  1.2400 -0.1798
 7797TIP3   OH223333   1.750   0.048   4.171  0.3161 -0.0713 -0.7954
 7797TIP3    H123334   1.742  -0.019   4.102  0.6135 -0.3462 -0.5647
 7797TIP3    H223335   1.666   0.094   4.169  0.0265 -0.5959 -0.8083
 7798TIP3   OH223336   3.124   6.417   4.001  0.0489  0.5484  0.1191
 7798TIP3    H123337   3.162   6.504   4.012  3.6186 -0.9782  0.9731
 7798TIP3    H223338   3.050   6.416   4.063 -0.3225  3.0225 -0.1725
 7799TIP3   OH223339   3.682   3.945   2.448  0.6886 -0.0437  0.1598
 7799TIP3    H123340   3.774   3.937   2.422  0.5473 -1.4524  0.0028
 7799TIP3    H223341   3.640   3.867   2.412 -0.1966 -0.3553  1.7543
 7800TIP3   OH223342   6.609   6.199   2.929  0.0693 -0.5794 -0.9046
 7800TIP3    H123343   6.520   6.209   2.965 -0.1479 -2.4879 -0.8242
 7800TIP3    H223344   6.664   6.183   3.006 -0.1865 -3.3368 -1.2073
 7801TIP3   OH223345   5.771   5.086   5.916 -0.3113 -0.0935  0.0552
 7801TIP3    H123346   5.805   5.017   5.859 -1.0187  0.2544 -0.8145
 7801TIP3    H223347   5.733   5.150   5.856  0.2580  1.0203  0.8445
 7802TIP3   OH223348   5.679   3.613   3.727  0.0493 -0.0135  0.0079
 7802TIP3    H123349   5.672   3.589   3.635  0.8902 -3.4425  0.7148
 7802TIP3    H223350   5.772   3.604   3.747 -0.2996 -0.6524  1.4725
 7803TIP3   OH223351   4.291   5.683   2.637  0.2844 -0.2316  0.4833
 7803TIP3    H123352   4.375   5.660   2.597 -0.4080 -1.4332 -0.3305
 7803TIP3    H223353   4.276   5.774   2.609 -0.3931 -1.1374 -2.4960
 7804TIP3   OH223354   2.353   0.432   0.680 -0.1079 -0.5514  0.4833
 7804TIP3    H123355   2.360   0.492   0.606 -0.7074 -0.3672  0.5757
 7804TIP3    H223356   2.354   0.489   0.757 -0.7330 -0.6512  0.5703
 7805TIP3   OH223357   5.701   5.453   0.935 -0.3276 -0.1344  0.2302
 7805TIP3    H123358   5.698   5.357   0.933 -0.9102 -0.1234  0.3441
 7805TIP3    H223359   5.615   5.479   0.969 -0.7688  0.4583 -1.2509
 7806TIP3   OH223360   2.198   2.661   2.688  0.3412 -0.4913 -0.1328
 7806TIP3    H123361   2.178   2.744   2.645 -1.8253  0.1808  1.9656
 7806TIP3    H223362   2.113   2.621   2.703  1.1846 -1.8575  1.2290
 7807TIP3   OH223363   7.449   6.113   2.006  0.4428 -0.0513  0.4184
 7807TIP3    H123364   7.538   6.091   1.976  0.0989 -1.6686  0.4815
 7807TIP3    H223365   7.393   6.051   1.960 -0.5756  0.4090  1.0161
 7808TIP3   OH223366   1.936   4.819   1.122 -0.1806 -0.3369 -0.4137
 7808TIP3    H123367   1.974   4.907   1.125  2.2059 -1.1447 -2.6852
 7808TIP3    H223368   1.967   4.777   1.202 -0.6842  0.5984  0.3033
 7809TIP3   OH223369   3.898   6.143   1.374 -0.1271  0.3918 -0.0857
 7809TIP3    H123370   3.858   6.057   1.362 -0.1501  0.3416  0.3360
 7809TIP3    H223371   3.829   6.206   1.350 -0.5878  0.3130  0.9621
 7810TIP3   OH223372   4.255   2.406   3.994 -0.8748  0.2161 -0.1225
 7810TIP3    H123373   4.262   2.373   3.905 -0.8031  0.2064 -0.1132
 7810TIP3    H223374   4.345   2.406   4.027 -1.1175 -1.7186  0.6524
 7811TIP3   OH223375   6.981   7.186   4.216  0.4042  0.0411 -0.0909
 7811TIP3    H123376   7.043   7.144   4.276 -0.3105  0.5534  1.0426
 7811TIP3    H223377   7.027   7.265   4.186  0.1120  0.7103  1.1759
 7812TIP3   OH223378   6.238   4.063   4.075  0.4977 -0.5920 -0.5150
 7812TIP3    H123379   6.332   4.082   4.082  1.1837 -2.1268 -3.7634
 7812TIP3    H223380   6.234   3.978   4.031 -2.4108 -0.1892 -1.2107
 7813TIP3   OH223381   2.585   4.162   5.255  0.8810  0.1691 -0.3803
 7813TIP3    H123382   2.611   4.076   5.287  0.2224  0.3890  0.8097
 7813TIP3    H223383   2.632   4.172   5.172  1.0848 -1.2624 -0.4633
 7814TIP3   OH223384   3.786   0.824   1.868 -0.6194  0.4771 -0.1378
 7814TIP3    H123385   3.755   0.734   1.880 -2.5727  1.2584  1.3480
 7814TIP3    H223386   3.757   0.869   1.948  1.7883  2.0614 -0.0634
 7815TIP3   OH223387   3.830   5.144   4.082 -0.4279 -0.3523  0.3361
 7815TIP3    H123388   3.871   5.152   3.996 -0.2051  0.3729  0.5029
 7815TIP3    H223389   3.823   5.050   4.096 -1.6221 -0.4958 -1.0028
 7816TIP3   OH223390   0.100   1.271   4.892 -0.1263 -0.1936 -0.0375
 7816TIP3    H123391   0.038   1.228   4.833 -0.3947 -0.5336  0.4858
 7816TIP3    H223392   0.050   1.340   4.935 -0.0400 -0.2034  0.0827
 7817TIP3   OH223393   1.872   7.631   3.683  0.2457 -0.1009 -0.0925
 7817TIP3    H123394   1.967   7.638   3.684  0.2982 -0.7234 -0.3366
 7817TIP3    H223395   1.854   7.537   3.691 -0.4153  0.1749  2.8857
 7818TIP3   OH223396   4.578   2.184   3.492  0.3713 -0.0391 -0.6817
 7818TIP3    H123397   4.619   2.188   3.578 -0.9279  1.7860 -0.1127
 7818TIP3    H223398   4.627   2.115   3.446  0.6711 -1.5231  1.6920
 7819TIP3   OH223399   5.114   1.779   0.638  0.2939  0.1805 -0.4066
 7819TIP3    H123400   5.075   1.835   0.704  1.7115  0.8797 -0.1105
 7819TIP3    H223401   5.064   1.698   0.641 -0.2040  0.5256  0.9143
 7820TIP3   OH223402   5.177   6.846   5.777  0.3145  0.0065 -0.4388
 7820TIP3    H123403   5.226   6.786   5.834  0.0840 -0.4554 -0.7237
 7820TIP3    H223404   5.245   6.901   5.738  0.5284 -0.0648 -0.1736
 7821TIP3   OH223405   4.622   4.516   2.673  0.0580  0.1151  0.5902
 7821TIP3    H123406   4.599   4.507   2.580 -0.7072 -0.4263  0.8234
 7821TIP3    H223407   4.681   4.592   2.675 -1.4985  1.4178 -0.0853
 7822TIP3   OH223408   6.196   7.621   0.825 -0.7615  0.5455  0.1846
 7822TIP3    H123409   6.268   7.569   0.790 -0.3311  2.0718 -1.3504
 7822TIP3    H223410   6.117   7.577   0.793 -0.4382  0.1990 -0.1475
 7823TIP3   OH223411   4.773   3.291   5.931  0.3866  0.1765 -0.2083
 7823TIP3    H123412   4.857   3.333   5.950  0.3995 -0.7845  2.2318
 7823TIP3    H223413   4.771   3.215   5.989 -1.5399 -0.6857 -1.3034
 7824TIP3   OH223414   6.878   6.864   4.397  0.2911  0.1400  0.1305
 7824TIP3    H123415   6.919   6.779   4.383 -1.7552 -1.0047  0.5986
 7824TIP3    H223416   6.890   6.881   4.491 -1.3668 -0.8477  0.5590
 7825TIP3   OH223417   1.666   5.565   6.561  0.0399 -0.0544  0.3035
 7825TIP3    H123418   1.638   5.603   6.477  1.4814 -2.1507 -1.2299
 7825TIP3    H223419   1.756   5.596   6.572  0.0399 -0.2349  0.8189
 7826TIP3   OH223420   3.012   0.121   1.525  0.0600 -0.3022  0.2875
 7826TIP3    H123421   3.002   0.197   1.468  2.1202  0.3380  0.7104
 7826TIP3    H223422   2.988   0.047   1.469  2.5138  0.2455 -1.6737
 7827TIP3   OH223423   6.566   5.057   0.711 -0.1080 -0.3704  0.1261
 7827TIP3    H123424   6.613   4.974   0.717 -0.6777 -0.6484  0.9680
 7827TIP3    H223425   6.553   5.071   0.618  1.1843 -0.5441 -0.1009
 7828TIP3   OH223426   3.918   2.658   4.518  0.3145 -0.1511  0.0533
 7828TIP3    H123427   3.964   2.651   4.601  1.0198 -0.9625 -0.3929
 7828TIP3    H223428   3.904   2.752   4.506 -2.8176 -0.0734  2.6804
 7829TIP3   OH223429   1.514   4.677   0.535 -0.1115 -0.0707  0.0418
 7829TIP3    H123430   1.549   4.761   0.504  0.0402  0.6147  1.9279
 7829TIP3    H223431   1.591   4.627   0.562 -0.3020 -0.1623  0.4335
 7830TIP3   OH223432   7.823   6.630   5.230 -0.2029  0.5404 -0.2742
 7830TIP3    H123433   7.747   6.573   5.224  0.1210  0.1185 -0.3573
 7830TIP3    H223434   7.882   6.600   5.161  0.3759  0.3661  0.2945
 7831TIP3   OH223435   1.272   5.182   1.002  0.7083 -0.1579  0.3855
 7831TIP3    H123436   1.249   5.107   0.947 -1.4198  0.3900  0.4687
 7831TIP3    H223437   1.237   5.161   1.088  0.2613  0.8491  0.4552
 7832TIP3   OH223438   6.381   2.867   1.977  0.2013 -0.4195  0.4169
 7832TIP3    H123439   6.413   2.951   2.010  1.7224 -0.1338 -1.5810
 7832TIP3    H223440   6.422   2.802   2.034 -1.9942  0.0942  2.8132
 7833TIP3   OH223441   4.342   4.973   5.464  0.0257 -0.0616 -0.1761
 7833TIP3    H123442   4.369   5.047   5.410  0.5567 -0.8670 -1.0657
 7833TIP3    H223443   4.248   4.982   5.473  0.1141  0.8457 -0.0668
 7834TIP3   OH223444   3.942   6.473   5.158  0.0301  0.4347  0.3857
 7834TIP3    H123445   3.848   6.466   5.145  0.1885  1.0001 -1.2842
 7834TIP3    H223446   3.980   6.455   5.072  1.3718  1.5775  0.6991
 7835TIP3   OH223447   0.078   0.811   4.638  0.2845  0.3338 -0.3666
 7835TIP3    H123448   0.100   0.820   4.545 -0.7033  1.8392 -0.4867
 7835TIP3    H223449   0.030   0.729   4.643  0.4310  0.1880 -1.1678
 7836TIP3   OH223450   3.467   4.850   3.216  0.5128 -0.4916  0.1434
 7836TIP3    H123451   3.548   4.825   3.261  0.3153 -0.5074  0.4952
 7836TIP3    H223452   3.491   4.928   3.166  1.4145 -1.9315 -1.8094
 7837TIP3   OH223453   4.724   7.589   5.218 -0.0762  0.6225  0.2583
 7837TIP3    H123454   4.800   7.597   5.160  0.4190 -1.0181  0.6382
 7837TIP3    H223455   4.712   7.495   5.229 -2.9200  0.7907 -0.7390
 7838TIP3   OH223456   4.762   4.420   0.900 -0.2025 -0.1032  0.2598
 7838TIP3    H123457   4.825   4.464   0.843 -1.3196  0.3379 -0.6864
 7838TIP3    H223458   4.720   4.491   0.948  1.1044 -0.5064  2.0902
 7839TIP3   OH223459   0.678   0.759   3.895 -0.9266  0.5050 -0.8462
 7839TIP3    H123460   0.645   0.683   3.943  0.9611  0.6711  0.8289
 7839TIP3    H223461   0.619   0.830   3.921 -2.1529 -0.1592 -1.7155
 7840TIP3   OH223462   1.659   2.472   4.766  0.3909  0.4367  0.0696
 7840TIP3    H123463   1.630   2.534   4.700  0.5657  1.0260  0.5386
 7840TIP3    H223464   1.710   2.407   4.717  0.0511  0.5590 -0.4492
 7841TIP3   OH223465   1.049   2.029   6.486 -0.2474  0.2066 -0.1641
 7841TIP3    H123466   1.077   2.105   6.536  0.8450  0.4915 -1.1763
 7841TIP3    H223467   0.962   2.052   6.454 -0.6192  0.3443  0.8966
 7842TIP3   OH223468   0.739   6.556   2.191 -0.4098  0.4678 -0.0561
 7842TIP3    H123469   0.827   6.561   2.155 -0.1984  0.8463  0.5003
 7842TIP3    H223470   0.751   6.530   2.282 -0.7611  1.8889  0.4304
 7843TIP3   OH223471   1.569   2.785   2.350 -0.2524  1.0312  0.4626
 7843TIP3    H123472   1.583   2.875   2.379 -0.6776  1.4596 -0.5872
 7843TIP3    H223473   1.543   2.737   2.429 -0.9103  2.0441  0.8780
 7844TIP3   OH223474   1.790   5.694   5.055  0.4028 -0.1346  0.0688
 7844TIP3    H123475   1.831   5.728   4.975  0.4103 -0.0198  0.1206
 7844TIP3    H223476   1.788   5.599   5.042 -0.6591 -0.0452 -0.5857
 7845TIP3   OH223477   7.711   5.206   4.140  0.2786 -0.0153  0.3188
 7845TIP3    H123478   7.743   5.284   4.184  1.9079 -0.5317  0.1250
 7845TIP3    H223479   7.785   5.145   4.142 -0.3976 -0.9350 -1.0153
 7846TIP3   OH223480   6.009   1.288   4.190  0.1140  0.1642 -0.7544
 7846TIP3    H123481   5.981   1.233   4.263 -0.4104  1.7626  0.3031
 7846TIP3    H223482   5.931   1.298   4.136 -0.3633  1.4611  0.1290
 7847TIP3   OH223483   5.375   4.737   0.712 -0.2877 -0.2801 -0.1957
 7847TIP3    H123484   5.348   4.795   0.784 -0.6449 -1.3536  0.5657
 7847TIP3    H223485   5.338   4.776   0.634 -0.6566  0.4338  0.3275
 7848TIP3   OH223486   0.011   2.497   1.914 -0.0108  0.3030  0.5942
 7848TIP3    H123487   0.023   2.421   1.971  0.9633  0.7772  1.0513
 7848TIP3    H223488  -0.012   2.460   1.829 -0.0052 -0.4801  0.9234
 7849TIP3   OH223489   2.333   0.679   5.806  0.0301 -0.2624 -0.6456
 7849TIP3    H123490   2.321   0.588   5.835  1.1790 -0.5473 -1.0124
 7849TIP3    H223491   2.406   0.711   5.859 -1.3882  1.0011  0.6419
 7850TIP3   OH223492   1.677   1.470   2.495 -0.3146  0.4187  0.2893
 7850TIP3    H123493   1.649   1.465   2.403 -2.2740 -0.9581  0.8999
 7850TIP3    H223494   1.653   1.385   2.532  1.4308  0.5497  1.8530
 7851TIP3   OH223495   6.700   5.540   5.419 -0.0505  0.1514 -0.1789
 7851TIP3    H123496   6.632   5.546   5.353  0.8386 -2.3906 -1.4881
 7851TIP3    H223497   6.753   5.465   5.392  2.5318  1.2243  1.4584
 7852TIP3   OH223498   4.745   1.945   3.847 -0.1673  0.1692 -0.9447
 7852TIP3    H123499   4.794   1.900   3.916 -0.6315 -0.6607 -1.1356
 7852TIP3    H223500   4.715   1.874   3.790 -0.4326  0.7830 -1.5748
 7853TIP3   OH223501   5.209   2.995   1.685  0.1259 -0.1862 -0.8233
 7853TIP3    H123502   5.194   2.908   1.646 -1.5156 -0.1446 -0.3844
 7853TIP3    H223503   5.121   3.025   1.708  0.6020  1.8448 -1.4696
 7854TIP3   OH223504   1.054   3.770   0.400  0.0344  0.3800 -0.0749
 7854TIP3    H123505   1.023   3.854   0.434  1.9489  0.7123  0.9695
 7854TIP3    H223506   1.041   3.709   0.473  1.9589  0.5904  0.5106
 7855TIP3   OH223507   5.202   1.094   2.171 -0.1022 -0.0628 -0.9664
 7855TIP3    H123508   5.255   1.032   2.222  0.4247  2.2037  1.4854
 7855TIP3    H223509   5.116   1.051   2.164  0.7247 -1.8113 -0.9590
 7856TIP3   OH223510   0.208   1.355  -0.004  0.4402 -0.3965  0.0410
 7856TIP3    H123511   0.219   1.260   0.002 -0.8557 -0.4982  1.7330
 7856TIP3    H223512   0.273   1.390   0.056  0.7629 -0.2268 -0.4087
 7857TIP3   OH223513   8.240   7.548   4.379  0.1613 -0.3216 -0.0565
 7857TIP3    H123514   8.234   7.636   4.342  1.4127 -0.6397 -1.0778
 7857TIP3    H223515   8.171   7.499   4.335  0.2302 -0.1474 -0.3604
 7858TIP3   OH223516   2.765   2.378   4.674  0.5990 -0.3121  0.3395
 7858TIP3    H123517   2.789   2.435   4.602  0.4813 -0.0383  0.5170
 7858TIP3    H223518   2.848   2.339   4.702  0.7012 -0.1044  0.3236
 7859TIP3   OH223519   4.636   5.118   2.964  0.0383  0.9048  0.3076
 7859TIP3    H123520   4.664   5.095   3.053 -0.0823 -1.1188 -0.1381
 7859TIP3    H223521   4.683   5.199   2.945  0.2303  1.2610  2.1290
 7860TIP3   OH223522   4.271   0.263   2.247  0.1299  0.6593  0.0719
 7860TIP3    H123523   4.351   0.278   2.195 -0.3763  4.7792  0.1112
 7860TIP3    H223524   4.273   0.333   2.313 -1.8261 -1.2759  2.3438
 7861TIP3   OH223525   1.090   0.452   1.086 -0.2221 -0.1665  0.0013
 7861TIP3    H123526   1.116   0.364   1.059 -1.1539 -1.3051  2.4795
 7861TIP3    H223527   1.035   0.484   1.014  1.9859 -0.5895 -2.0035
 7862TIP3   OH223528   6.896   0.607   1.134 -0.3189 -0.3402 -0.5634
 7862TIP3    H123529   6.905   0.516   1.107  1.3478  0.2916 -2.3797
 7862TIP3    H223530   6.841   0.647   1.067 -1.2566 -0.0350  0.3587
 7863TIP3   OH223531   1.390   5.459   0.569 -0.3419 -0.1581  0.2917
 7863TIP3    H123532   1.310   5.424   0.609  1.3675 -1.5409  2.8130
 7863TIP3    H223533   1.448   5.383   0.562  1.7514  1.2589  1.2397
 7864TIP3   OH223534   8.198   1.433   4.970 -0.7279  1.3228  0.2096
 7864TIP3    H123535   8.118   1.381   4.962 -0.5315  1.0540 -0.0344
 7864TIP3    H223536   8.177   1.498   5.037 -0.8484  0.6926  0.7972
 7865TIP3   OH223537   1.352   4.987   3.086  0.0046 -0.6887 -0.3771
 7865TIP3    H123538   1.267   4.993   3.041  0.1904  1.7811 -0.5117
 7865TIP3    H223539   1.416   4.988   3.015  0.2042 -1.3915 -0.2173
 7866TIP3   OH223540   3.505   4.078   1.861  0.3447  0.0605  0.2187
 7866TIP3    H123541   3.455   4.146   1.907 -1.0372 -0.5382 -0.3229
 7866TIP3    H223542   3.456   3.998   1.878  1.4834 -0.6710  0.1482
 7867TIP3   OH223543   4.143   1.503   5.880 -0.3433  0.0629 -0.3363
 7867TIP3    H123544   4.226   1.522   5.923  0.0773 -1.2274 -0.5167
 7867TIP3    H223545   4.129   1.575   5.819 -1.2301  2.2543  2.2725
 7868TIP3   OH223546   0.723   5.253   4.770 -0.4202  0.1814 -0.1278
 7868TIP3    H123547   0.809   5.240   4.810 -1.3972  0.8871  2.3773
 7868TIP3    H223548   0.695   5.164   4.746  1.1580 -0.0091 -1.4120
 7869TIP3   OH223549   4.029   3.880   5.884 -0.0007 -0.3496 -0.0032
 7869TIP3    H123550   4.098   3.897   5.820 -1.0386  0.3529 -0.9699
 7869TIP3    H223551   4.076   3.861   5.966  1.3270 -0.3340 -0.7403
 7870TIP3   OH223552   6.611   6.465   5.518  0.9582 -1.1766 -0.3402
 7870TIP3    H123553   6.597   6.378   5.555 -0.6082 -0.3776  1.1153
 7870TIP3    H223554   6.535   6.516   5.548  2.5957  1.1080  0.1646
 7871TIP3   OH223555   5.546   1.640   2.760 -0.3714  0.1873 -0.2126
 7871TIP3    H123556   5.453   1.616   2.760 -1.0305  2.5158  0.6212
 7871TIP3    H223557   5.553   1.711   2.823  2.5638 -1.8232  1.9983
 7872TIP3   OH223558   6.625   4.330   3.598  0.0208 -0.5302 -0.4356
 7872TIP3    H123559   6.557   4.397   3.604  0.7365  0.2549 -0.8685
 7872TIP3    H223560   6.579   4.248   3.616 -0.4566  0.2553  2.5709
 7873TIP3   OH223561   1.169   0.076   3.406 -0.2426 -0.3319  0.7472
 7873TIP3    H123562   1.117   0.137   3.354 -1.4733 -1.8907  0.0683
 7873TIP3    H223563   1.223   0.132   3.462 -0.5740  1.3596 -0.5619
 7874TIP3   OH223564   2.861   2.275   0.660  0.0427  0.2340 -0.5068
 7874TIP3    H123565   2.940   2.265   0.713 -0.5703 -0.6012  0.2708
 7874TIP3    H223566   2.828   2.362   0.683 -0.4261 -0.2685  0.8119
 7875TIP3   OH223567   7.862   2.576   6.765  0.4225 -0.2110 -0.0024
 7875TIP3    H123568   7.946   2.586   6.720  0.7912 -0.8675  0.5210
 7875TIP3    H223569   7.857   2.483   6.785 -0.6890 -0.2793 -0.5066
 7876TIP3   OH223570   4.306   0.627   0.030  0.0351 -0.0814 -0.1944
 7876TIP3    H123571   4.347   0.706   0.065 -1.4992  0.5528  0.3016
 7876TIP3    H223572   4.339   0.620  -0.059  0.8321  0.6504  0.0295
 7877TIP3   OH223573   3.896   7.598   5.648  0.7563  0.0729 -0.3053
 7877TIP3    H123574   3.923   7.507   5.647 -0.5527 -0.3234 -0.8168
 7877TIP3    H223575   3.805   7.597   5.677  1.3381  1.4107  1.7595
 7878TIP3   OH223576   1.793   4.633   4.147  0.0353 -0.5986 -0.1938
 7878TIP3    H123577   1.851   4.649   4.073  0.2470  0.6912  0.2269
 7878TIP3    H223578   1.711   4.604   4.107 -0.0743  0.7377 -0.9864
 7879TIP3   OH223579   1.060   6.639   3.371 -0.4574 -0.1372  0.2664
 7879TIP3    H123580   1.017   6.640   3.286 -0.2411  1.1913  0.1410
 7879TIP3    H223581   1.079   6.547   3.388 -1.0126 -0.4734 -0.8596
 7880TIP3   OH223582   5.193   2.168   6.055 -0.2139  0.3292  0.2946
 7880TIP3    H123583   5.258   2.111   6.097  0.8064 -0.5933 -2.3456
 7880TIP3    H223584   5.123   2.109   6.028  1.1230  0.0547 -2.9918
 7881TIP3   OH223585   0.636   3.902   5.312  0.0980 -0.1310 -0.5594
 7881TIP3    H123586   0.545   3.873   5.316 -0.3471  1.2958  0.8586
 7881TIP3    H223587   0.687   3.822   5.322 -1.0538 -0.7156  1.3764
 7882TIP3   OH223588   0.599   0.622   0.736 -0.0002 -0.2169  0.0036
 7882TIP3    H123589   0.581   0.713   0.760  0.4458 -0.3845  1.0094
 7882TIP3    H223590   0.564   0.571   0.808  0.3680 -0.8049 -0.2288
 7883TIP3   OH223591   7.267   2.675   2.432 -0.1150 -0.6168 -0.1373
 7883TIP3    H123592   7.214   2.743   2.390 -1.1041 -0.6366  1.0271
 7883TIP3    H223593   7.310   2.719   2.505  0.8295 -0.7973 -0.5727
 7884TIP3   OH223594   4.448   5.476   2.491  0.1991 -0.0316  0.1799
 7884TIP3    H123595   4.403   5.401   2.529 -1.2515  0.0810 -1.1684
 7884TIP3    H223596   4.517   5.438   2.437  0.0717 -0.3550  0.2422
 7885TIP3   OH223597   2.461   3.146   3.344  0.2109 -0.2355  0.1176
 7885TIP3    H123598   2.549   3.175   3.369 -0.0622  1.9185 -1.1117
 7885TIP3    H223599   2.406   3.168   3.419  0.3410  0.8042 -0.0662
 7886TIP3   OH223600   5.617   1.033   1.454  0.2752 -0.1733 -0.0658
 7886TIP3    H123601   5.559   0.997   1.387  0.3856 -0.1601 -0.1680
 7886TIP3    H223602   5.558   1.073   1.517  0.1309 -0.7865  0.1986
 7887TIP3   OH223603   3.475   2.893   2.848 -0.5668  0.7855 -0.1590
 7887TIP3    H123604   3.549   2.941   2.811 -0.3660 -0.1715 -1.0619
 7887TIP3    H223605   3.421   2.870   2.772 -1.0092  0.1912  0.3233
 7888TIP3   OH223606   5.751   6.994   6.097  0.4481 -0.3298  0.2322
 7888TIP3    H123607   5.719   6.973   6.185 -1.0566 -1.5758 -0.5561
 7888TIP3    H223608   5.672   6.990   6.042  1.3700  0.3354 -1.1871
 7889TIP3   OH223609   5.502   5.226   6.674  0.2437  0.4861 -0.9728
 7889TIP3    H123610   5.487   5.319   6.689 -1.7500  0.2831 -1.4407
 7889TIP3    H223611   5.453   5.206   6.594  0.7404 -0.9435 -0.9488
 7890TIP3   OH223612   3.541   6.431   3.576  0.1534 -0.0789 -0.1557
 7890TIP3    H123613   3.464   6.483   3.597  0.9241  0.5994  1.1635
 7890TIP3    H223614   3.526   6.400   3.487 -2.2477 -1.0975  0.5082
 7891TIP3   OH223615   6.163   1.137   4.413 -0.1751  0.1911 -0.1380
 7891TIP3    H123616   6.112   1.217   4.423 -0.3971  0.2683 -1.7508
 7891TIP3    H223617   6.120   1.074   4.471  0.8678  1.5591  2.3208
 7892TIP3   OH223618   1.336   0.198   3.956 -0.0327  0.3852 -0.3827
 7892TIP3    H123619   1.339   0.167   3.865  1.8335  1.4996 -0.7340
 7892TIP3    H223620   1.246   0.178   3.984 -0.1034 -1.6971 -1.8306
 7893TIP3   OH223621   4.058   5.596   4.214  0.2860  0.5276 -0.1393
 7893TIP3    H123622   4.035   5.504   4.220 -0.4314  0.4152 -3.0479
 7893TIP3    H223623   4.021   5.636   4.293 -0.6616 -1.4039  0.4518
 7894TIP3   OH223624   0.404   0.632   0.092 -0.1357  0.5848 -0.2835
 7894TIP3    H123625   0.388   0.543   0.123 -1.5112  1.2746  1.1331
 7894TIP3    H223626   0.377   0.688   0.165 -0.0557  2.1891 -1.4249
 7895TIP3   OH223627   2.185   5.286   4.230  0.0293 -0.2302 -0.0584
 7895TIP3    H123628   2.180   5.317   4.140  2.9370  1.5840  0.2789
 7895TIP3    H223629   2.219   5.197   4.223  1.1918  0.2508 -0.7499
 7896TIP3   OH223630   5.699   3.028   4.754 -0.7453  0.2627 -0.3689
 7896TIP3    H123631   5.620   2.973   4.757 -0.8703  0.4720  0.7099
 7896TIP3    H223632   5.754   2.993   4.824 -0.6140  1.2005  0.0035
 7897TIP3   OH223633   7.752   7.145   1.453 -0.0921 -0.4351  0.6815
 7897TIP3    H123634   7.783   7.077   1.392 -0.0850  0.4363 -0.3156
 7897TIP3    H223635   7.832   7.191   1.479 -0.0963 -0.7987  1.3658
 7898TIP3   OH223636   2.063   0.594   0.577 -0.2071  0.5226  0.1652
 7898TIP3    H123637   2.117   0.670   0.555 -0.6962  1.4513  1.9681
 7898TIP3    H223638   2.098   0.563   0.660 -1.0537 -0.2268  0.2590
 7899TIP3   OH223639   6.388   2.134   4.334  0.0919 -0.3629 -0.4115
 7899TIP3    H123640   6.321   2.175   4.389  0.3129  1.0727 -1.1921
 7899TIP3    H223641   6.471   2.159   4.374  0.2377  0.1938 -1.0554
 7900TIP3   OH223642   4.566   2.403   2.323 -0.0197 -0.0345  0.2063
 7900TIP3    H123643   4.510   2.418   2.399 -0.5024 -1.3000  0.1370
 7900TIP3    H223644   4.519   2.444   2.250  0.4144  1.1274  0.5682
 7901TIP3   OH223645   7.026   1.691   1.758 -0.0561 -0.2261  0.1929
 7901TIP3    H123646   7.030   1.771   1.706  0.2804  0.2689  0.9552
 7901TIP3    H223647   7.011   1.722   1.848 -0.8856 -1.0732  0.3530
 7902TIP3   OH223648   6.448   3.990   4.797  0.1647  0.1900 -0.0883
 7902TIP3    H123649   6.405   4.045   4.863 -0.3239  1.2474 -1.2557
 7902TIP3    H223650   6.535   3.972   4.834 -0.4856 -0.1569  1.3225
 7903TIP3   OH223651   7.190   1.251   0.120 -0.5734  0.2563 -0.0700
 7903TIP3    H123652   7.242   1.315   0.071  0.1453  0.0169  0.3807
 7903TIP3    H223653   7.126   1.220   0.056  1.1390 -0.9877 -1.2603
 7904TIP3   OH223654   0.507   1.684   5.370  0.2470  0.0514 -0.7451
 7904TIP3    H123655   0.530   1.765   5.415 -0.3438  0.1641 -0.6493
 7904TIP3    H223656   0.537   1.698   5.279  0.3229  0.2952 -0.6831
 7905TIP3   OH223657   3.555   5.624   5.203 -0.6235 -0.4622 -0.5862
 7905TIP3    H123658   3.569   5.542   5.155 -3.2451 -0.4228 -1.5762
 7905TIP3    H223659   3.494   5.601   5.273  1.3816 -0.0247  1.4175
 7906TIP3   OH223660   4.502   5.124   6.737  0.3188  0.3259  0.0626
 7906TIP3    H123661   4.555   5.058   6.692 -1.3085  0.2501 -1.8565
 7906TIP3    H223662   4.411   5.098   6.720 -0.3643  2.5770 -0.0503
 7907TIP3   OH223663   6.492   0.436   1.559  0.1812 -0.5956 -0.4816
 7907TIP3    H123664   6.566   0.485   1.594  0.0839 -1.3257  0.8089
 7907TIP3    H223665   6.512   0.426   1.466  0.1617  1.9100 -0.8103
 7908TIP3   OH223666   5.973   5.841   1.742 -0.6092 -0.2775 -0.2347
 7908TIP3    H123667   5.989   5.753   1.777 -0.7538  0.1203  0.8783
 7908TIP3    H223668   6.053   5.864   1.696  0.0554 -0.3603  0.8534
 7909TIP3   OH223669   2.292   2.156   4.131  0.4298  0.8561 -0.0612
 7909TIP3    H123670   2.379   2.130   4.163  0.6102  2.3960  0.8069
 7909TIP3    H223671   2.293   2.252   4.136 -0.7829  0.9767 -1.5064
 7910TIP3   OH223672   3.143   3.445   3.254  0.1618  0.3759 -0.4646
 7910TIP3    H123673   3.126   3.413   3.165  0.4082 -1.9587  0.2471
 7910TIP3    H223674   3.121   3.370   3.310  0.5871  1.5971  1.4023
 7911TIP3   OH223675   4.685   2.486   6.666  0.1055  0.0058  0.0114
 7911TIP3    H123676   4.595   2.453   6.672 -0.0143  0.0741 -1.2053
 7911TIP3    H223677   4.676   2.582   6.672  0.3979 -0.0556  2.9137
 7912TIP3   OH223678   3.288   2.356   0.127 -0.3440 -0.0412  0.0710
 7912TIP3    H123679   3.364   2.304   0.104  0.2098 -0.0959  1.8978
 7912TIP3    H223680   3.310   2.445   0.098 -0.2020 -0.3117 -0.6820
 7913TIP3   OH223681   4.334   6.745   3.388 -0.3863  0.1868  0.0049
 7913TIP3    H123682   4.294   6.829   3.366  1.3990  0.7268 -1.3094
 7913TIP3    H223683   4.389   6.764   3.464 -0.2694  0.1086 -0.0610
 7914TIP3   OH223684   1.443   7.056   2.047  0.2402 -0.1571 -0.4533
 7914TIP3    H123685   1.457   6.969   2.010  0.0167 -0.3859 -0.0064
 7914TIP3    H223686   1.461   7.045   2.141 -0.0960  0.2085 -0.3452
 7915TIP3   OH223687   7.787   5.811   4.077 -0.3779  0.0479 -0.6643
 7915TIP3    H123688   7.718   5.815   4.143  0.9873  0.7445  0.7688
 7915TIP3    H223689   7.776   5.725   4.036 -0.2506 -1.1055  1.5995
 7916TIP3   OH223690   7.643   6.463   6.377 -0.6372  0.2423 -0.1924
 7916TIP3    H123691   7.631   6.424   6.291  0.6204  0.3672 -0.4539
 7916TIP3    H223692   7.686   6.395   6.429  0.7610  0.9260 -0.3906
 7917TIP3   OH223693   4.972   2.392   0.342 -0.7189 -0.2739  0.0676
 7917TIP3    H123694   4.897   2.395   0.283  0.2220  0.6305 -1.1197
 7917TIP3    H223695   5.042   2.354   0.289 -0.2443 -0.8106  1.0615
 7918TIP3   OH223696   3.188   4.075   4.041  0.2513  0.5205 -0.6061
 7918TIP3    H123697   3.200   4.157   3.993 -1.5409  0.7039 -0.7922
 7918TIP3    H223698   3.222   4.007   3.982  1.2516  1.0668 -0.6717
 7919TIP3   OH223699   3.217   5.323   0.506  0.0445  0.2197 -0.7553
 7919TIP3    H123700   3.250   5.233   0.495 -1.1371 -0.1147 -1.8289
 7919TIP3    H223701   3.123   5.313   0.514 -0.0864  1.3636 -0.6998
 7920TIP3   OH223702   4.654   7.508   4.651 -0.0243  0.3445  0.4050
 7920TIP3    H123703   4.561   7.528   4.650 -0.4225 -1.0910 -2.3984
 7920TIP3    H223704   4.695   7.581   4.606  0.0160  0.3161  0.3953
 7921TIP3   OH223705   1.714   7.466   4.224 -0.5160 -0.0207  0.1304
 7921TIP3    H123706   1.779   7.517   4.177  1.2004 -0.8764  1.4514
 7921TIP3    H223707   1.632   7.479   4.176  0.5912  1.2262 -1.4788
 7922TIP3   OH223708   0.668   4.063   5.587 -0.2240  0.1159 -0.3421
 7922TIP3    H123709   0.665   3.978   5.632 -0.3603 -1.4412 -3.0740
 7922TIP3    H223710   0.674   4.041   5.495 -3.1449  3.0408 -1.4407
 7923TIP3   OH223711   0.731   0.171   4.703 -0.1439 -0.4094 -0.3247
 7923TIP3    H123712   0.750   0.220   4.623 -0.9994 -1.0908 -0.9586
 7923TIP3    H223713   0.662   0.110   4.678 -1.2662  0.1748  1.2315
 7924TIP3   OH223714   1.331   2.311   4.640 -0.1152 -0.0180 -0.7028
 7924TIP3    H123715   1.249   2.360   4.642  0.0551  0.2645  0.6749
 7924TIP3    H223716   1.352   2.296   4.733  0.0004 -2.4206 -1.0402
 7925TIP3   OH223717   3.307   7.777   4.977 -0.2336  0.4003  0.1678
 7925TIP3    H123718   3.314   7.858   4.927 -0.8496  0.4940  0.2254
 7925TIP3    H223719   3.272   7.713   4.915  0.3329  0.1506  0.0983
 7926TIP3   OH223720   3.023   7.454   6.069 -0.2170  0.1177 -0.3097
 7926TIP3    H123721   3.010   7.373   6.021  0.0224 -1.2142  1.7475
 7926TIP3    H223722   2.971   7.443   6.149  0.6324  1.5634  0.4874
 7927TIP3   OH223723   7.408   4.772   2.313  0.1992  0.4523 -0.0020
 7927TIP3    H123724   7.428   4.849   2.261  1.4815 -0.6312 -1.1745
 7927TIP3    H223725   7.411   4.699   2.251  0.8188 -0.7713  1.3944
 7928TIP3   OH223726   2.049   4.244   2.186 -0.0551  0.3282  0.3972
 7928TIP3    H123727   2.095   4.160   2.187 -0.5154  0.0640  1.5425
 7928TIP3    H223728   1.956   4.221   2.180 -0.0954  0.8338 -1.2679
 7929TIP3   OH223729   7.187   0.137   2.351 -0.1674  0.5464  0.0090
 7929TIP3    H123730   7.201   0.076   2.424 -1.5150 -0.0053 -0.1623
 7929TIP3    H223731   7.111   0.189   2.377 -0.1415  0.9228 -0.6411
 7930TIP3   OH223732   3.934   5.879   2.772  0.0628 -0.3254  0.2457
 7930TIP3    H123733   3.860   5.928   2.736 -0.8951 -2.0470 -0.2604
 7930TIP3    H223734   4.011   5.916   2.729 -0.2824  2.3469  1.6910
 7931TIP3   OH223735   6.792   7.081   4.791 -0.2948 -0.2262 -0.7202
 7931TIP3    H123736   6.841   7.163   4.800  3.4927 -2.2954 -0.4535
 7931TIP3    H223737   6.728   7.099   4.723 -0.3320  3.1828  0.0041
 7932TIP3   OH223738   2.275   5.881   1.399  0.2415 -0.5924 -0.3235
 7932TIP3    H123739   2.303   5.878   1.307 -1.3880  0.4572 -0.9081
 7932TIP3    H223740   2.183   5.855   1.396  0.4033 -1.3972  1.1513
 7933TIP3   OH223741   6.917   0.865   3.181 -0.2704 -0.3766  0.0154
 7933TIP3    H123742   6.957   0.944   3.216  0.5297 -0.1943 -1.2338
 7933TIP3    H223743   6.954   0.794   3.234 -0.8117  0.0509  0.9841
 7934TIP3   OH223744   7.508   5.209   1.623  0.4856 -0.0748  0.1846
 7934TIP3    H123745   7.486   5.273   1.555 -0.9896 -0.0081  0.6889
 7934TIP3    H223746   7.603   5.199   1.617  0.7453  2.0884  0.0224
 7935TIP3   OH223747   1.440   5.729  -0.021  0.1494 -0.4833 -0.6955
 7935TIP3    H123748   1.414   5.816   0.010 -1.0394 -0.4435 -1.7385
 7935TIP3    H223749   1.508   5.701   0.041  0.1270  0.9283  0.0067
 7936TIP3   OH223750   0.367   4.016   4.941  0.8220  0.0109 -0.2018
 7936TIP3    H123751   0.279   4.054   4.940  0.2203 -1.2468 -1.9374
 7936TIP3    H223752   0.404   4.040   4.856  0.8896 -2.1171 -0.8364
 7937TIP3   OH223753   4.188   1.236   2.654  0.2046 -0.5669  0.0255
 7937TIP3    H123754   4.209   1.329   2.648 -1.5872 -0.2221 -1.8425
 7937TIP3    H223755   4.114   1.231   2.714  1.3686 -1.0474  1.4982
 7938TIP3   OH223756   1.651   3.904   3.273  0.1202  0.9726  0.2476
 7938TIP3    H123757   1.643   3.956   3.193 -0.9757  0.2608 -0.1258
 7938TIP3    H223758   1.654   3.969   3.344 -3.5470  1.6235 -0.0017
 7939TIP3   OH223759   6.380   4.662   4.962 -0.3703 -0.1926 -0.2123
 7939TIP3    H123760   6.470   4.680   4.987  0.6323 -1.7643 -2.4042
 7939TIP3    H223761   6.355   4.736   4.908  0.0781 -0.3709 -0.6712
 7940TIP3   OH223762   3.592   0.358   6.341 -0.2884  0.5771 -0.1869
 7940TIP3    H123763   3.673   0.408   6.350  1.2039 -1.5967 -0.7744
 7940TIP3    H223764   3.559   0.349   6.430  1.2532 -0.2478  0.3278
 7941TIP3   OH223765   8.250   1.143   4.664  0.3486  0.0871 -0.5470
 7941TIP3    H123766   8.220   1.136   4.573 -0.2459 -0.5689 -0.3123
 7941TIP3    H223767   8.210   1.068   4.708 -0.4366  1.1102  0.5564
 7942TIP3   OH223768   1.052   7.508   4.469  0.1325 -0.5670 -0.0319
 7942TIP3    H123769   1.040   7.547   4.382  1.2160 -1.3126 -0.5410
 7942TIP3    H223770   1.052   7.583   4.529 -1.4062 -0.1068 -0.5779
 7943TIP3   OH223771   3.774   2.678   5.424 -0.5804  0.4981  0.3594
 7943TIP3    H123772   3.811   2.619   5.489  1.6612  1.6824  0.2424
 7943TIP3    H223773   3.762   2.624   5.346 -1.8565 -0.5714  1.2572
 7944TIP3   OH223774   6.030   6.142   4.279  0.4169 -0.5852  0.2477
 7944TIP3    H123775   5.990   6.142   4.366 -0.3073 -0.8974 -0.0718
 7944TIP3    H223776   6.083   6.062   4.277  1.7971  0.2735  0.9831
 7945TIP3   OH223777   7.259   4.528   6.523  0.3946  0.1964  0.0610
 7945TIP3    H123778   7.262   4.434   6.507  0.1494  0.3222 -0.7509
 7945TIP3    H223779   7.178   4.557   6.482  1.1938  1.0060 -0.9917
 7946TIP3   OH223780   8.229   0.772   2.032 -0.2923 -0.0171  0.4078
 7946TIP3    H123781   8.138   0.788   2.057 -0.1890 -1.3482  1.7941
 7946TIP3    H223782   8.224   0.702   1.966 -0.2322 -1.6074  1.9961
 7947TIP3   OH223783   0.678   3.474   0.144 -0.2274 -0.2710  0.7748
 7947TIP3    H123784   0.753   3.479   0.203 -0.1593  0.0897  0.6595
 7947TIP3    H223785   0.635   3.391   0.167  1.6725 -1.8138 -0.9230
 7948TIP3   OH223786   4.697   0.537   4.619  0.5462 -0.1516 -0.2679
 7948TIP3    H123787   4.606   0.509   4.613  0.8735 -1.3187  0.0160
 7948TIP3    H223788   4.704   0.578   4.705  0.0859  0.7409 -0.6460
 7949TIP3   OH223789   2.012   1.473   0.955  0.3562 -0.3875 -0.0387
 7949TIP3    H123790   2.029   1.413   1.028  1.4034 -0.1410 -0.0556
 7949TIP3    H223791   2.097   1.482   0.912 -0.3909 -1.1573 -1.7959
 7950TIP3   OH223792   0.585   3.344   2.205  0.5613  0.5051 -0.6339
 7950TIP3    H123793   0.586   3.266   2.151  0.0758  0.2719 -0.3142
 7950TIP3    H223794   0.676   3.374   2.206  1.0027 -0.7872  0.2896
 7951TIP3   OH223795   4.896   4.822   6.778 -0.6675  0.0366 -0.0477
 7951TIP3    H123796   4.989   4.838   6.765 -0.6593  1.9875  1.8891
 7951TIP3    H223797   4.884   4.730   6.754  1.7388 -0.2761 -0.3034
 7952TIP3   OH223798   0.206   2.344   2.631 -0.4683 -0.0970  0.5212
 7952TIP3    H123799   0.185   2.306   2.716  0.4130  0.0268  0.8056
 7952TIP3    H223800   0.184   2.275   2.568 -0.7388 -0.3379  0.8767
 7953TIP3   OH223801   2.098   2.521   1.305 -0.4944 -0.1487 -0.2948
 7953TIP3    H123802   2.088   2.613   1.280  0.1014 -0.0085 -0.0432
 7953TIP3    H223803   2.008   2.487   1.307 -0.6545  0.1739 -1.3007
 7954TIP3   OH223804   5.802   4.948   6.716 -0.0285  0.1796  0.3929
 7954TIP3    H123805   5.742   4.990   6.779 -0.2853  2.6291 -1.3403
 7954TIP3    H223806   5.754   4.949   6.633  0.3328 -2.8982  0.0427
 7955TIP3   OH223807   2.084   3.254   6.017  0.2289 -0.2362  0.1967
 7955TIP3    H123808   2.179   3.265   6.017  0.0236  2.0441 -0.6888
 7955TIP3    H223809   2.064   3.221   5.930  0.1630 -0.4199  0.2801
 7956TIP3   OH223810   3.877   2.677   5.083  0.0833 -0.0808 -0.2728
 7956TIP3    H123811   3.907   2.657   4.995  0.5808  1.4534 -0.4759
 7956TIP3    H223812   3.822   2.755   5.073  0.5714  0.4288  0.8331
 7957TIP3   OH223813   2.572   2.977   4.562  0.2684 -0.5939  0.0324
 7957TIP3    H123814   2.666   2.985   4.545  0.4732 -0.5598  1.1215
 7957TIP3    H223815   2.537   2.935   4.483  1.3056 -1.2721 -0.0880
 7958TIP3   OH223816   0.053   6.373   4.558  0.0019  0.1253 -0.0740
 7958TIP3    H123817   0.119   6.443   4.560  0.4704 -0.2297 -1.5360
 7958TIP3    H223818   0.075   6.321   4.481 -2.4849  0.4959 -1.1585
 7959TIP3   OH223819   1.612   2.128   4.578  0.4846 -0.1109  0.4814
 7959TIP3    H123820   1.694   2.176   4.590  1.0882 -0.8775 -0.4388
 7959TIP3    H223821   1.554   2.191   4.535  1.2524 -0.1689 -0.6713
 7960TIP3   OH223822   5.564   4.526   3.085 -0.2466 -0.3613  0.1996
 7960TIP3    H123823   5.644   4.562   3.047 -0.7202 -0.7838 -1.2547
 7960TIP3    H223824   5.593   4.487   3.167  1.1338 -0.8535 -0.4791
 7961TIP3   OH223825   4.417   5.377   0.045  0.1208 -0.5234 -0.2737
 7961TIP3    H123826   4.463   5.454   0.079 -0.0722 -0.6010  0.1777
 7961TIP3    H223827   4.378   5.337   0.123  0.7420 -1.4238 -0.4171
 7962TIP3   OH223828   0.993   5.417   1.229  0.1986 -0.3474 -0.0756
 7962TIP3    H123829   0.949   5.467   1.298  0.3410 -0.7867  0.3494
 7962TIP3    H223830   0.975   5.325   1.252 -0.5449 -0.4867 -1.1598
 7963TIP3   OH223831   4.918   7.364   1.091 -0.2073 -0.0603 -0.0187
 7963TIP3    H123832   4.855   7.404   1.031 -0.5965 -0.8825 -0.1723
 7963TIP3    H223833   4.864   7.319   1.157  0.2028 -0.8090 -0.1749
 7964TIP3   OH223834   6.571   6.556   1.730 -0.1034 -0.4210 -0.6556
 7964TIP3    H123835   6.645   6.540   1.788 -0.3073 -0.4877 -0.4089
 7964TIP3    H223836   6.574   6.650   1.712  0.9123 -0.6575 -1.8480
 7965TIP3   OH223837   7.287   4.794   0.980 -0.1375  0.5019  0.5029
 7965TIP3    H123838   7.219   4.860   0.994 -0.6120  0.1607 -0.1337
 7965TIP3    H223839   7.353   4.838   0.926 -0.7508  0.2861 -0.4490
 7966TIP3   OH223840   3.378   1.112   4.965 -0.1061 -0.0485  0.2848
 7966TIP3    H123841   3.320   1.076   4.898  0.3891 -1.4524  0.5680
 7966TIP3    H223842   3.467   1.091   4.935  0.1308 -0.5795  1.2930
 7967TIP3   OH223843   3.475   5.821   6.544  0.0811  0.0077  0.9616
 7967TIP3    H123844   3.567   5.832   6.567  0.2274 -0.8569  0.8314
 7967TIP3    H223845   3.427   5.836   6.625  0.3111  0.7724  0.9587
 7968TIP3   OH223846   5.963   1.452   3.924 -0.0588  0.7827  0.4660
 7968TIP3    H123847   6.058   1.443   3.935  0.4856  1.1391 -2.9278
 7968TIP3    H223848   5.933   1.365   3.899 -0.0024  1.3447 -1.7378
 7969TIP3   OH223849   0.899   6.172   3.657  0.0528  0.3278  0.2534
 7969TIP3    H123850   0.882   6.135   3.743 -1.8364 -1.8269 -0.9233
 7969TIP3    H223851   0.828   6.233   3.642 -0.2300 -0.0886 -0.1550
 7970TIP3   OH223852   1.714   6.558   1.651  0.6398  0.0518  0.3726
 7970TIP3    H123853   1.677   6.574   1.565  0.1911  0.5538  0.6478
 7970TIP3    H223854   1.809   6.565   1.639  0.5374  3.3513  0.4878
 7971TIP3   OH223855   0.837   3.800   2.839 -0.3545  0.2505 -0.3186
 7971TIP3    H123856   0.929   3.823   2.854 -0.1673 -0.8505  0.2525
 7971TIP3    H223857   0.790   3.881   2.859  0.3788  0.4664  0.6201
 7972TIP3   OH223858   4.009   7.425   6.221  0.2406  0.0894 -0.1909
 7972TIP3    H123859   4.038   7.454   6.308 -2.0551 -0.4151  0.8272
 7972TIP3    H223860   3.995   7.506   6.172  1.9812  0.3695 -0.2914
 7973TIP3   OH223861   5.630   3.297   0.353 -0.2530 -0.2232 -0.0452
 7973TIP3    H123862   5.633   3.382   0.395 -1.0195 -0.1874 -0.0503
 7973TIP3    H223863   5.647   3.315   0.261 -1.2487  0.0408 -0.1890
 7974TIP3   OH223864   7.698   4.398   0.112 -0.0767 -0.2064  0.1640
 7974TIP3    H123865   7.653   4.313   0.114  0.4457 -0.4922 -0.0124
 7974TIP3    H223866   7.653   4.450   0.179 -1.5773 -0.0038 -0.9409
 7975TIP3   OH223867   0.095   4.582   4.663 -0.2842  0.1617  0.0362
 7975TIP3    H123868   0.164   4.629   4.709  2.4755 -0.9232 -2.6600
 7975TIP3    H223869   0.101   4.492   4.695  0.2338 -0.1425 -0.8821
 7976TIP3   OH223870   4.855   3.490   3.908  0.0124 -0.1526  0.5513
 7976TIP3    H123871   4.870   3.483   4.002  0.2299  1.7856  0.7181
 7976TIP3    H223872   4.807   3.573   3.898 -1.1270 -0.9482 -0.9419
 7977TIP3   OH223873   4.864   2.146   1.622  0.2348  0.2425  0.2481
 7977TIP3    H123874   4.903   2.153   1.709 -0.8492  1.2466  0.6974
 7977TIP3    H223875   4.930   2.182   1.563 -0.3708  3.1393  1.1339
 7978TIP3   OH223876   1.324   6.906   6.677  0.5230  0.6667  0.0040
 7978TIP3    H123877   1.283   6.857   6.606 -0.5106  0.7883  0.5104
 7978TIP3    H223878   1.363   6.839   6.733  2.5087  0.6074 -1.3252
 7979TIP3   OH223879   1.245   3.696   4.103  0.4586  1.0445  0.2245
 7979TIP3    H123880   1.299   3.719   4.027  1.7208 -0.4515  0.6313
 7979TIP3    H223881   1.307   3.674   4.171 -0.6579 -0.2268  0.8805
 7980TIP3   OH223882   7.223   5.775   2.130 -0.0905 -0.7486 -0.9141
 7980TIP3    H123883   7.228   5.804   2.221  0.9094 -1.2146 -0.8024
 7980TIP3    H223884   7.167   5.697   2.132 -0.7735 -0.2599 -0.8370
 7981TIP3   OH223885   4.752   6.727   4.465  0.0674  0.2441 -0.1901
 7981TIP3    H123886   4.786   6.767   4.545  3.4940 -1.6547 -0.4935
 7981TIP3    H223887   4.799   6.771   4.394 -0.5792 -0.2431 -0.9382
 7982TIP3   OH223888   7.021   6.236   4.888  0.4546 -0.1319 -0.2731
 7982TIP3    H123889   7.083   6.269   4.823 -0.7925  0.8507 -1.0059
 7982TIP3    H223890   7.013   6.307   4.952 -1.2756  0.5688 -1.1822
 7983TIP3   OH223891   0.923   4.278   1.588 -0.1297 -0.3288 -0.1039
 7983TIP3    H123892   0.868   4.244   1.659  1.6294  2.2550  2.7703
 7983TIP3    H223893   0.873   4.350   1.551 -0.1635 -0.3163 -0.0339
 7984TIP3   OH223894   5.447   0.804   4.263 -0.6085 -0.1240 -0.1259
 7984TIP3    H123895   5.457   0.837   4.174  0.6292  0.9834  0.3867
 7984TIP3    H223896   5.424   0.712   4.253  0.0935 -0.1599 -1.5821
 7985TIP3   OH223897   1.943   4.853   5.315  0.2049 -0.7572 -0.1513
 7985TIP3    H123898   1.904   4.784   5.261 -2.0089 -0.6767  1.2472
 7985TIP3    H223899   1.964   4.811   5.398  0.0795 -0.0452  0.2498
 7986TIP3   OH223900   0.635   3.393   4.356 -0.2936 -0.0382  0.0336
 7986TIP3    H123901   0.603   3.336   4.427 -0.7539  0.4029  0.1875
 7986TIP3    H223902   0.702   3.447   4.398 -0.9397  0.5906  0.2720
 7987TIP3   OH223903   3.112   4.839   1.748 -0.2115 -0.1375 -0.3570
 7987TIP3    H123904   3.148   4.905   1.808 -0.2807  1.6072 -2.1179
 7987TIP3    H223905   3.125   4.756   1.793  0.4956  0.9987  1.6854
 7988TIP3   OH223906   7.856   0.859   0.947  0.0651  0.0994 -0.1208
 7988TIP3    H123907   7.900   0.887   0.867  2.1223  0.1223  0.9389
 7988TIP3    H223908   7.928   0.835   1.006 -1.4423 -2.3526  0.8548
 7989TIP3   OH223909   3.261   3.724   5.316 -0.1992  0.1024  0.4391
 7989TIP3    H123910   3.336   3.671   5.291  0.1110  1.1399 -0.9724
 7989TIP3    H223911   3.290   3.772   5.393  0.2976 -0.1201  0.3944
 7990TIP3   OH223912   2.469   4.581   1.496 -0.2903  0.2448 -0.1646
 7990TIP3    H123913   2.556   4.566   1.458 -0.3749  0.2759 -0.3704
 7990TIP3    H223914   2.448   4.671   1.472 -0.4147  0.2103 -0.1822
 7991TIP3   OH223915   0.542   0.386   0.946 -0.7729 -0.4737  0.6150
 7991TIP3    H123916   0.481   0.346   0.884 -1.1480 -1.1772  1.4134
 7991TIP3    H223917   0.617   0.326   0.947 -0.2032  0.2142 -0.1136
 7992TIP3   OH223918   5.631   5.248   1.627  0.0613  0.3867  0.4188
 7992TIP3    H123919   5.575   5.286   1.559 -1.3392  1.2357  1.9724
 7992TIP3    H223920   5.717   5.240   1.585 -0.0738  3.3676 -0.6901
 7993TIP3   OH223921   6.014   5.075   2.402 -0.1453  0.1335 -0.0016
 7993TIP3    H123922   6.031   5.169   2.400  0.3524  0.0518 -1.9798
 7993TIP3    H223923   6.096   5.037   2.435 -0.0787  0.3458  0.0844
 7994TIP3   OH223924   0.665   5.546   5.975 -0.0010 -0.1527  0.6133
 7994TIP3    H123925   0.582   5.519   6.014  1.0652 -1.0454  2.4170
 7994TIP3    H223926   0.692   5.622   6.026  0.2691  0.1829 -0.0116
 7995TIP3   OH223927   7.736   7.079   0.904 -0.0795 -0.2439 -0.0126
 7995TIP3    H123928   7.671   7.053   0.969  1.2458  0.6613  1.7639
 7995TIP3    H223929   7.756   6.999   0.857  0.3502 -1.4074  2.0259
 7996TIP3   OH223930   1.377   4.014   3.680 -0.0790 -0.3015 -0.2989
 7996TIP3    H123931   1.374   3.919   3.679  0.1309 -0.3497 -3.3093
 7996TIP3    H223932   1.454   4.035   3.733 -0.2013 -1.7722  0.5013
 7997TIP3   OH223933   4.471   5.936   2.652 -0.0995 -0.7881 -0.0555
 7997TIP3    H123934   4.445   5.892   2.572  3.1889 -1.1603 -1.0664
 7997TIP3    H223935   4.413   6.012   2.658 -0.5714 -0.8559 -2.6995
 7998TIP3   OH223936   7.284   4.677   1.252  0.1335  0.0744 -0.5486
 7998TIP3    H123937   7.377   4.695   1.264 -0.0699  0.0898  1.2757
 7998TIP3    H223938   7.270   4.685   1.157  2.0543 -0.3529 -0.9128
 7999TIP3   OH223939   6.316   3.088   6.663  0.2028 -0.1014  0.1416
 7999TIP3    H123940   6.347   3.004   6.628  0.8739  0.4213 -0.5543
 7999TIP3    H223941   6.260   3.123   6.593 -0.6020 -0.2528  0.6942
 8000TIP3   OH223942   0.239   0.868   1.697 -0.7187  0.4924  0.0735
 8000TIP3    H123943   0.292   0.841   1.772 -0.6639  1.6840  0.4930
 8000TIP3    H223944   0.230   0.963   1.707  1.8778  1.2488 -3.0362
 8001TIP3   OH223945   5.828   4.347   6.184  0.3147 -0.1581  0.0524
 8001TIP3    H123946   5.906   4.304   6.218  0.4827  0.4973  0.5228
 8001TIP3    H223947   5.780   4.374   6.262  0.2459  0.5544 -0.2286
 8002TIP3   OH223948   3.248   4.072   2.560 -0.0391  0.0024  0.0712
 8002TIP3    H123949   3.158   4.070   2.529  0.6991 -0.0712 -2.3217
 8002TIP3    H223950   3.270   3.980   2.576 -0.3580  0.0132  0.5746
 8003TIP3   OH223951   6.622   5.572   5.945 -0.0885  0.0604  0.5232
 8003TIP3    H123952   6.619   5.477   5.956 -0.9172 -0.0300 -0.3987
 8003TIP3    H223953   6.653   5.586   5.855 -3.0761  0.5658 -0.5240
 8004TIP3   OH223954   5.380   1.178   1.965 -0.0462  0.7506 -0.3178
 8004TIP3    H123955   5.330   1.122   2.024 -0.0004  1.5754  0.5234
 8004TIP3    H223956   5.323   1.254   1.949  0.1227  0.7470 -0.9812
 8005TIP3   OH223957   3.734   7.181   5.461 -0.1230  0.6183  0.3334
 8005TIP3    H123958   3.695   7.121   5.525 -0.5669  0.1760 -0.3331
 8005TIP3    H223959   3.787   7.124   5.405 -0.7831  0.7968 -0.4858
 8006TIP3   OH223960   5.931   3.252   4.322 -0.0686  0.5999  0.1729
 8006TIP3    H123961   5.861   3.233   4.384  0.0409  1.3581  0.5360
 8006TIP3    H223962   5.904   3.333   4.279  0.5070  0.8085  0.1997
 8007TIP3   OH223963   4.974   4.408   0.045  0.0451  0.6178 -0.9712
 8007TIP3    H123964   5.022   4.440  -0.031  1.6870 -0.5404 -0.4856
 8007TIP3    H223965   4.984   4.312   0.041 -1.6651  0.3849 -0.4460
 8008TIP3   OH223966   7.000   0.037   6.645  0.1495 -0.3907 -0.0011
 8008TIP3    H123967   7.083   0.012   6.687 -0.3000  0.3154  1.3591
 8008TIP3    H223968   6.936   0.037   6.716 -0.8095  0.1153 -0.8380
 8009TIP3   OH223969   0.428   5.385   3.882  0.0991  0.0117 -0.3219
 8009TIP3    H123970   0.455   5.406   3.972  0.2658  1.1152 -0.6130
 8009TIP3    H223971   0.470   5.301   3.863 -0.7671 -0.7509  0.9737
 8010TIP3   OH223972   1.614   5.192   0.317  0.6245 -0.1746 -0.3247
 8010TIP3    H123973   1.527   5.154   0.300  1.2118 -1.6173 -0.1999
 8010TIP3    H223974   1.622   5.262   0.252 -0.2520 -0.6573 -0.9855
 8011TIP3   OH223975   3.505   1.176   6.614  0.3054  0.7299 -0.1059
 8011TIP3    H123976   3.526   1.213   6.528  0.2576  2.3212  0.5280
 8011TIP3    H223977   3.586   1.133   6.642  0.2403 -0.0271 -1.0442
 8012TIP3   OH223978   0.853   6.757   1.537  0.0542  0.5060  0.6630
 8012TIP3    H123979   0.766   6.751   1.577 -0.5637 -0.4762 -0.7673
 8012TIP3    H223980   0.842   6.817   1.464  0.0673 -1.0601 -0.6950
 8013TIP3   OH223981   1.011   4.017   6.504  0.4493  0.6249  0.8735
 8013TIP3    H123982   1.096   4.016   6.460 -0.1176  1.0939 -0.2581
 8013TIP3    H223983   0.958   4.079   6.454 -1.1743 -1.0653  0.3575
 8014TIP3   OH223984   6.520   6.424   3.792  0.1081  0.5489 -0.1626
 8014TIP3    H123985   6.566   6.430   3.876  0.2482 -2.4441  0.0787
 8014TIP3    H223986   6.470   6.343   3.797  1.9338 -1.0645 -3.7626
 8015TIP3   OH223987   5.914   2.445   1.274  0.1422  0.1279 -0.4448
 8015TIP3    H123988   5.996   2.494   1.281 -0.5899  1.2997  0.2767
 8015TIP3    H223989   5.904   2.404   1.360  0.0754 -0.1902 -0.6033
 8016TIP3   OH223990   3.847   6.642   4.002 -0.2604 -0.2459  0.1518
 8016TIP3    H123991   3.878   6.730   3.982  0.0947 -0.7954 -1.9958
 8016TIP3    H223992   3.833   6.601   3.916 -3.3578 -1.2977  1.0140
 8017TIP3   OH223993   1.132   7.384   1.955 -0.4493  0.3998  0.8313
 8017TIP3    H123994   1.161   7.295   1.934  2.1040  0.8408  2.0736
 8017TIP3    H223995   1.141   7.433   1.874  1.5214  0.2808  0.9457
 8018TIP3   OH223996   5.578   4.189   1.611 -0.0951 -0.2576  0.1920
 8018TIP3    H123997   5.575   4.114   1.552 -2.1503  0.3112 -0.5258
 8018TIP3    H223998   5.659   4.234   1.590 -0.8175 -0.0115 -2.3200
 8019TIP3   OH223999   2.628   5.741   3.433  0.8601 -0.1818 -0.2990
 8019TIP3    H124000   2.591   5.800   3.499  2.0472 -0.5823  0.7755
 8019TIP3    H224001   2.577   5.758   3.354  1.5668  2.7786 -0.2392
 8020TIP3   OH224002   4.101   5.633   6.513  0.1164  0.1276  0.0897
 8020TIP3    H124003   4.035   5.640   6.582  0.1638 -0.2853  0.1795
 8020TIP3    H224004   4.128   5.542   6.515 -0.5219 -0.1068 -1.0650
 8021TIP3   OH224005   2.316   3.633   1.082  0.1617  1.1007 -0.4161
 8021TIP3    H124006   2.302   3.681   1.001  0.0591 -1.0067 -1.7054
 8021TIP3    H224007   2.229   3.625   1.121  0.2714  2.5075  0.1921
 8022TIP3   OH224008   1.773   2.457   6.648 -0.2686  0.1776  0.2772
 8022TIP3    H124009   1.763   2.366   6.678 -1.3554  0.0517 -0.3949
 8022TIP3    H224010   1.683   2.489   6.641  0.0914  1.1537  0.0370
 8023TIP3   OH224011   7.863   3.248   1.518  0.4479 -0.2508  0.4931
 8023TIP3    H124012   7.804   3.216   1.587 -0.5211 -1.2015 -0.7217
 8023TIP3    H224013   7.951   3.236   1.554 -0.0076 -1.3607  1.3078
 8024TIP3   OH224014   0.403   1.434   0.253  0.3418  0.6431 -0.3031
 8024TIP3    H124015   0.480   1.383   0.228  1.1154  1.0729  1.0994
 8024TIP3    H224016   0.435   1.497   0.317 -0.3394  3.7537 -2.7633
 8025TIP3   OH224017   3.138   1.443   1.387  0.0826  0.7455 -0.6019
 8025TIP3    H124018   3.205   1.411   1.325  3.1934 -0.4781  3.0059
 8025TIP3    H224019   3.170   1.529   1.414 -0.4157  0.6460  0.3261
 8026TIP3   OH224020   7.257   2.719   5.682  0.2472 -0.7029  0.2309
 8026TIP3    H124021   7.212   2.761   5.608  2.1534  1.0709 -0.0038
 8026TIP3    H224022   7.309   2.649   5.642 -0.2712 -1.0723  0.1856
 8027TIP3   OH224023   7.868   2.919   0.183 -0.2116  0.0156  0.1093
 8027TIP3    H124024   7.902   2.841   0.139  2.1251  0.8354  0.3153
 8027TIP3    H224025   7.860   2.983   0.113 -0.2891  0.1434  0.2370
 8028TIP3   OH224026   4.706   0.120   3.059  0.0204 -0.2136  0.0518
 8028TIP3    H124027   4.786   0.073   3.083  1.3312  0.1189 -3.2202
 8028TIP3    H224028   4.718   0.208   3.095  1.5858  0.0792 -1.0717
 8029TIP3   OH224029   7.603   3.645   5.773  0.0452  0.4581 -0.4276
 8029TIP3    H124030   7.617   3.559   5.734 -1.1962 -0.2798  0.6635
 8029TIP3    H224031   7.657   3.704   5.722  3.4395 -1.4048  0.6947
 8030TIP3   OH224032   3.924   6.501   3.445  0.0618  0.1033  0.1666
 8030TIP3    H124033   3.991   6.558   3.483  0.8795 -0.3409 -0.5688
 8030TIP3    H224034   3.859   6.561   3.409  1.5620  0.6687 -1.7893
 8031TIP3   OH224035   6.511   6.601   6.420  0.2521  0.1223 -0.5002
 8031TIP3    H124036   6.574   6.533   6.394  0.3028  0.4983 -1.3915
 8031TIP3    H224037   6.451   6.608   6.346  1.1748  2.1356 -1.1532
 8032TIP3   OH224038   5.089   3.775   6.257 -0.4898 -0.1495  0.6160
 8032TIP3    H124039   5.131   3.859   6.237 -0.6694  0.2843  1.9555
 8032TIP3    H224040   5.024   3.764   6.188  0.3230  0.2435 -0.2277
 8033TIP3   OH224041   3.323   1.469   4.040 -0.1352 -0.5114 -0.2568
 8033TIP3    H124042   3.232   1.494   4.057  0.4946  0.5853  1.7870
 8033TIP3    H224043   3.342   1.402   4.106 -0.4148 -3.3525 -2.8147
 8034TIP3   OH224044   4.756   5.563   1.130  0.3823 -0.0749  0.4741
 8034TIP3    H124045   4.839   5.535   1.090 -0.3322  0.2045 -1.2769
 8034TIP3    H224046   4.699   5.582   1.056 -1.2638 -0.2494  1.6579
 8035TIP3   OH224047   4.802   4.298   2.338  0.0965 -0.3876 -0.3021
 8035TIP3    H124048   4.807   4.207   2.368 -1.6737 -0.5908 -0.4722
 8035TIP3    H224049   4.807   4.293   2.243 -0.7225 -0.4091 -0.3566
 8036TIP3   OH224050   3.614   4.791   2.378 -0.3505  0.0676  0.1620
 8036TIP3    H124051   3.700   4.834   2.382  0.4129 -1.4680  1.9156
 8036TIP3    H224052   3.606   4.762   2.287 -0.1792  2.4165 -0.6575
 8037TIP3   OH224053   3.497   7.494   6.139  0.0909 -0.1467 -0.5055
 8037TIP3    H124054   3.496   7.590   6.136  1.6616 -0.1180 -1.7520
 8037TIP3    H224055   3.414   7.468   6.099 -0.3563  0.6931 -0.1511
 8038TIP3   OH224056   5.265   0.238   6.721  0.3676 -0.1354  0.3261
 8038TIP3    H124057   5.287   0.169   6.658  0.0850 -0.6347  0.7566
 8038TIP3    H224058   5.233   0.310   6.668 -0.1683 -0.6669 -0.0870
 8039TIP3   OH224059   0.072   3.589   2.329  0.3374 -0.5161  0.3084
 8039TIP3    H124060   0.113   3.596   2.415 -0.1269 -0.0563  0.4970
 8039TIP3    H224061   0.015   3.666   2.323 -1.5800 -1.8412  0.6370
 8040TIP3   OH224062   2.750   2.622   3.694 -0.1610  0.6709 -0.2043
 8040TIP3    H124063   2.703   2.539   3.684 -0.2555  0.9146 -2.1202
 8040TIP3    H224064   2.682   2.686   3.717  0.0524  0.0931  2.3026
 8041TIP3   OH224065   4.168   7.345   5.770  0.0111 -0.1539  0.0192
 8041TIP3    H124066   4.245   7.326   5.717 -0.2905  1.4209 -1.0773
 8041TIP3    H224067   4.095   7.308   5.720 -0.3240  1.7209 -0.9643
 8042TIP3   OH224068   7.937   6.351   6.711  0.0059  0.0579 -0.2926
 8042TIP3    H124069   7.893   6.280   6.664  1.6085 -1.0482 -0.1984
 8042TIP3    H224070   8.029   6.344   6.685  0.3761  1.4927  0.4944
 8043TIP3   OH224071   5.874   3.094   6.229  0.4094 -0.3126 -0.0505
 8043TIP3    H124072   5.893   3.145   6.309  0.8811 -0.4053 -0.1024
 8043TIP3    H224073   5.855   3.161   6.163 -0.2732 -0.2426  0.2084
 8044TIP3   OH224074   7.652   5.812   2.709  0.9462 -0.5040 -0.0729
 8044TIP3    H124075   7.697   5.801   2.626 -1.5206  1.7198 -1.8617
 8044TIP3    H224076   7.677   5.899   2.739  0.7970 -0.7658  0.8527
 8045TIP3   OH224077   4.475   0.129   1.680 -0.5152  0.3840  0.2790
 8045TIP3    H124078   4.544   0.116   1.746 -0.9408  1.4910  0.9820
 8045TIP3    H224079   4.437   0.042   1.667  0.1425 -0.0019  0.8753
 8046TIP3   OH224080   4.949   4.362   5.418 -0.4549  0.1542 -0.4664
 8046TIP3    H124081   4.888   4.356   5.345  0.8183 -1.5543 -1.4474
 8046TIP3    H224082   5.025   4.311   5.391 -1.2404 -3.6132  3.3387
 8047TIP3   OH224083   4.957   4.446   1.889  0.5318 -0.0589  0.0466
 8047TIP3    H124084   4.960   4.541   1.902 -1.4480 -0.0744  1.0588
 8047TIP3    H224085   4.946   4.435   1.795  0.0687  0.7684 -0.0086
 8048TIP3   OH224086   2.758   4.014   2.139 -0.1174 -0.0242 -0.4456
 8048TIP3    H124087   2.768   4.090   2.083 -1.8834  0.3494 -0.2999
 8048TIP3    H224088   2.685   3.964   2.101  0.1439 -0.9487  0.2144
 8049TIP3   OH224089   1.225   3.134   2.089 -0.8595  0.5795 -0.2233
 8049TIP3    H124090   1.149   3.135   2.030 -0.3190  0.4322 -0.9428
 8049TIP3    H224091   1.217   3.215   2.139  1.0244  3.1566 -3.6478
 8050TIP3   OH224092   5.908   4.660   2.693  0.4600  0.0950  0.0300
 8050TIP3    H124093   5.816   4.658   2.666  0.7343  0.0944 -0.9415
 8050TIP3    H224094   5.946   4.733   2.644  0.4145  1.7793  2.3526
 8051TIP3   OH224095   4.326   1.196   0.308 -0.0362  0.2511 -0.1358
 8051TIP3    H124096   4.270   1.266   0.341 -1.7806 -0.9168 -0.5255
 8051TIP3    H224097   4.327   1.209   0.213  0.1728  0.1418 -0.1490
 8052TIP3   OH224098   0.737   7.056   2.339  0.4986  0.2955  0.0468
 8052TIP3    H124099   0.642   7.047   2.327  0.0927  0.7461  2.4761
 8052TIP3    H224100   0.774   6.994   2.276 -1.4105 -0.2396 -0.6377
 8053TIP3   OH224101   0.701   1.955   1.187 -0.4189 -0.8851 -0.0296
 8053TIP3    H124102   0.689   1.886   1.122  0.7140 -1.2489  0.1173
 8053TIP3    H224103   0.756   1.915   1.254  2.1934  0.7926 -1.0221
 8054TIP3   OH224104   4.210   3.143   2.295 -0.1441 -0.1356 -0.2429
 8054TIP3    H124105   4.201   3.077   2.226 -0.9862 -0.8684  0.5226
 8054TIP3    H224106   4.269   3.208   2.259  0.2117 -0.9953 -1.2753
 8055TIP3   OH224107   0.850   4.742   3.639 -0.3059 -0.1877  0.1097
 8055TIP3    H124108   0.896   4.738   3.555 -1.7908  0.7763 -0.7971
 8055TIP3    H224109   0.843   4.651   3.667  1.9606 -0.3921  0.2170
 8056TIP3   OH224110   4.114   4.448   0.102  0.0990  0.1752 -0.6006
 8056TIP3    H124111   4.024   4.418   0.112 -0.4722  1.9122 -0.1084
 8056TIP3    H224112   4.113   4.496   0.019  0.7658 -0.4372 -0.9679
 8057TIP3   OH224113   3.541   1.070   3.363  0.2700 -0.2317  0.5980
 8057TIP3    H124114   3.526   1.165   3.364 -1.0072 -0.3296 -2.0525
 8057TIP3    H224115   3.543   1.046   3.456  0.2880  2.3204  1.3458
 8058TIP3   OH224116   3.449   3.916   5.862  0.0585 -0.2994  0.0465
 8058TIP3    H124117   3.540   3.920   5.832  0.4554 -1.1050  1.1073
 8058TIP3    H224118   3.445   3.839   5.919 -1.1382  0.0757  0.5030
 8059TIP3   OH224119   3.972   5.942   3.692 -0.2919  0.3610 -0.7384
 8059TIP3    H124120   4.040   5.983   3.745 -2.6103  2.4231  0.8883
 8059TIP3    H224121   3.982   5.848   3.709  0.9553  0.7523  0.9750
 8060TIP3   OH224122   6.148   2.361   5.658  0.3039 -0.1550 -0.4005
 8060TIP3    H124123   6.196   2.442   5.642  0.0745 -0.1319 -1.0041
 8060TIP3    H224124   6.212   2.291   5.645  0.6289 -0.0617  0.6126
 8061TIP3   OH224125   4.687   2.565   0.485 -0.4592  0.0726 -0.4661
 8061TIP3    H124126   4.734   2.646   0.505  2.5076 -1.5038 -0.5639
 8061TIP3    H224127   4.695   2.555   0.390  0.3783 -0.9535 -0.3088
 8062TIP3   OH224128   2.203   5.303   1.252 -0.1033 -0.0938  0.2933
 8062TIP3    H124129   2.147   5.360   1.305 -0.8806 -0.3714 -0.2099
 8062TIP3    H224130   2.208   5.346   1.167 -1.1398 -1.0259 -0.2623
 8063TIP3   OH224131   4.587   4.682   3.904  0.5295  0.1363 -0.3193
 8063TIP3    H124132   4.625   4.598   3.928  0.1247 -0.3074 -1.1741
 8063TIP3    H224133   4.507   4.660   3.856  0.2023  1.0145 -0.2046
 8064TIP3   OH224134   2.193   4.753   4.022 -0.3006 -0.2484  0.0567
 8064TIP3    H124135   2.115   4.710   3.986 -0.7163  0.5174  0.0176
 8064TIP3    H224136   2.219   4.816   3.955  0.0500 -0.1375  0.2921
 8065TIP3   OH224137   7.939   2.584   2.455 -0.5817  0.1119  0.5738
 8065TIP3    H124138   7.886   2.637   2.396 -1.3616  0.4435  1.5389
 8065TIP3    H224139   7.997   2.647   2.499 -0.1755 -0.0992  0.3475
 8066TIP3   OH224140   6.564   3.174   5.119 -0.6148  0.2205 -0.1281
 8066TIP3    H124141   6.610   3.095   5.090 -0.0140  0.4469  0.2019
 8066TIP3    H224142   6.622   3.246   5.094  0.8561  0.3685  3.1680
 8067TIP3   OH224143   2.385   0.090   5.544 -0.0755  0.2156  0.2393
 8067TIP3    H124144   2.434   0.036   5.482  2.1553  1.8296  0.4839
 8067TIP3    H224145   2.420   0.065   5.630 -2.7668 -1.6237  0.9151
 8068TIP3   OH224146   1.071   4.902   2.600  0.0314 -0.1994  0.0660
 8068TIP3    H124147   1.033   4.981   2.638  0.9882 -0.1621  0.9636
 8068TIP3    H224148   1.162   4.903   2.627  0.4156 -0.8811 -1.1203
 8069TIP3   OH224149   2.712   1.397   4.501  0.0611  0.5300 -0.2621
 8069TIP3    H124150   2.782   1.417   4.439  0.7393 -0.4296  0.1724
 8069TIP3    H224151   2.757   1.369   4.580 -0.8078 -0.4840 -0.1004
 8070TIP3   OH224152   6.236   7.069   2.515  0.1521 -0.0014  0.1144
 8070TIP3    H124153   6.167   7.014   2.477 -0.8826  1.1231  0.2881
 8070TIP3    H224154   6.223   7.155   2.475  0.2317  0.7265  1.5667
 8071TIP3   OH224155   6.640   7.250   0.926  0.1386  0.5243  0.1422
 8071TIP3    H124156   6.598   7.219   0.845  2.4187  0.6120 -1.1438
 8071TIP3    H224157   6.604   7.193   0.994  0.9919 -2.1856 -1.5224
 8072TIP3   OH224158   7.128   1.867   3.454  0.6279  0.3406 -0.1990
 8072TIP3    H124159   7.207   1.849   3.403  0.3799 -0.5468 -0.2926
 8072TIP3    H224160   7.056   1.835   3.399  0.1351  1.7213 -0.3944
 8073TIP3   OH224161   4.926   4.627   1.337  0.7677  0.3378 -0.1498
 8073TIP3    H124162   4.911   4.714   1.300 -0.5652  0.3194  0.2811
 8073TIP3    H224163   4.915   4.568   1.263 -1.6578  0.3192  0.1545
 8074TIP3   OH224164   5.622   7.369   5.774 -0.3390 -0.2522  0.1895
 8074TIP3    H124165   5.618   7.340   5.865  0.8867 -0.6782  0.1382
 8074TIP3    H224166   5.703   7.421   5.769 -0.2202 -0.4998 -0.7213
 8075TIP3   OH224167   2.314   3.664   2.999  0.2512 -0.3839 -0.6784
 8075TIP3    H124168   2.280   3.605   3.066  0.0266 -0.2199 -0.6463
 8075TIP3    H224169   2.265   3.745   3.012 -0.3865 -0.6164 -1.5717
 8076TIP3   OH224170   2.912   4.626   3.991  0.1254  0.2077 -0.4190
 8076TIP3    H124171   2.990   4.637   4.045  0.1884 -1.5227 -0.0859
 8076TIP3    H224172   2.853   4.574   4.045 -0.4414 -0.2261 -1.4284
 8077TIP3   OH224173   1.880   5.686   3.649 -0.0981  0.0612  0.1432
 8077TIP3    H124174   1.828   5.723   3.578 -2.9249 -2.0138  0.9566
 8077TIP3    H224175   1.825   5.617   3.687  2.1328 -0.3931  2.9777
 8078TIP3   OH224176   2.408   4.872   2.060 -0.1137  0.4220 -0.6390
 8078TIP3    H124177   2.357   4.800   2.098  0.3903  0.0148 -0.7244
 8078TIP3    H224178   2.411   4.852   1.966  1.6228 -0.4722 -0.4236
 8079TIP3   OH224179   1.050   4.896   3.738  1.2224 -0.4977  0.2128
 8079TIP3    H124180   0.970   4.858   3.702 -1.1296  3.3248  0.7869
 8079TIP3    H224181   1.055   4.862   3.827 -0.9001  0.5941  0.7974
 8080TIP3   OH224182   6.403   1.821   5.804  0.1859 -0.4465 -0.5452
 8080TIP3    H124183   6.444   1.887   5.749 -0.8095 -0.8550 -1.8585
 8080TIP3    H224184   6.341   1.869   5.859 -1.0497 -0.3003 -1.9882
 8081TIP3   OH224185   1.899   6.220   3.891  0.5336  0.2892  0.1492
 8081TIP3    H124186   1.890   6.312   3.915  1.1562  0.4179 -0.0941
 8081TIP3    H224187   1.939   6.222   3.804 -1.9673 -0.1490 -1.0970
 8082TIP3   OH224188   3.740   2.385   5.435  0.1171 -0.0533 -0.3383
 8082TIP3    H124189   3.702   2.346   5.356 -1.5707  0.8832 -0.0410
 8082TIP3    H224190   3.692   2.344   5.507 -0.3840  1.1489  0.0507
 8083TIP3   OH224191   7.436   6.351   3.010  0.5659  0.2744 -0.4541
 8083TIP3    H124192   7.456   6.261   3.035  0.5740 -0.4062 -2.7170
 8083TIP3    H224193   7.414   6.394   3.092 -0.5919 -2.0728  0.5609
 8084TIP3   OH224194   7.166   3.467   0.221  0.1537  0.2611  0.3923
 8084TIP3    H124195   7.242   3.519   0.248  1.6664 -1.1330 -0.9685
 8084TIP3    H224196   7.182   3.446   0.129 -1.2252 -1.1702  0.4296
 8085TIP3   OH224197   1.270   4.720   4.436 -0.8353 -0.2514 -0.0016
 8085TIP3    H124198   1.175   4.732   4.431 -0.8793  0.9005  2.2420
 8085TIP3    H224199   1.305   4.808   4.419 -0.2280 -0.4346  0.2968
 8086TIP3   OH224200   0.030   1.413   6.397 -0.1736 -0.5635 -0.4096
 8086TIP3    H124201   0.093   1.366   6.452  0.3568 -0.7906 -1.2003
 8086TIP3    H224202  -0.047   1.424   6.453  0.8226  0.3618  0.8254
 8087TIP3   OH224203   1.797   4.430   4.434 -0.2412 -0.4742  0.1763
 8087TIP3    H124204   1.826   4.429   4.343  0.0108 -0.2417  0.2559
 8087TIP3    H224205   1.802   4.522   4.461 -0.4646 -0.5186  0.3770
 8088TIP3   OH224206   6.155   3.796   5.778 -0.3615  0.5514 -0.3123
 8088TIP3    H124207   6.203   3.759   5.704  0.3006 -0.3414  0.5320
 8088TIP3    H224208   6.072   3.824   5.741 -0.0024  0.2192 -1.4128
 8089TIP3   OH224209   3.824   0.268   3.596  0.2688 -0.0785 -0.6267
 8089TIP3    H124210   3.900   0.313   3.559 -1.7656  2.7192 -1.7980
 8089TIP3    H224211   3.816   0.188   3.543  1.3472  0.4927 -1.7133
 8090TIP3   OH224212   7.873   3.734   1.942  0.1143  0.5831 -0.5910
 8090TIP3    H124213   7.880   3.811   1.999  0.8667 -0.3389  0.6280
 8090TIP3    H224214   7.963   3.711   1.922 -0.0998  0.0073 -0.9135
 8091TIP3   OH224215   8.043   4.438   1.987 -0.0634 -0.0870 -0.4705
 8091TIP3    H124216   8.107   4.458   1.918 -0.6398 -0.0150 -0.9966
 8091TIP3    H224217   8.073   4.488   2.063  0.2995  0.2355 -0.8201
 8092TIP3   OH224218   5.536   6.371   3.787 -0.4184  0.0307 -0.1391
 8092TIP3    H124219   5.502   6.284   3.767 -0.7864 -0.5272  2.5130
 8092TIP3    H224220   5.598   6.390   3.716  0.0941 -2.6366 -0.5150
 8093TIP3   OH224221   4.491   0.753   3.112  0.0905 -0.0545  0.1593
 8093TIP3    H124222   4.565   0.702   3.080  2.0073  0.4589  3.3806
 8093TIP3    H224223   4.431   0.689   3.149 -0.8780 -0.4121 -1.8781
 8094TIP3   OH224224   2.695   3.611   6.410 -0.1586 -0.2779  0.3057
 8094TIP3    H124225   2.773   3.581   6.456  0.0749  0.4524  0.3920
 8094TIP3    H224226   2.704   3.573   6.322  0.3013 -0.1752  0.3079
 8095TIP3   OH224227   6.210   5.319   2.095  0.0940  0.3381 -0.3159
 8095TIP3    H124228   6.283   5.266   2.062  1.2561  0.4640  1.8827
 8095TIP3    H224229   6.135   5.291   2.042  1.5114 -0.4624 -2.0344
 8096TIP3   OH224230   4.527   2.187   6.250  0.1627  0.0224  0.2093
 8096TIP3    H124231   4.559   2.273   6.273 -1.4717  0.4579  0.9877
 8096TIP3    H224232   4.508   2.144   6.333  0.0817 -0.7406 -0.1866
 8097TIP3   OH224233   5.072   3.284   5.105 -0.4983  0.0554  0.3416
 8097TIP3    H124234   5.084   3.195   5.138 -0.1642  0.5828  1.7088
 8097TIP3    H224235   5.153   3.305   5.059 -0.3606 -0.1467  0.4944
 8098TIP3   OH224236   8.023   0.780   4.054 -0.1265  0.0745 -0.0769
 8098TIP3    H124237   7.973   0.744   4.127  0.0617 -1.3741 -0.6180
 8098TIP3    H224238   8.007   0.719   3.981  0.0102  1.2598 -1.1312
 8099TIP3   OH224239   6.486   4.009   4.183  0.5145 -0.5001 -0.1085
 8099TIP3    H124240   6.488   3.924   4.140  1.5631  0.4188 -2.0323
 8099TIP3    H224241   6.523   3.993   4.270 -2.2807 -2.5424  0.8198
 8100TIP3   OH224242   3.825   4.946   2.460 -0.0339 -0.6892 -0.3100
 8100TIP3    H124243   3.838   5.000   2.383  1.4614 -2.2408 -1.2047
 8100TIP3    H224244   3.857   4.999   2.533 -0.4389  0.3660 -0.8828
 8101TIP3   OH224245   4.619   3.426   1.084  0.2633  0.1887  0.5612
 8101TIP3    H124246   4.628   3.336   1.115 -0.6853  0.7615  2.6942
 8101TIP3    H224247   4.709   3.457   1.074  0.5950 -0.7171  0.6715
 8102TIP3   OH224248   4.279   4.590   5.322 -0.7289 -0.0800 -0.3758
 8102TIP3    H124249   4.310   4.534   5.251 -0.6498 -0.6992  0.1467
 8102TIP3    H224250   4.235   4.531   5.383  0.1695  0.2795  0.6427
 8103TIP3   OH224251   1.804   3.787   2.299  0.3281 -0.3593 -0.6794
 8103TIP3    H124252   1.765   3.869   2.329  0.3386 -0.6300  0.0928
 8103TIP3    H224253   1.820   3.801   2.206  2.7881  1.5325 -0.0975
 8104TIP3   OH224254   7.578   7.057   1.123 -0.8923  0.3440 -0.2954
 8104TIP3    H124255   7.590   6.967   1.151 -0.7740  0.6601  0.7106
 8104TIP3    H224256   7.507   7.091   1.178  0.5570  1.5166  0.9643
 8105TIP3   OH224257   0.275   1.096   1.870 -0.0982 -0.1693 -0.6699
 8105TIP3    H124258   0.239   1.042   1.940  1.7233 -1.9905 -1.0496
 8105TIP3    H224259   0.357   1.130   1.905 -0.9998  2.1449 -0.5865
 8106TIP3   OH224260   3.917   1.043   3.486  0.1229  0.0368 -0.2218
 8106TIP3    H124261   3.994   0.989   3.503 -0.1394 -0.4292 -0.4824
 8106TIP3    H224262   3.930   1.122   3.539  0.1234 -0.6430  0.8173
 8107TIP3   OH224263   5.286   0.994   2.596 -0.0211 -0.2573 -0.5341
 8107TIP3    H124264   5.346   1.069   2.587  0.6229 -0.8979 -1.9446
 8107TIP3    H224265   5.203   1.026   2.561 -0.1233  0.1830  0.0781
 8108TIP3   OH224266   6.866   6.921   3.458 -0.8671 -0.1895  0.1347
 8108TIP3    H124267   6.954   6.921   3.495 -0.6736  0.6713 -0.3117
 8108TIP3    H224268   6.870   6.860   3.385 -0.1316  1.1694 -1.0200
 8109TIP3   OH224269   6.796   5.832   5.799  0.3005  0.3370 -0.4190
 8109TIP3    H124270   6.720   5.887   5.819 -1.6213 -0.9788 -3.4247
 8109TIP3    H224271   6.870   5.894   5.796 -1.0682  2.0820  0.1281
 8110TIP3   OH224272   1.772   2.148   2.340 -0.2740  0.2903 -0.1829
 8110TIP3    H124273   1.835   2.177   2.274  0.3577  1.1761  0.7779
 8110TIP3    H224274   1.722   2.227   2.362 -1.8827 -0.4315 -1.0617
 8111TIP3   OH224275   5.062   6.233   6.172  0.4336  0.1023  0.3656
 8111TIP3    H124276   5.071   6.257   6.080  1.5118  0.5267  0.5673
 8111TIP3    H224277   5.135   6.276   6.215  2.2574 -3.1427  0.8444
 8112TIP3   OH224278   8.240   7.604   3.009 -0.1763 -0.2532 -0.4909
 8112TIP3    H124279   8.203   7.644   3.088  1.1566 -0.8488  0.4632
 8112TIP3    H224280   8.217   7.665   2.938 -0.5423  0.7957  0.5062
 8113TIP3   OH224281   8.097   7.632   4.901 -0.3215 -0.0995  0.4318
 8113TIP3    H124282   8.133   7.573   4.967 -0.2458 -0.3950  0.1320
 8113TIP3    H224283   8.151   7.616   4.823 -1.4305 -0.9526 -0.2017
 8114TIP3   OH224284   2.455   7.442   3.416 -0.1707 -0.8366 -0.5462
 8114TIP3    H124285   2.433   7.368   3.360 -1.1746 -1.1814  0.2770
 8114TIP3    H224286   2.516   7.494   3.364 -1.7277 -0.6914 -2.3147
 8115TIP3   OH224287   4.668   1.994   2.892 -0.3310  0.3071 -0.2001
 8115TIP3    H124288   4.721   1.954   2.823  0.3895 -0.1872  0.6316
 8115TIP3    H224289   4.624   2.067   2.848  0.0573 -0.0348 -1.2008
 8116TIP3   OH224290   3.937   2.371   0.107  0.5847 -0.2366  0.2242
 8116TIP3    H124291   3.933   2.345   0.015  1.0838 -0.8930  0.3870
 8116TIP3    H224292   3.876   2.312   0.152 -1.5315  1.6272 -0.0116
 8117TIP3   OH224293   6.830   0.465   2.340 -0.3586  0.3485 -0.2759
 8117TIP3    H124294   6.853   0.374   2.318  1.9129  0.8657 -0.2790
 8117TIP3    H224295   6.739   0.460   2.368  0.2621 -2.3145  1.7180
 8118TIP3   OH224296   4.686   1.596   4.881  0.7514  0.1844 -0.6512
 8118TIP3    H124297   4.644   1.628   4.961  0.5241 -0.1128 -0.6497
 8118TIP3    H224298   4.625   1.532   4.845  0.0092  1.6090 -2.0375
 8119TIP3   OH224299   1.127   6.527   0.944 -0.3045  0.3428 -0.1965
 8119TIP3    H124300   1.038   6.513   0.975  0.1194  0.2943  1.0708
 8119TIP3    H224301   1.148   6.448   0.894 -0.2048 -0.7127  1.4268
 8120TIP3   OH224302   6.007   7.802   3.310  0.2316  0.9258 -0.5165
 8120TIP3    H124303   6.040   7.748   3.239 -0.3154  0.0573 -0.1258
 8120TIP3    H224304   5.912   7.790   3.308  0.3305 -1.3585  2.0304
 8121TIP3   OH224305   2.755   6.053   0.194  0.5233 -0.4230 -0.0021
 8121TIP3    H124306   2.789   6.140   0.215 -0.1878 -0.2582  0.5053
 8121TIP3    H224307   2.701   6.029   0.270 -2.3761  0.3036 -1.6961
 8122TIP3   OH224308   0.721   6.429   5.138 -0.3707 -0.0991 -0.1145
 8122TIP3    H124309   0.648   6.367   5.131 -0.3248 -0.6483  2.8367
 8122TIP3    H224310   0.686   6.501   5.191  0.3309  1.1925 -1.3528
 8123TIP3   OH224311   2.965   1.002   5.500  0.4127 -0.5648 -0.1816
 8123TIP3    H124312   3.019   1.079   5.518  0.8860 -0.9627  0.1111
 8123TIP3    H224313   2.910   1.028   5.426  1.3517 -0.3240 -0.7993
 8124TIP3   OH224314   5.267   4.384   6.316  0.2790  0.3376  0.2500
 8124TIP3    H124315   5.186   4.386   6.367 -0.3374  1.2786 -0.7167
 8124TIP3    H224316   5.301   4.295   6.328 -1.4876 -0.4483 -0.2323
 8125TIP3   OH224317   3.584   2.280   0.452 -0.2515 -0.5418  0.1087
 8125TIP3    H124318   3.568   2.361   0.404 -0.3054 -0.4165  0.3400
 8125TIP3    H224319   3.666   2.295   0.498  0.4230 -1.0948 -0.8804
 8126TIP3   OH224320   2.204   3.146   4.035  0.4823 -0.6209  0.0109
 8126TIP3    H124321   2.149   3.219   4.063 -1.1061 -2.0443  0.7991
 8126TIP3    H224322   2.155   3.106   3.962  0.7953 -1.4904  0.2577
 8127TIP3   OH224323   3.091   6.431   4.332  0.0539 -0.2314  0.1326
 8127TIP3    H124324   3.173   6.397   4.297  1.0564  2.3498 -0.2107
 8127TIP3    H224325   3.069   6.370   4.403  2.4690 -0.7992  0.5052
 8128TIP3   OH224326   3.689   2.329   4.142  0.6148  0.3758  0.4214
 8128TIP3    H124327   3.742   2.299   4.069  0.3740 -0.3968  0.5534
 8128TIP3    H224328   3.742   2.397   4.184  0.5889  1.1123 -0.6926
 8129TIP3   OH224329   5.934   7.237   5.560  0.2041  0.4610  0.2541
 8129TIP3    H124330   5.967   7.325   5.539 -1.3477  0.6623 -1.6576
 8129TIP3    H224331   5.902   7.244   5.650  1.1639  1.4994  0.5422
 8130TIP3   OH224332   2.409   1.125   4.103  0.5284 -0.0812  0.2591
 8130TIP3    H124333   2.409   1.197   4.166  1.2914  0.8134 -0.7248
 8130TIP3    H224334   2.463   1.057   4.144 -0.5104 -0.2890  1.3643
 8131TIP3   OH224335   0.676   4.705   0.728 -0.3528  0.7907  0.4792
 8131TIP3    H124336   0.641   4.793   0.740 -0.7693  0.7662 -0.5153
 8131TIP3    H224337   0.707   4.703   0.637 -3.4124 -1.1219 -0.6779
 8132TIP3   OH224338   5.241   0.944   3.025 -0.3212  0.6250  0.4578
 8132TIP3    H124339   5.253   1.038   3.039  0.3681  0.7429 -0.8215
 8132TIP3    H224340   5.319   0.916   2.978 -0.9039 -0.4300  0.0812
 8133TIP3   OH224341   5.942   0.115   1.219 -0.3855  0.5374 -0.0237
 8133TIP3    H124342   5.861   0.138   1.263 -0.0807  3.2219 -0.6805
 8133TIP3    H224343   5.977   0.199   1.188  2.8988 -0.4111  0.6823
 8134TIP3   OH224344   5.615   3.648   0.231  0.2833 -0.7808 -0.2571
 8134TIP3    H124345   5.535   3.627   0.280 -0.1475  0.2825 -0.4924
 8134TIP3    H224346   5.622   3.577   0.167  0.4467 -1.7836  0.8360
 8135TIP3   OH224347   3.807   4.245   3.490 -0.5889  0.0693 -0.5684
 8135TIP3    H124348   3.788   4.151   3.499 -0.0821 -0.0046 -0.2344
 8135TIP3    H224349   3.729   4.281   3.448 -1.3270 -0.2894  0.4427
 8136TIP3   OH224350   7.318   5.894   2.779 -0.1209  0.3775  0.1517
 8136TIP3    H124351   7.368   5.882   2.859  2.1784 -2.0307 -1.5001
 8136TIP3    H224352   7.227   5.875   2.805  0.8422 -2.7125  1.8075
 8137TIP3   OH224353   5.949   4.627   1.464 -0.1515  0.2659  0.1437
 8137TIP3    H124354   5.987   4.540   1.476  0.4931  0.4726 -0.3442
 8137TIP3    H224355   5.877   4.631   1.528  1.8506  0.5970  2.5490
 8138TIP3   OH224356   5.080   2.342   4.548  0.8192  0.5396 -0.5411
 8138TIP3    H124357   5.007   2.280   4.554  0.1478  1.4162  0.7615
 8138TIP3    H224358   5.142   2.314   4.615  1.4163  0.1593 -1.2388
 8139TIP3   OH224359   0.805   6.762   5.626  0.0039  0.5834  0.1600
 8139TIP3    H124360   0.724   6.714   5.609  0.7734 -0.6903 -0.0636
 8139TIP3    H224361   0.823   6.810   5.545  0.5404 -0.7766 -0.5565
 8140TIP3   OH224362   5.247   0.744   6.151 -0.0531  0.2354 -0.6114
 8140TIP3    H124363   5.185   0.814   6.172 -0.3960  0.4806 -2.3507
 8140TIP3    H224364   5.279   0.766   6.064  0.6179 -1.2409 -0.7577
 8141TIP3   OH224365   6.056   2.454   2.875  0.2454  0.2088 -0.1250
 8141TIP3    H124366   6.015   2.533   2.911  0.1433 -0.4257  1.2181
 8141TIP3    H224367   5.993   2.421   2.811  0.4497  1.4026 -0.9654
 8142TIP3   OH224368   4.037   4.747   0.722  0.3642  0.2288 -0.0969
 8142TIP3    H124369   3.959   4.741   0.667  0.6820 -1.3224 -0.4221
 8142TIP3    H224370   4.101   4.794   0.670  0.6141 -1.1007 -1.0436
 8143TIP3   OH224371   0.920   5.607   5.891 -0.4657  0.6432 -0.0372
 8143TIP3    H124372   0.831   5.572   5.902 -0.2928 -0.2435 -1.3141
 8143TIP3    H224373   0.917   5.655   5.808  0.9618 -1.8493 -1.6251
 8144TIP3   OH224374   5.228   6.055   5.915 -0.1284  0.6660  0.0914
 8144TIP3    H124375   5.253   6.035   6.005 -0.9791 -0.5939  0.0682
 8144TIP3    H224376   5.298   6.017   5.862 -1.6058 -2.2432  0.0603
 8145TIP3   OH224377   6.156   3.968   2.243  0.7695  0.3062  0.0848
 8145TIP3    H124378   6.244   3.974   2.280  1.0963 -1.0519 -0.4061
 8145TIP3    H224379   6.115   3.895   2.290  0.5237 -0.2026 -0.8926
 8146TIP3   OH224380   0.824   4.069   4.663 -0.4496  0.2761 -0.2314
 8146TIP3    H124381   0.783   4.138   4.612 -0.1320 -0.5748 -1.6873
 8146TIP3    H224382   0.871   4.016   4.599 -0.6514 -1.2761  0.8355
 8147TIP3   OH224383   5.899   3.973   0.340 -0.6668 -0.5286 -0.1624
 8147TIP3    H124384   5.825   3.925   0.302 -0.7691  0.1854 -0.8868
 8147TIP3    H224385   5.866   4.062   0.354 -0.5166 -0.6789  1.2750
 8148TIP3   OH224386   7.402   3.137   6.059  0.4557 -0.0834  1.2556
 8148TIP3    H124387   7.458   3.091   5.997 -3.3230 -1.2724 -1.6758
 8148TIP3    H224388   7.399   3.227   6.026 -0.1895 -0.2982  0.7038
 8149TIP3   OH224389   4.377   7.521   2.946 -0.2349 -0.3957  0.5951
 8149TIP3    H124390   4.372   7.568   3.029 -1.7273  0.2723  0.1505
 8149TIP3    H224391   4.341   7.581   2.881  0.8008 -0.9524 -0.5445
 8150TIP3   OH224392   2.275   4.635   0.723 -0.2749 -0.3104  0.0955
 8150TIP3    H124393   2.323   4.577   0.781  1.5671 -0.2203 -1.2490
 8150TIP3    H224394   2.197   4.661   0.773  0.4931 -1.3634  1.9157
 8151TIP3   OH224395   0.495   6.957   2.235  0.1267 -0.3599  0.3263
 8151TIP3    H124396   0.497   6.944   2.140  0.1294  2.0196 -0.0385
 8151TIP3    H224397   0.520   6.871   2.271 -0.6008 -1.5219 -1.7760
 8152TIP3   OH224398   3.065   6.140   0.193 -0.1732  0.3716  0.6481
 8152TIP3    H124399   3.063   6.044   0.193  2.0576  0.2022 -1.6883
 8152TIP3    H224400   3.146   6.162   0.239  0.0915  1.0185 -0.0969
 8153TIP3   OH224401   5.021   0.814   0.276 -0.1301  0.0597  0.5086
 8153TIP3    H124402   5.093   0.857   0.230  0.8192 -1.4525  0.5325
 8153TIP3    H224403   4.985   0.752   0.213 -1.3985  0.7249  0.5256
 8154TIP3   OH224404   2.275   2.537   4.617  0.2058  0.4929  0.1017
 8154TIP3    H124405   2.333   2.464   4.640  0.3970  0.8172  0.6634
 8154TIP3    H224406   2.309   2.611   4.667  0.2226  1.0547 -0.7299
 8155TIP3   OH224407   5.989   4.467   1.173 -0.1019 -0.4706  0.1763
 8155TIP3    H124408   6.025   4.552   1.150 -0.3502 -0.1728  0.8790
 8155TIP3    H224409   5.904   4.486   1.212  0.0166 -1.0097  0.7056
 8156TIP3   OH224410   2.890   7.024   2.992  0.2804 -0.1506  0.5940
 8156TIP3    H124411   2.910   6.943   3.040 -1.0256 -1.3063 -0.6867
 8156TIP3    H224412   2.799   7.012   2.964 -0.2501  2.1987  1.1484
 8157TIP3   OH224413   4.342   5.490   6.203 -0.1939 -0.2612 -0.2236
 8157TIP3    H124414   4.384   5.435   6.269 -0.5467 -0.4597 -0.1656
 8157TIP3    H224415   4.351   5.440   6.121  1.9924  0.8335 -0.7404
 8158TIP3   OH224416   2.716   7.501   5.930 -0.1053 -0.2750  0.2260
 8158TIP3    H124417   2.756   7.426   5.886  0.9102  0.5829 -0.3642
 8158TIP3    H224418   2.685   7.466   6.013 -0.6141 -1.5797 -0.4886
 8159TIP3   OH224419   3.650   4.711   2.094  0.8403 -0.6401 -0.8722
 8159TIP3    H124420   3.717   4.661   2.048  1.1247  0.3412 -1.5723
 8159TIP3    H224421   3.654   4.798   2.054  0.3094 -0.0820  0.2520
 8160TIP3   OH224422   7.066   1.892   2.836  0.7182 -0.4129 -0.0014
 8160TIP3    H124423   6.997   1.879   2.771  0.2150 -0.2139  0.4901
 8160TIP3    H224424   7.077   1.986   2.843  0.3992 -0.4119  0.5818
 8161TIP3   OH224425   3.899   4.201   3.126  0.0958  0.1070 -0.2209
 8161TIP3    H124426   3.891   4.273   3.188  2.3039  0.2958 -0.0925
 8161TIP3    H224427   3.809   4.187   3.094 -0.3662  3.1645 -0.5643
 8162TIP3   OH224428   6.463   4.879   3.736 -0.0908 -0.3489  0.6447
 8162TIP3    H124429   6.374   4.843   3.732 -0.6568  1.0612  0.0102
 8162TIP3    H224430   6.454   4.969   3.703  2.1398 -1.2071 -2.8848
 8163TIP3   OH224431   2.252   5.694   3.897 -0.3969  0.2477 -0.0505
 8163TIP3    H124432   2.244   5.677   3.803  0.6275 -0.2188 -0.0642
 8163TIP3    H224433   2.292   5.781   3.902 -1.0441  0.5529 -0.0274
 8164TIP3   OH224434   6.345   1.882   3.446 -0.2941  0.5479 -0.0923
 8164TIP3    H124435   6.375   1.961   3.491 -0.5888  0.4813  0.2182
 8164TIP3    H224436   6.411   1.816   3.468  0.4482  0.9289 -1.0808
 8165TIP3   OH224437   1.034   7.759   0.034 -0.2532  0.4685  0.0680
 8165TIP3    H124438   1.106   7.715  -0.011  0.1157  3.0390 -2.1313
 8165TIP3    H224439   0.967   7.691   0.043  1.9701 -1.7422  1.3115
 8166TIP3   OH224440   5.333   5.306   3.878  0.0652  0.6517  0.4853
 8166TIP3    H124441   5.276   5.297   3.954 -2.0701 -0.9347 -1.1710
 8166TIP3    H224442   5.404   5.363   3.908 -2.6608  3.2960  2.5297
 8167TIP3   OH224443   6.856   3.296   1.179  0.6263 -0.1910 -0.3449
 8167TIP3    H124444   6.777   3.245   1.194  1.1151 -0.7668  0.3290
 8167TIP3    H224445   6.926   3.231   1.172  1.1025  0.3300 -0.5178
 8168TIP3   OH224446   5.847   3.792   3.262  0.4035 -0.8809  0.0049
 8168TIP3    H124447   5.922   3.784   3.204  0.1989 -3.3233 -0.0134
 8168TIP3    H224448   5.797   3.711   3.249 -0.6237 -0.6894  2.2134
 8169TIP3   OH224449   4.899   6.597   4.734  0.3809  0.2890  0.1831
 8169TIP3    H124450   4.960   6.664   4.764 -0.2437  0.2078  1.7113
 8169TIP3    H224451   4.829   6.598   4.799 -0.3256 -0.8936 -0.5345
 8170TIP3   OH224452   7.988   4.692   0.106  0.7937 -0.1167 -0.2705
 8170TIP3    H124453   7.978   4.597   0.116  0.1649 -0.0161  0.1251
 8170TIP3    H224454   7.900   4.727   0.122  1.0433  0.5403 -0.3088
 8171TIP3   OH224455   6.212   0.154   2.355 -0.4348  0.3090 -0.1141
 8171TIP3    H124456   6.235   0.070   2.315  0.3186  1.0537 -1.3175
 8171TIP3    H224457   6.288   0.177   2.408  0.2454  1.1931 -1.4384
 8172TIP3   OH224458   3.767   4.606   3.463  0.2856 -0.0365  0.1683
 8172TIP3    H124459   3.719   4.542   3.516  0.7908 -0.1478  0.5022
 8172TIP3    H224460   3.779   4.681   3.521  2.2699 -0.7734  0.8215
 8173TIP3   OH224461   7.755   1.515   3.472 -0.4461 -0.3822  0.1100
 8173TIP3    H124462   7.796   1.550   3.394  0.3988 -0.4995  0.4928
 8173TIP3    H224463   7.698   1.586   3.503 -2.2216 -0.9905 -1.6136
 8174TIP3   OH224464   0.163   4.029   0.980  0.1257  0.3501  0.5879
 8174TIP3    H124465   0.098   4.032   1.049 -0.4497  0.3379  0.0528
 8174TIP3    H224466   0.140   3.952   0.928 -0.7996  1.6069 -0.9221
 8175TIP3   OH224467   0.486   2.521   6.367 -0.2262 -0.0267 -0.3501
 8175TIP3    H124468   0.495   2.467   6.446  1.6475  0.9320  0.1411
 8175TIP3    H224469   0.411   2.577   6.384 -0.8897 -1.0092  0.0200
 8176TIP3   OH224470   1.386   5.990   1.201 -0.3872 -0.0007 -0.4965
 8176TIP3    H124471   1.380   5.980   1.296  0.1790  0.4452 -0.4075
 8176TIP3    H224472   1.341   6.072   1.182 -1.1164 -0.4404 -0.7015
 8177TIP3   OH224473   4.715   4.651   0.441  0.3982 -0.1182 -0.6692
 8177TIP3    H124474   4.720   4.584   0.509 -0.0410 -0.5943 -1.1018
 8177TIP3    H224475   4.623   4.676   0.439  0.4799  0.1724 -0.8245
 8178TIP3   OH224476   1.845   2.315   2.617 -0.3633 -0.7318 -0.4329
 8178TIP3    H124477   1.901   2.368   2.560 -1.0637 -0.1423 -0.5950
 8178TIP3    H224478   1.889   2.230   2.623  1.6170  0.3175  1.0913
 8179TIP3   OH224479   6.063   6.907   4.726  0.6707 -0.0408 -0.0987
 8179TIP3    H124480   6.127   6.854   4.679  0.4234  0.3360 -0.8842
 8179TIP3    H224481   6.115   6.954   4.791  1.2557  0.4749 -0.9121
 8180TIP3   OH224482   1.281   2.366   0.331  1.0586  0.1813 -0.8299
 8180TIP3    H124483   1.339   2.440   0.349  0.0278  0.6787  0.5645
 8180TIP3    H224484   1.329   2.290   0.363  1.0069  0.5756  0.2015
 8181TIP3   OH224485   7.055   1.090   3.270  0.3815 -0.3332  0.1550
 8181TIP3    H124486   7.048   1.135   3.354  0.1839  2.1356 -1.0887
 8181TIP3    H224487   7.025   1.155   3.205 -2.3958 -3.0797 -1.6123
 8182TIP3   OH224488   2.711   4.058   4.784  1.0514 -0.1512  0.2023
 8182TIP3    H124489   2.756   3.974   4.794  2.5956  0.7995  1.9082
 8182TIP3    H224490   2.767   4.120   4.830 -0.6507  1.6227 -0.0068
 8183TIP3   OH224491   3.558   6.648   2.005 -0.2844  0.6807 -0.0268
 8183TIP3    H124492   3.612   6.636   1.927  0.7213  2.2726  0.3703
 8183TIP3    H224493   3.608   6.711   2.059  0.2517 -2.0310  2.9694
 8184TIP3   OH224494   5.224   3.240   5.953  0.0960  0.5645  0.3110
 8184TIP3    H124495   5.277   3.222   5.876  1.0585  1.1473  0.8144
 8184TIP3    H224496   5.285   3.234   6.026 -0.5225  1.3106  0.9098
 8185TIP3   OH224497   7.808   0.320   5.119  0.1517 -0.3347  0.2301
 8185TIP3    H124498   7.721   0.359   5.132  0.3787  1.1064 -2.1408
 8185TIP3    H224499   7.868   0.394   5.119  0.9025 -0.8808 -1.8857
 8186TIP3   OH224500   2.537   3.123   0.461  0.8584 -0.0368 -0.0088
 8186TIP3    H124501   2.563   3.155   0.374 -1.2384 -0.2083 -0.7412
 8186TIP3    H224502   2.449   3.158   0.474 -0.1887 -2.6762  0.6217
 8187TIP3   OH224503   1.881   0.606   4.616 -0.1710  0.6607 -0.1944
 8187TIP3    H124504   1.973   0.614   4.593 -0.2633  0.0677 -0.7938
 8187TIP3    H224505   1.833   0.638   4.539 -0.4713  1.3395  0.2604
 8188TIP3   OH224506   6.121   0.968   3.898 -0.1353 -0.8456  0.2157
 8188TIP3    H124507   6.133   1.060   3.878 -1.6195 -0.9231 -1.2754
 8188TIP3    H224508   6.204   0.927   3.875  0.2540 -0.0116  0.1070
 8189TIP3   OH224509   4.301   4.156   0.014 -0.3594 -0.1933 -0.6989
 8189TIP3    H124510   4.338   4.078   0.053 -1.7745 -1.3212 -1.5150
 8189TIP3    H224511   4.323   4.227   0.075  2.1488 -0.9410 -0.6265
 8190TIP3   OH224512   2.217   3.935   1.270 -0.1939 -0.0902 -0.0908
 8190TIP3    H124513   2.292   3.994   1.263 -0.2340 -0.0105  0.1448
 8190TIP3    H224514   2.210   3.895   1.184 -0.6637  0.8380 -0.4876
 8191TIP3   OH224515   6.350   7.459   2.775  0.2029 -0.0877 -0.5490
 8191TIP3    H124516   6.277   7.500   2.821  0.6971 -0.6130  0.7489
 8191TIP3    H224517   6.323   7.460   2.683 -1.6109 -0.5936 -0.0762
 8192TIP3   OH224518   1.939   6.348   4.803  0.3546  0.2628  0.5948
 8192TIP3    H124519   1.926   6.308   4.718  0.4409  1.1358  0.1579
 8192TIP3    H224520   1.935   6.276   4.865 -1.0584 -0.2011 -0.0174
 8193TIP3   OH224521   5.608   6.089   6.362  0.2741  0.1109  0.3817
 8193TIP3    H124522   5.643   6.073   6.450  1.0301  2.7328  0.6372
 8193TIP3    H224523   5.681   6.130   6.315 -0.5882  0.0744 -1.0343
 8194TIP3   OH224524   7.390   7.754   5.489 -0.0315 -0.3484  0.5696
 8194TIP3    H124525   7.468   7.753   5.434  0.8887 -0.1147  1.8380
 8194TIP3    H224526   7.319   7.729   5.430  1.1814 -1.8526 -0.3108
 8195TIP3   OH224527   4.531   1.281   5.996 -0.5380 -0.2090 -0.1007
 8195TIP3    H124528   4.590   1.354   6.015 -0.5389  0.2046 -1.5482
 8195TIP3    H224529   4.456   1.322   5.954 -0.5861 -1.0232 -0.8307
 8196TIP3   OH224530   3.549   4.127   3.735  0.1529 -0.0564 -0.1759
 8196TIP3    H124531   3.599   4.071   3.676  0.4676  0.8634 -0.8060
 8196TIP3    H224532   3.596   4.210   3.736 -1.2422  0.7838 -0.6425
 8197TIP3   OH224533   6.763   6.580   4.262  0.2137  0.0122 -0.0848
 8197TIP3    H124534   6.781   6.540   4.348  0.7562  1.3379  0.4409
 8197TIP3    H224535   6.710   6.657   4.282  0.5681  0.4805 -0.9158
 8198TIP3   OH224536   3.480   5.994   1.204  0.2997  0.2294 -0.3258
 8198TIP3    H124537   3.569   5.992   1.170  0.8075  0.7258  0.9131
 8198TIP3    H224538   3.426   5.958   1.133  1.8521 -3.3993  0.1526
 8199TIP3   OH224539   0.228   2.334   3.777 -0.5343 -0.2871  0.2273
 8199TIP3    H124540   0.226   2.335   3.872 -1.3873  0.2343  0.2150
 8199TIP3    H224541   0.177   2.411   3.751 -0.5245 -0.5633 -0.6451
 8200TIP3   OH224542   3.494   3.609   5.226 -0.2215  0.4178 -0.5937
 8200TIP3    H124543   3.543   3.690   5.210 -0.9823  0.6196 -2.0341
 8200TIP3    H224544   3.561   3.541   5.228  0.2716  0.8730 -1.1102
 8201TIP3   OH224545   2.000   0.489   5.815  0.5486 -0.2673 -0.4944
 8201TIP3    H124546   2.095   0.488   5.809  0.8740 -2.4215  2.3975
 8201TIP3    H224547   1.979   0.410   5.865 -2.7550  0.2872 -0.7930
 8202TIP3   OH224548   2.007   0.699   1.195  0.1444  0.0690 -0.1764
 8202TIP3    H124549   1.957   0.740   1.266 -0.5058  0.7720 -1.0289
 8202TIP3    H224550   1.958   0.619   1.174 -0.1625  0.3272 -0.4449
 8203TIP3   OH224551   1.851   5.414   2.773 -0.5093 -0.0057  0.0017
 8203TIP3    H124552   1.917   5.391   2.707 -0.0832  0.8031  0.1310
 8203TIP3    H224553   1.901   5.461   2.841 -0.8594 -1.2416  1.1362
 8204TIP3   OH224554   1.031   2.768   6.568  0.3429 -0.0674 -0.6248
 8204TIP3    H124555   1.008   2.834   6.502 -1.6107  0.4898  0.5233
 8204TIP3    H224556   1.099   2.809   6.620 -0.5175  0.9080 -0.2203
 8205TIP3   OH224557   7.252   1.482   0.816 -0.2264  0.3221 -0.3438
 8205TIP3    H124558   7.262   1.511   0.725 -1.2004  0.7033 -0.3359
 8205TIP3    H224559   7.264   1.387   0.812  0.0452  0.3747 -0.8226
 8206TIP3   OH224560   1.060   6.842   1.697  0.0828  0.0936 -0.4645
 8206TIP3    H124561   1.033   6.777   1.762 -1.0630  0.7219 -0.2870
 8206TIP3    H224562   1.003   6.826   1.622  0.8793 -0.1238 -1.0403
 8207TIP3   OH224563   4.854   6.044   1.084 -0.4147 -0.1466  0.2070
 8207TIP3    H124564   4.923   5.984   1.113 -0.1452  0.0184 -0.0907
 8207TIP3    H224565   4.851   6.111   1.152 -1.0414 -0.7387  0.7887
 8208TIP3   OH224566   1.137   7.017   4.812 -0.6822  0.2102 -0.1951
 8208TIP3    H124567   1.051   7.055   4.829 -1.0505  0.3232 -2.1361
 8208TIP3    H224568   1.119   6.940   4.758  0.4042 -0.1021 -0.1340
 8209TIP3   OH224569   5.589   2.182   3.201  0.3154 -1.0497  0.2489
 8209TIP3    H124570   5.660   2.247   3.199 -0.0696 -0.6393 -0.9402
 8209TIP3    H224571   5.529   2.215   3.268 -0.0818  0.0709 -0.6240
 8210TIP3   OH224572   0.622   0.676   5.002 -0.2079  0.0060 -0.4862
 8210TIP3    H124573   0.569   0.599   4.980 -0.5688  0.7107 -2.2031
 8210TIP3    H224574   0.608   0.737   4.930  0.0502  1.7200  0.8343
 8211TIP3   OH224575   5.410   3.809  -0.014 -0.3531 -0.1419 -0.1662
 8211TIP3    H124576   5.396   3.814   0.080  0.1779  0.1937 -0.1032
 8211TIP3    H224577   5.443   3.895  -0.039  1.2484 -0.7628 -0.3474
 8212TIP3   OH224578   2.054   1.001   2.808  0.4360  0.6007  0.2661
 8212TIP3    H124579   2.029   0.978   2.719  0.6390  1.6868 -0.0857
 8212TIP3    H224580   1.989   0.956   2.863  0.5943 -0.4575 -0.3889
 8213TIP3   OH224581   1.602   1.485   0.297 -0.0325 -0.4757  0.1329
 8213TIP3    H124582   1.690   1.521   0.312 -0.2077 -0.3929  1.0163
 8213TIP3    H224583   1.579   1.515   0.209  0.5115  0.1684  0.2003
 8214TIP3   OH224584   7.392   3.599   0.295 -0.6782  0.7213 -0.4899
 8214TIP3    H124585   7.378   3.660   0.223  1.4891 -1.1608 -2.6705
 8214TIP3    H224586   7.482   3.568   0.285 -0.9336 -1.1500  1.8484
 8215TIP3   OH224587   5.572   0.576   4.970 -0.3561  0.7207 -0.1095
 8215TIP3    H124588   5.665   0.560   4.957 -0.9919 -2.3908 -1.8693
 8215TIP3    H224589   5.550   0.644   4.906  0.1983 -0.7387 -1.9344
 8216TIP3   OH224590   1.061   7.836   3.466  0.4583  0.3346  0.2158
 8216TIP3    H124591   1.022   7.750   3.450 -0.1861  0.4316  1.1531
 8216TIP3    H224592   1.143   7.817   3.512 -0.5929  0.2559  2.1445
 8217TIP3   OH224593   2.416   0.808   1.809  0.2046  0.3526 -0.1185
 8217TIP3    H124594   2.401   0.714   1.807 -1.4921  0.5529  0.5153
 8217TIP3    H224595   2.386   0.840   1.724 -0.4791  0.4431  0.1450
 8218TIP3   OH224596   8.165   6.127   0.987  0.4326  0.0082 -0.6495
 8218TIP3    H124597   8.186   6.034   0.988  2.9161  0.4835 -1.2818
 8218TIP3    H224598   8.104   6.139   1.060 -1.1785 -2.3178 -1.5026
 8219TIP3   OH224599   7.324   5.711   2.557 -0.5141  0.3466 -0.3534
 8219TIP3    H124600   7.315   5.619   2.584 -2.5725  0.1063 -1.5978
 8219TIP3    H224601   7.331   5.760   2.639 -1.8387 -0.7290  0.4506
 8220TIP3   OH224602   2.216   3.708   2.170 -0.5087  0.5136 -0.0298
 8220TIP3    H124603   2.144   3.710   2.233  0.7268  1.0335  1.4437
 8220TIP3    H224604   2.257   3.794   2.178 -1.7392  1.5845 -3.3790
 8221TIP3   OH224605   7.924   4.088   6.522 -0.1290 -0.0521  0.2969
 8221TIP3    H124606   7.922   3.994   6.505  0.2231 -0.3228  1.6317
 8221TIP3    H224607   7.858   4.125   6.463 -0.3141 -1.1394 -0.1889
 8222TIP3   OH224608   1.085   2.541   1.963 -0.1476 -0.0403  0.5540
 8222TIP3    H124609   1.013   2.492   1.923 -0.3743 -0.3892  1.3496
 8222TIP3    H224610   1.152   2.547   1.895 -0.4244 -0.8075  0.2029
 8223TIP3   OH224611   5.980   0.219   2.186  0.1504 -0.6446  0.1497
 8223TIP3    H124612   6.007   0.281   2.117 -1.0175  0.3304  0.5375
 8223TIP3    H224613   6.053   0.219   2.248  0.5132 -0.2815 -0.2678
 8224TIP3   OH224614   6.976   1.941   1.872 -0.4770  0.1198  0.1661
 8224TIP3    H124615   6.974   1.977   1.784  1.6928 -0.4135 -0.1430
 8224TIP3    H224616   7.030   2.002   1.922 -0.8036 -0.1504  0.8675
 8225TIP3   OH224617   3.816   5.045   0.455 -0.3716  0.2410  0.3820
 8225TIP3    H124618   3.904   5.083   0.450  0.0684 -0.9051 -1.2856
 8225TIP3    H224619   3.764   5.112   0.501  0.9947  1.6463 -0.0167
 8226TIP3   OH224620   7.118   6.192   2.443 -0.1417  0.2329 -0.7979
 8226TIP3    H124621   7.118   6.225   2.353 -0.2640  0.2986 -0.7736
 8226TIP3    H224622   7.167   6.258   2.493  1.4694 -0.6591 -1.1275
 8227TIP3   OH224623   8.102   2.102   4.713 -0.5155  0.1207 -0.1678
 8227TIP3    H124624   8.060   2.055   4.785  0.4653 -1.4236 -0.5540
 8227TIP3    H224625   8.108   2.037   4.642  1.3074  0.6649 -0.5610
 8228TIP3   OH224626   3.488   5.068   3.489 -0.1852  0.2345  0.6220
 8228TIP3    H124627   3.399   5.058   3.455  0.3438 -1.1957 -0.4348
 8228TIP3    H224628   3.534   5.119   3.421  0.3262 -0.8174  0.1622
 8229TIP3   OH224629   5.345   7.592   1.366 -0.5133 -0.3350  0.3978
 8229TIP3    H124630   5.258   7.569   1.333 -0.5845 -1.9920  1.5904
 8229TIP3    H224631   5.348   7.553   1.454  1.5161 -0.4935  0.3036
 8230TIP3   OH224632   1.667   2.774   3.597  0.0332  0.3542  0.2075
 8230TIP3    H124633   1.683   2.866   3.619  2.2972  0.1226 -0.2259
 8230TIP3    H224634   1.616   2.777   3.516 -0.2804  1.2068  0.4227
 8231TIP3   OH224635   2.658   6.579   0.374 -0.3729 -1.2210  0.0190
 8231TIP3    H124636   2.699   6.666   0.372  0.4110 -1.5698  0.2775
 8231TIP3    H224637   2.585   6.588   0.435 -0.0704 -0.8346  0.3343
 8232TIP3   OH224638   3.039   5.270   2.735  0.2656  0.1993 -0.0451
 8232TIP3    H124639   3.083   5.330   2.674 -1.5670 -0.3278 -2.0136
 8232TIP3    H224640   3.105   5.252   2.802  2.1079  1.5112 -1.3850
 8233TIP3   OH224641   7.617   4.113   1.516  0.0648 -0.3011  0.5747
 8233TIP3    H124642   7.625   4.099   1.610 -0.3402  0.5927  0.7597
 8233TIP3    H224643   7.523   4.107   1.499  0.1227 -0.3002  0.2611
 8234TIP3   OH224644   3.985   1.909   2.652 -0.3314 -0.1079 -0.3385
 8234TIP3    H124645   4.016   1.838   2.707  1.7703  0.2577 -0.9586
 8234TIP3    H224646   3.943   1.866   2.578  1.0013 -0.7424 -0.7526
 8235TIP3   OH224647   4.243   0.206   2.931  0.1301  0.0604 -0.2787
 8235TIP3    H124648   4.156   0.198   2.891 -0.8574  0.0512  1.7563
 8235TIP3    H224649   4.233   0.168   3.018  2.0971  0.3925  0.1266
 8236TIP3   OH224650   5.454   5.147   0.504  0.3964 -0.1451 -0.3885
 8236TIP3    H124651   5.451   5.208   0.431 -0.4088 -0.3440 -0.5378
 8236TIP3    H224652   5.364   5.113   0.510  0.0160  1.0645  1.7262
 8237TIP3   OH224653   1.767   1.368   0.785  0.6516  0.3118  0.2118
 8237TIP3    H124654   1.742   1.304   0.718  2.2085  0.6470 -0.7359
 8237TIP3    H224655   1.842   1.328   0.829  0.6929  0.8224  0.6118
 8238TIP3   OH224656   0.220   6.057   1.926  0.4279 -0.4168  0.2712
 8238TIP3    H124657   0.212   6.041   1.832 -0.5444 -1.0578  0.4460
 8238TIP3    H224658   0.252   6.147   1.933  0.6613 -0.4168 -0.6655
 8239TIP3   OH224659   6.842   1.894   2.665 -0.3380  0.7309  0.1531
 8239TIP3    H124660   6.774   1.875   2.729  0.2897  0.9631  0.9061
 8239TIP3    H224661   6.852   1.814   2.614  0.4443 -0.0984  1.5606
 8240TIP3   OH224662   2.834   1.039   0.373  0.1770 -0.3040 -0.1871
 8240TIP3    H124663   2.743   1.013   0.361 -1.3233  3.3574  1.6836
 8240TIP3    H224664   2.858   1.082   0.291  0.6242 -2.0337 -1.0133
 8241TIP3   OH224665   5.748   7.716   5.093  0.4518 -0.1672  0.2348
 8241TIP3    H124666   5.801   7.657   5.147 -0.0671 -0.1528  0.7687
 8241TIP3    H224667   5.808   7.786   5.067  1.5840 -1.8347 -1.9346
 8242TIP3   OH224668   1.358   3.051   6.758 -0.0872 -1.0783 -0.5392
 8242TIP3    H124669   1.347   3.103   6.679  1.3407 -1.6705 -1.1696
 8242TIP3    H224670   1.422   3.100   6.810 -0.3609 -1.1307 -0.1500
 8243TIP3   OH224671   4.915   4.106   5.202  0.1119 -0.3869  0.8444
 8243TIP3    H124672   4.985   4.091   5.138 -0.7989  0.6346 -0.4233
 8243TIP3    H224673   4.927   4.036   5.266  2.0383 -0.4803  0.4425
 8244TIP3   OH224674   0.681   7.573   4.611 -0.1296 -0.0009  0.9272
 8244TIP3    H124675   0.641   7.575   4.524 -0.3311  0.3538  1.0260
 8244TIP3    H224676   0.715   7.661   4.624 -0.3266  0.0202  1.3148
 8245TIP3   OH224677   6.393   5.769   5.242  0.5436 -0.9794 -0.0288
 8245TIP3    H124678   6.390   5.679   5.276 -0.3091 -1.1663 -0.5614
 8245TIP3    H224679   6.301   5.794   5.233  0.7522  0.4361  1.3503
 8246TIP3   OH224680   0.038   0.856   4.071 -0.2616  0.2186 -0.1748
 8246TIP3    H124681  -0.055   0.860   4.046  0.2980  0.4208 -2.3689
 8246TIP3    H224682   0.067   0.769   4.042  0.2514  0.1671  0.4740
 8247TIP3   OH224683   0.595   2.395   0.259 -0.2494 -0.4630 -0.4289
 8247TIP3    H124684   0.604   2.411   0.164 -1.2253 -3.2263 -1.0661
 8247TIP3    H224685   0.515   2.441   0.283 -0.1587  0.0139 -0.9797
 8248TIP3   OH224686   3.571   3.658   5.941  0.2256  0.2122  0.4818
 8248TIP3    H124687   3.641   3.620   5.994 -2.6302 -1.3240  3.5200
 8248TIP3    H224688   3.518   3.584   5.913 -1.8200  1.4247  0.8923
 8249TIP3   OH224689   7.149   7.683   0.114 -0.3728 -0.4017  0.5344
 8249TIP3    H124690   7.091   7.652   0.184 -1.4440  0.8756  0.2533
 8249TIP3    H224691   7.108   7.651   0.034 -0.5821  0.3214  0.3466
 8250TIP3   OH224692   3.612   4.972   2.631 -0.3220 -0.5744  0.4979
 8250TIP3    H124693   3.671   4.996   2.560  1.6605  0.9139  2.5244
 8250TIP3    H224694   3.543   4.921   2.588  0.5604  0.5367 -2.5185
 8251TIP3   OH224695   0.811   3.876   3.598  0.0602  0.0979  0.0433
 8251TIP3    H124696   0.871   3.918   3.660 -0.2374 -1.0119  1.1221
 8251TIP3    H224697   0.860   3.874   3.516  0.9293  0.5479  0.5284
 8252TIP3   OH224698   5.135   2.919   5.836  0.7372 -0.5909 -0.0087
 8252TIP3    H124699   5.202   2.962   5.784  0.0872  2.0726  1.1786
 8252TIP3    H224700   5.172   2.833   5.857  2.5553 -0.2766 -1.6848
 8253TIP3   OH224701   2.595   3.697   1.726  0.2556 -1.1135 -0.0330
 8253TIP3    H124702   2.626   3.756   1.657 -0.2977 -1.2513 -0.4107
 8253TIP3    H224703   2.514   3.660   1.691  0.6337 -2.1613  0.1592
 8254TIP3   OH224704   5.035   2.507   2.013 -0.2029  0.4901  0.4437
 8254TIP3    H124705   4.957   2.553   2.044  0.0877  0.6264  0.9980
 8254TIP3    H224706   5.051   2.440   2.079 -0.7542 -0.5821 -0.4825
 8255TIP3   OH224707   4.450   5.098   5.818  0.1669 -0.7297  0.1158
 8255TIP3    H124708   4.495   5.134   5.741  0.1192 -1.0153 -0.0456
 8255TIP3    H224709   4.491   5.013   5.832  0.2785 -0.6140  0.4990
 8256TIP3   OH224710   2.750   1.072   0.735  0.0822  0.0608  0.4520
 8256TIP3    H124711   2.818   1.029   0.786 -0.5176  0.8754  1.9974
 8256TIP3    H224712   2.797   1.135   0.680  0.5545  1.4406  2.3390
 8257TIP3   OH224713   1.582   0.211   4.588  0.8765 -0.3267  0.1563
 8257TIP3    H124714   1.504   0.178   4.632  0.7588 -0.0391  0.1673
 8257TIP3    H224715   1.570   0.306   4.588  2.0085 -0.1393  1.6546
 8258TIP3   OH224716   0.150   4.004   4.347 -0.4430  0.0826 -0.0189
 8258TIP3    H124717   0.231   3.979   4.303  0.2618  0.7384  0.8681
 8258TIP3    H224718   0.154   3.960   4.432 -0.3120  1.2515  0.6069
 8259TIP3   OH224719   5.486   6.090   0.667 -0.0203 -0.1850  0.0466
 8259TIP3    H124720   5.504   6.167   0.721  1.4354 -0.7234  0.3945
 8259TIP3    H224721   5.456   6.126   0.583 -2.3458  0.6524  1.1823
 8260TIP3   OH224722   4.965   4.810   5.201 -0.1260  0.7768 -0.0106
 8260TIP3    H124723   4.875   4.811   5.169 -0.4784  0.4450  0.9169
 8260TIP3    H224724   4.970   4.885   5.261  0.6443  1.6525 -1.1041
 8261TIP3   OH224725   6.953   6.462   2.381 -0.1700 -0.0162  0.0251
 8261TIP3    H124726   6.978   6.388   2.325  0.6337  0.3638 -0.1310
 8261TIP3    H224727   6.889   6.510   2.328 -0.0999 -0.1615 -0.1975
 8262TIP3   OH224728   7.399   1.282   6.550  1.0110  0.0152  0.1685
 8262TIP3    H124729   7.440   1.339   6.615 -0.5536 -0.8092  1.9610
 8262TIP3    H224730   7.309   1.314   6.543  0.2117 -1.9415  0.9268
 8263TIP3   OH224731   3.715   0.204   2.217  0.4053 -0.2801  0.0673
 8263TIP3    H124732   3.689   0.124   2.170 -0.7305  0.6326 -0.9413
 8263TIP3    H224733   3.809   0.194   2.232  0.3386 -1.6603 -0.3179
 8264TIP3   OH224734   7.530   3.669   1.261 -0.2510  1.4419  0.2117
 8264TIP3    H124735   7.578   3.717   1.194 -1.1162  0.4587 -1.1597
 8264TIP3    H224736   7.597   3.613   1.303  0.0088  0.7864 -1.0278
 8265TIP3   OH224737   2.276   5.322   6.507 -0.4614 -0.3540 -0.1880
 8265TIP3    H124738   2.223   5.392   6.468 -0.1376  0.1946  0.3433
 8265TIP3    H224739   2.363   5.361   6.518 -0.6231 -0.3562  1.3923
 8266TIP3   OH224740   1.979   2.749   3.130  0.0367 -0.0977 -0.2497
 8266TIP3    H124741   1.948   2.769   3.219 -0.7663 -0.4660 -0.4394
 8266TIP3    H224742   1.989   2.654   3.129  1.1903  0.0042 -0.2016
 8267TIP3   OH224743   7.144   2.069   3.198  0.4043 -1.3826 -0.2933
 8267TIP3    H124744   7.098   2.071   3.113  0.1662 -2.0221 -0.1844
 8267TIP3    H224745   7.212   2.003   3.187  0.5383 -1.2824 -0.0643
 8268TIP3   OH224746   3.952   3.960   0.843 -0.3723  0.2697  0.4461
 8268TIP3    H124747   3.982   3.968   0.934 -1.6120  1.6164  0.7650
 8268TIP3    H224748   3.997   4.031   0.797 -0.6212  0.2880  0.2338
 8269TIP3   OH224749   2.208   5.540   5.099 -0.3860 -0.1253 -0.0836
 8269TIP3    H124750   2.152   5.474   5.140  0.3476 -1.1359 -0.6712
 8269TIP3    H224751   2.285   5.491   5.069 -0.0110  0.9297 -0.8947
 8270TIP3   OH224752   5.265   2.877   6.501 -0.2483 -0.4111 -0.3724
 8270TIP3    H124753   5.246   2.822   6.577  0.6988  0.1672  0.3005
 8270TIP3    H224754   5.305   2.818   6.438  1.3646 -0.3982  0.5940
 8271TIP3   OH224755   4.279   3.250   5.514 -0.1303 -0.0946 -0.1513
 8271TIP3    H124756   4.335   3.222   5.442 -1.5950  2.1916 -2.3080
 8271TIP3    H224757   4.337   3.297   5.573  0.7781 -0.4967 -0.7105
 8272TIP3   OH224758   2.005   7.522   1.562  0.1379  0.1429  0.3182
 8272TIP3    H124759   2.093   7.487   1.571  0.5613  1.0575 -0.1119
 8272TIP3    H224760   1.992   7.576   1.641 -0.5392 -1.0142  1.0179
 8273TIP3   OH224761   5.313   7.320   4.499 -0.7981  0.0072 -0.1394
 8273TIP3    H124762   5.312   7.366   4.583 -0.7403 -0.0138 -0.1268
 8273TIP3    H224763   5.308   7.389   4.433 -1.2638 -0.0008 -0.1105
 8274TIP3   OH224764   5.382   5.471   6.625  0.0947  0.1635  0.5101
 8274TIP3    H124765   5.314   5.538   6.622  0.4151  0.4690 -0.2063
 8274TIP3    H224766   5.458   5.511   6.583  0.9347  0.0491  1.8628
 8275TIP3   OH224767   8.162   0.496   5.837 -0.3779  0.2911 -0.4117
 8275TIP3    H124768   8.241   0.544   5.864 -0.0804 -0.2026 -0.4006
 8275TIP3    H224769   8.122   0.553   5.770 -1.1174  1.5204  1.0214
 8276TIP3   OH224770   5.097   6.791   1.954  0.1852 -0.2093  0.4198
 8276TIP3    H124771   5.188   6.763   1.941  0.0572  0.5072 -3.1110
 8276TIP3    H224772   5.097   6.884   1.934 -1.1693  0.0191  1.3516
 8277TIP3   OH224773   5.311   6.746   6.453  0.1548 -0.1322  0.1576
 8277TIP3    H124774   5.369   6.740   6.377  1.8272  2.3919  1.1104
 8277TIP3    H224775   5.367   6.726   6.528 -0.9480 -0.5023  0.9139
 8278TIP3   OH224776   3.592   2.793   6.495 -0.3943  0.9732 -0.0579
 8278TIP3    H124777   3.661   2.748   6.446  0.7296  0.4404  1.9266
 8278TIP3    H224778   3.557   2.857   6.433  1.2586  0.6350 -1.4104
 8279TIP3   OH224779   4.049   7.247   3.381  0.2258 -0.4238  0.0367
 8279TIP3    H124780   3.997   7.236   3.461 -0.6279  0.6020 -0.3465
 8279TIP3    H224781   4.105   7.323   3.399  0.4653 -0.5652 -0.1166
 8280TIP3   OH224782   5.704   4.358   4.775  0.6711  0.9622 -0.1849
 8280TIP3    H124783   5.696   4.444   4.734  0.7904  1.6698  1.2066
 8280TIP3    H224784   5.793   4.330   4.755  0.6006  1.1270 -0.7249
 8281TIP3   OH224785   5.788   2.803   0.950 -0.5127  0.3358  0.3403
 8281TIP3    H124786   5.698   2.789   0.920 -0.6666  1.0581  0.4445
 8281TIP3    H224787   5.782   2.807   1.045 -0.4406  0.8306  0.3277
 8282TIP3   OH224788   0.878   5.568   4.700  1.0404  0.4628 -0.0121
 8282TIP3    H124789   0.890   5.660   4.725 -0.4351  0.3941  1.1291
 8282TIP3    H224790   0.789   5.565   4.664  1.3004 -0.4180 -0.6086
 8283TIP3   OH224791   2.310   2.824   2.327 -0.5038 -0.4738 -0.4330
 8283TIP3    H124792   2.267   2.835   2.412 -0.5473  0.0898 -0.5255
 8283TIP3    H224793   2.240   2.833   2.263 -0.1207  1.5124 -0.6392
 8284TIP3   OH224794   6.426   7.417   4.650 -0.3070 -0.2933  0.2599
 8284TIP3    H124795   6.344   7.464   4.639 -0.0593  0.0985  0.0925
 8284TIP3    H224796   6.410   7.358   4.724 -1.2255 -1.2849 -0.6911
 8285TIP3   OH224797   3.000   5.041   5.357  0.5391  0.1208 -0.1254
 8285TIP3    H124798   3.012   4.965   5.413  0.9245  1.2628  1.4169
 8285TIP3    H224799   3.055   5.024   5.280 -0.4743 -1.7450 -0.4747
 8286TIP3   OH224800   1.030   6.538   1.217  0.4263 -0.0437  0.4238
 8286TIP3    H124801   1.036   6.525   1.311 -0.7985 -0.1424  0.4992
 8286TIP3    H224802   0.945   6.503   1.193  0.7539 -0.0838 -0.7399
 8287TIP3   OH224803   6.072   4.229   6.261 -0.1285  0.9399 -0.3115
 8287TIP3    H124804   6.094   4.215   6.169  0.0406 -0.6501 -0.0659
 8287TIP3    H224805   6.156   4.229   6.306 -0.2775  0.5156 -0.0289
 8288TIP3   OH224806   0.336   6.847   5.204  0.0576  0.0283 -0.2684
 8288TIP3    H124807   0.315   6.847   5.297  0.2544  0.3439 -0.2219
 8288TIP3    H224808   0.254   6.868   5.160 -0.5652 -2.1914 -0.3022
 8289TIP3   OH224809   4.397   5.514   1.521 -0.0239  0.0724  0.6150
 8289TIP3    H124810   4.302   5.504   1.510  0.2744 -1.1847 -1.3345
 8289TIP3    H224811   4.418   5.462   1.598 -1.0684  1.4911  1.9146
 8290TIP3   OH224812   6.057   0.202   5.515 -0.2619 -0.4425  0.8049
 8290TIP3    H124813   6.048   0.175   5.424 -2.2285 -1.0122  1.1129
 8290TIP3    H224814   6.149   0.225   5.524 -0.4668  1.9664 -1.9397
 8291TIP3   OH224815   4.622   2.542   3.298 -0.3268  0.2662 -0.2026
 8291TIP3    H124816   4.653   2.529   3.208 -1.8317  0.7093 -0.8284
 8291TIP3    H224817   4.529   2.564   3.288 -0.6077 -0.0089  1.4944
 8292TIP3   OH224818   5.960   3.677   3.793 -0.1880  0.1176  0.1846
 8292TIP3    H124819   6.019   3.631   3.733 -1.7611 -2.6186  0.5452
 8292TIP3    H224820   5.993   3.655   3.880 -0.3241  0.6066  0.3613
 8293TIP3   OH224821   0.548   2.710   4.171  0.3380  0.4345 -0.2087
 8293TIP3    H124822   0.568   2.619   4.194 -1.4360  0.2731  0.8409
 8293TIP3    H224823   0.498   2.704   4.090 -1.6463  0.2542  0.9653
 8294TIP3   OH224824   0.736   3.100   4.915  0.0652 -0.4318  0.2461
 8294TIP3    H124825   0.693   3.017   4.893  1.0764 -0.8161 -0.3344
 8294TIP3    H224826   0.750   3.143   4.831  0.7640 -0.2877  0.4342
 8295TIP3   OH224827   2.579   2.976   5.586 -0.5284 -0.1328 -0.4501
 8295TIP3    H124828   2.487   2.957   5.569 -0.4339 -0.5418 -0.5255
 8295TIP3    H224829   2.625   2.896   5.558 -0.0612  0.4201 -1.3183
 8296TIP3   OH224830   2.935   3.039   1.557 -0.1623  0.4594 -0.1868
 8296TIP3    H124831   2.964   3.074   1.472 -1.7362 -1.5682 -1.6505
 8296TIP3    H224832   2.924   2.945   1.542  0.8347 -0.2207  2.6960
 8297TIP3   OH224833   4.486   2.414   1.606 -0.0675  0.1910 -0.0363
 8297TIP3    H124834   4.562   2.434   1.661 -0.1519  0.7133 -0.1050
 8297TIP3    H224835   4.519   2.418   1.516  0.3237 -1.7207 -0.0189
 8298TIP3   OH224836   3.227   1.569   5.960 -0.4301  0.5564 -0.9395
 8298TIP3    H124837   3.176   1.623   5.900  0.1386  1.7707 -0.3693
 8298TIP3    H224838   3.169   1.555   6.035 -0.5568  0.4217 -1.0620
 8299TIP3   OH224839   0.075   4.583   6.158 -0.0336 -0.2070  0.1491
 8299TIP3    H124840  -0.007   4.621   6.189  1.2951  1.3773  2.0242
 8299TIP3    H224841   0.113   4.542   6.236  1.7128  0.6179 -0.1987
 8300TIP3   OH224842   8.176   6.975   5.576  0.2362  0.4794  0.0330
 8300TIP3    H124843   8.098   6.940   5.532 -0.5305  1.0260  0.9188
 8300TIP3    H224844   8.184   6.921   5.655  0.8902  0.2879 -0.1619
 8301TIP3   OH224845   1.908   4.801   4.781 -0.0397 -0.6603  0.1121
 8301TIP3    H124846   1.937   4.891   4.799 -0.0755 -0.7419  0.6066
 8301TIP3    H224847   1.844   4.783   4.850 -0.4127 -0.8857 -0.2942
 8302TIP3   OH224848   5.644   4.474   0.739 -0.1955  0.1979 -0.1669
 8302TIP3    H124849   5.576   4.415   0.771 -1.3846  1.3796 -0.3945
 8302TIP3    H224850   5.707   4.480   0.810 -0.3618 -0.8629  0.0849
 8303TIP3   OH224851   2.041   6.574   2.297  0.5421 -0.1215  0.6229
 8303TIP3    H124852   2.024   6.619   2.215  1.8376  0.5649  0.7048
 8303TIP3    H224853   2.136   6.559   2.297  0.1095 -3.9417  0.0499
 8304TIP3   OH224854   5.620   7.331   6.736  0.1246 -0.1930 -0.4018
 8304TIP3    H124855   5.638   7.328   6.829 -1.4774  0.5241 -0.0306
 8304TIP3    H224856   5.673   7.404   6.703  1.3072 -0.9492 -0.2345
 8305TIP3   OH224857   7.722   1.281   1.902  0.0576  0.1188 -0.0011
 8305TIP3    H124858   7.722   1.350   1.967  0.7795 -1.2989  1.5769
 8305TIP3    H224859   7.758   1.321   1.823  3.2615  0.8541  1.6721
 8306TIP3   OH224860   0.619   0.241   1.878  0.1667 -0.1885  0.0271
 8306TIP3    H124861   0.575   0.156   1.887  0.3006 -0.5080 -1.8227
 8306TIP3    H224862   0.557   0.304   1.915 -1.2206 -0.7883 -1.1607
 8307TIP3   OH224863   3.180   5.616   1.028  0.4578  0.3713  0.3374
 8307TIP3    H124864   3.180   5.523   1.050 -0.1056  0.2097 -0.3301
 8307TIP3    H224865   3.144   5.620   0.940  0.9348  1.1840  0.1700
 8308TIP3   OH224866   2.505   0.417   5.659 -0.4379 -0.2911 -0.5603
 8308TIP3    H124867   2.554   0.354   5.606  0.6351  0.8252 -0.9432
 8308TIP3    H224868   2.571   0.481   5.687 -0.9840 -0.7619  2.0276
 8309TIP3   OH224869   6.143   3.653   0.181  0.2415 -0.0291  0.2249
 8309TIP3    H124870   6.050   3.647   0.202  0.3502  0.3277  0.8437
 8309TIP3    H224871   6.174   3.728   0.232  0.6292  0.5672 -0.8511
 8310TIP3   OH224872   2.151   2.707   3.909 -0.1722 -0.1441  0.5289
 8310TIP3    H124873   2.206   2.777   3.943  0.2105  0.3910 -1.0980
 8310TIP3    H224874   2.131   2.652   3.985 -0.3818  1.6544  1.8163
 8311TIP3   OH224875   7.859   1.978   1.788 -0.0422 -0.5854 -0.3090
 8311TIP3    H124876   7.887   1.887   1.788  2.0703 -0.0398  1.6063
 8311TIP3    H224877   7.941   2.028   1.778 -0.9951  1.1096 -0.0095
 8312TIP3   OH224878   1.159   1.907   3.198  0.1027  0.4099  0.8396
 8312TIP3    H124879   1.076   1.944   3.228 -0.7699 -0.4715 -0.3806
 8312TIP3    H224880   1.171   1.942   3.110  0.2841 -0.5797  0.4570
 8313TIP3   OH224881   6.414   4.938   2.812 -0.2090  0.0907 -0.1569
 8313TIP3    H124882   6.503   4.948   2.777 -0.5144 -0.0053 -1.0037
 8313TIP3    H224883   6.402   5.014   2.869 -0.4638  1.5217 -2.0119
 8314TIP3   OH224884   2.825   2.027   4.104  0.0060  0.3818 -0.4221
 8314TIP3    H124885   2.755   1.963   4.090  1.4109 -1.0290 -1.3337
 8314TIP3    H224886   2.891   1.979   4.155 -0.0431  1.9607  1.2492
 8315TIP3   OH224887   5.562   1.557   1.415 -0.2604  0.3632 -0.3396
 8315TIP3    H124888   5.632   1.610   1.376 -0.4679  2.7202  2.1903
 8315TIP3    H224889   5.482   1.586   1.371 -0.2421  1.4501  0.3234
 8316TIP3   OH224890   2.518   3.893   3.366  0.0370  0.8951 -0.3059
 8316TIP3    H124891   2.600   3.845   3.374  0.0192  0.9776  0.4344
 8316TIP3    H224892   2.456   3.842   3.418 -0.6692  0.2180 -1.7494
 8317TIP3   OH224893   6.463   2.204   1.561  1.0429 -0.2280  0.1715
 8317TIP3    H124894   6.533   2.141   1.578  0.3678 -0.5475  2.0506
 8317TIP3    H224895   6.428   2.225   1.648  0.5094  1.9044 -0.4883
 8318TIP3   OH224896   5.359   3.692   1.344 -0.0795  0.4149  0.5107
 8318TIP3    H124897   5.342   3.764   1.284  0.6620  0.8668  0.8249
 8318TIP3    H224898   5.341   3.613   1.292 -0.9405  0.8124  0.1786
 8319TIP3   OH224899   6.595   2.065   6.041 -0.5490  0.5115  0.5134
 8319TIP3    H124900   6.629   2.100   5.959  0.5352 -0.1164  0.6711
 8319TIP3    H224901   6.502   2.088   6.040  0.0120  3.0946  0.4938
 8320TIP3   OH224902   4.165   0.847   0.967  0.2499  0.1418  0.2687
 8320TIP3    H124903   4.151   0.863   1.061 -0.4000  0.7219  0.0788
 8320TIP3    H224904   4.098   0.783   0.943  3.1514 -3.5894  1.1383
 8321TIP3   OH224905   8.131   7.754   3.184 -0.2785  0.1825 -0.4492
 8321TIP3    H124906   8.095   7.802   3.109 -0.3183  1.5564  0.4282
 8321TIP3    H224907   8.054   7.727   3.234 -0.1859  1.3973  0.3771
 8322TIP3   OH224908   8.018   6.043   1.332 -0.0182 -0.4496  0.4406
 8322TIP3    H124909   7.934   6.050   1.286  0.8026  1.3272 -0.8603
 8322TIP3    H224910   8.058   5.964   1.297 -0.3166 -0.2583 -0.3459
 8323TIP3   OH224911   3.812   1.492   3.938 -0.0788 -0.1838 -0.2043
 8323TIP3    H124912   3.871   1.533   4.001  0.0144 -0.7943  0.1068
 8323TIP3    H224913   3.772   1.566   3.891  1.6894  0.2351 -1.1287
 8324TIP3   OH224914   2.762   2.841   6.491  0.3325  0.1743  0.5322
 8324TIP3    H124915   2.745   2.786   6.567 -0.2455  1.8651  1.6853
 8324TIP3    H224916   2.857   2.835   6.477  0.5237  0.2639  1.7230
 8325TIP3   OH224917   2.984   2.607   5.708  0.6780  0.3578  0.2428
 8325TIP3    H124918   3.029   2.534   5.751 -0.0431 -0.1409  0.1763
 8325TIP3    H224919   2.914   2.565   5.658  0.1079  1.1191  0.3949
 8326TIP3   OH224920   4.071   3.718   2.418  0.0318 -0.0499 -0.2045
 8326TIP3    H124921   4.106   3.757   2.498  1.0401  1.3952 -1.3003
 8326TIP3    H224922   4.136   3.738   2.351 -0.8465 -1.1235 -1.4208
 8327TIP3   OH224923   1.606   5.295   4.395  0.1073 -0.3358 -0.4993
 8327TIP3    H124924   1.530   5.242   4.370 -0.0497  0.1393 -1.0612
 8327TIP3    H224925   1.679   5.258   4.345  0.5140 -1.5692  0.9607
 8328TIP3   OH224926   0.372   7.719   3.814 -0.4165  0.2205  0.6995
 8328TIP3    H124927   0.466   7.719   3.831 -0.3832 -1.4403  0.6874
 8328TIP3    H224928   0.363   7.674   3.730 -1.2593 -0.1699  0.9908
 8329TIP3   OH224929   0.478   4.900   1.054 -0.0071  0.2710  0.4226
 8329TIP3    H124930   0.482   4.850   0.972 -0.3435 -0.6850  0.9643
 8329TIP3    H224931   0.561   4.879   1.097 -0.3693 -0.2525  0.8823
 8330TIP3   OH224932   4.389   5.183   2.856  0.3667 -0.2297 -0.2080
 8330TIP3    H124933   4.334   5.232   2.917  0.4583  0.0505 -0.3478
 8330TIP3    H224934   4.408   5.101   2.901  2.3558  0.8838  1.1662
 8331TIP3   OH224935   2.311   4.410   5.582 -0.0250 -0.2145 -0.0656
 8331TIP3    H124936   2.377   4.405   5.512  0.1022  2.5272 -0.2249
 8331TIP3    H224937   2.359   4.441   5.658 -0.8369  0.2271  0.2715
 8332TIP3   OH224938   4.429   6.615   5.133  0.0755  0.1039  0.1152
 8332TIP3    H124939   4.406   6.683   5.069  0.7454  0.1957 -0.0384
 8332TIP3    H224940   4.378   6.637   5.211 -0.8747 -0.0959 -0.4328
 8333TIP3   OH224941   7.945   2.676   2.945 -0.4555 -0.0409 -0.1575
 8333TIP3    H124942   7.937   2.701   2.853 -0.6101  0.5963  0.0277
 8333TIP3    H224943   7.912   2.751   2.994 -1.2057 -0.7186  0.4005
 8334TIP3   OH224944   1.060   3.633   6.692 -0.1955 -0.0667 -0.0054
 8334TIP3    H124945   1.009   3.567   6.645  1.5596 -2.1664  0.8979
 8334TIP3    H224946   1.143   3.637   6.645  0.4824 -0.0379  1.1666
 8335TIP3   OH224947   4.012   0.527   3.060 -0.2075 -0.0067  0.1046
 8335TIP3    H124948   3.960   0.446   3.059 -1.1135  0.5689 -0.2630
 8335TIP3    H224949   4.072   0.515   3.134 -0.4867 -0.9160  0.2070
 8336TIP3   OH224950   7.839   7.319   6.227 -0.1388  0.2962  0.3988
 8336TIP3    H124951   7.776   7.324   6.299 -0.2624 -1.1740  0.4355
 8336TIP3    H224952   7.811   7.387   6.166 -1.1129  0.3883  0.9230
 8337TIP3   OH224953   3.072   7.335   2.341  0.5973 -0.0465 -0.6031
 8337TIP3    H124954   3.029   7.412   2.303 -0.6410  0.8129  2.2944
 8337TIP3    H224955   3.004   7.269   2.344 -0.0923  0.6654  2.1256
 8338TIP3   OH224956   2.356   3.942   0.323 -0.5738 -0.2717 -0.2605
 8338TIP3    H124957   2.287   3.904   0.379  1.7121 -1.9932  1.6063
 8338TIP3    H224958   2.354   3.888   0.244 -2.2432  0.6070 -0.8595
 8339TIP3   OH224959   4.330   4.967   0.352  0.5019  0.0710  0.0810
 8339TIP3    H124960   4.419   4.964   0.317  0.7035  0.8438  0.5054
 8339TIP3    H224961   4.311   4.876   0.378  0.1215 -0.6758 -2.5191
 8340TIP3   OH224962   3.352   1.964   6.030 -0.1851 -0.1244 -0.0950
 8340TIP3    H124963   3.301   1.921   6.098 -0.7958  0.7905  0.0418
 8340TIP3    H224964   3.368   2.052   6.063 -1.6016  0.7812 -1.6602
 8341TIP3   OH224965   6.158   0.322   0.525 -0.2323  0.1831 -0.3612
 8341TIP3    H124966   6.094   0.393   0.527  0.1855  0.5609 -0.1843
 8341TIP3    H224967   6.182   0.313   0.433 -0.1085  0.4379 -0.3552
 8342TIP3   OH224968   0.096   7.099   6.500 -0.0131  0.1410  0.2522
 8342TIP3    H124969   0.166   7.073   6.440 -1.3899  0.7670 -1.7239
 8342TIP3    H224970   0.036   7.025   6.501  0.8118 -0.5565  2.2543
 8343TIP3   OH224971   2.390   3.552   5.942 -0.2861  0.5183 -0.5968
 8343TIP3    H124972   2.448   3.497   5.888  1.4607  2.6691 -1.0519
 8343TIP3    H224973   2.436   3.561   6.025 -1.7028 -0.5532  0.3721
 8344TIP3   OH224974   3.263   5.565   6.485 -0.2123 -0.3252 -0.1984
 8344TIP3    H124975   3.206   5.525   6.551 -1.1932  0.4816 -0.5269
 8344TIP3    H224976   3.277   5.654   6.516 -1.7035  0.4725 -1.6449
 8345TIP3   OH224977   7.740   7.231   2.436  0.8397  0.5393  0.5693
 8345TIP3    H124978   7.787   7.161   2.390 -0.5016  0.1459 -0.2474
 8345TIP3    H224979   7.682   7.185   2.497  0.5282  0.9583  0.5899
 8346TIP3   OH224980   5.681   0.090   6.424 -0.0312 -0.1928  0.3605
 8346TIP3    H124981   5.772   0.120   6.426 -0.1615  0.2345  0.1270
 8346TIP3    H224982   5.649   0.107   6.512 -0.4745  1.5793 -0.1022
 8347TIP3   OH224983   3.951   1.050   0.316 -0.6602 -0.2665  0.0674
 8347TIP3    H124984   3.878   1.063   0.376 -0.9441  1.3330 -0.5771
 8347TIP3    H224985   4.007   1.127   0.328 -0.0772 -0.5289 -0.8259
 8348TIP3   OH224986   2.217   6.101   5.036  0.3685 -0.5811 -0.7835
 8348TIP3    H124987   2.177   6.128   5.118  0.4922 -1.4579 -0.4188
 8348TIP3    H224988   2.277   6.030   5.060  1.2052 -0.1407 -1.4861
 8349TIP3   OH224989   1.269   3.889   1.555  0.0695  0.2276 -0.1524
 8349TIP3    H124990   1.213   3.834   1.501 -1.4659  0.7694  0.8417
 8349TIP3    H224991   1.247   3.979   1.530 -0.4334  0.4770  1.1265
 8350TIP3   OH224992   3.616   7.406   5.346 -0.4563  0.1477 -0.1241
 8350TIP3    H124993   3.680   7.398   5.275  0.5992 -0.4274  0.8582
 8350TIP3    H224994   3.644   7.341   5.411 -1.5837  0.4354  0.6759
 8351TIP3   OH224995   0.621   3.725   2.587 -0.2132  0.0225 -0.0638
 8351TIP3    H124996   0.565   3.800   2.606  0.5809  0.9473 -1.2497
 8351TIP3    H224997   0.710   3.758   2.596  0.1667 -1.2428  1.0842
 8352TIP3   OH224998   2.239   5.037   4.170  0.1059 -0.0025  0.5691
 8352TIP3    H124999   2.151   5.010   4.144  0.0631  1.5119 -1.0719
 8352TIP3    H225000   2.276   4.960   4.213 -1.3112 -1.3492 -0.5051
 8353TIP3   OH225001   7.142   6.846   6.715 -0.0303 -0.4133  0.0009
 8353TIP3    H125002   7.232   6.823   6.736  0.2076 -1.0961 -1.5884
 8353TIP3    H225003   7.089   6.777   6.754  0.0271  0.4939  1.7525
 8354TIP3   OH225004   5.153   2.204   4.900  0.0697 -0.1655  0.0475
 8354TIP3    H125005   5.122   2.273   4.958  1.5494  1.5344 -1.0420
 8354TIP3    H225006   5.190   2.138   4.959 -1.1589  0.0637  1.1153
 8355TIP3   OH225007   0.068   4.766   1.614  0.0833 -0.4101  0.1162
 8355TIP3    H125008   0.137   4.709   1.647  0.0531 -0.4854  0.0502
 8355TIP3    H225009   0.098   4.790   1.526 -0.3630 -1.0953 -0.2251
 8356TIP3   OH225010   1.466   0.443   0.802  0.5687  0.2939 -0.0496
 8356TIP3    H125011   1.389   0.478   0.758  0.2086  0.3715  0.6346
 8356TIP3    H225012   1.529   0.516   0.801  0.7062  0.1718 -0.7663
 8357TIP3   OH225013   6.847   4.736   1.901 -0.3057  0.0183 -0.0325
 8357TIP3    H125014   6.865   4.740   1.995  1.7730  1.2763 -0.4305
 8357TIP3    H225015   6.756   4.765   1.893 -0.5859 -0.2993  1.5806
 8358TIP3   OH225016   1.377   1.191   3.478  0.1678 -0.2305  0.5864
 8358TIP3    H125017   1.403   1.279   3.504 -0.0743  1.0500 -2.9615
 8358TIP3    H225018   1.283   1.198   3.459  0.1141 -1.2892  0.3655
 8359TIP3   OH225019   3.830   4.769   0.523 -0.1005 -0.1271 -0.1209
 8359TIP3    H125020   3.830   4.863   0.507  1.3900 -0.0476  0.1905
 8359TIP3    H225021   3.742   4.750   0.556  0.4855  1.7408  2.9198
 8360TIP3   OH225022   5.949   1.723   1.577  0.0850  0.3701  0.0256
 8360TIP3    H125023   5.924   1.631   1.591  0.1951  0.5044  1.2520
 8360TIP3    H225024   6.016   1.739   1.643  0.5299  1.1604 -0.6115
 8361TIP3   OH225025   7.512   6.974   0.394  0.2068 -1.5150 -0.0805
 8361TIP3    H125026   7.470   6.998   0.477 -1.1990 -1.0768 -0.8888
 8361TIP3    H225027   7.440   6.966   0.332  1.4206  1.3784 -2.0716
 8362TIP3   OH225028   2.545   2.463   2.335 -0.6996 -0.9629 -0.2225
 8362TIP3    H125029   2.489   2.386   2.323 -2.5457  0.3843 -0.5722
 8362TIP3    H225030   2.627   2.440   2.291 -1.1950 -2.7254 -0.2955
 8363TIP3   OH225031   2.234   2.887   1.586  0.0165 -0.2044 -0.2312
 8363TIP3    H125032   2.154   2.845   1.554 -0.1033  0.1425 -0.3876
 8363TIP3    H225033   2.271   2.824   1.648  0.3049 -0.9300 -1.1264
 8364TIP3   OH225034   6.132   2.948   1.210  0.1168  0.0404  0.4852
 8364TIP3    H125035   6.123   2.909   1.297 -2.7689 -0.6617 -0.0271
 8364TIP3    H225036   6.195   2.891   1.165 -0.4959 -1.2774  1.2447
 8365TIP3   OH225037   7.976   3.768   5.835 -0.0987  0.2994 -0.1819
 8365TIP3    H125038   7.954   3.679   5.860  0.6854  0.5843  1.7020
 8365TIP3    H225039   7.909   3.792   5.770 -0.5526 -1.4920 -0.4324
 8366TIP3   OH225040   1.921   1.413   0.046  0.3356 -0.0001  0.0399
 8366TIP3    H125041   1.857   1.484   0.055  1.1949  0.9771 -1.2388
 8366TIP3    H225042   1.869   1.337   0.019 -0.2644  0.8667 -1.3335
 8367TIP3   OH225043   6.849   3.729   4.167  0.4079  0.3424  0.4608
 8367TIP3    H125044   6.906   3.699   4.096 -0.4742 -0.8298  0.2028
 8367TIP3    H225045   6.856   3.824   4.165  0.9461  0.2996 -0.7537
 8368TIP3   OH225046   8.098   6.369   3.430  0.1778  0.2932  0.0586
 8368TIP3    H125047   8.121   6.279   3.406 -0.1339  0.7581 -2.1330
 8368TIP3    H225048   8.045   6.401   3.357  0.9980  2.5604  0.3759
 8369TIP3   OH225049   5.669   1.197   2.670  0.0235 -0.2116 -0.3926
 8369TIP3    H125050   5.588   1.248   2.666 -0.3784 -0.8052 -0.0119
 8369TIP3    H225051   5.736   1.260   2.698  0.2078  0.8409 -2.9598
 8370TIP3   OH225052   2.327   2.010   3.775  0.0487  0.3144  0.0261
 8370TIP3    H125053   2.235   2.000   3.800  0.6145  0.5231  2.4786
 8370TIP3    H225054   2.349   2.100   3.798  0.7217  0.4577 -1.1074
 8371TIP3   OH225055   4.445   0.069   3.284 -0.6077  0.0542 -0.3108
 8371TIP3    H125056   4.494  -0.008   3.313 -0.0449  0.4477 -0.1978
 8371TIP3    H225057   4.512   0.126   3.245 -0.9682  0.6150 -0.1207
 8372TIP3   OH225058   7.004   4.137   6.304 -0.6247 -0.2986 -0.2862
 8372TIP3    H125059   6.922   4.087   6.301  0.1796 -1.6433 -0.6362
 8372TIP3    H225060   7.058   4.091   6.368 -1.2346  2.4135  2.4111
 8373TIP3   OH225061   0.224   4.880   2.264  0.3234  0.1479 -0.1607
 8373TIP3    H125062   0.196   4.969   2.239  1.3381 -0.0569 -2.2915
 8373TIP3    H225063   0.309   4.892   2.305  0.0618  0.2218  0.3676
 8374TIP3   OH225064   3.035   7.678   6.286  0.8087  0.4843  0.4115
 8374TIP3    H125065   2.985   7.726   6.352  1.9833  0.7057  1.1778
 8374TIP3    H225066   3.006   7.715   6.203 -0.0092  0.8635  0.8483
 8375TIP3   OH225067   3.535   6.680   1.038 -0.2198 -0.3302  0.0399
 8375TIP3    H125068   3.445   6.648   1.029 -0.1952  0.0002 -1.6433
 8375TIP3    H225069   3.528   6.752   1.101 -0.8005 -1.5046  1.3717
 8376TIP3   OH225070   5.368   7.199   1.845 -0.5255  0.6331  0.2131
 8376TIP3    H125071   5.407   7.147   1.775  0.9481  0.5533  1.0605
 8376TIP3    H225072   5.427   7.274   1.856 -1.2274  1.1255  0.7579
 8377TIP3   OH225073   7.795   3.782   5.607  0.1295  0.4410  0.1796
 8377TIP3    H125074   7.786   3.872   5.640  0.7514  1.1418 -1.4348
 8377TIP3    H225075   7.741   3.781   5.528 -1.3069 -1.1721  1.1227
 8378TIP3   OH225076   5.201   6.012   3.320  0.2905  0.3838  0.6745
 8378TIP3    H125077   5.232   5.990   3.232  2.2518  1.3302  1.0745
 8378TIP3    H225078   5.213   5.932   3.371 -1.6414 -0.4312 -0.0586
 8379TIP3   OH225079   2.246   7.016   1.290 -0.2795 -1.0278  0.4067
 8379TIP3    H125080   2.244   7.014   1.385  0.4873  1.6115  0.5605
 8379TIP3    H225081   2.186   7.086   1.266 -0.6396 -1.7891 -1.0992
 8380TIP3   OH225082   6.959   2.145   3.813 -0.0866 -0.5879 -0.9099
 8380TIP3    H125083   6.985   2.236   3.819 -0.8666 -0.4153  0.2912
 8380TIP3    H225084   7.038   2.098   3.787  1.0486  0.0936  1.0910
 8381TIP3   OH225085   2.174   0.382   5.332 -0.4307  0.2089 -0.6644
 8381TIP3    H125086   2.266   0.383   5.309  0.2229 -0.6016  1.5863
 8381TIP3    H225087   2.160   0.463   5.381 -0.4315 -0.4699  0.5050
 8382TIP3   OH225088   2.020   4.090   1.784  0.2343 -0.0368  0.2903
 8382TIP3    H125089   1.948   4.153   1.779 -0.5040 -0.9641 -1.4113
 8382TIP3    H225090   2.099   4.144   1.777 -0.3946  0.7308 -1.4903
 8383TIP3   OH225091   2.538   5.394   2.150 -0.0358 -1.1789 -0.2118
 8383TIP3    H125092   2.551   5.488   2.137 -0.4322 -1.2528 -1.1908
 8383TIP3    H225093   2.576   5.353   2.072 -0.1264 -1.8194  0.0725
 8384TIP3   OH225094   4.518   3.917   3.692  0.6659 -0.4263 -0.4462
 8384TIP3    H125095   4.454   3.936   3.623  0.8389 -1.0510 -0.7925
 8384TIP3    H225096   4.579   3.992   3.689 -0.6018  0.6821  0.5798
 8385TIP3   OH225097   7.532   1.313   4.776 -0.4711  0.7314 -0.1095
 8385TIP3    H125098   7.563   1.401   4.755  1.4997 -0.0576 -0.7466
 8385TIP3    H225099   7.529   1.311   4.872  2.2806  0.6663  0.0497
 8386TIP3   OH225100   7.301   3.016   6.628 -0.7474 -0.2553  0.4392
 8386TIP3    H125101   7.253   3.037   6.549 -1.1076  1.9251  1.1589
 8386TIP3    H225102   7.235   3.012   6.697 -0.1417  1.0834  1.1473
 8387TIP3   OH225103   0.348   7.029   0.092  0.2078 -0.2637 -0.0021
 8387TIP3    H125104   0.429   7.059   0.132  0.7736 -1.0781 -0.5008
 8387TIP3    H225105   0.299   6.990   0.165 -0.0864  0.8986  0.4453
 8388TIP3   OH225106   2.819   6.358   0.681  0.0276 -0.5913 -0.4546
 8388TIP3    H125107   2.779   6.274   0.660 -1.1476  0.2954 -1.9892
 8388TIP3    H225108   2.903   6.356   0.636 -0.0425 -0.9153 -0.5762
 8389TIP3   OH225109   5.663   0.753   4.652  0.2961 -0.2660  1.0169
 8389TIP3    H125110   5.700   0.757   4.740 -0.2596  0.7851  1.2194
 8389TIP3    H225111   5.629   0.842   4.636 -1.1132 -0.8791  0.4092
 8390TIP3   OH225112   0.014   5.781   6.718 -0.0360 -0.0764 -0.1358
 8390TIP3    H125113   0.077   5.761   6.650 -0.0034  2.7948 -1.1110
 8390TIP3    H225114   0.063   5.772   6.800  1.0943  0.2501 -0.7547
 8391TIP3   OH225115   4.609   7.298   2.221 -0.0172  0.0775 -0.2153
 8391TIP3    H125116   4.544   7.358   2.186 -0.4956 -0.0762  0.3916
 8391TIP3    H225117   4.668   7.281   2.148 -0.9661 -0.2038 -0.9377
 8392TIP3   OH225118   6.887   2.502   0.832 -0.2307 -0.0086 -0.2563
 8392TIP3    H125119   6.801   2.511   0.792 -0.9754 -0.3495  1.2253
 8392TIP3    H225120   6.889   2.568   0.901  1.6662  1.7269 -1.8112
 8393TIP3   OH225121   4.701   2.986   4.966  0.6674  0.6411  0.0248
 8393TIP3    H125122   4.728   3.058   4.909 -1.1833  2.5813  1.3977
 8393TIP3    H225123   4.669   2.918   4.907  0.3529  1.8985 -1.2955
 8394TIP3   OH225124   7.083   6.952   3.043  0.4941  0.2166  0.2512
 8394TIP3    H125125   7.050   7.014   3.109  1.5730  0.8393  0.2281
 8394TIP3    H225126   7.125   6.883   3.094  2.0969  1.1353  0.2385
 8395TIP3   OH225127   7.770   0.605   5.370 -0.4086  0.0565  0.2524
 8395TIP3    H125128   7.794   0.529   5.423 -2.3225 -0.8729 -0.1210
 8395TIP3    H225129   7.843   0.666   5.382  0.5140 -1.2354  1.7202
 8396TIP3   OH225130   6.219   4.874   5.253 -0.0610  0.0487 -0.7633
 8396TIP3    H125131   6.155   4.807   5.227 -1.1210  1.1047 -0.9701
 8396TIP3    H225132   6.253   4.843   5.337 -1.8571  0.0977  0.0399
 8397TIP3   OH225133   4.068   2.410   1.840  0.2884 -0.0262  0.2883
 8397TIP3    H125134   4.079   2.421   1.746  1.7506  0.1154  0.4553
 8397TIP3    H225135   3.996   2.347   1.849  1.0611 -1.1287 -0.9577
 8398TIP3   OH225136   5.881   7.198   5.227  0.7868 -0.1991  0.6456
 8398TIP3    H125137   5.907   7.187   5.136  0.2012 -0.2124  0.4702
 8398TIP3    H225138   5.950   7.252   5.266  1.2739 -0.5775  0.3149
 8399TIP3   OH225139   0.838   1.018   6.097  0.2184 -0.4303  0.1247
 8399TIP3    H125140   0.804   0.939   6.053 -2.1140 -0.2196  1.3935
 8399TIP3    H225141   0.902   0.984   6.159 -0.1601 -1.2560  0.0854
 8400TIP3   OH225142   3.493   1.871   3.456 -0.0410 -0.1288 -0.2544
 8400TIP3    H125143   3.432   1.798   3.455  0.9808 -1.0121  0.2725
 8400TIP3    H225144   3.443   1.945   3.420 -0.7458 -1.3310 -1.8295
 8401TIP3   OH225145   7.467   5.560   2.085 -0.1636  0.2657  0.3422
 8401TIP3    H125146   7.478   5.465   2.091 -1.0803  0.0672 -0.8300
 8401TIP3    H225147   7.410   5.582   2.159 -3.2295 -0.7011 -1.5784
 8402TIP3   OH225148   3.737   5.762   4.167  0.1662  0.0320  0.0660
 8402TIP3    H125149   3.776   5.835   4.216 -0.7012 -0.0940  0.9836
 8402TIP3    H225150   3.707   5.702   4.235  0.6690 -1.0878 -0.6795
 8403TIP3   OH225151   6.460   3.808   0.600 -0.2739 -0.1315  0.1228
 8403TIP3    H125152   6.533   3.747   0.608 -0.1254  0.1665  1.2256
 8403TIP3    H225153   6.481   3.861   0.522  0.3703 -0.4500  0.0734
 8404TIP3   OH225154   5.954   6.539   3.696 -0.3896  0.0562  0.1684
 8404TIP3    H125155   5.992   6.534   3.783 -1.1625 -1.1517  0.4579
 8404TIP3    H225156   5.905   6.621   3.696  0.1087  0.3580  0.6630
 8405TIP3   OH225157   4.681   3.180   1.167 -0.1154  0.0648 -0.0493
 8405TIP3    H125158   4.601   3.129   1.154  0.3950 -0.2361 -2.6560
 8405TIP3    H225159   4.751   3.114   1.163  0.4100  0.6575 -1.1750
 8406TIP3   OH225160   3.615   1.634   4.677 -0.0859 -0.4079 -0.3161
 8406TIP3    H125161   3.698   1.592   4.655  0.5206  1.2611 -1.4028
 8406TIP3    H225162   3.603   1.701   4.610 -1.6325  0.3274  0.6286
 8407TIP3   OH225163   6.372   4.872   1.432  0.1353 -0.3182  0.7189
 8407TIP3    H125164   6.437   4.834   1.372  0.4788  1.3280  0.0004
 8407TIP3    H225165   6.291   4.827   1.409  0.7810 -1.6118  0.8633
 8408TIP3   OH225166   6.725   6.648   2.315  0.2147  0.3430 -0.1199
 8408TIP3    H125167   6.630   6.650   2.303  0.2861 -0.4519 -0.8786
 8408TIP3    H225168   6.750   6.740   2.315 -0.6511  0.6053  0.9788
 8409TIP3   OH225169   6.713   7.409   2.612  0.1861 -0.2702 -0.3637
 8409TIP3    H125170   6.783   7.352   2.581  1.8011  1.4936 -0.1139
 8409TIP3    H225171   6.713   7.484   2.552  0.1575  0.9096  1.0477
 8410TIP3   OH225172   5.295   0.292   2.613 -0.0505  0.0461 -0.1850
 8410TIP3    H125173   5.239   0.319   2.686  3.3134  0.3136  2.5466
 8410TIP3    H225174   5.377   0.340   2.626  0.2222  1.6123 -5.3370
 8411TIP3   OH225175   4.590   3.709   0.125 -0.0080  0.5305 -0.0969
 8411TIP3    H125176   4.528   3.643   0.156  0.6592 -1.0020 -1.8592
 8411TIP3    H225177   4.609   3.684   0.034  1.8822  1.9437 -0.1545
 8412TIP3   OH225178   4.345   2.926   4.826 -0.0365  0.0578  0.7657
 8412TIP3    H125179   4.299   2.867   4.886 -0.3790 -0.7159 -0.2327
 8412TIP3    H225180   4.275   2.969   4.777  0.2639  0.0840  0.3572
 8413TIP3   OH225181   5.758   7.480   3.950 -0.0649  0.0825  0.6880
 8413TIP3    H125182   5.674   7.449   3.918 -0.0032 -0.2386  0.8291
 8413TIP3    H225183   5.806   7.507   3.871 -0.0709 -0.3053  0.5514
 8414TIP3   OH225184   7.659   2.708   0.308 -0.0925 -0.0095  0.0363
 8414TIP3    H125185   7.685   2.798   0.325  0.8306 -0.3349  0.4238
 8414TIP3    H225186   7.734   2.669   0.263  0.5234 -1.2179  1.9794
 8415TIP3   OH225187   7.592   0.890   1.717  0.0207  0.4404  0.0740
 8415TIP3    H125188   7.664   0.939   1.757  0.2648  1.9726 -2.0269
 8415TIP3    H225189   7.617   0.798   1.727  0.9794  0.8399  1.6568
 8416TIP3   OH225190   4.540   4.146   2.652 -0.5570  0.3504  0.3596
 8416TIP3    H125191   4.545   4.097   2.734 -1.1684  1.7026  1.2305
 8416TIP3    H225192   4.617   4.204   2.654 -0.2052 -0.0735 -0.3491
 8417TIP3   OH225193   4.021   0.346   1.798  0.1643 -0.3941  0.0152
 8417TIP3    H125194   4.093   0.392   1.841 -1.9824  0.4722  3.0160
 8417TIP3    H225195   4.046   0.253   1.802  1.4379 -0.0561  0.3331
 8418TIP3   OH225196   7.384   3.306   1.900 -0.0812  0.5503 -0.3606
 8418TIP3    H125197   7.407   3.230   1.953  0.7609  0.7763 -0.3910
 8418TIP3    H225198   7.462   3.361   1.901 -0.3323  0.9414 -1.1743
 8419TIP3   OH225199   3.287   4.209   3.745 -0.0844  0.4301 -0.4461
 8419TIP3    H125200   3.292   4.285   3.803  0.2406  0.6507 -0.7592
 8419TIP3    H225201   3.378   4.181   3.734 -0.2067 -0.0646 -0.2622
 8420TIP3   OH225202   6.376   1.209   6.202 -0.0477  0.7333  0.5244
 8420TIP3    H125203   6.409   1.265   6.273  0.4131 -1.0088  1.7678
 8420TIP3    H225204   6.411   1.122   6.223 -3.2237 -0.7038  0.4278
 8421TIP3   OH225205   4.712   7.012   2.667  0.5523  0.2746  0.1064
 8421TIP3    H125206   4.648   6.971   2.608 -0.5778  1.6657  0.3236
 8421TIP3    H225207   4.715   6.953   2.743  1.2880 -1.0126 -0.8694
 8422TIP3   OH225208   2.089   0.703   3.154 -0.3576  0.5348  0.2489
 8422TIP3    H125209   2.019   0.762   3.179  0.8076  2.0123  0.1725
 8422TIP3    H225210   2.058   0.661   3.074 -0.8976  1.6349 -0.1311
 8423TIP3   OH225211   3.780   3.729   3.910  0.0220  0.5425 -0.0408
 8423TIP3    H125212   3.710   3.787   3.880  0.5260  0.8884 -0.5658
 8423TIP3    H225213   3.783   3.742   4.005 -0.4976  0.6666 -0.0404
 8424TIP3   OH225214   4.806   4.250   5.633  0.5452 -0.2924 -0.2783
 8424TIP3    H125215   4.849   4.299   5.564  1.2459  0.6136  0.7738
 8424TIP3    H225216   4.712   4.258   5.613  0.7541 -1.4904 -2.0449
 8425TIP3   OH225217   2.721   5.478   0.231  0.2273 -0.3410 -0.1489
 8425TIP3    H125218   2.712   5.571   0.212 -0.8883 -0.4957 -0.4381
 8425TIP3    H225219   2.726   5.473   0.327 -0.7393 -0.0462 -0.0701
 8426TIP3   OH225220   6.926   0.022   4.548  0.3982 -0.4173 -0.1770
 8426TIP3    H125221   6.942   0.111   4.580 -0.1857 -0.2782 -0.2434
 8426TIP3    H225222   6.873  -0.019   4.616 -2.0696  0.3415 -1.5177
 8427TIP3   OH225223   1.939   0.717   6.252  0.1598  0.1920  0.3449
 8427TIP3    H125224   1.975   0.754   6.171 -0.7504 -0.7350 -0.5093
 8427TIP3    H225225   1.885   0.788   6.288  0.1378  0.4332 -0.1512
 8428TIP3   OH225226   6.721   2.583   6.459 -0.1385 -0.3077  0.4268
 8428TIP3    H125227   6.744   2.496   6.490 -0.9275 -1.0996 -1.0945
 8428TIP3    H225228   6.800   2.615   6.416  0.0102 -0.4560  0.5900
 8429TIP3   OH225229   7.668   7.353   6.430  0.3884  0.1810 -0.3178
 8429TIP3    H125230   7.645   7.297   6.504  0.0157 -0.2038 -0.7162
 8429TIP3    H225231   7.607   7.427   6.437  0.0923 -0.0467 -0.4570
 8430TIP3   OH225232   2.783   2.746   0.140  0.5122  0.1986  0.4173
 8430TIP3    H125233   2.841   2.819   0.158 -1.2257  1.4538  1.2472
 8430TIP3    H225234   2.830   2.669   0.171  1.4988  1.2255  1.5548
 8431TIP3   OH225235   5.858   1.081   3.281 -0.3956 -0.0692  1.2293
 8431TIP3    H125236   5.838   0.988   3.270 -0.7936 -0.2790  3.2600
 8431TIP3    H225237   5.942   1.082   3.327 -0.1458  0.6077  0.7748
 8432TIP3   OH225238   4.511   1.054   4.718 -0.2062  0.0994  0.0197
 8432TIP3    H125239   4.594   1.093   4.746 -0.7458  0.2711  1.4505
 8432TIP3    H225240   4.445   1.100   4.769 -1.1517 -0.3757 -0.7491
 8433TIP3   OH225241   4.754   3.898   1.801  0.2253  0.0402 -0.1209
 8433TIP3    H125242   4.675   3.906   1.855  1.1740  0.1012  1.2982
 8433TIP3    H225243   4.766   3.985   1.764 -0.0325  0.1911  0.1429
 8434TIP3   OH225244   2.512   1.617   3.040 -0.3544 -0.5101 -0.4608
 8434TIP3    H125245   2.513   1.579   2.953 -0.4042  0.3149 -0.8327
 8434TIP3    H225246   2.444   1.684   3.037 -0.4975 -0.6090  0.2700
 8435TIP3   OH225247   6.868   6.733   3.257 -0.3762  0.0706  0.0826
 8435TIP3    H125248   6.798   6.710   3.196 -0.9490 -1.4373  1.2458
 8435TIP3    H225249   6.877   6.657   3.314  2.5702  0.0003 -0.3052
 8436TIP3   OH225250   5.659   1.822   1.873  0.2853  0.5991 -0.2534
 8436TIP3    H125251   5.686   1.882   1.804 -1.1249 -0.3101 -1.6658
 8436TIP3    H225252   5.656   1.737   1.830 -0.7543  0.0279  0.9061
 8437TIP3   OH225253   8.045   5.769   3.812  0.4601  0.2015 -0.0214
 8437TIP3    H125254   8.054   5.811   3.898  0.6334  0.4204 -0.1455
 8437TIP3    H225255   7.955   5.785   3.786  0.9364  1.8691 -0.7775
 8438TIP3   OH225256   4.056   4.918   2.824 -0.1828  0.1900 -0.0886
 8438TIP3    H125257   4.043   4.984   2.755 -1.3006 -0.7168 -0.7727
 8438TIP3    H225258   4.051   4.968   2.905  0.3178  1.1517 -0.6297
 8439TIP3   OH225259   7.669   0.251   4.629 -0.4613  0.1984 -0.2671
 8439TIP3    H125260   7.733   0.228   4.561  1.5453  1.8030  0.9351
 8439TIP3    H225261   7.662   0.172   4.682 -0.7280 -0.5168 -1.3240
 8440TIP3   OH225262   5.204   1.832   5.800  0.1778 -0.0101 -0.7079
 8440TIP3    H125263   5.184   1.892   5.871 -1.7796 -0.6198 -0.6964
 8440TIP3    H225264   5.272   1.775   5.835 -0.0229  0.3552  0.3042
 8441TIP3   OH225265   0.929   4.455   1.957 -0.3040  0.0100 -0.2641
 8441TIP3    H125266   0.839   4.439   1.929  0.6894 -2.1304 -2.6643
 8441TIP3    H225267   0.977   4.471   1.876  1.7773 -0.6869  0.7396
 8442TIP3   OH225268   5.509   1.695   5.911  0.4566 -0.4367 -0.1891
 8442TIP3    H125269   5.570   1.652   5.971 -0.0341  0.7193  1.2003
 8442TIP3    H225270   5.549   1.780   5.893  0.7089 -0.8508 -1.7352
 8443TIP3   OH225271   6.166   3.895   0.286 -0.2588 -0.2928 -0.0641
 8443TIP3    H125272   6.230   3.964   0.267  0.0230 -0.8917 -1.4574
 8443TIP3    H225273   6.088   3.942   0.313  1.0519  0.4372  2.9045
 8444TIP3   OH225274   3.829   1.090   0.059  0.0807  0.0358 -0.6039
 8444TIP3    H125275   3.837   1.013   0.003  1.1862  0.3199 -0.8673
 8444TIP3    H225276   3.867   1.063   0.143  1.5720  0.6364 -1.0655
 8445TIP3   OH225277   4.218   0.260   2.634 -0.5228  0.6132 -0.1434
 8445TIP3    H125278   4.260   0.175   2.636 -2.4169 -0.3762  1.4797
 8445TIP3    H225279   4.220   0.290   2.725 -1.3277  1.5202 -0.4066
 8446TIP3   OH225280   0.284   1.879   3.550  0.7184  0.0250  0.6903
 8446TIP3    H125281   0.262   1.972   3.562 -0.2763 -0.1089  0.0106
 8446TIP3    H225282   0.358   1.880   3.489  0.9189  0.3806  0.9325
 8447TIP3   OH225283   6.245   6.991   6.058 -0.3893 -0.5287  0.2997
 8447TIP3    H125284   6.316   7.053   6.040 -0.0323 -1.1000 -0.3060
 8447TIP3    H225285   6.214   6.966   5.971 -2.2745  0.7621  0.5470
 8448TIP3   OH225286   4.976   5.915   2.585  0.8210  0.1695 -0.1436
 8448TIP3    H125287   5.007   5.991   2.635  1.7787 -0.6345  0.5051
 8448TIP3    H225288   4.936   5.858   2.651 -0.7593  0.4991 -0.7560
 8449TIP3   OH225289   6.318   6.959   6.330 -0.0378  0.7063 -0.4484
 8449TIP3    H125290   6.406   6.921   6.338  0.2074  0.8519 -2.1341
 8449TIP3    H225291   6.305   6.970   6.236 -1.7184  1.0609 -0.2048
 8450TIP3   OH225292   2.111   3.439   1.527  0.1834 -0.1230 -0.5749
 8450TIP3    H125293   2.097   3.528   1.560  0.6576 -0.9686  2.1096
 8450TIP3    H225294   2.027   3.414   1.488  0.7829  2.3914 -4.0013
 8451TIP3   OH225295   5.495   0.325   3.319 -0.7256 -0.8114 -0.2908
 8451TIP3    H125296   5.548   0.263   3.268  1.8120  1.6957 -0.9877
 8451TIP3    H225297   5.453   0.380   3.253 -1.1524 -0.4005  0.3198
 8452TIP3   OH225298   2.357   0.301   2.563 -0.5239 -0.0017 -0.4225
 8452TIP3    H125299   2.288   0.260   2.615 -0.4951  0.8150  0.2938
 8452TIP3    H225300   2.406   0.229   2.525 -2.0050 -0.6119 -1.2752
 8453TIP3   OH225301   2.885   7.144   4.352  0.6575  0.0589  0.1534
 8453TIP3    H125302   2.948   7.182   4.292  0.2592 -0.4428 -0.5893
 8453TIP3    H225303   2.928   7.065   4.386  0.3898 -0.3489 -0.4449
 8454TIP3   OH225304   3.094   6.743   0.309 -0.4063  0.3350 -0.5139
 8454TIP3    H125305   3.133   6.766   0.225 -2.5377 -1.1559 -2.0203
 8454TIP3    H225306   3.074   6.650   0.301 -0.6593  0.1359  1.7004
 8455TIP3   OH225307   2.558   2.728   2.319 -0.3396 -0.2687  0.7036
 8455TIP3    H125308   2.543   2.633   2.322 -0.0467 -0.4318 -1.3164
 8455TIP3    H225309   2.472   2.765   2.302 -0.0846 -0.4165 -1.0895
 8456TIP3   OH225310   7.868   6.621   6.512 -0.3253  0.0196 -0.1905
 8456TIP3    H125311   7.835   6.547   6.461 -0.0746  0.1302 -0.5215
 8456TIP3    H225312   7.846   6.600   6.603 -0.8344 -0.1491 -0.3508
 8457TIP3   OH225313   4.617   2.280   2.902  0.4351  0.1708 -0.1255
 8457TIP3    H125314   4.545   2.222   2.924 -0.6194  1.8081  0.9964
 8457TIP3    H225315   4.593   2.318   2.817  0.8375 -0.5660 -0.5754
 8458TIP3   OH225316   6.334   1.031   4.206 -0.0687 -0.4729  0.0937
 8458TIP3    H125317   6.280   0.952   4.215  1.6637 -1.6028  1.1556
 8458TIP3    H225318   6.299   1.091   4.272 -0.8654 -0.6553 -0.1461
 8459TIP3   OH225319   6.903   2.857   6.552 -0.2340  0.0419  0.3952
 8459TIP3    H125320   6.974   2.795   6.536 -1.4924 -1.1146 -1.0861
 8459TIP3    H225321   6.845   2.811   6.613 -0.1125  0.6705  0.9995
 8460TIP3   OH225322   6.624   6.639   0.455 -0.2886 -0.3027  0.0404
 8460TIP3    H125323   6.529   6.636   0.447 -0.2397 -1.0219 -0.4237
 8460TIP3    H225324   6.642   6.721   0.501 -1.1211 -0.0915  0.0091
 8461TIP3   OH225325   4.051   0.747   0.046 -0.1017 -0.5535  0.4649
 8461TIP3    H125326   4.089   0.791   0.122 -0.1156  1.3504 -0.5700
 8461TIP3    H225327   4.120   0.688   0.015  0.9406  0.7007  0.3368
 8462TIP3   OH225328   7.383   7.707   6.244 -0.0570 -0.7038 -0.0091
 8462TIP3    H125329   7.375   7.787   6.296 -0.3514 -2.2146  2.4109
 8462TIP3    H225330   7.472   7.710   6.209 -0.2925  0.9718 -0.5350
 8463TIP3   OH225331   4.309   3.338   5.988  0.1739  0.4740  0.0867
 8463TIP3    H125332   4.228   3.377   6.022 -0.7804 -0.9339 -0.4889
 8463TIP3    H225333   4.308   3.248   6.021  0.3823 -0.2382 -1.7462
 8464TIP3   OH225334   7.612   0.625   4.919 -0.4696 -0.1328 -0.1598
 8464TIP3    H125335   7.641   0.583   5.000  1.4429 -1.3144 -1.3700
 8464TIP3    H225336   7.663   0.705   4.914 -1.0236  0.2402  0.0782
 8465TIP3   OH225337   3.585   6.901   1.192 -0.0490 -0.1139 -0.0067
 8465TIP3    H125338   3.672   6.921   1.227 -0.2249 -0.4849  0.6558
 8465TIP3    H225339   3.554   6.984   1.156  0.1933  0.2473  0.6025
 8466TIP3   OH225340   3.722   6.576   3.758 -0.0004  0.1731  0.8764
 8466TIP3    H125341   3.726   6.645   3.692 -2.2388  0.2149  0.6882
 8466TIP3    H225342   3.655   6.516   3.725 -0.4072 -0.3701  2.5969
 8467TIP3   OH225343   4.625   2.110   5.985  0.3534 -0.1277  0.1424
 8467TIP3    H125344   4.658   2.020   5.984 -0.4559 -0.4410 -0.1168
 8467TIP3    H225345   4.606   2.128   6.077  0.3324 -0.2987  0.1721
 8468TIP3   OH225346   0.419   0.404   2.047  0.2787 -0.2863 -0.2428
 8468TIP3    H125347   0.403   0.314   2.073  0.6787  0.1366  1.5862
 8468TIP3    H225348   0.346   0.454   2.085  1.8419  0.6047  1.8033
 8469TIP3   OH225349   0.453   3.334   5.132 -0.3691 -0.2367  0.1826
 8469TIP3    H125350   0.419   3.353   5.044 -0.8753  1.1807  0.6686
 8469TIP3    H225351   0.378   3.301   5.181 -0.5831  0.9527  0.6700
 8470TIP3   OH225352   2.518   2.120   1.872  0.1625  0.0287  0.3459
 8470TIP3    H125353   2.564   2.038   1.851 -1.1802 -1.0327  1.3650
 8470TIP3    H225354   2.589   2.183   1.888  1.2241 -0.8025 -0.8413
 8471TIP3   OH225355   4.024   6.417   2.612 -0.1816 -0.4118 -0.7484
 8471TIP3    H125356   4.018   6.343   2.672 -2.2343 -0.8634 -1.4331
 8471TIP3    H225357   4.037   6.493   2.670 -0.5354 -1.0157  0.1521
 8472TIP3   OH225358   0.561   7.332   1.165  0.3339  0.5556 -0.1887
 8472TIP3    H125359   0.597   7.387   1.095  0.3766 -0.5026 -1.0318
 8472TIP3    H225360   0.634   7.318   1.224  0.6298  0.4848 -0.5660
 8473TIP3   OH225361   3.429   1.605   6.157 -0.1769  0.3920 -0.7004
 8473TIP3    H125362   3.367   1.611   6.084 -0.9873  0.4573 -0.0212
 8473TIP3    H225363   3.509   1.571   6.118 -0.6067  0.4077 -1.6183
 8474TIP3   OH225364   3.997   3.678   2.068  0.0729 -0.2654 -0.4263
 8474TIP3    H125365   3.955   3.763   2.077 -0.1188 -0.3331 -0.6719
 8474TIP3    H225366   4.071   3.681   2.129  0.7583  0.5070 -1.2681
 8475TIP3   OH225367   2.638   2.841   4.056 -0.2744 -0.5385  0.0316
 8475TIP3    H125368   2.729   2.812   4.046  0.0391 -0.0677  1.3226
 8475TIP3    H225369   2.606   2.848   3.966  0.9065 -0.8897 -0.4462
 8476TIP3   OH225370   6.738   4.536   0.126  0.4464 -0.4782 -0.4529
 8476TIP3    H125371   6.806   4.468   0.130  0.8594 -0.0568 -0.1694
 8476TIP3    H225372   6.656   4.488   0.124  0.6412 -0.9683  1.5712
 8477TIP3   OH225373   0.439   3.538   2.742 -0.2583  0.6712  0.0726
 8477TIP3    H125374   0.508   3.602   2.724  0.0233  0.1612 -0.6881
 8477TIP3    H225375   0.482   3.468   2.790 -0.1489  0.1742 -0.7280
 8478TIP3   OH225376   0.804   0.057   4.032 -0.1705 -0.4472 -0.4228
 8478TIP3    H125377   0.747   0.126   4.065  0.9185  1.0396 -1.5484
 8478TIP3    H225378   0.753  -0.023   4.045 -2.2428  0.7321 -0.7524
 8479TIP3   OH225379   4.710   1.627   5.348  0.5896  0.3305  0.6959
 8479TIP3    H125380   4.673   1.618   5.436 -1.5972  0.0015 -0.1954
 8479TIP3    H225381   4.721   1.722   5.337 -0.2629  0.4603  0.8943
 8480TIP3   OH225382   0.281   2.173   3.572 -0.5467  0.4324  0.4747
 8480TIP3    H125383   0.271   2.233   3.646 -1.7275  1.1731 -0.2376
 8480TIP3    H225384   0.199   2.183   3.523  0.0698 -0.2836 -0.7405
 8481TIP3   OH225385   3.010   5.951   0.939  0.2677  0.1244 -0.8988
 8481TIP3    H125386   2.960   6.032   0.945 -0.7319 -0.5107 -0.2931
 8481TIP3    H225387   3.002   5.924   0.848 -1.5899 -0.5998 -0.5732
 8482TIP3   OH225388   7.299   5.882   3.380 -0.6910 -0.5397  0.3005
 8482TIP3    H125389   7.367   5.828   3.339 -1.4873 -0.6505 -0.9430
 8482TIP3    H225390   7.340   5.918   3.458  0.5668 -1.1579 -0.0525
 8483TIP3   OH225391   5.841   3.191   2.064 -0.2095 -0.1058 -0.1484
 8483TIP3    H125392   5.799   3.133   2.001 -0.8565  0.4112 -0.2155
 8483TIP3    H225393   5.935   3.178   2.052 -0.3405 -1.2457 -0.0477
 8484TIP3   OH225394   7.518   0.617   1.921  0.6839 -0.9645  0.0200
 8484TIP3    H125395   7.436   0.663   1.910  0.5796 -1.2114 -0.2569
 8484TIP3    H225396   7.570   0.640   1.843  1.3280  0.1066  0.7457
 8485TIP3   OH225397   1.334   2.337   3.151 -0.5047  0.3099  0.4984
 8485TIP3    H125398   1.287   2.320   3.069  0.0830  2.3607 -0.3209
 8485TIP3    H225399   1.272   2.389   3.203  0.0971  1.3142  0.2298
 8486TIP3   OH225400   8.196   6.753   5.214 -0.1351  0.1821 -0.3761
 8486TIP3    H125401   8.269   6.694   5.196 -0.1991  0.6194 -2.3807
 8486TIP3    H225402   8.235   6.839   5.220 -0.0424  0.0076  2.5595
 8487TIP3   OH225403   1.135   6.759   4.678  0.1010  0.0465  0.2260
 8487TIP3    H125404   1.077   6.683   4.676  0.2621 -0.0849  0.4838
 8487TIP3    H225405   1.221   6.725   4.653  0.3718 -0.0397  1.2193
 8488TIP3   OH225406   3.191   1.762   4.702  0.1493  0.1441 -0.0084
 8488TIP3    H125407   3.202   1.674   4.668  0.1206  0.9460 -2.2498
 8488TIP3    H225408   3.105   1.790   4.670  0.6969  1.4301 -0.4391
 8489TIP3   OH225409   0.821   6.194   4.933  0.3225  0.2484  0.1256
 8489TIP3    H125410   0.841   6.242   5.014  0.0555  2.9596 -1.2872
 8489TIP3    H225411   0.864   6.245   4.864 -1.3007 -0.6669 -1.6711
 8490TIP3   OH225412   3.868   4.969   0.851  0.4388  0.0632  0.2224
 8490TIP3    H125413   3.952   4.991   0.810  0.2190  1.2223  0.3624
 8490TIP3    H225414   3.882   4.882   0.888  1.4795  0.1067 -0.0290
 8491TIP3   OH225415   4.407   1.918   3.603  0.2820  0.0007  0.8505
 8491TIP3    H125416   4.479   1.946   3.546 -0.6418 -1.8965 -1.4429
 8491TIP3    H225417   4.448   1.859   3.666  0.9449 -0.1328  0.3155
 8492TIP3   OH225418   7.458   5.338   6.298 -0.3495  0.3096  0.1649
 8492TIP3    H125419   7.369   5.305   6.308  0.2769 -1.5002  0.1553
 8492TIP3    H225420   7.478   5.379   6.382 -1.2059  0.8329  0.1310
 8493TIP3   OH225421   2.148   2.508   6.601 -0.3732 -0.2374 -0.1818
 8493TIP3    H125422   2.070   2.453   6.602  0.4200 -1.4820 -1.9001
 8493TIP3    H225423   2.115   2.597   6.613 -1.8754 -0.8896  0.7804
 8494TIP3   OH225424   5.867   1.817   6.232  0.0631  0.2907  0.2692
 8494TIP3    H125425   5.822   1.753   6.287 -0.0166  0.7288  0.7282
 8494TIP3    H225426   5.889   1.888   6.292 -1.2484  1.4179 -0.5103
 8495TIP3   OH225427   3.791   4.030   6.073 -0.0480 -0.1991 -0.3672
 8495TIP3    H125428   3.876   4.051   6.112 -1.1449  1.8421  1.1096
 8495TIP3    H225429   3.813   3.980   5.995  2.5491  0.6106 -0.2702
 8496TIP3   OH225430   4.303   5.649   1.089  0.1424 -0.6941  0.2716
 8496TIP3    H125431   4.266   5.570   1.050 -1.8862 -0.0529  0.7868
 8496TIP3    H225432   4.248   5.720   1.058  2.4196  0.7152 -0.8579
 8497TIP3   OH225433   5.990   6.533   0.316  0.3950  0.0720  0.0146
 8497TIP3    H125434   5.996   6.600   0.384  0.8144  0.6112 -0.5445
 8497TIP3    H225435   6.064   6.475   0.334  1.4927  1.1155 -0.9123
 8498TIP3   OH225436   6.350   4.015   0.822 -0.3281  0.0483 -0.1147
 8498TIP3    H125437   6.318   4.102   0.846 -1.9651 -0.6359  0.3018
 8498TIP3    H225438   6.307   3.996   0.739 -0.6758 -0.7123  0.2327
 8499TIP3   OH225439   5.470   0.071   3.789 -0.1177 -0.0872 -0.0483
 8499TIP3    H125440   5.387   0.081   3.743 -0.8870  0.6271  1.4241
 8499TIP3    H225441   5.464   0.132   3.863  1.0859 -1.1138  0.9393
 8500TIP3   OH225442   4.913   5.257   1.198  0.6357 -0.1763 -0.0244
 8500TIP3    H125443   4.941   5.308   1.274  1.1730  0.0559 -0.3643
 8500TIP3    H225444   4.955   5.302   1.123 -1.3256  0.6923 -0.6666
 8501TIP3   OH225445   4.528   7.577   6.413  0.3051 -0.0969 -0.2476
 8501TIP3    H125446   4.609   7.609   6.453 -0.0960  1.8489 -0.9078
 8501TIP3    H225447   4.474   7.549   6.486  0.9224  0.1523  0.3143
 8502TIP3   OH225448   1.722   7.638   0.250 -0.1674  0.1162  0.2532
 8502TIP3    H125449   1.774   7.704   0.203  1.5637  0.6137  2.6675
 8502TIP3    H225450   1.638   7.636   0.204  0.2159  2.9805 -0.7734
 8503TIP3   OH225451   3.045   4.467   6.568 -0.1565 -0.4746 -0.2938
 8503TIP3    H125452   3.043   4.411   6.646 -2.2405 -0.3408 -0.1957
 8503TIP3    H225453   3.011   4.551   6.599 -1.2735 -0.4979 -1.3875
 8504TIP3   OH225454   5.383   0.173   2.359  0.3457  0.4305 -0.4410
 8504TIP3    H125455   5.468   0.136   2.382 -0.3605 -0.7421  0.4150
 8504TIP3    H225456   5.393   0.202   2.269  1.0273 -1.7392 -1.1366
 8505TIP3   OH225457   2.322   1.236   6.287  0.1818  0.8316 -0.0406
 8505TIP3    H125458   2.313   1.302   6.218 -0.8750  0.5316 -0.1981
 8505TIP3    H225459   2.406   1.194   6.269 -0.0181  0.8523 -1.0601
 8506TIP3   OH225460   6.709   6.714   5.454  0.0002  0.2509 -0.3223
 8506TIP3    H125461   6.673   6.630   5.485 -1.0281  1.4408  1.9418
 8506TIP3    H225462   6.784   6.731   5.511  0.1616  0.9118 -0.7174
 8507TIP3   OH225463   0.049   6.046   3.030  0.1760  0.1968 -0.0147
 8507TIP3    H125464   0.101   6.126   3.026  0.8936 -0.3085 -2.7684
 8507TIP3    H225465   0.106   5.981   3.071  0.1996  0.6537  0.6843
 8508TIP3   OH225466   3.275   3.488   5.036  0.2667  0.0346 -0.3898
 8508TIP3    H125467   3.199   3.547   5.038 -0.4070 -0.7902  1.8636
 8508TIP3    H225468   3.349   3.544   5.059  0.0004  0.4428 -0.5044
 8509TIP3   OH225469   3.713   1.268   1.261 -0.0490  0.1012 -0.0001
 8509TIP3    H125470   3.659   1.304   1.190  1.5804  1.4072 -0.6312
 8509TIP3    H225471   3.751   1.344   1.303  2.0342 -0.8062 -0.1532
 8510TIP3   OH225472   4.198   1.881   5.572  0.0451 -0.1164  0.2399
 8510TIP3    H125473   4.143   1.857   5.498  2.0999  0.4648 -1.5812
 8510TIP3    H225474   4.170   1.970   5.595 -0.3522 -0.1523 -0.0921
 8511TIP3   OH225475   6.878   3.121   6.378 -0.2921 -0.4560 -0.1391
 8511TIP3    H125476   6.958   3.160   6.342  0.4296 -1.7389  0.0307
 8511TIP3    H225477   6.905   3.035   6.410 -1.6666 -0.7609  0.2774
 8512TIP3   OH225478   7.930   1.973   3.765  0.2108  0.0546 -0.1222
 8512TIP3    H125479   7.969   1.891   3.794 -1.0753 -0.9537 -1.1109
 8512TIP3    H225480   7.932   2.030   3.843  3.6690  0.1618 -0.1572
 8513TIP3   OH225481   7.592   2.278   4.934 -0.2112 -0.4203  0.4015
 8513TIP3    H125482   7.576   2.275   4.840 -0.3300 -1.5222  0.4456
 8513TIP3    H225483   7.677   2.322   4.942 -0.4953  0.2634 -0.1675
 8514TIP3   OH225484   2.324   1.093   0.712 -0.2725 -0.1386 -0.6208
 8514TIP3    H125485   2.311   1.122   0.802 -0.9267 -0.5250 -0.5864
 8514TIP3    H225486   2.396   1.030   0.717 -1.0570 -1.0288 -0.1795
 8515TIP3   OH225487   4.217   2.753   2.174 -0.5849 -0.0275  0.3321
 8515TIP3    H125488   4.239   2.839   2.138  0.2046 -0.8116 -1.1416
 8515TIP3    H225489   4.125   2.740   2.151 -0.7076  0.4088  0.5598
 8516TIP3   OH225490   2.131   2.242   4.721 -0.3060 -0.0971  0.0132
 8516TIP3    H125491   2.080   2.284   4.789 -0.7667 -0.7322  0.0716
 8516TIP3    H225492   2.109   2.289   4.640  1.3102  1.5902  0.4812
 8517TIP3   OH225493   6.955   5.796   3.224  0.0903  0.3227  0.6194
 8517TIP3    H125494   7.041   5.757   3.242  0.0771  0.4214  0.9076
 8517TIP3    H225495   6.915   5.737   3.161 -0.2563 -0.5955  1.6636
 8518TIP3   OH225496   3.953   5.278   1.687  0.0625  0.2242  0.0318
 8518TIP3    H125497   3.955   5.201   1.630  1.8642  0.5379 -0.3670
 8518TIP3    H225498   3.860   5.303   1.689 -0.1528 -0.1750 -2.2579
 8519TIP3   OH225499   6.458   2.579   1.568  0.3648  0.3437 -0.0710
 8519TIP3    H125500   6.470   2.656   1.512 -1.4659 -0.4346 -1.6194
 8519TIP3    H225501   6.547   2.553   1.592  1.3403  0.0990 -3.4864
 8520TIP3   OH225502   0.231   6.217   6.226  0.6215  0.5322  0.6607
 8520TIP3    H125503   0.213   6.136   6.273  3.2048  1.4909  3.6348
 8520TIP3    H225504   0.155   6.272   6.242  0.9829  0.4457  2.9760
 8521TIP3   OH225505   0.278   6.775   1.555 -0.0669  0.7290 -0.2169
 8521TIP3    H125506   0.227   6.730   1.623  0.4020  2.0774  1.0996
 8521TIP3    H225507   0.229   6.760   1.474 -1.9789  1.0436  0.8014
 8522TIP3   OH225508   7.457   4.335   4.624 -0.0869  0.0477 -0.0897
 8522TIP3    H125509   7.514   4.353   4.550  1.8767 -2.9123  0.5535
 8522TIP3    H225510   7.479   4.402   4.688  1.1170  0.2270 -0.6715
 8523TIP3   OH225511   3.514   1.980   4.742 -0.2082 -0.1681  0.2910
 8523TIP3    H125512   3.554   2.066   4.730 -0.7477  0.2888  1.5415
 8523TIP3    H225513   3.466   1.964   4.661  0.0463  0.6271 -0.0255
 8524TIP3   OH225514   2.534   1.547   3.513 -0.6376 -0.1302 -0.1583
 8524TIP3    H125515   2.492   1.633   3.506  0.2515  0.3269 -0.0581
 8524TIP3    H225516   2.525   1.524   3.605  1.0370  0.8855  0.3024
 8525TIP3   OH225517   7.843   2.664   2.208  0.0005 -0.5059 -0.8422
 8525TIP3    H125518   7.801   2.746   2.184  1.6186  0.1033 -1.7585
 8525TIP3    H225519   7.894   2.639   2.130  0.6977 -1.6030 -0.0686
 8526TIP3   OH225520   5.338   1.345   4.595  0.5331 -0.4197 -0.2288
 8526TIP3    H125521   5.433   1.340   4.598  0.5252 -0.3127  0.3255
 8526TIP3    H225522   5.319   1.431   4.557  0.6533 -0.9962 -1.6311
 8527TIP3   OH225523   3.299   3.148   3.835  0.0786  0.3590 -0.7276
 8527TIP3    H125524   3.260   3.188   3.758  1.2729  1.3460 -0.8496
 8527TIP3    H225525   3.381   3.110   3.804  0.7101  1.0060  0.0866
 8528TIP3   OH225526   1.939   5.272   3.035  0.0368  0.6415  0.2201
 8528TIP3    H125527   1.899   5.243   2.953  2.4812 -0.9511 -0.5070
 8528TIP3    H225528   2.017   5.218   3.045  0.7299  1.9322  2.7787
 8529TIP3   OH225529   5.865   5.148   0.490 -0.0742 -0.2753 -0.0506
 8529TIP3    H125530   5.791   5.209   0.492 -0.9893 -1.3174  2.3631
 8529TIP3    H225531   5.916   5.170   0.568  1.9170  0.0572 -1.3803
 8530TIP3   OH225532   4.141   2.001   4.830  0.3398  0.5509  0.1216
 8530TIP3    H125533   4.075   2.042   4.775 -0.0697 -0.1206  0.0933
 8530TIP3    H225534   4.107   2.009   4.919  0.1727  0.1316  0.0991
 8531TIP3   OH225535   6.079   5.140   5.656  0.3449  0.4382  0.5828
 8531TIP3    H125536   6.033   5.204   5.601  0.7043  1.0520  0.9886
 8531TIP3    H225537   6.167   5.176   5.665  0.6894 -0.3570  0.4289
 8532TIP3   OH225538   3.802   1.714   3.797 -0.0532  0.3140 -0.1048
 8532TIP3    H125539   3.762   1.798   3.773 -0.9316  0.3780  1.4402
 8532TIP3    H225540   3.889   1.737   3.827 -0.2553  0.6602  0.2172
 8533TIP3   OH225541   5.321   7.022   1.115  0.1834  0.0469  0.0118
 8533TIP3    H125542   5.367   6.956   1.167 -1.4104 -1.0274  0.1235
 8533TIP3    H225543   5.258   7.061   1.175  1.0146  1.5980 -0.0947
 8534TIP3   OH225544   4.375   0.988   3.003  0.7500 -0.3522 -0.8824
 8534TIP3    H125545   4.305   0.981   2.938  0.3544 -1.2245 -0.3846
 8534TIP3    H225546   4.385   0.898   3.036  1.4960 -0.0682 -0.3182
 8535TIP3   OH225547   5.329   0.512   5.375  0.1549  0.2144 -0.0089
 8535TIP3    H125548   5.321   0.530   5.282 -1.4110 -1.8451 -0.3233
 8535TIP3    H225549   5.356   0.420   5.380  1.0833  0.5266  1.5830
 8536TIP3   OH225550   8.224   5.456   2.407  0.1297 -0.0935  0.3265
 8536TIP3    H125551   8.198   5.369   2.437 -0.7171  0.3658  0.9522
 8536TIP3    H225552   8.316   5.446   2.384 -0.3636 -1.5753 -1.2313
 8537TIP3   OH225553   4.391   2.137   4.863 -0.1859  0.1830 -0.4925
 8537TIP3    H125554   4.319   2.074   4.867 -1.1134  1.2560  0.4519
 8537TIP3    H225555   4.387   2.173   4.775 -0.8205  0.2541 -0.4359
 8538TIP3   OH225556   1.667   6.304   2.112 -0.1323  0.3104  0.0792
 8538TIP3    H125557   1.596   6.334   2.056 -0.6052  0.6538  0.8409
 8538TIP3    H225558   1.716   6.383   2.134 -1.5526  0.6662  2.3290
 8539TIP3   OH225559   4.825   3.761   6.363 -0.6536 -0.6685 -0.3438
 8539TIP3    H125560   4.904   3.746   6.311 -0.0315  1.0969  0.0214
 8539TIP3    H225561   4.754   3.763   6.299  0.2197  2.5086 -1.3698
 8540TIP3   OH225562   5.098   3.233   3.290  0.3418 -0.6066 -0.3102
 8540TIP3    H125563   5.062   3.178   3.359  0.0544  0.6831  0.6000
 8540TIP3    H225564   5.168   3.180   3.251  0.2678 -1.4943  0.7225
 8541TIP3   OH225565   5.979   3.620   4.711  0.4922  0.0764 -0.0247
 8541TIP3    H125566   5.899   3.673   4.712  1.3235  1.3895 -0.3252
 8541TIP3    H225567   5.983   3.581   4.799 -0.4774 -0.0241 -0.0151
 8542TIP3   OH225568   1.274   0.848   6.393 -0.3634 -0.1749  0.7194
 8542TIP3    H125569   1.317   0.933   6.396  0.7098 -0.5895 -1.1825
 8542TIP3    H225570   1.344   0.785   6.407 -1.0520 -0.7719  1.5681
 8543TIP3   OH225571   3.982   5.637   4.524  0.4677  0.0949 -0.0361
 8543TIP3    H125572   4.077   5.648   4.536  0.5935 -1.0236  0.1010
 8543TIP3    H225573   3.947   5.631   4.613  0.5138 -1.2995 -0.0931
 8544TIP3   OH225574   7.254   6.685   4.856 -0.5392  0.6803 -0.0492
 8544TIP3    H125575   7.292   6.693   4.769 -1.9266  1.0538 -0.6499
 8544TIP3    H225576   7.221   6.772   4.877 -1.5360  0.2621  0.2011
 8545TIP3   OH225577   7.439   5.149   2.771 -0.2831 -0.4191 -0.1511
 8545TIP3    H125578   7.466   5.113   2.855  1.0753 -3.1610 -1.6110
 8545TIP3    H225579   7.480   5.092   2.706 -0.6018  2.0273 -2.7228
 8546TIP3   OH225580   4.108   7.076   5.889 -0.3295  0.5625  0.0320
 8546TIP3    H125581   4.060   7.125   5.822  0.4891  0.7207 -0.4510
 8546TIP3    H225582   4.144   7.143   5.947 -0.7694  0.4401  0.4477
 8547TIP3   OH225583   7.100   3.070   3.242 -0.1259  0.3174  0.6179
 8547TIP3    H125584   7.051   3.012   3.300 -3.5471  1.0511 -1.3049
 8547TIP3    H225585   7.166   3.014   3.202 -1.2964 -1.5069  1.1364
 8548TIP3   OH225586   6.117   1.434   4.410 -0.0771 -0.0886 -0.2664
 8548TIP3    H125587   6.058   1.491   4.459  0.4166  0.0490  0.1725
 8548TIP3    H225588   6.084   1.437   4.320  0.6588  1.8629 -0.5192
 8549TIP3   OH225589   0.818   1.855   4.495  0.0614  0.1264  0.2609
 8549TIP3    H125590   0.811   1.845   4.400  0.3783  1.7603  0.0410
 8549TIP3    H225591   0.912   1.860   4.512 -0.0153  0.7554  0.5390
 8550TIP3   OH225592   2.283   5.985   6.097 -0.2214  0.1139  0.0523
 8550TIP3    H125593   2.211   5.980   6.159  0.8618 -1.1266  1.2769
 8550TIP3    H225594   2.324   5.898   6.100  3.0710  1.5064  1.6682
 8551TIP3   OH225595   2.165   0.988   4.269 -0.1443  0.7059  0.4401
 8551TIP3    H125596   2.222   0.915   4.294  0.6545  1.0550 -0.3284
 8551TIP3    H225597   2.154   1.039   4.349  0.4222  0.5012  0.6490
 8552TIP3   OH225598   2.778   2.547   0.615 -0.2942  0.4967 -0.3080
 8552TIP3    H125599   2.718   2.516   0.547 -0.6854  1.8141 -0.5951
 8552TIP3    H225600   2.861   2.562   0.569  0.5302 -1.9718  0.2142
 8553TIP3   OH225601   1.034   5.527   6.392  0.3115 -0.1733 -0.1594
 8553TIP3    H125602   0.985   5.490   6.465 -1.8664  1.3707 -0.7456
 8553TIP3    H225603   1.047   5.619   6.415  1.1702 -0.0798 -0.9362
 8554TIP3   OH225604   5.553   3.609   2.053 -0.5045  0.0764 -0.5769
 8554TIP3    H125605   5.539   3.514   2.047 -1.2718  0.2392 -1.6185
 8554TIP3    H225606   5.544   3.628   2.146  0.1221 -0.9420 -0.2929
 8555TIP3   OH225607   4.299   1.819   4.434  0.0113  0.1631  0.3737
 8555TIP3    H125608   4.227   1.882   4.441  0.9714  1.1184  2.5780
 8555TIP3    H225609   4.369   1.857   4.487  1.6297 -1.4536 -0.5114
 8556TIP3   OH225610   5.250   3.980   5.353  0.0929 -0.3288  0.6751
 8556TIP3    H125611   5.257   4.034   5.275 -0.8660 -0.5144  0.4507
 8556TIP3    H225612   5.341   3.960   5.377  0.3902 -0.7819 -0.7461
 8557TIP3   OH225613   1.164   0.780   5.444  0.3750 -0.1152 -0.0811
 8557TIP3    H125614   1.131   0.869   5.445  0.4318 -0.0948  0.0090
 8557TIP3    H225615   1.239   0.781   5.503  0.7551 -0.0777 -0.5571
 8558TIP3   OH225616   4.809   6.272   4.438 -0.5376  0.2534 -0.0936
 8558TIP3    H125617   4.739   6.307   4.492 -0.2375 -0.7758  0.9980
 8558TIP3    H225618   4.874   6.343   4.433  0.3480 -0.2443  2.5834
 8559TIP3   OH225619   3.657   4.188   0.837 -0.0910 -0.2514  0.3453
 8559TIP3    H125620   3.602   4.262   0.864 -2.3517 -0.2650 -3.4602
 8559TIP3    H225621   3.722   4.227   0.778 -0.9621 -1.1074 -1.2584
 8560TIP3   OH225622   4.025   7.661   6.100 -0.4790 -0.8204  0.4376
 8560TIP3    H125623   4.009   7.722   6.172  3.2759 -0.2343  1.0063
 8560TIP3    H225624   4.035   7.717   6.023 -1.1674 -1.1235  0.1292
 8561TIP3   OH225625   1.580   1.735   5.579 -0.2805  0.4744  0.7560
 8561TIP3    H125626   1.533   1.652   5.573 -0.0819  0.4553 -1.4409
 8561TIP3    H225627   1.521   1.793   5.627 -2.1724  0.1647 -1.0745
 8562TIP3   OH225628   1.845   0.302   5.021  0.0713  0.1896  0.0965
 8562TIP3    H125629   1.820   0.374   4.963 -0.3735  0.3497  0.4812
 8562TIP3    H225630   1.801   0.321   5.103  0.0952 -0.4324  0.2581
 8563TIP3   OH225631   0.700   5.817   2.871  0.3069 -0.2233 -0.0558
 8563TIP3    H125632   0.707   5.732   2.829 -1.6002 -0.5407  0.1876
 8563TIP3    H225633   0.744   5.877   2.810 -0.3817 -1.0220 -1.3792
 8564TIP3   OH225634   5.928   3.801   0.546  0.0767  0.0691 -0.3750
 8564TIP3    H125635   5.946   3.877   0.490  0.0603  1.0668  0.9313
 8564TIP3    H225636   6.014   3.777   0.581  0.1470 -0.8039 -1.1044
 8565TIP3   OH225637   1.117   6.436   6.047 -0.3909 -0.4057  0.3915
 8565TIP3    H125638   1.127   6.531   6.049  0.3974 -0.4886  0.7160
 8565TIP3    H225639   1.159   6.409   5.965 -0.7767 -0.4612  0.2090
 8566TIP3   OH225640   3.386   2.899   0.942  0.0237 -0.4748 -0.4647
 8566TIP3    H125641   3.339   2.912   1.025 -0.7282 -2.2967 -0.5689
 8566TIP3    H225642   3.477   2.887   0.969  0.3474  2.0218 -0.1827
 8567TIP3   OH225643   4.231   1.607   0.348 -0.2816  0.0527  0.0578
 8567TIP3    H125644   4.288   1.627   0.274 -1.6401  0.2774 -0.9746
 8567TIP3    H225645   4.288   1.612   0.425  1.0442  0.3608 -0.9150
 8568TIP3   OH225646   2.790   1.405   1.850 -0.4345  0.3082 -0.1641
 8568TIP3    H125647   2.730   1.392   1.777 -1.1928 -0.4672  0.5691
 8568TIP3    H225648   2.785   1.499   1.869 -0.7434  0.3964 -0.6695
 8569TIP3   OH225649   5.577   4.278   6.106 -0.1961 -0.4244 -0.5341
 8569TIP3    H125650   5.541   4.333   6.037  0.2344 -0.8685 -1.1216
 8569TIP3    H225651   5.664   4.314   6.123 -0.5496  0.0809  0.2364
 8570TIP3   OH225652   1.062   7.724   5.697  0.0800 -0.0533 -0.7505
 8570TIP3    H125653   1.015   7.804   5.721  0.6083 -0.0720  0.4131
 8570TIP3    H225654   1.131   7.754   5.637  2.6310  1.0544  2.3910
 8571TIP3   OH225655   8.001   7.509   0.913 -0.2976  0.1364  0.5149
 8571TIP3    H125656   7.963   7.581   0.862  2.3973  0.9397 -0.5171
 8571TIP3    H225657   7.947   7.433   0.890 -1.6019  1.2793 -0.4119
 8572TIP3   OH225658   5.219   5.916   3.063 -0.1226 -0.7329 -0.4617
 8572TIP3    H125659   5.278   5.890   2.992  0.5713 -0.4144 -0.0110
 8572TIP3    H225660   5.184   6.001   3.034  0.7616 -0.2217 -0.0906
 8573TIP3   OH225661   1.222   0.578   1.470 -0.1557  0.1008 -0.1078
 8573TIP3    H125662   1.285   0.559   1.400 -1.1578 -1.2543 -0.7035
 8573TIP3    H225663   1.239   0.512   1.537 -0.6933 -0.0653 -0.1254
 8574TIP3   OH225664   4.863   3.463   3.188  0.2654 -0.5583 -0.4002
 8574TIP3    H125665   4.785   3.501   3.226  0.4398  1.4454 -1.8690
 8574TIP3    H225666   4.906   3.418   3.260 -1.8021 -1.0154  0.6134
 8575TIP3   OH225667   5.843   4.813   3.584 -0.1007  0.2689  0.1572
 8575TIP3    H125668   5.809   4.738   3.536 -2.9011  1.7256 -0.3994
 8575TIP3    H225669   5.864   4.778   3.671  1.7782 -1.7197 -1.0027
 8576TIP3   OH225670   3.637   6.704   4.944 -0.7154  0.3712  0.2428
 8576TIP3    H125671   3.635   6.632   4.882 -0.5388 -0.0851  0.7618
 8576TIP3    H225672   3.685   6.774   4.899  1.4872 -0.7546  0.7028
 8577TIP3   OH225673   2.485   3.475   4.984  0.6368 -0.3038 -0.0237
 8577TIP3    H125674   2.537   3.554   4.996 -0.6216  0.5141  0.2331
 8577TIP3    H225675   2.444   3.485   4.898 -0.1587 -0.2811  0.3453
 8578TIP3   OH225676   7.896   4.496   3.573  0.1521  0.1086  0.0820
 8578TIP3    H125677   7.871   4.489   3.481  1.8944 -0.3566 -0.3893
 8578TIP3    H225678   7.844   4.429   3.617  0.2604 -0.5558 -0.7767
 8579TIP3   OH225679   6.751   0.810   1.475 -0.1449  0.0460  0.4630
 8579TIP3    H125680   6.750   0.889   1.420  2.2378 -0.5764 -0.6079
 8579TIP3    H225681   6.664   0.773   1.465 -0.5914  1.3468 -0.8643
 8580TIP3   OH225682   1.473   5.517   1.777 -0.0894  0.0126  0.1053
 8580TIP3    H125683   1.565   5.529   1.801 -0.5350  1.7914  1.0982
 8580TIP3    H225684   1.446   5.439   1.825  0.7700 -0.2871  0.1293
 8581TIP3   OH225685   3.732   1.644   1.046 -0.0508 -0.1080 -0.5403
 8581TIP3    H125686   3.679   1.688   0.980 -1.4698  0.4481  0.9033
 8581TIP3    H225687   3.685   1.563   1.065  2.0506 -1.9200 -2.4913
 8582TIP3   OH225688   4.340   1.355   6.265 -0.6157 -0.6278 -0.2102
 8582TIP3    H125689   4.342   1.320   6.176  0.4526  0.3470 -0.5872
 8582TIP3    H225690   4.426   1.334   6.302 -0.6674 -0.1128  0.2265
 8583TIP3   OH225691   5.166   5.657   6.566 -0.0328 -0.0355 -0.1045
 8583TIP3    H125692   5.107   5.696   6.630  0.6579  0.1253  0.4446
 8583TIP3    H225693   5.110   5.634   6.492 -0.6536  0.8349  0.0878
 8584TIP3   OH225694   0.817   4.551   5.701  0.2365 -0.1294  0.3804
 8584TIP3    H125695   0.843   4.558   5.609  2.2964 -0.9044  0.8445
 8584TIP3    H225696   0.741   4.492   5.700  0.1820 -0.0712 -0.8234
 8585TIP3   OH225697   3.316   3.650   6.251  0.1818 -0.0594 -0.0403
 8585TIP3    H125698   3.256   3.689   6.315 -1.1979 -0.6557 -0.9407
 8585TIP3    H225699   3.357   3.726   6.208 -1.3628  0.4160 -0.7352
 8586TIP3   OH225700   7.396   5.856   5.022 -0.2476  0.2819 -0.0109
 8586TIP3    H125701   7.391   5.774   4.973 -0.0492 -0.0496  0.5094
 8586TIP3    H225702   7.468   5.904   4.981 -0.5859  0.3400 -0.5318
 8587TIP3   OH225703   7.211   4.626   3.847  0.1161 -0.0154  0.3577
 8587TIP3    H125704   7.301   4.657   3.860  0.1108  0.5547 -0.8524
 8587TIP3    H225705   7.219   4.531   3.841  0.6313  0.0273  0.2985
 8588TIP3   OH225706   0.921   6.735   3.614  0.1446 -0.1470  0.4186
 8588TIP3    H125707   0.925   6.699   3.526 -0.1470  0.5045  0.1285
 8588TIP3    H225708   0.936   6.660   3.672  3.7827 -0.0582 -0.2089
 8589TIP3   OH225709   5.378   1.706   6.434  0.1242  0.5200 -0.7572
 8589TIP3    H125710   5.381   1.771   6.504  0.9537 -0.6394  0.3077
 8589TIP3    H225711   5.340   1.753   6.360  0.7321  2.2245 -0.0263
 8590TIP3   OH225712   3.456   6.531   2.503  0.0122 -0.1706  0.0146
 8590TIP3    H125713   3.440   6.603   2.441 -0.3918 -0.8791 -0.7217
 8590TIP3    H225714   3.464   6.575   2.588 -1.2873  0.6684 -0.2552
 8591TIP3   OH225715   2.943   4.485   4.760 -0.0820  0.0480  0.5208
 8591TIP3    H125716   2.907   4.573   4.755  1.4954  0.6683 -1.5438
 8591TIP3    H225717   2.926   4.447   4.674 -0.6033 -1.6486  1.3223
 8592TIP3   OH225718   4.170   1.471   3.150 -0.3099 -0.4080 -0.0725
 8592TIP3    H125719   4.257   1.511   3.157 -0.0946 -0.9796  0.7535
 8592TIP3    H225720   4.165   1.412   3.226 -1.2422 -0.7231 -0.3653
 8593TIP3   OH225721   1.227   2.763   2.022  0.3230  0.1045 -0.0029
 8593TIP3    H125722   1.184   2.780   2.106  2.1286 -0.8052  1.1643
 8593TIP3    H225723   1.172   2.695   1.981  0.9352 -1.5715  1.7859
 8594TIP3   OH225724   3.505   6.631   2.760  0.4049  0.1584  0.1601
 8594TIP3    H125725   3.477   6.705   2.814 -0.0687  0.2450 -0.1990
 8594TIP3    H225726   3.493   6.555   2.815  0.5040  0.3093  0.3904
 8595TIP3   OH225727   3.103   5.352   1.339 -0.1592 -0.1965 -0.5458
 8595TIP3    H125728   3.109   5.275   1.396 -2.6619 -1.0080 -1.2695
 8595TIP3    H225729   3.087   5.425   1.399  0.3732 -0.5340  0.0122
 8596TIP3   OH225730   5.721   2.480   4.127  0.0595  0.0106 -0.2926
 8596TIP3    H125731   5.760   2.434   4.053  1.8278  0.6674  0.1822
 8596TIP3    H225732   5.690   2.411   4.185 -1.9712 -0.5182 -1.8897
 8597TIP3   OH225733   2.207   5.620   3.112 -0.8868 -0.2494 -0.0057
 8597TIP3    H125734   2.213   5.687   3.044  0.5609 -0.5460 -0.1904
 8597TIP3    H225735   2.232   5.666   3.192 -0.4332 -0.4221 -0.0437
 8598TIP3   OH225736   7.944   2.968   6.212  0.3214 -0.6757  0.2584
 8598TIP3    H125737   7.926   2.916   6.134 -0.5574 -2.7626  1.7477
 8598TIP3    H225738   8.026   3.012   6.193  0.3127 -1.4010 -1.6987
 8599TIP3   OH225739   2.400   5.588   6.452  0.3092 -0.1633 -0.4783
 8599TIP3    H125740   2.418   5.579   6.545 -0.9429  0.3595 -0.1623
 8599TIP3    H225741   2.484   5.611   6.412  0.7978 -0.1493  0.5433
 8600TIP3   OH225742   4.962   5.702   3.414  0.0018  0.4789 -0.0869
 8600TIP3    H125743   5.045   5.745   3.437  0.2301  0.7378 -1.2906
 8600TIP3    H225744   4.988   5.613   3.390 -0.3555 -0.0877  1.5267
 8601TIP3   OH225745   1.400   2.163   1.753  0.5949  0.5934 -0.3588
 8601TIP3    H125746   1.337   2.179   1.682 -1.0648 -1.3423  0.5970
 8601TIP3    H225747   1.430   2.073   1.738  0.3906  0.2351  1.2182
 8602TIP3   OH225748   4.932   7.352   2.159  0.5055  0.0734 -0.7209
 8602TIP3    H125749   4.870   7.424   2.149 -1.2851 -1.1984  0.5708
 8602TIP3    H225750   4.898   7.283   2.103  1.0849 -0.4539 -0.4348
 8603TIP3   OH225751   7.543   1.046   0.124  0.6628  0.0226  0.1121
 8603TIP3    H125752   7.467   1.037   0.067  1.8823 -0.3984 -1.5228
 8603TIP3    H225753   7.532   0.978   0.191 -0.3551 -0.0739 -0.1472
 8604TIP3   OH225754   6.909   1.549   2.989  0.0444 -0.2263  0.3931
 8604TIP3    H125755   6.872   1.496   2.918  1.5833  0.2405 -0.8112
 8604TIP3    H225756   6.833   1.578   3.039 -1.0857 -0.6764 -0.9947
 8605TIP3   OH225757   1.095   3.338   0.846 -0.5605 -0.1641 -0.2279
 8605TIP3    H125758   1.015   3.354   0.896  0.2276 -0.2143  1.0986
 8605TIP3    H225759   1.073   3.264   0.789 -1.0291 -1.1694  1.1898
 8606TIP3   OH225760   2.456   4.748   5.123 -0.5221 -0.0122  0.0927
 8606TIP3    H125761   2.543   4.729   5.086  0.0140  0.4088  1.0954
 8606TIP3    H225762   2.402   4.769   5.047  0.3573  0.1009 -0.5205
 8607TIP3   OH225763   0.322   3.366   3.304 -0.0238 -0.2581  0.3125
 8607TIP3    H125764   0.380   3.440   3.287 -1.3822  0.9502  0.7349
 8607TIP3    H225765   0.372   3.309   3.363  1.3778 -0.1360 -0.7157
 8608TIP3   OH225766   2.693   0.434   5.377 -0.0372 -0.1587  0.1133
 8608TIP3    H125767   2.779   0.413   5.340 -0.2515 -0.6772 -0.0974
 8608TIP3    H225768   2.636   0.365   5.345 -0.8825  1.0202 -1.0341
 8609TIP3   OH225769   6.255   4.989   2.499 -0.1649 -0.0578  0.4457
 8609TIP3    H125770   6.277   4.907   2.543 -2.4841 -0.2923  1.2961
 8609TIP3    H225771   6.315   4.994   2.425  0.6469 -2.0397  0.9203
 8610TIP3   OH225772   2.985   0.606   5.320 -0.0255  0.1706 -0.3705
 8610TIP3    H125773   3.064   0.653   5.346  0.0670 -0.1978  0.0192
 8610TIP3    H225774   2.946   0.661   5.253  0.4716  0.4420 -0.4430
 8611TIP3   OH225775   2.638   3.383   4.356  0.3263  0.3448  0.1846
 8611TIP3    H125776   2.660   3.445   4.287  1.2499  1.1710  1.1938
 8611TIP3    H225777   2.578   3.432   4.413 -2.2211 -1.0206 -1.1199
 8612TIP3   OH225778   8.182   5.176   2.506 -0.1372  0.3446  0.1580
 8612TIP3    H125779   8.121   5.139   2.442  0.9228 -1.1875 -0.0254
 8612TIP3    H225780   8.181   5.115   2.579  1.3691  0.1274  0.0278
 8613TIP3   OH225781   1.911   1.308   3.755  0.5308 -0.2438  0.0779
 8613TIP3    H125782   1.995   1.305   3.709  1.5936  1.3375  1.7786
 8613TIP3    H225783   1.858   1.371   3.706  1.6421  1.4046  0.8890
 8614TIP3   OH225784   2.883   0.072   4.156 -0.4290 -0.0181 -0.3681
 8614TIP3    H125785   2.900   0.009   4.086 -0.7596 -0.5316  0.0086
 8614TIP3    H225786   2.954   0.136   4.148 -0.5442  0.0076 -1.2537
 8615TIP3   OH225787   1.492   2.815   2.086 -0.1292 -0.0280  0.0456
 8615TIP3    H125788   1.402   2.793   2.062  0.1448 -3.3725  1.5639
 8615TIP3    H225789   1.497   2.799   2.180  1.3585  3.0089  0.5954
 8616TIP3   OH225790   1.846   2.324   3.355 -0.2750 -0.6709  0.1011
 8616TIP3    H125791   1.764   2.273   3.358 -0.0605 -0.9947  0.8191
 8616TIP3    H225792   1.863   2.347   3.446 -0.2757  0.5646 -0.2015
 8617TIP3   OH225793   3.033   5.207   4.114 -0.0071 -0.0823  0.0789
 8617TIP3    H125794   3.057   5.294   4.147  0.6429 -0.3842  0.4204
 8617TIP3    H225795   3.102   5.186   4.050  0.0913 -0.5298  0.3245
 8618TIP3   OH225796   4.273   7.506   3.617  0.0879 -0.0824  0.3694
 8618TIP3    H125797   4.213   7.579   3.607 -0.5510 -0.3745  1.8284
 8618TIP3    H225798   4.358   7.547   3.635 -0.3433  0.3226  1.5762
 8619TIP3   OH225799   3.403   6.927   2.801  0.0582 -0.3784 -0.9475
 8619TIP3    H125800   3.311   6.952   2.793  0.2343  1.1433  1.0144
 8619TIP3    H225801   3.448   6.981   2.736 -0.1285  1.0677  0.0843
 8620TIP3   OH225802   5.879   3.904   4.475 -0.4816 -0.3206 -0.1265
 8620TIP3    H125803   5.922   3.962   4.412 -0.8551  1.6285  1.2969
 8620TIP3    H225804   5.949   3.876   4.534 -0.5782  0.1862  0.2434
 8621TIP3   OH225805   0.549   6.341   0.509  0.3192 -0.0189 -0.1427
 8621TIP3    H125806   0.613   6.409   0.529 -1.1816  0.6669  2.8523
 8621TIP3    H225807   0.546   6.339   0.413  3.9328  0.6486 -0.4214
 8622TIP3   OH225808   4.981   1.920   4.800  0.1087  0.5020  0.3557
 8622TIP3    H125809   4.918   1.991   4.814 -0.1624  0.2285  0.5342
 8622TIP3    H225810   4.931   1.840   4.817  0.6270  0.2976  0.9640
 8623TIP3   OH225811   7.877   7.047   6.231 -0.1605  0.0830  0.4140
 8623TIP3    H125812   7.789   7.046   6.193  0.4501  0.9130 -1.1132
 8623TIP3    H225813   7.893   7.139   6.250 -0.1091 -0.2149  1.9832
 8624TIP3   OH225814   6.779   3.405   4.076  0.1595  0.4254 -0.0990
 8624TIP3    H125815   6.857   3.412   4.020  1.1197 -0.2804  1.0983
 8624TIP3    H225816   6.708   3.382   4.016  1.3092 -1.1203 -0.9479
 8625TIP3   OH225817   3.508   1.856   5.488  0.4072 -0.2376  0.3769
 8625TIP3    H125818   3.428   1.865   5.540  0.2205  0.3628 -0.0104
 8625TIP3    H225819   3.521   1.942   5.450 -0.0676 -0.9386 -1.4621
 8626TIP3   OH225820   1.964   5.762   1.983  0.1686  0.1809  0.1485
 8626TIP3    H125821   2.006   5.746   2.067 -0.6303 -0.2557  0.4815
 8626TIP3    H225822   1.872   5.740   1.998  0.1647 -0.7314 -1.0658
 8627TIP3   OH225823   3.776   1.844   4.833 -0.1181  0.8423 -0.1115
 8627TIP3    H125824   3.706   1.846   4.767  0.1873 -1.9577 -0.6201
 8627TIP3    H225825   3.854   1.816   4.785  0.8509  1.7148  0.8913
 8628TIP3   OH225826   0.238   3.695   3.497  0.9396  0.0701  0.3215
 8628TIP3    H125827   0.168   3.666   3.438  0.8055 -0.4777  0.7365
 8628TIP3    H225828   0.270   3.614   3.537  2.4709  0.1809 -0.5639
 8629TIP3   OH225829   3.457   6.438   0.832 -0.0987 -0.0256  0.1578
 8629TIP3    H125830   3.394   6.395   0.774 -1.3121  0.2606  1.2235
 8629TIP3    H225831   3.450   6.531   0.810  0.0863 -0.0074  0.1694
 8630TIP3   OH225832   4.514   7.603   3.652  0.3402 -0.4523 -0.2729
 8630TIP3    H125833   4.536   7.681   3.702  0.5681 -0.3865 -0.4726
 8630TIP3    H225834   4.589   7.589   3.595 -1.6424  2.1318 -3.9679
 8631TIP3   OH225835   5.956   4.648   0.575 -0.1003  0.0706 -0.0967
 8631TIP3    H125836   5.991   4.726   0.532 -0.3373  1.2446  1.7302
 8631TIP3    H225837   5.879   4.679   0.621  0.3850 -1.0116  1.5222
 8632TIP3   OH225838   2.755   5.519   0.500  0.1123 -0.2050  0.6656
 8632TIP3    H125839   2.689   5.588   0.508  0.0140 -0.1754 -0.3486
 8632TIP3    H225840   2.804   5.524   0.582 -0.8853  0.0281  1.2752
 8633TIP3   OH225841   6.126   7.463   5.520 -0.0595  0.3572  0.0506
 8633TIP3    H125842   6.167   7.384   5.484 -0.5146  0.1845 -0.1016
 8633TIP3    H225843   6.192   7.531   5.509  0.7931 -0.2277  1.2198
 8634TIP3   OH225844   4.168   0.958   2.839 -0.0786  0.1120  0.4650
 8634TIP3    H125845   4.097   1.015   2.809 -1.3756 -1.5151  0.2847
 8634TIP3    H225846   4.127   0.872   2.848  1.1078 -0.2750  3.3996
 8635TIP3   OH225847   3.407   2.137   2.401 -0.6496  0.3922 -0.4004
 8635TIP3    H125848   3.353   2.109   2.327 -0.2340 -0.8364 -0.2612
 8635TIP3    H225849   3.359   2.106   2.478 -0.2000  0.0981 -0.2395
 8636TIP3   OH225850   3.140   5.845   0.490  0.9288  0.4191  0.2850
 8636TIP3    H125851   3.091   5.834   0.409  1.2464  1.9081 -0.1264
 8636TIP3    H225852   3.139   5.757   0.530  0.5822 -0.2835 -1.1935
 8637TIP3   OH225853   5.887   2.388   3.934 -1.2687  0.0825 -0.1634
 8637TIP3    H125854   5.874   2.300   3.896 -1.6926 -0.1205  0.4514
 8637TIP3    H225855   5.948   2.430   3.873 -0.7732 -0.7627 -0.2770
 8638TIP3   OH225856   2.315   7.556   6.160  0.1318  0.0680  0.1101
 8638TIP3    H125857   2.250   7.501   6.115 -0.2873 -0.0381  0.8195
 8638TIP3    H225858   2.308   7.641   6.118  0.1499 -0.1797 -0.4037
 8639TIP3   OH225859   7.946   0.614   6.428  0.0700 -0.0590 -0.1531
 8639TIP3    H125860   7.977   0.638   6.515 -0.3007  0.5312 -0.1804
 8639TIP3    H225861   7.926   0.520   6.434  0.0985 -0.0302  0.3760
 8640TIP3   OH225862   2.950   0.057   6.693  0.3146 -1.0600  0.1395
 8640TIP3    H125863   3.044   0.069   6.678  0.1399 -2.0990 -2.0230
 8640TIP3    H225864   2.945   0.015   6.779  1.7212  0.1690  0.8788
 8641TIP3   OH225865   6.979   6.281   5.248 -0.2520  0.1152 -0.0817
 8641TIP3    H125866   6.906   6.322   5.294 -0.0020 -0.6668  1.0460
 8641TIP3    H225867   6.965   6.187   5.261  0.5411 -0.0663 -0.5162
 8642TIP3   OH225868   4.683   5.685   1.607  0.8442 -0.0574  0.3599
 8642TIP3    H125869   4.619   5.731   1.554  0.3431  1.4118  2.1251
 8642TIP3    H225870   4.709   5.610   1.554 -1.7836 -0.3101 -0.6989
 8643TIP3   OH225871   1.876   1.744   5.094 -0.0916  0.1550  0.0857
 8643TIP3    H125872   1.934   1.787   5.156 -1.2813  1.8262  0.1250
 8643TIP3    H225873   1.918   1.755   5.009  1.3567 -1.8114  0.4759
 8644TIP3   OH225874   6.202   6.919   0.333 -0.2690 -0.4710 -0.1856
 8644TIP3    H125875   6.201   6.870   0.252  0.1990  1.4290 -1.4162
 8644TIP3    H225876   6.135   6.986   0.322  1.0266  0.9588  0.1866
 8645TIP3   OH225877   6.164   4.019   0.628  0.2182 -0.7213 -0.4277
 8645TIP3    H125878   6.095   4.060   0.680  1.1564  0.0901  0.2132
 8645TIP3    H225879   6.205   4.091   0.580  0.6548 -1.1811 -0.7566
 8646TIP3   OH225880   7.655   6.255   0.364  0.0485 -0.1013 -0.4971
 8646TIP3    H125881   7.639   6.164   0.389 -0.5103 -0.0244 -0.5719
 8646TIP3    H225882   7.646   6.256   0.269  0.5604 -0.0684 -0.5469
 8647TIP3   OH225883   2.015   7.077   3.506 -0.2294 -0.7830 -0.1903
 8647TIP3    H125884   2.029   6.989   3.541  1.6316 -1.0412 -1.4535
 8647TIP3    H225885   2.103   7.108   3.485 -0.9537  0.9499 -0.8088
 8648TIP3   OH225886   7.535   3.818   6.653  0.8259 -0.3199  0.2142
 8648TIP3    H125887   7.601   3.776   6.708  2.2769  0.1802 -1.0796
 8648TIP3    H225888   7.563   3.909   6.647  0.2075 -0.1751 -0.6395
 8649TIP3   OH225889   4.307   0.886   6.223 -0.6022 -0.4937  0.4076
 8649TIP3    H125890   4.318   0.918   6.133  0.7410  0.9106  1.0091
 8649TIP3    H225891   4.258   0.804   6.214 -0.0174 -0.6803 -1.6446
 8650TIP3   OH225892   8.211   5.357   5.551  0.5149 -0.2229 -0.1168
 8650TIP3    H125893   8.223   5.338   5.458  0.2799 -2.6011  0.2757
 8650TIP3    H225894   8.278   5.305   5.595 -0.5757 -0.6629  1.1121
 8651TIP3   OH225895   6.431   5.179   1.994 -0.0398  0.4676 -0.1231
 8651TIP3    H125896   6.507   5.120   2.002 -2.2258 -2.4918  0.4719
 8651TIP3    H225897   6.395   5.160   1.908 -0.5816  1.2644 -0.0808
 8652TIP3   OH225898   6.975   1.613   6.031 -0.2163 -0.3972  0.5342
 8652TIP3    H125899   6.987   1.596   5.938  0.2917 -0.2969  0.5762
 8652TIP3    H225900   6.889   1.653   6.038 -0.1121 -0.0922  0.0660
 8653TIP3   OH225901   1.382   4.658   3.446  0.5354  0.0887 -0.2728
 8653TIP3    H125902   1.413   4.686   3.360  0.2171  1.4150  0.0173
 8653TIP3    H225903   1.366   4.740   3.493  1.1242 -0.6129  1.2066
 8654TIP3   OH225904   7.879   1.016   0.416  1.0011  0.4637 -0.1303
 8654TIP3    H125905   7.944   1.068   0.369 -1.7278  2.1562 -2.3505
 8654TIP3    H225906   7.824   0.978   0.348 -0.2378 -1.0860  1.6288
 8655TIP3   OH225907   4.471   1.893   2.687  0.1475 -0.1210 -0.2001
 8655TIP3    H125908   4.496   1.827   2.623  1.1727  0.6483 -0.6133
 8655TIP3    H225909   4.510   1.862   2.769 -0.8351 -0.9026 -0.0115
 8656TIP3   OH225910   5.109   4.302   5.013 -0.2204  0.0403 -0.3623
 8656TIP3    H125911   5.108   4.208   4.995  0.8779  0.4208 -2.7973
 8656TIP3    H225912   5.169   4.312   5.087 -0.3301 -1.1576 -0.0913
 8657TIP3   OH225913   5.547   3.119   1.102  0.2991 -0.2022  0.2551
 8657TIP3    H125914   5.568   3.029   1.125  0.5922 -0.3826 -0.6795
 8657TIP3    H225915   5.627   3.169   1.121  0.2635 -0.2044  0.4117
 8658TIP3   OH225916   4.688   6.927   4.959 -0.2887 -0.1906  0.3341
 8658TIP3    H125917   4.718   6.894   5.044  1.0416  0.9506  0.3400
 8658TIP3    H225918   4.767   6.929   4.905 -0.7061  1.0741 -0.2654
 8659TIP3   OH225919   4.654   5.611   4.254  0.7583  0.1442  0.2821
 8659TIP3    H125920   4.714   5.571   4.190 -1.6173 -1.2768 -1.2213
 8659TIP3    H225921   4.700   5.602   4.338  2.1127 -2.1188 -0.5912
 8660TIP3   OH225922   5.004   1.085   2.497  0.2659 -0.3459 -0.2007
 8660TIP3    H125923   4.945   1.091   2.572 -0.9729 -2.6276 -0.8963
 8660TIP3    H225924   5.005   1.173   2.461 -1.0127  0.2429  1.0992
 8661TIP3   OH225925   5.738   6.596   6.506  0.2603 -0.0001  0.2944
 8661TIP3    H125926   5.823   6.621   6.469  0.3492 -0.5373  0.1224
 8661TIP3    H225927   5.744   6.621   6.598  0.3304  0.6288  0.1249
 8662TIP3   OH225928   0.291   3.120   4.974 -0.2403 -0.4152  0.4302
 8662TIP3    H125929   0.344   3.050   5.013  0.7200 -0.7011 -1.2575
 8662TIP3    H225930   0.204   3.082   4.966 -0.1059 -0.8535  0.9529
 8663TIP3   OH225931   2.637   2.518   4.866  0.0377 -0.4270 -0.3097
 8663TIP3    H125932   2.651   2.612   4.859 -2.4086  0.0494  0.2923
 8663TIP3    H225933   2.683   2.481   4.791  1.1836  1.2073 -0.4573
 8664TIP3   OH225934   3.975   6.359   5.766  0.5046  0.7246  0.7302
 8664TIP3    H125935   3.880   6.348   5.763  0.6299 -0.3837 -1.3201
 8664TIP3    H225936   4.002   6.311   5.844 -0.6019  0.9751  1.2919
 8665TIP3   OH225937   2.591   6.437   1.204 -0.4338  0.2336  0.2690
 8665TIP3    H125938   2.675   6.453   1.247 -0.3297 -1.1224  0.6345
 8665TIP3    H225939   2.555   6.362   1.250 -2.1086  1.1192  0.4513
 8666TIP3   OH225940   7.432   1.387   3.447  0.1174 -0.1393  0.6754
 8666TIP3    H125941   7.492   1.359   3.378 -0.9763 -1.0628  0.0827
 8666TIP3    H225942   7.379   1.310   3.466 -0.2844  0.3984  1.8453
 8667TIP3   OH225943   0.690   3.135   3.872  0.0317 -0.9619  0.0682
 8667TIP3    H125944   0.652   3.054   3.837  1.2413 -1.7227  0.4277
 8667TIP3    H225945   0.765   3.105   3.924  0.8324  0.4285 -0.2396
 8668TIP3   OH225946   5.629   2.606   0.172 -0.1166 -0.0049  0.2458
 8668TIP3    H125947   5.696   2.564   0.227 -0.6954 -2.4106 -0.7630
 8668TIP3    H225948   5.675   2.679   0.130  1.5919 -0.9406  0.4041
 8669TIP3   OH225949   5.733   5.815   4.820 -0.2529 -0.1474 -0.6800
 8669TIP3    H125950   5.758   5.908   4.816  0.9097 -0.3875  0.3042
 8669TIP3    H225951   5.760   5.780   4.735  1.2065 -0.0019 -0.3024
 8670TIP3   OH225952   3.885   2.842   3.319  0.2413 -0.0544 -0.5194
 8670TIP3    H125953   3.970   2.804   3.295  1.4199  0.9916  1.6790
 8670TIP3    H225954   3.907   2.925   3.362 -1.9917  0.8359 -0.9615
 8671TIP3   OH225955   0.404   2.027   2.005 -0.5229 -0.5322  0.0183
 8671TIP3    H125956   0.324   2.037   1.954  0.0608 -1.1391 -1.0540
 8671TIP3    H225957   0.395   2.090   2.076 -1.8562 -0.4443 -0.1910
 8672TIP3   OH225958   2.673   0.767   3.240 -0.1528  0.0311 -0.2988
 8672TIP3    H125959   2.757   0.738   3.275 -0.7834 -1.3842  0.1147
 8672TIP3    H225960   2.654   0.848   3.287  0.0784 -0.6533  1.0116
 8673TIP3   OH225961   0.269   4.596   5.869 -0.0700  0.6124  0.1961
 8673TIP3    H125962   0.254   4.619   5.777 -0.9430 -0.7711 -0.0307
 8673TIP3    H225963   0.248   4.503   5.874 -1.2717  0.9478  2.0729
 8674TIP3   OH225964   3.156   4.655   0.639 -0.0097  0.6675  0.2643
 8674TIP3    H125965   3.127   4.572   0.675  1.0780 -0.0840 -0.5327
 8674TIP3    H225966   3.076   4.707   0.629 -0.5756  0.1168  1.7251
 8675TIP3   OH225967   5.426   0.962   4.494  0.1159  0.7063  0.4391
 8675TIP3    H125968   5.506   1.015   4.497  0.6234 -0.0537  0.8690
 8675TIP3    H225969   5.439   0.906   4.417 -0.6020  1.4730 -0.2556
 8676TIP3   OH225970   4.147   1.110   0.843 -0.4185  0.8942  0.2366
 8676TIP3    H125971   4.112   1.076   0.925  1.9136 -0.7738  0.6269
 8676TIP3    H225972   4.070   1.125   0.788 -1.8812  0.0680  1.9666
 8677TIP3   OH225973   2.916   4.552   5.800 -0.2172  0.0227  0.0597
 8677TIP3    H125974   2.987   4.512   5.850  0.7255  0.3634 -0.9660
 8677TIP3    H225975   2.837   4.531   5.849  0.4139 -1.7269  0.3954
 8678TIP3   OH225976   3.791   5.328   6.256 -0.5635 -0.2133  0.1605
 8678TIP3    H125977   3.816   5.396   6.193  0.7259 -0.2309  0.6230
 8678TIP3    H225978   3.703   5.302   6.229 -0.5828  0.7501 -0.7914
 8679TIP3   OH225979   7.805   2.269   4.253 -0.4103 -0.4233  0.1131
 8679TIP3    H125980   7.860   2.346   4.244  1.7296 -1.8463  0.1886
 8679TIP3    H225981   7.726   2.301   4.297 -0.3267  1.9676 -1.3052
 8680TIP3   OH225982   4.423   2.005   5.798 -0.1472 -0.0812  0.1445
 8680TIP3    H125983   4.490   1.940   5.821  0.2570  0.2684 -0.0483
 8680TIP3    H225984   4.354   1.991   5.863  0.3031 -0.1469  0.6173
 8681TIP3   OH225985   7.204   3.578   3.723  0.3243  0.0314 -0.6486
 8681TIP3    H125986   7.221   3.545   3.811  0.3090  0.7570 -0.3639
 8681TIP3    H225987   7.256   3.522   3.665 -1.9379 -2.4051 -0.5167
 8682TIP3   OH225988   4.640   0.580   6.440 -0.4980 -0.2789  0.3433
 8682TIP3    H125989   4.581   0.599   6.513 -1.1983  1.2451 -0.5752
 8682TIP3    H225990   4.599   0.623   6.364 -0.3182 -2.6343 -1.1852
 8683TIP3   OH225991   2.230   1.303   0.570 -0.2094 -0.2529 -0.5927
 8683TIP3    H125992   2.271   1.224   0.606  0.7368  0.6748  0.4355
 8683TIP3    H225993   2.234   1.290   0.475  0.8789 -0.9926 -0.4750
 8684TIP3   OH225994   3.112   3.053   0.770  0.3409 -0.1086 -0.1863
 8684TIP3    H125995   3.194   3.061   0.818 -0.2119 -0.7214  0.9183
 8684TIP3    H225996   3.121   2.971   0.721  0.5429  0.0409 -0.4037
 8685TIP3   OH225997   3.824   5.479   1.876  0.1550  0.3815  0.2583
 8685TIP3    H125998   3.755   5.543   1.859  0.1128  0.6709  1.4293
 8685TIP3    H225999   3.879   5.520   1.942 -0.4545 -1.1850  1.8107
 8686TIP3   OH226000   3.708   2.537   1.330 -0.0332 -0.3314  0.1165
 8686TIP3    H126001   3.796   2.534   1.291 -0.1043 -1.5453  0.0159
 8686TIP3    H226002   3.685   2.630   1.329  0.8689 -0.0953 -0.7273
 8687TIP3   OH226003   2.139   1.299   6.054 -0.0484  0.3139 -0.7477
 8687TIP3    H126004   2.136   1.219   6.107 -0.8341  0.3650 -0.7054
 8687TIP3    H226005   2.051   1.308   6.019 -0.7025  2.4551  1.1714
 8688TIP3   OH226006   2.695   4.854   6.762  0.1508 -0.0853 -0.1611
 8688TIP3    H126007   2.626   4.841   6.697 -1.5116  0.5879  1.3936
 8688TIP3    H226008   2.669   4.798   6.835  0.5687  1.1293  0.9500
 8689TIP3   OH226009   2.349   6.948   5.962 -0.4896  0.2023  0.6058
 8689TIP3    H126010   2.432   6.903   5.973  0.1223  1.4612  1.4685
 8689TIP3    H226011   2.293   6.886   5.916  0.5269 -1.1354  1.1127
 8690TIP3   OH226012   4.343   2.239   1.169  0.5625  0.1108  0.4830
 8690TIP3    H126013   4.290   2.235   1.089  0.3800  0.8367  0.5603
 8690TIP3    H226014   4.418   2.184   1.150 -0.6836 -1.7602  0.7432
 8691TIP3   OH226015   4.763   3.047   2.322  0.2900  0.5560  0.3009
 8691TIP3    H126016   4.829   3.070   2.256  1.4734 -1.5978  0.6195
 8691TIP3    H226017   4.794   3.087   2.403  1.3697 -0.5929  0.4876
 8692TIP3   OH226018   4.511   6.909   1.772  0.0990 -0.8423  0.1129
 8692TIP3    H126019   4.421   6.885   1.750  0.7808 -1.5961 -2.2088
 8692TIP3    H226020   4.518   6.895   1.866 -2.3935 -0.0445  0.4736
 8693TIP3   OH226021   7.471   1.180   1.950  0.5778  0.6924 -0.4204
 8693TIP3    H126022   7.558   1.219   1.945  0.1303  1.7505 -0.3761
 8693TIP3    H226023   7.483   1.099   1.998  1.2055  1.8749  1.5221
 8694TIP3   OH226024   0.697   6.936   0.941 -0.6919  0.2767 -0.0785
 8694TIP3    H126025   0.622   6.951   0.999 -0.7569  0.2288 -0.1502
 8694TIP3    H226026   0.770   6.918   1.001 -0.9340 -0.5683 -0.0248
 8695TIP3   OH226027   0.788   4.686   0.455  0.0640 -0.3464 -0.0569
 8695TIP3    H126028   0.742   4.621   0.401 -0.8603 -1.5917  2.0850
 8695TIP3    H226029   0.865   4.640   0.487  0.2424  0.1418  0.2189
 8696TIP3   OH226030   4.342   0.675   4.096  0.0682  0.3317  0.2860
 8696TIP3    H126031   4.337   0.641   4.185  0.5888  1.4939  0.7875
 8696TIP3    H226032   4.251   0.697   4.074 -0.4615 -2.2657 -0.4718
 8697TIP3   OH226033   0.203   7.737   2.451 -0.2902 -0.1062 -0.5511
 8697TIP3    H126034   0.161   7.810   2.496  0.0519  0.3048 -0.8863
 8697TIP3    H226035   0.276   7.777   2.403 -0.8845 -0.4648 -1.7958
 8698TIP3   OH226036   5.774   7.072   4.253 -0.2290 -0.2922 -0.0899
 8698TIP3    H126037   5.758   7.108   4.340 -1.7622 -1.4359  0.1435
 8698TIP3    H226038   5.843   7.006   4.266 -0.4310 -0.4375  0.2501
 8699TIP3   OH226039   3.249   2.105   2.641 -0.2786  0.0783  0.3102
 8699TIP3    H126040   3.216   2.015   2.644 -0.4701  0.1727  1.2735
 8699TIP3    H226041   3.192   2.154   2.700  1.4383  0.2805  1.9011
 8700TIP3   OH226042   3.015   6.906   6.314 -0.1491 -0.0119  0.1030
 8700TIP3    H126043   3.061   6.968   6.259 -1.5738  0.1421 -0.9540
 8700TIP3    H226044   2.951   6.865   6.256  1.3174 -3.1817  0.4769
 8701TIP3   OH226045   1.198   4.666   2.968  0.0271 -0.4010 -0.5884
 8701TIP3    H126046   1.153   4.746   2.993  2.7723  0.7753  1.0094
 8701TIP3    H226047   1.150   4.596   3.012 -0.9458  0.6297  0.0203
 8702TIP3   OH226048   0.890   2.627   0.781  0.6258  0.4915 -0.7849
 8702TIP3    H126049   0.847   2.541   0.777  1.5416 -0.1189  1.2631
 8702TIP3    H226050   0.818   2.690   0.768 -0.5396 -0.5447  0.3797
 8703TIP3   OH226051   2.027   3.195   0.548 -0.0424 -0.6873  0.1723
 8703TIP3    H126052   2.053   3.105   0.566 -4.1908 -1.8956  1.1653
 8703TIP3    H226053   2.014   3.198   0.453  0.5304 -1.0000  0.0842
 8704TIP3   OH226054   0.445   2.971   3.935  0.3405 -0.1914  0.6722
 8704TIP3    H126055   0.496   2.976   4.016  0.1352 -0.3178  0.8101
 8704TIP3    H226056   0.375   3.036   3.947  3.3617  3.9894 -1.6154
 8705TIP3   OH226057   3.268   3.791   0.584  0.4616  0.0987 -0.2656
 8705TIP3    H126058   3.237   3.881   0.576  1.7671  0.4481 -2.0343
 8705TIP3    H226059   3.209   3.740   0.529  1.5620  0.4181 -1.8223
 8706TIP3   OH226060   0.588   5.072   5.860 -0.1690 -0.1728 -0.1585
 8706TIP3    H126061   0.628   5.002   5.911 -0.2293 -0.6612 -0.7703
 8706TIP3    H226062   0.519   5.028   5.809 -0.5702  0.4209 -0.1394
 8707TIP3   OH226063   6.971   1.211   3.049 -0.0124  0.0645 -0.6239
 8707TIP3    H126064   6.933   1.158   2.978 -1.6869  2.6494 -1.8010
 8707TIP3    H226065   7.038   1.263   3.006 -0.8119  1.4102 -0.2829
 8708TIP3   OH226066   2.825   5.422   3.612 -0.0265 -0.4159 -0.1115
 8708TIP3    H126067   2.910   5.461   3.593  0.7624 -1.5957  0.8893
 8708TIP3    H226068   2.790   5.475   3.683  0.2044 -0.3785 -0.0253
 8709TIP3   OH226069   7.989   7.611   1.188  0.0568 -0.1884  0.4033
 8709TIP3    H126070   7.958   7.701   1.177  1.6296  0.4765  1.1013
 8709TIP3    H226071   7.998   7.576   1.100 -2.1747 -0.2688  0.1608
 8710TIP3   OH226072   3.635   6.010   0.868  0.5230 -0.0678 -0.2481
 8710TIP3    H126073   3.675   6.061   0.797 -0.5615 -0.5254 -1.2130
 8710TIP3    H226074   3.558   5.970   0.829 -2.2878  2.5828  2.0739
 8711TIP3   OH226075   2.579   7.651   1.099  0.2596 -0.0108 -0.8756
 8711TIP3    H126076   2.625   7.678   1.020  0.0580  3.1568 -0.0364
 8711TIP3    H226077   2.492   7.691   1.092  0.6417  1.4601  1.4166
 8712TIP3   OH226078   4.580   5.782   1.234  0.1504 -0.0541 -0.1161
 8712TIP3    H126079   4.517   5.825   1.176  1.2207 -1.6222 -2.6386
 8712TIP3    H226080   4.556   5.689   1.229  2.0071 -0.5577 -0.3608
 8713TIP3   OH226081   0.504   2.889   5.200 -0.3167 -0.0706  0.2586
 8713TIP3    H126082   0.486   2.939   5.280 -2.2643  3.0146 -1.9073
 8713TIP3    H226083   0.596   2.865   5.207  0.9767  4.3081  1.3703
 8714TIP3   OH226084   2.807   7.662   3.637 -0.1637  0.3603 -0.5143
 8714TIP3    H126085   2.719   7.695   3.657  0.2877  2.3547 -1.5179
 8714TIP3    H226086   2.865   7.736   3.657  1.2219 -0.6870 -0.5363
 8715TIP3   OH226087   3.971   3.706   1.444  0.2694 -0.4143 -0.0672
 8715TIP3    H126088   3.932   3.710   1.531  1.8160  2.2232  0.6118
 8715TIP3    H226089   3.896   3.702   1.384 -1.0700  2.2112  1.2533
 8716TIP3   OH226090   1.642   4.080   4.245 -0.2288 -0.2274  0.2997
 8716TIP3    H126091   1.734   4.054   4.250  0.2148  1.2522  0.2651
 8716TIP3    H226092   1.624   4.123   4.329 -0.4451  0.8130 -0.2533
 8717TIP3   OH226093   6.971   7.233   5.784  0.6468 -0.3316  0.6746
 8717TIP3    H126094   7.020   7.176   5.725 -0.5669 -0.5855 -0.1159
 8717TIP3    H226095   6.994   7.322   5.755  1.6518 -0.4138  1.1753
 8718TIP3   OH226096   5.283   6.564   4.528 -0.0012  0.0205  0.3391
 8718TIP3    H126097   5.195   6.595   4.504 -0.2727  0.2546  1.5828
 8718TIP3    H226098   5.280   6.556   4.623  2.3114  3.2321  0.8459
 8719TIP3   OH226099   7.781   2.837   5.716 -0.0363 -0.5237 -0.1251
 8719TIP3    H126100   7.713   2.826   5.649  0.7886  1.5125 -1.3861
 8719TIP3    H226101   7.860   2.799   5.677  0.6707  1.4947 -0.7863
 8720TIP3   OH226102   5.060   5.287   5.895 -0.3418 -0.2064  0.4140
 8720TIP3    H126103   5.148   5.312   5.868 -0.1563  0.1277  1.3155
 8720TIP3    H226104   5.063   5.284   5.990 -1.0155 -1.2880  0.4171
 8721TIP3   OH226105   2.350   2.658  -0.001  0.7006 -0.3208 -0.0341
 8721TIP3    H126106   2.257   2.660   0.024 -0.0732  0.9143 -2.6397
 8721TIP3    H226107   2.371   2.565  -0.006  0.2824 -0.6489  2.5954
 8722TIP3   OH226108   0.627   3.388   1.699  0.6939  0.2349 -0.4342
 8722TIP3    H126109   0.707   3.344   1.671  0.9575 -0.0231  0.6917
 8722TIP3    H226110   0.564   3.370   1.629  0.5718 -2.5504  0.2823
 8723TIP3   OH226111   4.630   6.054   3.997  0.0968  0.5197  0.3865
 8723TIP3    H126112   4.684   6.046   3.918 -1.8265 -1.2113 -0.8423
 8723TIP3    H226113   4.685   6.020   4.068  0.9026 -0.4687 -0.6835
 8724TIP3   OH226114   8.049   5.028   1.815  0.4038  0.2835  0.2192
 8724TIP3    H126115   8.012   5.018   1.727  0.7772  1.1761 -0.0474
 8724TIP3    H226116   7.988   4.980   1.872 -0.8131  1.1772 -0.2981
 8725TIP3   OH226117   2.629   4.654   5.531  0.1222  0.2190 -0.0722
 8725TIP3    H126118   2.687   4.578   5.533  1.6159  1.2793 -0.9337
 8725TIP3    H226119   2.635   4.691   5.619 -0.5799 -0.6132  0.3394
 8726TIP3   OH226120   6.173   2.692   2.262 -0.4321 -0.0050 -0.1190
 8726TIP3    H126121   6.197   2.687   2.169 -0.5312 -2.9133 -0.0830
 8726TIP3    H226122   6.239   2.750   2.301  0.6425 -0.0907 -1.7100
 8727TIP3   OH226123   8.138   0.229   5.846 -0.3056 -0.0632  0.3839
 8727TIP3    H126124   8.170   0.318   5.831 -1.8615  0.4343 -0.1936
 8727TIP3    H226125   8.045   0.240   5.867 -0.9187 -1.6170 -1.2098
 8728TIP3   OH226126   8.234   7.027   3.917  0.5505  0.0267 -0.6913
 8728TIP3    H126127   8.221   6.933   3.926  1.4973 -0.0863 -0.3565
 8728TIP3    H226128   8.252   7.040   3.824  0.3004 -0.1037 -0.7596
 8729TIP3   OH226129   1.678   5.069   2.055 -0.3061 -0.1286 -0.2113
 8729TIP3    H126130   1.718   4.983   2.054  2.2470  0.9657 -0.9482
 8729TIP3    H226131   1.713   5.113   1.977  0.2411  2.2762  1.2553
 8730TIP3   OH226132   3.616   2.196   6.256  0.4506  0.0450  0.3009
 8730TIP3    H126133   3.553   2.211   6.326  0.7292  1.6918  0.2419
 8730TIP3    H226134   3.686   2.146   6.297 -0.5880 -1.2808  0.5154
 8731TIP3   OH226135   1.196   2.381   4.858  0.0275  0.0491  0.4701
 8731TIP3    H126136   1.274   2.407   4.906 -0.3334  0.8177  0.6476
 8731TIP3    H226137   1.137   2.456   4.865 -0.2350 -0.0259 -0.7299
 8732TIP3   OH226138   0.132   0.457   2.119  0.1833  0.3077  0.0436
 8732TIP3    H126139   0.136   0.375   2.168 -0.3219  0.3851  0.2144
 8732TIP3    H226140   0.103   0.432   2.032 -3.2775  0.6371  0.9591
 8733TIP3   OH226141   5.479   1.555   0.270  0.1248 -0.1019 -0.5593
 8733TIP3    H126142   5.445   1.483   0.322 -1.1405  1.2191  0.5289
 8733TIP3    H226143   5.574   1.553   0.283  0.1611 -1.8077 -0.9287
 8734TIP3   OH226144   5.962   4.625   4.177 -0.0836  0.0827 -0.3210
 8734TIP3    H126145   5.879   4.578   4.164 -1.1152  0.9569  2.4134
 8734TIP3    H226146   5.937   4.717   4.183  1.1591  0.4190 -0.0250
 8735TIP3   OH226147   4.407   3.270   4.230 -0.0536 -0.1832 -0.3599
 8735TIP3    H126148   4.397   3.175   4.242  0.6935 -0.2341 -0.0565
 8735TIP3    H226149   4.501   3.283   4.219 -0.1517  0.5239 -0.4301
 8736TIP3   OH226150   6.621   3.317   3.855  0.1761 -0.0264  0.4690
 8736TIP3    H126151   6.712   3.309   3.825  0.2743 -0.3938  0.8592
 8736TIP3    H226152   6.601   3.232   3.894 -0.0948  0.3107  1.0698
 8737TIP3   OH226153   6.993   3.962   3.250 -0.3116 -0.3304 -0.0286
 8737TIP3    H126154   6.925   3.925   3.307  0.1615  0.5038  1.1090
 8737TIP3    H226155   7.045   4.019   3.308  1.3164 -0.8844 -0.8905
 8738TIP3   OH226156   7.398   0.727   1.391 -0.5757  0.0211 -0.0261
 8738TIP3    H126157   7.418   0.821   1.389  0.1010 -0.0611  1.8017
 8738TIP3    H226158   7.483   0.685   1.385 -0.5648 -0.4042  2.3524
 8739TIP3   OH226159   6.438   5.187   1.289 -0.0982 -0.0176 -0.5279
 8739TIP3    H126160   6.514   5.215   1.237 -0.0112 -0.3553 -0.5815
 8739TIP3    H226161   6.401   5.114   1.240  0.8485 -1.3083  0.6042
 8740TIP3   OH226162   1.857   6.552   3.018 -0.1585  0.2039 -0.1911
 8740TIP3    H126163   1.781   6.501   3.046 -0.6990  1.2673  0.3394
 8740TIP3    H226164   1.922   6.487   2.993 -0.8268 -0.7429  0.4726
 8741TIP3   OH226165   7.096   5.014   4.565 -0.4712  0.0659 -0.2228
 8741TIP3    H126166   7.093   4.973   4.479  1.6694  2.3820 -1.5277
 8741TIP3    H226167   7.014   5.062   4.573 -0.5223  0.1383 -1.1404
 8742TIP3   OH226168   5.754   5.186   2.553  0.6546  0.3024 -0.4870
 8742TIP3    H126169   5.848   5.200   2.538  0.5246 -0.0183 -1.6724
 8742TIP3    H226170   5.723   5.269   2.590  1.3771  0.4373 -0.1498
 8743TIP3   OH226171   2.249   1.335   2.601  0.1048 -0.2945 -0.3522
 8743TIP3    H126172   2.334   1.339   2.555 -0.0880 -1.0924 -0.8095
 8743TIP3    H226173   2.235   1.424   2.633 -0.2073  0.5679 -2.6920
 8744TIP3   OH226174   1.973   4.151   5.330  0.0119 -0.1891  0.1911
 8744TIP3    H126175   1.978   4.235   5.376 -2.3370  0.0122  0.2082
 8744TIP3    H226176   1.934   4.091   5.394 -0.5004 -0.6862 -0.5669
 8745TIP3   OH226177   7.252   2.456   4.307 -0.2332  0.6187  0.9327
 8745TIP3    H126178   7.255   2.488   4.217 -1.6424 -0.8622  0.3240
 8745TIP3    H226179   7.310   2.515   4.355 -0.9433  2.6254 -0.5521
 8746TIP3   OH226180   3.869   6.094   5.161  0.1192 -0.5900  0.6844
 8746TIP3    H126181   3.793   6.146   5.134  0.7374 -0.4338 -0.9022
 8746TIP3    H226182   3.919   6.083   5.080  1.8355 -0.6179  1.7105
 8747TIP3   OH226183   0.397   4.241   4.642 -0.3316 -0.2702  0.0020
 8747TIP3    H126184   0.425   4.151   4.660 -0.8789 -1.2551 -3.4012
 8747TIP3    H226185   0.475   4.294   4.655  0.9822 -1.7882 -1.4064
 8748TIP3   OH226186   4.457   7.383   1.685  0.2028 -0.2711 -0.2570
 8748TIP3    H126187   4.534   7.420   1.728  0.4259 -0.4134 -0.5316
 8748TIP3    H226188   4.455   7.425   1.599 -0.2402  0.0100 -0.1158
 8749TIP3   OH226189   6.795   1.911   6.358 -0.3530  0.3678  0.0501
 8749TIP3    H126190   6.725   1.867   6.309 -0.0493  1.2001 -1.1837
 8749TIP3    H226191   6.850   1.839   6.391 -1.4658 -0.2674  0.5654
 8750TIP3   OH226192   5.578   3.572   6.169  0.0674 -0.6366  0.1751
 8750TIP3    H126193   5.588   3.646   6.109 -0.4882  0.3716  1.2854
 8750TIP3    H226194   5.485   3.550   6.164  0.1757 -1.0866  0.0702
 8751TIP3   OH226195   0.228   2.921   3.659 -0.1012 -0.5447 -0.1382
 8751TIP3    H126196   0.316   2.958   3.645 -0.8831  0.7770 -1.8873
 8751TIP3    H226197   0.190   2.977   3.726  0.5491 -1.4654  1.0400
 8752TIP3   OH226198   5.396   4.071   4.125 -0.2969 -0.4713 -0.4781
 8752TIP3    H126199   5.381   4.161   4.099  0.0133  0.7383  3.0102
 8752TIP3    H226200   5.338   4.019   4.069 -2.2012  2.1017 -1.0462
 8753TIP3   OH226201   8.173   0.878   6.560  0.2691 -0.0266  0.1693
 8753TIP3    H126202   8.107   0.893   6.627 -0.2827 -0.3010 -0.2989
 8753TIP3    H226203   8.250   0.847   6.607  0.1836  0.6308  0.7580
 8754TIP3   OH226204   6.242   1.537   3.928  0.1158 -0.3738  0.8780
 8754TIP3    H126205   6.274   1.628   3.930 -0.3257 -0.2186  0.9262
 8754TIP3    H226206   6.269   1.505   3.842 -1.9133  0.6153 -0.2119
 8755TIP3   OH226207   3.748   3.333   1.159  0.0301  0.1283 -0.0297
 8755TIP3    H126208   3.729   3.401   1.095  2.2563  1.4970  0.6215
 8755TIP3    H226209   3.717   3.368   1.242  0.2831 -0.0809  0.1569
 8756TIP3   OH226210   6.828   2.212   0.846  0.0241  0.0924  0.2345
 8756TIP3    H126211   6.756   2.219   0.910  0.7709 -0.3425  1.1396
 8756TIP3    H226212   6.872   2.297   0.851  0.2139 -0.0196  0.4537
 8757TIP3   OH226213   7.232   1.098   4.727 -0.2558  0.3186 -0.0456
 8757TIP3    H126214   7.294   1.083   4.798 -0.1830  1.7640  0.2282
 8757TIP3    H226215   7.240   1.021   4.671  1.3795  0.2261  0.2720
 8758TIP3   OH226216   6.513   6.125   1.342 -0.2393 -0.0003  0.2056
 8758TIP3    H126217   6.607   6.107   1.342 -0.8193 -3.6956  0.2372
 8758TIP3    H226218   6.502   6.192   1.275  2.2913 -0.3015 -0.6147
 8759TIP3   OH226219   3.394   3.329   1.211  0.4274 -0.6444 -0.2429
 8759TIP3    H126220   3.300   3.323   1.230  0.8109 -0.2953  2.0421
 8759TIP3    H226221   3.399   3.386   1.134 -1.1516  1.7643  1.2867
 8760TIP3   OH226222   1.142   0.330   5.498 -0.4643 -0.5801  0.3217
 8760TIP3    H126223   1.223   0.343   5.449 -1.0699 -0.5438 -0.7061
 8760TIP3    H226224   1.096   0.414   5.490 -0.0117 -0.1341  2.0566
 8761TIP3   OH226225   6.189   5.765   3.653  0.3338  0.2635  0.0782
 8761TIP3    H126226   6.218   5.854   3.673  2.8146 -0.0772 -1.4314
 8761TIP3    H226227   6.239   5.742   3.574 -1.2786 -1.9712 -0.3738
 8762TIP3   OH226228   3.953   0.829   3.173 -0.7009 -0.4354 -0.0121
 8762TIP3    H126229   3.915   0.807   3.088 -2.1572 -1.1370  0.7885
 8762TIP3    H226230   3.898   0.899   3.207  1.6032  1.9110 -0.8481
 8763TIP3   OH226231   5.716   6.382   3.595 -0.0023 -0.1398 -0.0944
 8763TIP3    H126232   5.793   6.428   3.629  0.3349 -0.5737 -0.2580
 8763TIP3    H226233   5.752   6.305   3.551 -0.5572 -0.5943  0.2264
 8764TIP3   OH226234   0.320   4.527   4.348 -0.2354 -0.9740 -0.0763
 8764TIP3    H126235   0.272   4.605   4.319  0.6530 -0.4018 -0.0557
 8764TIP3    H226236   0.413   4.550   4.336  0.0421 -2.9421 -2.5026
 8765TIP3   OH226237   3.228   4.257   5.019  0.3135  0.3356  0.6507
 8765TIP3    H126238   3.290   4.205   5.070 -1.8030 -1.5837  1.4337
 8765TIP3    H226239   3.150   4.261   5.074 -0.8962  1.0729 -1.0539
 8766TIP3   OH226240   0.953   2.361   5.745  0.2325 -0.1101  0.4695
 8766TIP3    H126241   1.023   2.308   5.785  1.1602 -1.1560 -2.3334
 8766TIP3    H226242   0.975   2.451   5.769  1.4356 -0.5716  1.2142
 8767TIP3   OH226243   5.470   5.064   3.202 -0.3027 -0.1346 -0.2046
 8767TIP3    H126244   5.519   4.983   3.190  0.3669  0.3019 -0.4740
 8767TIP3    H226245   5.508   5.125   3.138 -0.7132  0.4295  0.0749
 8768TIP3   OH226246   4.862   7.752   0.409 -0.4621 -0.3437 -0.5186
 8768TIP3    H126247   4.945   7.708   0.390  0.6614  0.9900  1.0265
 8768TIP3    H226248   4.879   7.845   0.390 -0.9930  0.2189  1.5230
 8769TIP3   OH226249   5.512   6.003   1.869  0.2668  0.1296  0.0741
 8769TIP3    H126250   5.577   5.932   1.869 -0.1952 -0.3212 -1.4707
 8769TIP3    H226251   5.450   5.979   1.800  0.0242  1.9799 -0.3983
 8770TIP3   OH226252   0.856   6.677   6.030 -0.1698 -0.0224  0.0591
 8770TIP3    H126253   0.896   6.663   5.944  0.1447 -2.8689  0.5772
 8770TIP3    H226254   0.762   6.674   6.013 -0.1138 -1.1953 -0.1425
 8771TIP3   OH226255   3.251   0.070   0.329 -0.0099  0.6689  0.0031
 8771TIP3    H126256   3.259   0.097   0.420 -1.9574  2.7635 -0.3629
 8771TIP3    H226257   3.222   0.148   0.282 -1.0098 -0.8211 -2.0674
 8772TIP3   OH226258   3.156   5.158   6.540 -0.3380  1.1179  0.1349
 8772TIP3    H126259   3.179   5.086   6.600  0.7547  2.5450  1.5423
 8772TIP3    H226260   3.233   5.165   6.483  0.9342  2.9816  1.9184
 8773TIP3   OH226261   3.654   5.741   4.844  0.1958  0.0845  0.3763
 8773TIP3    H126262   3.582   5.692   4.805 -0.4949  1.0970  0.3609
 8773TIP3    H226263   3.719   5.674   4.867  0.0816 -0.6527 -1.3358
 8774TIP3   OH226264   3.174   4.825   5.725 -0.8072  0.2834  0.2537
 8774TIP3    H126265   3.111   4.841   5.655 -1.0835 -0.6234  0.2869
 8774TIP3    H226266   3.253   4.872   5.697 -1.3981  1.1887  0.0773
 8775TIP3   OH226267   1.500   1.516   4.496  0.0184  0.2403 -0.2513
 8775TIP3    H126268   1.448   1.597   4.495 -0.8283 -0.2877  0.1027
 8775TIP3    H226269   1.436   1.446   4.484  0.5194 -0.4887  1.0658
 8776TIP3   OH226270   3.697   3.542   3.228  0.4973 -0.1580 -0.0149
 8776TIP3    H126271   3.647   3.603   3.175  0.7488  0.2718  0.2409
 8776TIP3    H226272   3.693   3.459   3.180 -1.8722 -0.6004  0.7834
 8777TIP3   OH226273   5.368   7.707   4.122  0.3151  0.4424 -0.1071
 8777TIP3    H126274   5.349   7.743   4.035  0.0952  0.4277 -0.0656
 8777TIP3    H226275   5.461   7.724   4.135  0.5955 -0.4841 -0.7841
 8778TIP3   OH226276   8.032   3.586   5.582 -0.0260  0.7191  0.0702
 8778TIP3    H126277   7.971   3.631   5.641  0.5515  0.5634  0.7908
 8778TIP3    H226278   7.975   3.548   5.515 -0.8169 -0.1183  1.1817
 8779TIP3   OH226279   6.284   6.184   3.542 -0.2845 -0.2589  0.0609
 8779TIP3    H126280   6.255   6.256   3.484 -0.6704 -0.7488 -0.3668
 8779TIP3    H226281   6.234   6.197   3.623 -0.1077  0.1448  0.1077
 8780TIP3   OH226282   0.737   3.475   6.592 -0.2186  0.0145  0.0523
 8780TIP3    H126283   0.652   3.434   6.576 -0.3404  0.7419 -1.2681
 8780TIP3    H226284   0.726   3.519   6.677 -1.2075  0.2197 -0.1674
 8781TIP3   OH226285   6.278   4.293   3.505 -0.5872  0.0375 -0.3472
 8781TIP3    H126286   6.236   4.233   3.568 -0.7690 -0.4746 -0.9404
 8781TIP3    H226287   6.341   4.238   3.459  1.3708  0.9879  1.0944
 8782TIP3   OH226288   2.032   3.462   5.061 -0.3410  0.1469 -0.1662
 8782TIP3    H126289   2.000   3.417   4.983  0.6725 -1.1019  0.1101
 8782TIP3    H226290   2.118   3.425   5.077 -1.1274 -0.7802  2.4460
 8783TIP3   OH226291   7.468   1.871   4.248  0.4628 -0.3907 -0.3109
 8783TIP3    H126292   7.384   1.835   4.219 -0.0000  1.3808 -1.2579
 8783TIP3    H226293   7.445   1.943   4.306  1.3649 -0.5039  0.2187
 8784TIP3   OH226294   7.797   4.382   1.894  0.7968  0.2804  0.1032
 8784TIP3    H126295   7.776   4.290   1.879  0.6146  0.1125  1.3291
 8784TIP3    H226296   7.874   4.380   1.951  0.3412  0.8826  0.7475
 8785TIP3   OH226297   0.855   6.117   2.597 -0.0375  0.1154  0.4346
 8785TIP3    H126298   0.777   6.094   2.648 -0.1107  0.7435  0.6136
 8785TIP3    H226299   0.838   6.082   2.510 -0.6419  0.4941  0.3984
 8786TIP3   OH226300   0.955   2.549   4.144 -0.1301 -0.7681  0.0873
 8786TIP3    H126301   0.873   2.519   4.183 -1.9772  2.0632 -1.2971
 8786TIP3    H226302   0.944   2.535   4.050  0.4479  0.6991 -0.2333
 8787TIP3   OH226303   0.318   0.804   6.422 -0.2185  0.3888 -0.2752
 8787TIP3    H126304   0.363   0.831   6.342  1.9135  0.1716  0.7764
 8787TIP3    H226305   0.331   0.876   6.483  1.3392 -0.9022  0.9994
 8788TIP3   OH226306   6.436   6.151   3.830  0.2858  1.0041  0.2546
 8788TIP3    H126307   6.395   6.129   3.746  0.0404  1.3287  0.2892
 8788TIP3    H226308   6.366   6.191   3.881  0.3081  0.3923  0.7882
 8789TIP3   OH226309   7.610   3.029   3.431 -0.7231  0.3218  0.2095
 8789TIP3    H126310   7.647   3.013   3.518 -0.0465 -0.5799 -0.2200
 8789TIP3    H226311   7.588   3.122   3.431 -2.1683  0.0126  1.8581
 8790TIP3   OH226312   2.037   6.620   2.817  0.8895  0.6131  0.4345
 8790TIP3    H126313   1.974   6.661   2.876 -0.8062 -1.2767  0.0598
 8790TIP3    H226314   2.091   6.566   2.874  0.6888  0.4981  0.5197
 8791TIP3   OH226315   0.433   5.870   2.019  0.2293  0.4993 -0.1255
 8791TIP3    H126316   0.410   5.777   2.026 -0.8514  0.8550  1.3160
 8791TIP3    H226317   0.376   5.903   1.950  0.0701  0.2798 -0.0996
 8792TIP3   OH226318   1.185   5.308   2.073  0.2385 -0.3622 -0.1128
 8792TIP3    H126319   1.152   5.222   2.099 -0.3389 -0.8836 -2.3619
 8792TIP3    H226320   1.127   5.370   2.117 -0.2521 -1.1491  0.3881
 8793TIP3   OH226321   4.789   6.674   6.511  0.2647 -0.0601 -0.1479
 8793TIP3    H126322   4.854   6.673   6.441  1.0711  0.0582  0.5895
 8793TIP3    H226323   4.713   6.716   6.472  0.1578 -1.3488 -1.4215
 8794TIP3   OH226324   7.057   6.800   2.603 -0.3313 -0.8937  0.1253
 8794TIP3    H126325   7.126   6.750   2.646  1.2604  0.4128 -0.7715
 8794TIP3    H226326   7.026   6.862   2.669 -1.9074 -2.5904  1.0583
 8795TIP3   OH226327   4.906   6.822   2.916 -0.1841 -0.3121 -0.6187
 8795TIP3    H126328   4.947   6.768   2.983 -0.2665  1.3369  0.8300
 8795TIP3    H226329   4.975   6.840   2.853  0.3736 -0.4588 -0.0582
 8796TIP3   OH226330   2.028   2.686   0.371  0.9014  0.3319  0.0709
 8796TIP3    H126331   2.066   2.672   0.457  0.7460 -1.3496 -0.1035
 8796TIP3    H226332   1.937   2.658   0.379  0.1026  2.6870  0.0262
 8797TIP3   OH226333   7.087   1.339   5.417  0.1211 -0.2821  0.2928
 8797TIP3    H126334   7.010   1.341   5.473  0.4903  1.6552  0.8096
 8797TIP3    H226335   7.053   1.316   5.330 -0.8268 -0.7382  0.7672
 8798TIP3   OH226336   6.531   4.733   6.125 -0.7535  0.6018  0.1774
 8798TIP3    H126337   6.618   4.733   6.086 -0.9750 -0.7568 -0.3875
 8798TIP3    H226338   6.528   4.811   6.180  1.6124 -0.4855  1.9983
 8799TIP3   OH226339   3.256   6.825   0.108 -0.2165 -0.4132 -0.1989
 8799TIP3    H126340   3.346   6.826   0.141 -0.6844  1.1896  1.1246
 8799TIP3    H226341   3.245   6.909   0.064 -1.1891 -0.4053  0.0228
 8800TIP3   OH226342   7.399   3.185   2.169  0.6053  0.3089  0.2684
 8800TIP3    H126343   7.419   3.187   2.263 -2.1271 -0.9611  0.9702
 8800TIP3    H226344   7.373   3.095   2.152  2.0588  0.2522 -2.0099
 8801TIP3   OH226345   2.861   2.609   4.232 -0.1760  0.1478  0.1603
 8801TIP3    H126346   2.790   2.601   4.168  0.2297  1.5332 -0.4943
 8801TIP3    H226347   2.860   2.701   4.258  0.9450  0.0322  0.6673
 8802TIP3   OH226348   2.780   0.540   4.671 -0.2029  0.1693 -0.2141
 8802TIP3    H126349   2.777   0.553   4.576 -1.2611  0.9322 -0.0924
 8802TIP3    H226350   2.788   0.445   4.682  1.3593  0.1735 -1.0649
 8803TIP3   OH226351   7.357   7.433   0.719 -0.1065  0.1985 -0.1460
 8803TIP3    H126352   7.448   7.419   0.742 -0.6455 -1.0985  1.3370
 8803TIP3    H226353   7.339   7.369   0.650 -0.2131 -0.3943  0.4268
 8804TIP3   OH226354   5.095   5.724   4.296  0.2602 -0.0945  0.4766
 8804TIP3    H126355   5.136   5.806   4.267  0.1407 -0.0723  0.3662
 8804TIP3    H226356   5.069   5.680   4.214 -0.1636  0.0098  0.5496
 8805TIP3   OH226357   2.716   4.110   0.622 -0.5974 -0.2309 -0.0081
 8805TIP3    H126358   2.623   4.127   0.612 -1.2718 -2.3246  1.8338
 8805TIP3    H226359   2.721   4.041   0.689  2.1345 -2.0938 -1.9063
 8806TIP3   OH226360   4.557   7.656   5.681 -0.2198  0.0719  0.0003
 8806TIP3    H126361   4.618   7.720   5.644  0.8871 -0.5497  0.7169
 8806TIP3    H226362   4.597   7.629   5.763 -0.4056 -1.9466 -0.5259
 8807TIP3   OH226363   1.888   1.671   6.368 -0.4634 -0.1520  0.1525
 8807TIP3    H126364   1.824   1.663   6.438  0.1455 -1.4660  0.5962
 8807TIP3    H226365   1.935   1.587   6.369  1.4480  0.8625  0.0307
 8808TIP3   OH226366   0.276   6.422   1.074 -0.2953 -0.2530  0.3286
 8808TIP3    H126367   0.213   6.482   1.035  0.5664 -0.2869 -1.1649
 8808TIP3    H226368   0.226   6.342   1.091 -0.4175 -0.7523 -2.0522
 8809TIP3   OH226369   2.170  -0.001   5.113 -0.4319 -0.6219  0.0335
 8809TIP3    H126370   2.135   0.066   5.053 -1.6724  0.0783  1.4865
 8809TIP3    H226371   2.151   0.033   5.200 -0.9989 -2.8195  0.8247
 8810TIP3   OH226372   1.939   7.576   4.057 -0.1540 -0.1827 -0.7962
 8810TIP3    H126373   2.034   7.587   4.059 -0.0295 -1.2244  0.2044
 8810TIP3    H226374   1.925   7.502   3.998 -0.2870 -0.4406 -0.4459
 8811TIP3   OH226375   5.970   5.250   4.867  0.1598 -0.0780 -0.0208
 8811TIP3    H126376   5.913   5.173   4.865 -0.6617  0.3711  2.3792
 8811TIP3    H226377   6.046   5.222   4.918  1.2586 -0.0981 -1.5867
 8812TIP3   OH226378   7.003   6.190   4.162  0.4713  0.2106 -0.1228
 8812TIP3    H126379   6.918   6.220   4.129  0.0638 -1.1346 -0.3564
 8812TIP3    H226380   7.046   6.150   4.086  1.0132  0.2395  0.1631
 8813TIP3   OH226381   3.304   5.659   2.747 -0.0967 -0.0346  0.1401
 8813TIP3    H126382   3.275   5.580   2.701  0.3751 -0.5437  0.6992
 8813TIP3    H226383   3.383   5.686   2.700  0.0930 -0.2584  0.3258
 8814TIP3   OH226384   4.244   6.070   1.685 -0.3049  0.2251 -0.0986
 8814TIP3    H126385   4.306   6.030   1.624 -0.6799  0.0843 -0.3982
 8814TIP3    H226386   4.231   6.159   1.652 -0.0326  0.3524  0.1384
 8815TIP3   OH226387   2.040   4.425   4.661  0.2627  0.1737  0.1361
 8815TIP3    H126388   2.064   4.451   4.572 -0.5770  0.3459 -0.0483
 8815TIP3    H226389   1.982   4.350   4.649 -2.1087  1.8468  0.3573
 8816TIP3   OH226390   6.786   2.480   4.359 -0.4537 -0.1272 -0.3090
 8816TIP3    H126391   6.819   2.513   4.276 -0.9038  1.5361  0.1306
 8816TIP3    H226392   6.863   2.474   4.415 -0.2535 -0.5631 -0.6326
 8817TIP3   OH226393   7.939   6.487   5.029  0.0311  0.5615 -0.5575
 8817TIP3    H126394   8.027   6.454   5.015 -0.0027  0.7273 -1.1859
 8817TIP3    H226395   7.883   6.428   4.978 -0.5999 -1.4865  2.2553
 8818TIP3   OH226396   7.333   7.084   0.147  0.4178  0.2614  0.7618
 8818TIP3    H126397   7.280   7.051   0.220 -0.1805  0.9068  0.6261
 8818TIP3    H226398   7.334   7.179   0.159  3.6705  0.1712  2.1997
 8819TIP3   OH226399   5.851   4.523   6.714 -0.2160 -0.6050  0.1049
 8819TIP3    H126400   5.793   4.584   6.760  1.3182 -0.5504  2.1060
 8819TIP3    H226401   5.929   4.574   6.694 -0.4625 -0.9058 -1.7889
 8820TIP3   OH226402   6.805   4.112   1.623  0.7250 -0.3780 -0.1638
 8820TIP3    H126403   6.717   4.080   1.638  0.7736  0.9009  3.8720
 8820TIP3    H226404   6.862   4.051   1.670  1.4996  1.2163  1.0819
 8821TIP3   OH226405   7.277   6.647   3.436  0.2419 -0.1078 -0.3442
 8821TIP3    H126406   7.301   6.739   3.432 -0.5197  0.2444  1.8622
 8821TIP3    H226407   7.255   6.632   3.528 -0.3032 -2.3308 -0.7822
 8822TIP3   OH226408   0.805   4.727   5.895  0.0772 -0.6413  0.1038
 8822TIP3    H126409   0.838   4.667   5.829  0.7336 -0.7001  0.4736
 8822TIP3    H226410   0.710   4.726   5.884  0.2040 -0.3066 -1.1275
 8823TIP3   OH226411   7.747   0.636   3.424  0.1488 -0.6915 -0.0635
 8823TIP3    H126412   7.777   0.549   3.450  2.3841  0.4832  1.7626
 8823TIP3    H226413   7.822   0.693   3.443 -1.4380  1.7270 -0.6141
 8824TIP3   OH226414   6.671   4.641   3.714 -0.0732  0.2432 -0.8532
 8824TIP3    H126415   6.611   4.713   3.695  0.7345  0.9605 -0.7369
 8824TIP3    H226416   6.635   4.600   3.792  0.5870  1.8561  0.3677
 8825TIP3   OH226417   1.887   4.887   2.426 -0.5388 -0.7978 -0.4272
 8825TIP3    H126418   1.968   4.838   2.413 -0.5932 -2.0621  3.0042
 8825TIP3    H226419   1.912   4.964   2.477 -1.3945 -0.7626 -0.0389
 8826TIP3   OH226420   8.111   7.312   4.902  0.6705  0.5296  0.2695
 8826TIP3    H126421   8.023   7.292   4.934 -0.3485  3.2524 -0.5447
 8826TIP3    H226422   8.159   7.338   4.981  0.9557 -1.4285  0.7893
 8827TIP3   OH226423   3.486   5.050   5.807 -0.0791 -0.4215 -0.1045
 8827TIP3    H126424   3.401   5.090   5.822  0.3835  0.7478 -0.4726
 8827TIP3    H226425   3.502   4.997   5.885 -0.6521  0.2355  0.4789
 8828TIP3   OH226426   2.079   6.815   3.574 -0.0486  0.6392 -0.0606
 8828TIP3    H126427   2.172   6.837   3.580  0.3170 -0.7381 -0.3654
 8828TIP3    H226428   2.073   6.724   3.603 -1.2670  0.6159 -0.3054
 8829TIP3   OH226429   4.766   7.527   1.547  0.2706  0.4746  0.0522
 8829TIP3    H126430   4.729   7.582   1.478  1.3484  1.6766  0.4113
 8829TIP3    H226431   4.800   7.450   1.500 -2.9676 -0.9449 -0.2611
 8830TIP3   OH226432   8.113   1.532   6.264 -0.1434  0.7608 -0.3476
 8830TIP3    H126433   8.199   1.503   6.294 -0.7156 -1.7354 -0.8658
 8830TIP3    H226434   8.124   1.547   6.170 -0.4165 -0.4361 -0.5963
 8831TIP3   OH226435   3.900   5.118   4.436 -0.1536  0.0476  0.1170
 8831TIP3    H126436   3.837   5.116   4.365 -0.2809 -2.0041  0.2220
 8831TIP3    H226437   3.978   5.076   4.400  0.5448  0.9519  0.5372
 8832TIP3   OH226438   2.608   7.514   6.174 -0.2667  0.0420  0.0410
 8832TIP3    H126439   2.514   7.518   6.186 -0.0908  1.0921  1.2318
 8832TIP3    H226440   2.637   7.605   6.175  0.8120 -0.2837  0.1214
 8833TIP3   OH226441   1.313   4.242   5.936 -0.5092 -0.1735 -0.0423
 8833TIP3    H126442   1.384   4.232   5.999 -0.0600  1.0427 -0.3259
 8833TIP3    H226443   1.275   4.155   5.929  1.9129 -1.2372 -1.0326
 8834TIP3   OH226444   2.223   4.044   5.228 -0.4783  0.4999 -0.3043
 8834TIP3    H126445   2.141   4.077   5.265 -0.6485  0.0250 -0.2505
 8834TIP3    H226446   2.280   4.030   5.304 -0.5250  0.3526 -0.2952
 8835TIP3   OH226447   0.103   0.216   0.428 -0.0726 -0.1302  0.3292
 8835TIP3    H126448   0.141   0.161   0.360 -2.5064 -2.2909  0.5524
 8835TIP3    H226449   0.177   0.236   0.486  1.4336 -0.8398 -1.2458
 8836TIP3   OH226450   7.887   4.728   3.968  0.0660  0.5120  0.0738
 8836TIP3    H126451   7.898   4.822   3.981  0.6777  0.6320 -1.1380
 8836TIP3    H226452   7.815   4.721   3.905 -0.2588  0.1496  0.4850
 8837TIP3   OH226453   4.864   7.369   0.545  0.4025  0.1280  0.0650
 8837TIP3    H126454   4.805   7.429   0.499  1.1145 -0.0109 -1.0683
 8837TIP3    H226455   4.896   7.310   0.476  0.5759 -0.8542  0.9606
 8838TIP3   OH226456   6.631   7.434   4.465  0.2600  0.1675  0.8597
 8838TIP3    H126457   6.590   7.460   4.382  1.6700  0.1230  0.1098
 8838TIP3    H226458   6.558   7.420   4.525 -0.8426 -0.4742 -0.5717
 8839TIP3   OH226459   0.585   2.994   5.718 -0.1415 -0.4451  0.3949
 8839TIP3    H126460   0.546   3.037   5.641  0.7440 -1.8386 -0.9007
 8839TIP3    H226461   0.623   3.066   5.769 -0.6956  0.5159 -0.5063
 8840TIP3   OH226462   2.227   2.281   5.385  0.2033 -0.0179  0.4344
 8840TIP3    H126463   2.322   2.292   5.395  0.6436 -1.8488 -1.1169
 8840TIP3    H226464   2.209   2.312   5.297 -0.7642  0.7976  0.9022
 8841TIP3   OH226465   2.404   5.308   5.117  0.0770  0.1165  0.0061
 8841TIP3    H126466   2.433   5.338   5.203 -1.1022 -2.4256  1.3866
 8841TIP3    H226467   2.461   5.234   5.097 -0.5254 -0.1427 -0.7876
 8842TIP3   OH226468   4.529   0.729   3.388 -0.2513 -0.3181  0.1050
 8842TIP3    H126469   4.475   0.658   3.355 -0.1995 -0.0330 -0.6152
 8842TIP3    H226470   4.468   0.801   3.403 -0.1089 -0.0725 -0.4825
 8843TIP3   OH226471   5.628   4.914   0.869 -0.5575 -0.6332  0.2744
 8843TIP3    H126472   5.681   4.866   0.932  0.0693 -1.0098 -0.5236
 8843TIP3    H226473   5.538   4.906   0.902 -0.0749  0.7463  2.1179
 8844TIP3   OH226474   5.267   5.964   0.761  0.2234 -0.0701  0.0020
 8844TIP3    H126475   5.262   6.006   0.847 -2.0513  0.4368 -0.3122
 8844TIP3    H226476   5.344   6.003   0.720  0.8838  0.2756  1.4863
 8845TIP3   OH226477   2.419   3.857   4.377 -0.1362 -0.3296 -1.1231
 8845TIP3    H126478   2.328   3.887   4.375  0.4252  1.4443 -2.2703
 8845TIP3    H226479   2.460   3.909   4.447  0.7834  1.5057 -2.9383
 8846TIP3   OH226480   6.340   7.715   2.270  0.2974  0.1187 -0.3646
 8846TIP3    H126481   6.431   7.717   2.298  0.4371  0.7219 -0.8536
 8846TIP3    H226482   6.344   7.696   2.176  0.0131  1.7597 -0.7444
 8847TIP3   OH226483   7.284   1.651   2.037 -0.6587  0.6571  0.0780
 8847TIP3    H126484   7.231   1.719   2.079 -1.7954 -0.4065  0.4085
 8847TIP3    H226485   7.249   1.568   2.071 -0.0568 -0.1474 -1.1929
 8848TIP3   OH226486   1.925   3.495   2.583 -0.1146  0.1929 -0.1795
 8848TIP3    H126487   1.924   3.585   2.614  0.6714  0.4516 -0.8747
 8848TIP3    H226488   1.997   3.453   2.629  0.4299  0.3140 -0.9037
 8849TIP3   OH226489   7.173   4.242   0.794 -0.2933 -0.0416 -0.3516
 8849TIP3    H126490   7.222   4.318   0.825 -1.4000  0.4069  0.3832
 8849TIP3    H226491   7.118   4.217   0.868 -1.1200 -0.5554 -1.1146
 8850TIP3   OH226492   0.910   4.248   5.965 -0.1919 -0.3338 -0.2744
 8850TIP3    H126493   0.908   4.161   6.004 -1.0828 -0.0826  0.2575
 8850TIP3    H226494   0.851   4.242   5.890  0.4260 -0.4206 -0.7665
 8851TIP3   OH226495   7.168   7.665   3.946  0.3290 -0.4913  0.1576
 8851TIP3    H126496   7.187   7.756   3.926 -0.1498 -0.1033  1.3581
 8851TIP3    H226497   7.251   7.619   3.932  0.7886  0.2709  0.3574
 8852TIP3   OH226498   2.610   3.705   3.943  0.5504 -0.3383  0.6615
 8852TIP3    H126499   2.546   3.709   3.872  0.1286  1.9311  1.0761
 8852TIP3    H226500   2.672   3.775   3.923  1.7372 -1.1463  1.3740
 8853TIP3   OH226501   6.237   0.669   1.865 -0.1855 -0.1048  0.0967
 8853TIP3    H126502   6.196   0.752   1.890 -1.5910 -0.9767  0.8098
 8853TIP3    H226503   6.314   0.662   1.921 -1.8728 -0.8003  2.5100
 8854TIP3   OH226504   3.651   6.703   4.188 -0.0887 -0.0742 -0.2496
 8854TIP3    H126505   3.703   6.665   4.259  0.6558  1.2930 -0.0206
 8854TIP3    H226506   3.701   6.683   4.109  1.4037  2.0908  0.0605
 8855TIP3   OH226507   6.890   3.248   3.733  0.1479  0.4065 -0.1464
 8855TIP3    H126508   6.894   3.157   3.761  0.2103  0.7599  1.0480
 8855TIP3    H226509   6.892   3.244   3.638  1.4418 -0.7796 -0.1016
 8856TIP3   OH226510   3.364   5.315   5.294 -0.3144  0.7290  0.6373
 8856TIP3    H126511   3.319   5.271   5.221 -1.6295 -3.6298  3.6287
 8856TIP3    H226512   3.451   5.276   5.295 -0.6363  0.0025  1.8936
 8857TIP3   OH226513   0.159   0.841   2.460  0.2482  0.1772 -0.0498
 8857TIP3    H126514   0.154   0.767   2.520 -1.6326 -0.2476 -0.6464
 8857TIP3    H226515   0.143   0.803   2.374 -2.2651  1.3869 -0.2209
 8858TIP3   OH226516   4.523   4.420   4.710  0.6306 -0.0189  0.0391
 8858TIP3    H126517   4.602   4.460   4.744  0.4325  2.4267 -2.0880
 8858TIP3    H226518   4.541   4.407   4.617 -0.9800 -0.7386 -0.2038
 8859TIP3   OH226519   0.226   5.453   2.365  0.4975  0.0707 -0.1740
 8859TIP3    H126520   0.212   5.533   2.314 -0.1463  0.7590  1.0614
 8859TIP3    H226521   0.303   5.413   2.324  1.7680  2.0782  0.0818
 8860TIP3   OH226522   3.528   0.449   5.481  0.3090  0.4967  0.0510
 8860TIP3    H126523   3.488   0.495   5.554 -0.3287 -0.4068  0.2846
 8860TIP3    H226524   3.513   0.505   5.406  0.4855  1.1701  0.5085
 8861TIP3   OH226525   7.270   6.507   2.217  0.3521 -0.3220  0.6357
 8861TIP3    H126526   7.212   6.475   2.149 -0.6051  1.6542  0.4478
 8861TIP3    H226527   7.339   6.441   2.223 -0.2270 -1.1744 -1.3295
 8862TIP3   OH226528   2.344   0.507   4.165  0.6234  0.1989 -0.6031
 8862TIP3    H126529   2.324   0.416   4.146  0.9494 -0.1495  0.6444
 8862TIP3    H226530   2.263   0.554   4.145  0.2781 -0.4381 -0.7207
 8863TIP3   OH226531   4.147   4.097   1.032  0.2635  0.3385  0.5280
 8863TIP3    H126532   4.221   4.035   1.035 -1.3414 -1.8447 -1.4785
 8863TIP3    H226533   4.142   4.132   1.122  1.2586 -2.4657  1.8022
 8864TIP3   OH226534   2.670   0.161   5.241  0.0839 -0.1808 -0.3359
 8864TIP3    H126535   2.601   0.098   5.223  1.0903 -1.3071 -0.3680
 8864TIP3    H226536   2.742   0.136   5.183  0.5043  1.0339 -0.3842
 8865TIP3   OH226537   3.033   6.327   5.679  0.3530 -0.2811  0.4205
 8865TIP3    H126538   3.037   6.250   5.622  0.3570  1.2629 -1.7880
 8865TIP3    H226539   3.041   6.292   5.768 -2.5974 -3.1193 -0.2551
 8866TIP3   OH226540   4.897   4.659   4.096 -0.3516  0.3532 -0.2881
 8866TIP3    H126541   4.991   4.676   4.098 -0.1673 -0.6702  0.3194
 8866TIP3    H226542   4.860   4.733   4.048  0.8209  0.4779 -1.0227
 8867TIP3   OH226543   3.437   5.308   1.177  0.4685  0.4371  0.3944
 8867TIP3    H126544   3.421   5.259   1.258  4.0655  0.2352  1.1357
 8867TIP3    H226545   3.468   5.393   1.206  1.0796  0.6394 -0.8038
 8868TIP3   OH226546   5.740   5.532   1.675 -0.3870  0.1069 -0.1931
 8868TIP3    H126547   5.680   5.587   1.625 -1.8725  0.4866  1.8660
 8868TIP3    H226548   5.683   5.471   1.722  1.1220 -2.2956 -1.2679
 8869TIP3   OH226549   0.697   6.843   4.261 -0.2458  0.2775 -0.3081
 8869TIP3    H126550   0.783   6.805   4.282  0.1050  0.8001 -0.7740
 8869TIP3    H226551   0.679   6.813   4.172 -0.4555  0.3352 -0.2845
 8870TIP3   OH226552   5.018   3.612   3.600 -0.1073  0.0453 -0.1872
 8870TIP3    H126553   5.075   3.564   3.660 -0.1431  1.4008  0.9701
 8870TIP3    H226554   4.994   3.692   3.647 -1.3108  0.4764 -1.4520
 8871TIP3   OH226555   4.130   7.781   4.079 -0.2317 -0.2783 -0.4122
 8871TIP3    H126556   4.079   7.814   4.153 -1.4436 -0.2956 -1.2171
 8871TIP3    H226557   4.221   7.801   4.102 -0.4279 -1.3741  1.6489
 8872TIP3   OH226558   1.226   4.288   5.458 -0.3731 -0.2019  0.2464
 8872TIP3    H126559   1.302   4.343   5.441  0.1182 -0.7904  0.5186
 8872TIP3    H226560   1.174   4.338   5.521  0.4466 -0.3791  1.0748
 8873TIP3   OH226561   0.963   0.123   0.461  0.1997  0.5608  0.7254
 8873TIP3    H126562   0.885   0.175   0.443  0.8424  1.9097  1.6390
 8873TIP3    H226563   1.034   0.168   0.414  0.4044 -0.8181 -0.3468
 8874TIP3   OH226564   1.279   4.408   2.483 -0.2690  0.0836  0.3075
 8874TIP3    H126565   1.359   4.424   2.432  1.1751  2.6433  3.0506
 8874TIP3    H226566   1.258   4.493   2.521 -1.6885 -1.4399  3.2546
 8875TIP3   OH226567   6.594   3.954   2.766  0.1811 -0.2884 -0.2798
 8875TIP3    H126568   6.661   3.985   2.705 -0.1987  1.9556  0.3712
 8875TIP3    H226569   6.644   3.913   2.836  0.7715 -0.2999 -0.6930
 8876TIP3   OH226570   7.382   1.807   2.814  0.2837 -0.5352  0.2211
 8876TIP3    H126571   7.308   1.758   2.851  0.3574 -0.5521  0.3459
 8876TIP3    H226572   7.342   1.862   2.746 -0.0026  0.2437  1.0043
 8877TIP3   OH226573   6.644   6.218   6.216  0.6322  0.7353 -0.0659
 8877TIP3    H126574   6.552   6.241   6.235  0.4317 -1.2373  1.6282
 8877TIP3    H226575   6.695   6.273   6.276  0.3422 -0.5812  1.4368
 8878TIP3   OH226576   5.844   7.186   3.975  0.3380 -0.1602  0.0979
 8878TIP3    H126577   5.909   7.247   4.010 -0.1017  0.0003  0.6497
 8878TIP3    H226578   5.814   7.228   3.894  0.9823 -0.2797 -0.2088
 8879TIP3   OH226579   2.256   1.108   6.668  0.1191  0.2976 -0.1722
 8879TIP3    H126580   2.267   1.080   6.577  0.4286  1.1816 -0.4135
 8879TIP3    H226581   2.235   1.027   6.715  0.3668 -0.2369 -0.9559
 8880TIP3   OH226582   5.070   2.462   1.413  0.2999 -0.0306  0.1772
 8880TIP3    H126583   5.126   2.511   1.353  0.3606  2.4744  2.0782
 8880TIP3    H226584   5.130   2.408   1.464  0.7631  1.0160  0.7662
 8881TIP3   OH226585   3.849   2.509   4.286 -0.0264 -0.0467 -0.1708
 8881TIP3    H126586   3.854   2.577   4.353  0.0952  0.7777 -1.0007
 8881TIP3    H226587   3.928   2.522   4.233 -0.1519 -0.6481 -0.5186
 8882TIP3   OH226588   2.780   6.171   5.842  0.3707 -0.0352 -0.7600
 8882TIP3    H126589   2.813   6.100   5.786  0.9737 -1.1249  0.9089
 8882TIP3    H226590   2.761   6.129   5.925  0.1355  1.6684  0.0853
 8883TIP3   OH226591   2.261   0.712   2.062  0.6730  0.0929  0.6209
 8883TIP3    H126592   2.309   0.695   2.143  1.7402 -0.9059 -0.1830
 8883TIP3    H226593   2.307   0.659   1.996 -1.1074 -0.3182 -0.3354
 8884TIP3   OH226594   5.769   4.768   1.058  0.5700  0.0889  0.1735
 8884TIP3    H126595   5.728   4.689   1.092 -0.9843  0.9444  0.3648
 8884TIP3    H226596   5.863   4.749   1.060  0.3928 -0.8642  2.4627
 8885TIP3   OH226597   6.873   7.493   6.216 -0.8914  0.4605 -0.1267
 8885TIP3    H126598   6.815   7.420   6.195  1.5812 -1.8666  0.5149
 8885TIP3    H226599   6.891   7.534   6.131 -1.1821 -0.6186 -0.7310
 8886TIP3   OH226600   4.306   0.720   5.632  0.2155  0.5743  0.0866
 8886TIP3    H126601   4.327   0.784   5.701  0.9417  2.1861 -1.5483
 8886TIP3    H226602   4.279   0.773   5.557  0.0737 -1.0862 -1.0972
 8887TIP3   OH226603   3.128   1.531   2.981 -0.3609 -0.2596 -0.3079
 8887TIP3    H126604   3.202   1.577   3.020 -0.7927 -0.2170  0.4871
 8887TIP3    H226605   3.058   1.541   3.045 -1.0077 -0.4346 -0.9812
 8888TIP3   OH226606   0.556   0.700   2.749  0.2988 -0.1490  0.0207
 8888TIP3    H126607   0.502   0.776   2.769 -0.7467 -0.7623 -0.3678
 8888TIP3    H226608   0.589   0.671   2.834 -1.1986 -0.6253  0.4842
 8889TIP3   OH226609   4.208   1.748   5.986  0.3828  0.1619 -0.4864
 8889TIP3    H126610   4.149   1.724   5.915  0.3199 -0.1064 -0.3455
 8889TIP3    H226611   4.211   1.844   5.984 -0.5274  0.2035 -0.1098
 8890TIP3   OH226612   2.754   2.900   3.549 -0.1120 -0.2457 -0.1733
 8890TIP3    H126613   2.712   2.877   3.632  0.6759 -1.6402 -0.1319
 8890TIP3    H226614   2.681   2.910   3.488 -0.6366 -0.4529  0.4011
 8891TIP3   OH226615   0.263   5.314   4.878 -0.3802 -0.0574  0.1989
 8891TIP3    H126616   0.264   5.253   4.952  0.7284  1.7244  1.7634
 8891TIP3    H226617   0.230   5.396   4.916 -0.0083  0.8476 -1.3475
 8892TIP3   OH226618   4.052   4.296   6.626  0.0061 -0.3195 -0.1585
 8892TIP3    H126619   4.035   4.390   6.617  0.6920 -0.2388 -0.6956
 8892TIP3    H226620   4.146   4.287   6.611 -0.2558 -1.2468 -1.4409
 8893TIP3   OH226621   2.744   6.928   2.194 -0.1290 -0.1347 -0.5397
 8893TIP3    H126622   2.733   6.905   2.287  1.5905 -1.4085 -0.5943
 8893TIP3    H226623   2.656   6.948   2.163 -0.7731  0.0311  1.2925
 8894TIP3   OH226624   3.198   5.016   1.937  0.3356  0.2092  0.7148
 8894TIP3    H126625   3.246   4.942   1.975  1.5922  1.2819  1.3077
 8894TIP3    H226626   3.152   5.056   2.011 -1.4187 -0.7371  0.1656
 8895TIP3   OH226627   0.606   4.649   6.552 -0.2183 -0.1693 -0.3978
 8895TIP3    H126628   0.545   4.575   6.555  1.6182 -1.7467  0.4744
 8895TIP3    H226629   0.670   4.625   6.485 -0.1187  1.0805 -0.7632
 8896TIP3   OH226630   3.813   2.256   3.862 -0.2121  0.1468 -0.4365
 8896TIP3    H126631   3.864   2.316   3.808  0.6280 -2.4806 -2.7912
 8896TIP3    H226632   3.729   2.247   3.817 -0.5692 -0.0043  0.2339
 8897TIP3   OH226633   1.434   4.368   1.682  0.0860  0.1985 -0.0128
 8897TIP3    H126634   1.476   4.295   1.636  0.0191  0.5839 -0.6968
 8897TIP3    H226635   1.343   4.341   1.692  0.6848 -1.1627  2.5377
 8898TIP3   OH226636   1.240   3.008   4.773 -0.1301 -0.1223  0.4425
 8898TIP3    H126637   1.323   3.028   4.730  0.8348 -1.3651  1.6070
 8898TIP3    H226638   1.257   3.026   4.866 -0.6599 -1.7419  0.8959
 8899TIP3   OH226639   7.556   0.378   5.138 -0.1573  0.2492  0.0065
 8899TIP3    H126640   7.546   0.382   5.233 -1.4509  1.4793 -0.1472
 8899TIP3    H226641   7.477   0.420   5.104  0.4360  0.1224 -1.6088
 8900TIP3   OH226642   2.325   6.698   4.800  0.3624 -0.1234 -0.1883
 8900TIP3    H126643   2.403   6.676   4.850 -2.2602 -2.5241  3.4432
 8900TIP3    H226644   2.283   6.613   4.783 -1.5466  1.0530 -1.7880
 8901TIP3   OH226645   7.766   0.293   3.139 -0.4728  0.5823 -0.6089
 8901TIP3    H126646   7.821   0.370   3.155 -0.7450  0.5718  0.4411
 8901TIP3    H226647   7.828   0.223   3.117 -0.0463  0.5651  0.5933
 8902TIP3   OH226648   2.829   3.820   4.826 -0.2770 -0.0268 -0.2638
 8902TIP3    H126649   2.914   3.846   4.863 -0.5541 -1.3534  1.4176
 8902TIP3    H226650   2.833   3.725   4.822 -1.6373 -0.0989 -0.3182
 8903TIP3   OH226651   1.926   5.363   6.490 -0.2302  0.1270 -0.6262
 8903TIP3    H126652   1.959   5.451   6.510 -1.6119  0.6173 -0.4275
 8903TIP3    H226653   1.880   5.374   6.406 -0.6091 -0.3530 -0.4830
 8904TIP3   OH226654   6.212   3.172   5.426 -0.2458  0.1048 -0.2907
 8904TIP3    H126655   6.178   3.220   5.502 -0.8772  2.0351 -1.7027
 8904TIP3    H226656   6.276   3.232   5.387  0.4548 -1.0714 -0.9913
 8905TIP3   OH226657   5.678   6.019   3.820  0.0470  0.2605  0.3738
 8905TIP3    H126658   5.618   6.088   3.793 -0.9488 -0.3115  1.0606
 8905TIP3    H226659   5.689   6.032   3.914 -0.3271 -0.6492  0.5518
 8906TIP3   OH226660   8.162   3.567   6.042  1.4802  0.2228  0.2991
 8906TIP3    H126661   8.182   3.526   5.958  0.2726 -1.2655  0.6889
 8906TIP3    H226662   8.208   3.513   6.107 -1.3822 -1.6224  0.9609
 8907TIP3   OH226663   5.149   1.771   1.513 -0.2252 -0.3069 -0.4904
 8907TIP3    H126664   5.172   1.682   1.483  1.2341  0.2659 -1.1595
 8907TIP3    H226665   5.148   1.764   1.608  1.9778 -0.6043 -0.4298
 8908TIP3   OH226666   1.881   2.037   2.577 -0.3326  0.3448 -0.5180
 8908TIP3    H126667   1.959   1.987   2.551  0.5773  1.3528  0.1881
 8908TIP3    H226668   1.850   2.076   2.496  1.0081  1.4325 -0.5400
 8909TIP3   OH226669   4.630   7.190   6.567  0.2933  0.2178  0.2885
 8909TIP3    H126670   4.636   7.282   6.591 -2.3868  1.1587 -2.0953
 8909TIP3    H226671   4.546   7.161   6.604 -0.5967 -0.1805 -1.8846
 8910TIP3   OH226672   6.030   0.120   5.217 -0.0761  0.2274  0.1494
 8910TIP3    H126673   6.030   0.035   5.173  1.3231  0.6766 -0.7494
 8910TIP3    H226674   6.046   0.184   5.148  1.5333  0.9954  1.1822
 8911TIP3   OH226675   7.463   0.525   3.449  0.1308 -0.0417  0.2366
 8911TIP3    H126676   7.549   0.566   3.442  1.2610 -1.8192  2.3324
 8911TIP3    H226677   7.474   0.438   3.410 -0.8827 -0.0967  0.0313
 8912TIP3   OH226678   4.377   3.037   3.122  0.0964 -0.1798 -0.4046
 8912TIP3    H126679   4.394   3.038   3.216  0.5829 -1.9273 -0.4383
 8912TIP3    H226680   4.400   3.125   3.092  1.4909 -0.0785  0.8675
 8913TIP3   OH226681   5.644   2.670   6.200  0.4033 -0.2887 -0.5919
 8913TIP3    H126682   5.653   2.763   6.218  0.7088 -0.3278 -0.5461
 8913TIP3    H226683   5.622   2.630   6.284 -1.8713  0.0121 -0.9600
 8914TIP3   OH226684   0.405   4.340   2.263  0.6602  0.1671  0.3094
 8914TIP3    H126685   0.401   4.407   2.331  0.7630  0.5686 -0.0813
 8914TIP3    H226686   0.498   4.319   2.256  0.5063 -1.1755  1.5472
 8915TIP3   OH226687   5.247   1.905   0.992  0.1144 -0.0957  0.4834
 8915TIP3    H126688   5.258   1.959   0.913  1.5454  0.6129  1.1219
 8915TIP3    H226689   5.298   1.826   0.974  1.5883  0.6508  1.1764
 8916TIP3   OH226690   0.957   6.833   0.768  0.6259  0.5164  0.1077
 8916TIP3    H126691   0.920   6.748   0.745  1.6134  0.3887 -1.0846
 8916TIP3    H226692   1.045   6.814   0.801  1.0384  1.0945 -0.6230
 8917TIP3   OH226693   4.957   7.592   6.213 -0.2243  0.0281  0.1712
 8917TIP3    H126694   4.971   7.610   6.306  1.4668  0.2530 -0.0996
 8917TIP3    H226695   4.905   7.512   6.212  0.8641 -0.7420  1.3298
 8918TIP3   OH226696   7.944   5.275   3.513 -0.2913 -0.2890  0.1445
 8918TIP3    H126697   7.896   5.260   3.431 -3.6188  0.5600  1.7724
 8918TIP3    H226698   7.946   5.190   3.556 -2.9378  0.1466  1.2786
 8919TIP3   OH226699   6.150   1.340   2.660  0.4561 -0.2080  0.6012
 8919TIP3    H126700   6.222   1.383   2.707  0.5365 -0.5066  0.7551
 8919TIP3    H226701   6.079   1.334   2.725 -0.0259  0.8693  0.2021
 8920TIP3   OH226702   2.487   1.359   2.422  0.5951  0.4939 -0.4527
 8920TIP3    H126703   2.514   1.268   2.411 -0.2677  0.0313  0.9152
 8920TIP3    H226704   2.562   1.402   2.462 -0.1354 -0.5049  2.2491
 8921TIP3   OH226705   1.706   0.640   4.367  0.0757 -0.3458 -0.0833
 8921TIP3    H126706   1.687   0.730   4.394  1.4747 -0.0562  0.0081
 8921TIP3    H226707   1.629   0.613   4.317 -0.0080  1.2037 -0.8429
 8922TIP3   OH226708   4.864   4.157   0.508  0.0837  0.7865 -0.5599
 8922TIP3    H126709   4.921   4.217   0.556 -1.3474  2.9238 -1.4066
 8922TIP3    H226710   4.785   4.150   0.563  0.2562 -0.4294 -0.4334
 8923TIP3   OH226711   5.807   5.974   4.067 -0.9541 -0.1266  0.2584
 8923TIP3    H126712   5.893   5.933   4.079  0.0729  1.8923  0.1215
 8923TIP3    H226713   5.779   5.995   4.156 -1.1254 -0.4173  0.2737
 8924TIP3   OH226714   1.325   2.743   4.109 -0.5129 -0.0835  0.5944
 8924TIP3    H126715   1.367   2.828   4.117 -0.1041 -0.3442  1.3162
 8924TIP3    H226716   1.237   2.756   4.145 -0.3207 -0.0528  1.0619
 8925TIP3   OH226717   1.303   0.552   2.904 -0.5149 -0.4950  1.0734
 8925TIP3    H126718   1.245   0.564   2.829  0.0055  0.8767  0.8686
 8925TIP3    H226719   1.244   0.554   2.980 -0.8523 -0.0656  0.8061
 8926TIP3   OH226720   1.443   4.245   6.191  0.3720 -0.1123 -0.2601
 8926TIP3    H126721   1.481   4.174   6.244 -0.9149  0.2137  1.1686
 8926TIP3    H226722   1.399   4.301   6.254 -2.1260 -0.2497 -1.7437
 8927TIP3   OH226723   0.168   1.417   2.962  0.0147 -0.5510  0.1507
 8927TIP3    H126724   0.128   1.424   2.876 -0.4371  2.6879  0.4788
 8927TIP3    H226725   0.246   1.473   2.957  0.8268 -1.4999  1.4300
 8928TIP3   OH226726   5.731   7.128   2.365 -0.3783  0.1453 -0.5621
 8928TIP3    H126727   5.743   7.038   2.334  0.1922 -0.5107  1.4587
 8928TIP3    H226728   5.637   7.137   2.378 -0.7267  0.6306 -2.8636
 8929TIP3   OH226729   1.888   3.315   4.882  0.6757 -0.9253 -0.0394
 8929TIP3    H126730   1.919   3.266   4.806  0.5027  0.2333 -0.8999
 8929TIP3    H226731   1.852   3.249   4.941 -0.3655 -1.7604 -1.5499
 8930TIP3   OH226732   0.392   5.835   4.912 -0.7687  0.1922  0.6151
 8930TIP3    H126733   0.301   5.863   4.900 -0.7174  0.9725  1.8245
 8930TIP3    H226734   0.440   5.881   4.842 -1.2250  0.1841  0.2883
 8931TIP3   OH226735   0.731   2.349   3.076 -0.3937  0.2477 -0.1832
 8931TIP3    H126736   0.638   2.341   3.097 -0.7394 -0.0305 -1.7331
 8931TIP3    H226737   0.756   2.263   3.044 -0.2682  1.0137 -2.2507
 8932TIP3   OH226738   4.020   6.257   0.520 -0.3996  0.3157 -0.8747
 8932TIP3    H126739   4.027   6.178   0.466 -1.4183 -0.1494 -0.3781
 8932TIP3    H226740   4.043   6.329   0.462  0.3417 -0.3269 -1.4006
 8933TIP3   OH226741   4.177   2.440   2.779  0.3353 -0.1576  0.3201
 8933TIP3    H126742   4.263   2.481   2.784  0.7247 -1.0715  2.3549
 8933TIP3    H226743   4.195   2.348   2.760 -0.0951 -0.5199  1.5362
 8934TIP3   OH226744   7.091   2.163   2.880  0.1615 -0.3072  0.1322
 8934TIP3    H126745   7.178   2.201   2.868  0.1647  0.0839  1.2714
 8934TIP3    H226746   7.035   2.214   2.822  0.6155 -0.2749 -0.2878
 8935TIP3   OH226747   0.027   5.674   6.240 -0.0793 -0.8092 -0.2515
 8935TIP3    H126748  -0.032   5.616   6.193  0.9866 -2.6712  0.5888
 8935TIP3    H226749   0.112   5.630   6.235  0.6604  0.4217  0.8813
 8936TIP3   OH226750   1.647   1.105   0.923  0.5169  0.4272 -0.4500
 8936TIP3    H126751   1.707   1.157   0.976 -0.3263 -0.4641  1.5112
 8936TIP3    H226752   1.702   1.063   0.858  1.4280  2.5057 -1.0923
 8937TIP3   OH226753   3.424   3.104   4.511 -0.1664  0.4547 -0.1002
 8937TIP3    H126754   3.396   3.016   4.537 -0.1761  0.6375  0.5206
 8937TIP3    H226755   3.416   3.156   4.591 -1.1284  1.2647 -0.6946
 8938TIP3   OH226756   3.500   4.503   5.610  0.3067 -0.3065  0.1103
 8938TIP3    H126757   3.407   4.519   5.627 -0.3027 -1.4857 -1.7748
 8938TIP3    H226758   3.524   4.571   5.548  0.9311  0.4281  1.1252
 8939TIP3   OH226759   4.728   7.708   4.423  0.7886 -0.3588 -0.0899
 8939TIP3    H126760   4.636   7.697   4.397  0.2885 -1.8610  2.1136
 8939TIP3    H226761   4.758   7.781   4.369 -2.0473  1.0365 -0.0212
 8940TIP3   OH226762   1.298   3.180   2.412 -0.3461  0.3598  0.9329
 8940TIP3    H126763   1.318   3.114   2.479  0.4432  0.4641  0.8098
 8940TIP3    H226764   1.311   3.135   2.329 -0.0672  0.5868  0.8494
 8941TIP3   OH226765   0.229   7.350   4.102 -0.3425  0.1404  0.0275
 8941TIP3    H126766   0.306   7.350   4.045 -0.2866 -0.0738  0.1008
 8941TIP3    H226767   0.155   7.343   4.042 -0.3303  0.8494 -0.0722
 8942TIP3   OH226768   0.260   4.652   2.879 -0.4877  0.3540 -0.5128
 8942TIP3    H126769   0.167   4.669   2.864 -1.0710 -0.0386  2.1043
 8942TIP3    H226770   0.293   4.733   2.918  0.7218  1.0556 -2.8017
 8943TIP3   OH226771   1.874   6.981   1.529 -0.1449  0.0885 -0.0107
 8943TIP3    H126772   1.878   7.077   1.535 -0.8069  0.0628  1.0404
 8943TIP3    H226773   1.806   6.956   1.591 -0.7828 -0.9954 -1.1118
 8944TIP3   OH226774   6.257   1.873   6.543  0.2236  0.0862  0.1448
 8944TIP3    H126775   6.282   1.839   6.457 -0.0369 -1.8119  0.7765
 8944TIP3    H226776   6.180   1.822   6.568 -1.0225  2.0699  0.6104
 8945TIP3   OH226777   4.503   5.554   3.959  0.2568 -0.5191 -0.3181
 8945TIP3    H126778   4.525   5.535   3.868 -0.6085 -0.2818 -0.5879
 8945TIP3    H226779   4.438   5.624   3.954  0.6562 -0.0693  0.5092
 8946TIP3   OH226780   0.521   1.953   6.445  0.1576 -0.4575  0.4806
 8946TIP3    H126781   0.439   1.917   6.411 -0.5420  0.6506  0.9413
 8946TIP3    H226782   0.494   2.013   6.514  1.2695  0.9100 -0.2133
 8947TIP3   OH226783   3.030   1.512   2.187  0.0892  0.2576 -0.0911
 8947TIP3    H126784   3.110   1.517   2.240 -0.3313  1.0062  0.5037
 8947TIP3    H226785   2.981   1.590   2.212 -2.2451 -1.6608  1.8336
 8948TIP3   OH226786   0.535   7.049   1.327  0.2664 -0.5040 -0.1879
 8948TIP3    H126787   0.542   6.993   1.404  0.2003  1.6129  1.4407
 8948TIP3    H226788   0.624   7.077   1.309  0.2725 -0.9301 -0.8567
 8949TIP3   OH226789   1.596   3.670   3.399  0.1669 -0.0540 -0.3851
 8949TIP3    H126790   1.609   3.763   3.377 -2.5047  0.0639 -1.9333
 8949TIP3    H226791   1.621   3.623   3.319 -0.4010 -0.4880 -0.3114
 8950TIP3   OH226792   0.790   5.279   5.843  0.4341 -0.6740  0.0424
 8950TIP3    H126793   0.735   5.202   5.855  0.1498 -0.4561  0.1497
 8950TIP3    H226794   0.745   5.349   5.890  0.2950 -0.2618 -0.6912
 8951TIP3   OH226795   6.998   5.172   5.335 -0.1117 -0.5562  0.0992
 8951TIP3    H126796   6.926   5.234   5.326  0.1923 -0.1759  0.2549
 8951TIP3    H226797   6.972   5.116   5.409  0.5398  0.7026  1.3345
 8952TIP3   OH226798   3.512   0.977   2.728 -0.3837 -0.0885 -0.0054
 8952TIP3    H126799   3.584   1.040   2.735 -1.2961  0.9788  0.0263
 8952TIP3    H226800   3.543   0.900   2.776  0.0045  1.0514  1.6876
 8953TIP3   OH226801   0.152   1.545   1.674  0.2459  0.6912  0.2858
 8953TIP3    H126802   0.109   1.468   1.711  0.5447 -0.9360 -2.4848
 8953TIP3    H226803   0.154   1.608   1.746 -2.0394 -1.0402  2.0203
 8954TIP3   OH226804   0.088   1.871   3.141 -0.0991 -0.1435  0.2915
 8954TIP3    H126805   0.061   1.783   3.114  2.0117 -0.4101 -1.2333
 8954TIP3    H226806   0.070   1.874   3.235 -0.9495 -1.9111  0.2267
 8955TIP3   OH226807   6.236   0.552   1.194  0.3176 -0.0671  0.2987
 8955TIP3    H126808   6.160   0.518   1.147 -0.5411  0.3523  1.3464
 8955TIP3    H226809   6.293   0.587   1.125 -0.3533 -0.5146 -0.5106
 8956TIP3   OH226810   4.351   0.479   3.668 -0.1962 -0.1824 -0.0448
 8956TIP3    H126811   4.316   0.412   3.609  1.8570  0.2418 -1.9099
 8956TIP3    H226812   4.444   0.457   3.674  0.7018  2.8201 -1.2870
 8957TIP3   OH226813   2.146   2.509   3.116 -0.6418 -0.2411 -0.5054
 8957TIP3    H126814   2.224   2.457   3.135 -0.3334 -0.6475 -2.6418
 8957TIP3    H226815   2.079   2.444   3.095 -1.0888  0.1435 -0.2707
 8958TIP3   OH226816   1.321   5.295   4.704  0.7770 -0.4913 -0.5284
 8958TIP3    H126817   1.414   5.313   4.708  0.5701  0.3914  1.2408
 8958TIP3    H226818   1.291   5.302   4.795 -1.0655 -0.4343 -1.0927
 8959TIP3   OH226819   5.336   5.162   0.146  0.7604 -0.1662  0.0865
 8959TIP3    H126820   5.340   5.192   0.237 -1.1365  2.0924 -0.4622
 8959TIP3    H226821   5.375   5.233   0.096 -0.1741 -0.3825 -0.9948
 8960TIP3   OH226822   6.886   0.537   0.603 -0.2287  0.1237 -0.0491
 8960TIP3    H126823   6.873   0.453   0.560  0.3837 -0.8152  1.4989
 8960TIP3    H226824   6.954   0.521   0.668 -1.4410  1.2820  1.6240
 8961TIP3   OH226825   6.787   6.597   3.611 -0.3543  0.1257  0.0626
 8961TIP3    H126826   6.784   6.504   3.586 -0.2166  0.3149 -0.6825
 8961TIP3    H226827   6.804   6.596   3.705  0.0217 -0.6040 -0.0066
 8962TIP3   OH226828   5.504   4.918   4.005 -0.0949 -0.2339  0.4304
 8962TIP3    H126829   5.593   4.950   3.992 -0.1435 -0.7065 -1.1899
 8962TIP3    H226830   5.515   4.831   4.043  0.0753  0.3901  1.8959
 8963TIP3   OH226831   1.968   3.465   3.610  0.3152  0.3204  0.2266
 8963TIP3    H126832   2.017   3.407   3.668  1.5260  1.1986  0.1331
 8963TIP3    H226833   1.944   3.410   3.535  1.1027 -0.1655  0.3195
 8964TIP3   OH226834   7.817   5.731   0.631  0.1447  0.4525  0.1548
 8964TIP3    H126835   7.839   5.701   0.543 -1.8213 -1.0674  0.1114
 8964TIP3    H226836   7.890   5.701   0.685  0.2560 -0.6932 -0.5985
 8965TIP3   OH226837   2.025   4.403   5.438  0.5561 -0.0601  0.3687
 8965TIP3    H126838   2.084   4.436   5.506  0.8764  1.0563 -0.4045
 8965TIP3    H226839   1.947   4.458   5.445  1.1304  0.9893 -1.0015
 8966TIP3   OH226840   5.506   1.172   0.787 -0.0115 -0.6973  0.4219
 8966TIP3    H126841   5.473   1.112   0.720  1.2903  1.1049 -2.0057
 8966TIP3    H226842   5.596   1.190   0.761 -0.2885  2.1435  1.0819
 8967TIP3   OH226843   2.647   4.846   5.760 -0.1680 -0.1224  0.0226
 8967TIP3    H126844   2.595   4.915   5.719 -0.6316 -1.3130 -1.4658
 8967TIP3    H226845   2.738   4.876   5.749 -0.3554  0.2036 -0.7117
 8968TIP3   OH226846   5.250   0.918   0.107 -0.1888  0.5249  0.1081
 8968TIP3    H126847   5.226   0.914   0.014  3.3597 -1.3449 -0.8979
 8968TIP3    H226848   5.285   1.006   0.119  0.0038  0.5477 -0.5500
 8969TIP3   OH226849   4.186   1.452   2.871  0.1738 -0.7727 -0.4154
 8969TIP3    H126850   4.267   1.467   2.823  0.0373  2.0223  0.0462
 8969TIP3    H226851   4.213   1.443   2.962 -0.0240  0.8306 -0.1705
 8970TIP3   OH226852   4.035   7.708   4.774 -0.1512 -0.1834  0.4825
 8970TIP3    H126853   4.110   7.731   4.828  0.6406  3.2097 -1.7165
 8970TIP3    H226854   3.962   7.755   4.814 -0.3612 -0.6433  0.6435
 8971TIP3   OH226855   0.638   1.110   5.928  0.2459  0.0306 -0.4003
 8971TIP3    H126856   0.710   1.091   5.988 -2.3711 -1.1001  2.6116
 8971TIP3    H226857   0.586   1.177   5.973 -1.7013 -0.6647 -1.5155
 8972TIP3   OH226858   7.102   7.129   4.510 -0.6249 -0.3196  0.6819
 8972TIP3    H126859   7.017   7.174   4.503 -0.3549  0.4520  2.1274
 8972TIP3    H226860   7.155   7.185   4.567  0.9434 -0.6874 -0.3430
 8973TIP3   OH226861   6.741   6.179   1.902  0.2024 -0.0847 -0.1014
 8973TIP3    H126862   6.804   6.112   1.878  0.3329  0.1592 -0.4400
 8973TIP3    H226863   6.748   6.245   1.833 -0.9915 -0.4343 -0.5842
 8974TIP3   OH226864   4.432   4.862   4.641  0.1882  0.0091 -0.4859
 8974TIP3    H126865   4.514   4.820   4.612  0.8543  0.8070  0.1820
 8974TIP3    H226866   4.417   4.826   4.728 -0.4544 -0.5040 -0.8012
 8975TIP3   OH226867   5.091   3.397   3.763  0.0000 -0.1760  0.1040
 8975TIP3    H126868   5.008   3.430   3.798 -0.5404 -0.2166 -1.0801
 8975TIP3    H226869   5.074   3.304   3.745  0.8691 -0.6433  1.4779
 8976TIP3   OH226870   6.101   3.273   5.168 -0.0306  0.2166  0.1328
 8976TIP3    H126871   6.163   3.338   5.200  0.0129  0.2665 -0.0501
 8976TIP3    H226872   6.054   3.243   5.246 -0.6278  1.0681  0.1155
 8977TIP3   OH226873   3.275   2.981   4.862  0.6902  0.2445 -0.2964
 8977TIP3    H126874   3.320   3.060   4.832  2.0297 -0.9861 -1.7504
 8977TIP3    H226875   3.340   2.934   4.914  0.2926 -0.4010 -0.3643
 8978TIP3   OH226876   7.464   7.416   5.884  0.6003 -0.3954  0.4508
 8978TIP3    H126877   7.416   7.425   5.801  0.2068 -0.4359  0.6699
 8978TIP3    H226878   7.417   7.474   5.944  2.0703  1.2129  0.1479
 8979TIP3   OH226879   0.248   3.599   2.542  0.1369 -0.1091 -0.2411
 8979TIP3    H126880   0.333   3.560   2.524 -0.0438 -0.8559  0.3996
 8979TIP3    H226881   0.239   3.592   2.638 -1.1495 -1.2034 -0.3984
 8980TIP3   OH226882   3.358   2.482   4.522 -0.1316  0.2288  0.5688
 8980TIP3    H126883   3.267   2.512   4.529 -0.4116 -0.4018 -0.2232
 8980TIP3    H226884   3.385   2.508   4.434  0.4343  0.3304  0.7663
 8981TIP3   OH226885   2.551   5.822   1.790  0.5881 -0.1233  0.1679
 8981TIP3    H126886   2.543   5.901   1.843  2.0260  0.1020  0.1028
 8981TIP3    H226887   2.547   5.750   1.854  0.5079  0.0619  0.3729
 8982TIP3   OH226888   5.478   0.969   4.017  0.6475  0.4887  0.1618
 8982TIP3    H126889   5.497   0.917   3.938 -1.5010 -0.3813  0.1315
 8982TIP3    H226890   5.504   1.058   3.994 -0.3871  0.3528 -1.7804
 8983TIP3   OH226891   7.255   4.539   6.192 -0.0677  0.4756 -0.4675
 8983TIP3    H126892   7.261   4.624   6.234  1.5736  0.0337  0.2831
 8983TIP3    H226893   7.191   4.490   6.245  0.7165  0.4881  0.5162
 8984TIP3   OH226894   4.009   6.980   6.319  0.1279 -0.0098  0.0377
 8984TIP3    H126895   3.987   6.887   6.324 -0.2023  0.0730  0.1170
 8984TIP3    H226896   4.050   6.991   6.234 -1.8721  0.2122 -0.9509
 8985TIP3   OH226897   3.320   5.158   2.535 -0.2026  0.2236  0.1083
 8985TIP3    H126898   3.257   5.122   2.472 -0.5114  0.3200  0.3587
 8985TIP3    H226899   3.325   5.093   2.605  0.3986 -0.0434 -0.1731
 8986TIP3   OH226900   7.988   0.941   3.691  0.4601 -0.0135 -0.2308
 8986TIP3    H126901   8.006   0.855   3.729  0.4304  0.5046  1.0065
 8986TIP3    H226902   7.989   0.927   3.597  0.8456 -1.2904 -0.0459
 8987TIP3   OH226903   6.680   3.099   0.924 -0.1600  0.3516  0.2200
 8987TIP3    H126904   6.763   3.143   0.909 -0.5005  1.2820  0.9990
 8987TIP3    H226905   6.658   3.119   1.015 -1.9586  1.3443 -0.3933
 8988TIP3   OH226906   1.364   6.853   1.669 -0.0730  0.0767  0.0952
 8988TIP3    H126907   1.271   6.862   1.650  0.0602 -0.0513 -0.6452
 8988TIP3    H226908   1.367   6.808   1.754 -0.6803 -1.2895 -0.5730
 8989TIP3   OH226909   1.776   5.999   5.392  0.0877  0.3980 -0.4195
 8989TIP3    H126910   1.708   5.939   5.424 -0.3629  0.6808 -0.8376
 8989TIP3    H226911   1.731   6.054   5.329  0.6055  0.8944 -0.3570
 8990TIP3   OH226912   6.911   3.012   1.532  0.6790  0.0394 -0.8081
 8990TIP3    H126913   6.930   3.027   1.625  0.7557  1.5393 -1.0401
 8990TIP3    H226914   6.891   2.919   1.527 -1.8276  0.3602  1.1596
 8991TIP3   OH226915   3.786   4.514   4.167  0.0292  0.4113 -0.4865
 8991TIP3    H126916   3.751   4.425   4.173 -0.0606  0.5223  1.6632
 8991TIP3    H226917   3.880   4.502   4.157  0.9988 -0.2566  5.4918
 8992TIP3   OH226918   1.446   2.977   4.139  0.0097 -0.0961  0.3427
 8992TIP3    H126919   1.394   3.049   4.105 -0.6584 -1.1059 -0.8329
 8992TIP3    H226920   1.506   3.018   4.202 -1.0879  1.3103  0.5072
 8993TIP3   OH226921   4.402   2.249   5.151 -0.2163  0.0783  0.2164
 8993TIP3    H126922   4.342   2.179   5.125 -0.4924  1.4107 -3.3018
 8993TIP3    H226923   4.484   2.227   5.106  0.5044  0.6980  1.2056
 8994TIP3   OH226924   4.276   2.283   2.524  0.4247  0.2066  0.3019
 8994TIP3    H126925   4.367   2.251   2.522  0.2214 -0.5483 -3.3520
 8994TIP3    H226926   4.282   2.372   2.489 -0.3120 -0.0843 -0.5659
 8995TIP3   OH226927   1.688   4.251   4.795  0.0821  0.3803  0.3366
 8995TIP3    H126928   1.716   4.340   4.818  1.9170 -0.1706  0.4054
 8995TIP3    H226929   1.762   4.195   4.821 -1.4186 -1.3001  1.1638
 8996TIP3   OH226930   2.024   2.331   4.316  0.2857  0.2494 -0.0234
 8996TIP3    H126931   2.030   2.387   4.393  0.6680 -0.7886  0.7286
 8996TIP3    H226932   1.932   2.336   4.290 -0.0874 -0.1838  1.1378
 8997TIP3   OH226933   0.055   7.554   6.621 -0.6195  0.7491 -0.2828
 8997TIP3    H126934   0.002   7.609   6.679 -1.1558 -0.8147  0.7587
 8997TIP3    H226935   0.022   7.466   6.634  1.3242 -0.0913 -0.6533
 8998TIP3   OH226936   7.591   2.670   6.701 -0.1912  0.2070  0.4931
 8998TIP3    H126937   7.674   2.622   6.698 -0.7881 -0.9473  1.5032
 8998TIP3    H226938   7.612   2.755   6.663  1.2592 -0.3393 -0.0206
 8999TIP3   OH226939   0.161   2.404   4.460 -0.2152  0.0959 -0.2506
 8999TIP3    H126940   0.224   2.375   4.526 -0.8806 -0.9848 -0.0605
 8999TIP3    H226941   0.078   2.367   4.490 -0.3198 -1.5093 -2.3347
 9000TIP3   OH226942   6.972   2.145   5.748 -0.3227  0.4249  0.5668
 9000TIP3    H126943   6.976   2.062   5.795 -3.6029 -0.5408 -0.6231
 9000TIP3    H226944   7.064   2.169   5.734  0.7880 -3.4740  0.1078
 9001TIP3   OH226945   2.010   3.064   1.855 -0.0427 -0.2841  0.4447
 9001TIP3    H126946   1.996   3.151   1.894  0.5303 -0.6396  1.4480
 9001TIP3    H226947   1.982   3.075   1.764 -2.5207  0.2543  1.2021
 9002TIP3   OH226948   2.399   2.295   4.681 -0.2684 -0.2486  0.1592
 9002TIP3    H126949   2.434   2.224   4.735 -0.3402  0.0842  0.6497
 9002TIP3    H226950   2.313   2.264   4.653  0.1046 -0.7619 -0.4455
 9003TIP3   OH226951   7.340   7.787   2.763  0.0997  0.4162 -0.9560
 9003TIP3    H126952   7.280   7.853   2.798  0.6678 -0.6504  2.3805
 9003TIP3    H226953   7.284   7.715   2.736 -0.2998  0.5571 -0.5126
 9004TIP3   OH226954   2.463   1.246   4.746 -0.4313  0.7120 -0.2221
 9004TIP3    H126955   2.500   1.202   4.670  2.7484  1.5905  0.6831
 9004TIP3    H226956   2.484   1.189   4.820 -1.2670  1.0511  0.2926
 9005TIP3   OH226957   3.066   3.647   6.361  0.2802 -0.1669 -0.4548
 9005TIP3    H126958   3.008   3.676   6.290 -0.8281 -0.3771  0.3387
 9005TIP3    H226959   3.012   3.652   6.439  1.7594  0.9897  0.5620
 9006TIP3   OH226960   1.084   5.705   6.110 -0.2049  0.7555 -0.2416
 9006TIP3    H126961   1.037   5.778   6.150 -1.2607  0.3573 -0.7066
 9006TIP3    H226962   1.045   5.696   6.023 -0.1546 -0.4141 -0.1607
 9007TIP3   OH226963   6.656   6.196   0.746  0.4651  0.4213 -0.0553
 9007TIP3    H126964   6.656   6.291   0.757  0.6288  0.3050  1.0827
 9007TIP3    H226965   6.748   6.171   0.750  0.5779  0.3715 -2.0857
 9008TIP3   OH226966   0.949   0.046   2.712  0.1317  0.1237 -0.5458
 9008TIP3    H126967   0.925   0.130   2.751 -1.4666 -0.7755  0.5477
 9008TIP3    H226968   1.039   0.030   2.741 -0.6214 -0.0043  1.9985
 9009TIP3   OH226969   3.626   4.136   4.858  0.1142 -0.2367 -0.3759
 9009TIP3    H126970   3.699   4.188   4.824  0.3824 -1.9351 -2.7098
 9009TIP3    H226971   3.661   4.047   4.864 -0.7154 -0.4500  2.1725
 9010TIP3   OH226972   1.026   0.379   4.640  0.0173  0.2332  0.0199
 9010TIP3    H126973   0.949   0.353   4.588 -0.6920 -1.2589  1.7169
 9010TIP3    H226974   1.005   0.352   4.729  1.8175  1.3839  0.8450
 9011TIP3   OH226975   7.199   0.077   5.972  0.5190  0.3473 -0.0662
 9011TIP3    H126976   7.204  -0.010   6.011  2.0415  0.8784  1.0010
 9011TIP3    H226977   7.154   0.131   6.037  1.8936  0.9284  0.4498
 9012TIP3   OH226978   3.660   2.198   3.501 -0.3818  0.1067  0.1996
 9012TIP3    H126979   3.587   2.162   3.451  0.2121 -0.0595 -0.5648
 9012TIP3    H226980   3.621   2.229   3.582 -1.0301 -1.5797  0.5711
 9013TIP3   OH226981   7.536   5.783   2.393 -0.7081 -0.1190  0.0817
 9013TIP3    H126982   7.462   5.745   2.441 -1.0137  0.9363  0.4941
 9013TIP3    H226983   7.522   5.878   2.400  0.4425  0.0875 -0.2296
 9014TIP3   OH226984   4.815   0.763   4.206 -0.0128  0.3183  0.0676
 9014TIP3    H126985   4.826   0.796   4.295  1.2459 -0.2658  0.1498
 9014TIP3    H226986   4.721   0.747   4.197 -0.1810  0.6253  1.2009
 9015TIP3   OH226987   6.466   1.509   6.775 -0.2943  0.2708  0.1495
 9015TIP3    H126988   6.408   1.579   6.806 -1.5254 -0.8928  0.5866
 9015TIP3    H226989   6.481   1.530   6.683 -0.8349  0.9950  0.2152
 9016TIP3   OH226990   6.407   2.060   0.915 -0.4978 -0.3279 -0.1824
 9016TIP3    H126991   6.378   2.109   0.992  0.0201 -0.1362 -0.1014
 9016TIP3    H226992   6.365   1.975   0.923 -0.1951 -0.4178  0.4822
 9017TIP3   OH226993   7.278   6.335   4.923  0.4532 -0.2099  0.2533
 9017TIP3    H126994   7.208   6.390   4.957  0.8353 -0.5494  1.6545
 9017TIP3    H226995   7.317   6.387   4.853  0.5892  1.1859  1.3130
 9018TIP3   OH226996   3.217   6.633   6.037 -0.1754 -0.1371  0.7425
 9018TIP3    H126997   3.264   6.665   6.114  0.1736 -1.9792  1.3383
 9018TIP3    H226998   3.129   6.614   6.068 -0.4626  0.4698  0.3276
 9019TIP3   OH226999   2.005   0.231   0.173  1.0853 -0.5903 -0.1864
 9019TIP3    H127000   1.955   0.175   0.232 -1.6067  1.4758 -0.3145
 9019TIP3    H227001   2.052   0.291   0.232  2.4066 -1.6455 -0.1083
 9020TIP3   OH227002   1.229   4.664   1.152 -0.3022 -0.3800 -0.0535
 9020TIP3    H127003   1.240   4.715   1.231 -0.7423  0.6070 -0.6148
 9020TIP3    H227004   1.136   4.673   1.130 -0.6358 -2.2912  0.4049
 9021TIP3   OH227005   2.757   2.896   1.053 -0.1779  0.7084 -0.6849
 9021TIP3    H127006   2.736   2.914   0.961 -1.4779  0.9648 -0.3585
 9021TIP3    H227007   2.723   2.808   1.068 -0.5743  0.9273 -0.2768
 9022TIP3   OH227008   3.945   5.435   0.346  0.3830  0.1003  0.1700
 9022TIP3    H127009   3.855   5.407   0.328  1.2485 -1.3298 -2.5166
 9022TIP3    H227010   3.949   5.524   0.311  0.4099 -0.4685 -1.3693
 9023TIP3   OH227011   5.673   3.029   3.411 -0.4388 -0.1609  0.0359
 9023TIP3    H127012   5.658   2.961   3.476  0.4319 -0.1173  0.2952
 9023TIP3    H227013   5.767   3.024   3.393 -0.5068  0.4586 -0.5135
 9024TIP3   OH227014   8.097   2.233   1.225 -0.1255  0.1911  0.4101
 9024TIP3    H127015   8.188   2.246   1.252  0.6694 -0.1268 -1.9026
 9024TIP3    H227016   8.092   2.273   1.138 -1.9130 -0.7765  0.0204
 9025TIP3   OH227017   4.836   4.910   4.801  0.2974  0.1826  0.0306
 9025TIP3    H127018   4.787   4.990   4.819  0.7261  0.4256  0.1307
 9025TIP3    H227019   4.881   4.891   4.884  0.5019  0.0510 -0.1112
 9026TIP3   OH227020   2.178   1.968   2.838 -0.4077  0.1798  0.1096
 9026TIP3    H127021   2.096   1.921   2.824 -1.0923  0.6119  2.2011
 9026TIP3    H227022   2.151   2.058   2.860  0.6467  0.4912  0.1953
 9027TIP3   OH227023   0.872   5.320   1.923  0.0216 -0.4358 -0.2316
 9027TIP3    H127024   0.889   5.230   1.898 -1.7434 -0.6089 -0.9937
 9027TIP3    H227025   0.795   5.315   1.980  0.0257  0.5681 -0.1110
 9028TIP3   OH227026   2.908   6.126   0.496 -0.0571 -0.0370  0.0027
 9028TIP3    H127027   2.984   6.127   0.438 -0.2635  0.7074 -0.2672
 9028TIP3    H227028   2.840   6.173   0.448 -0.1632  0.8090  0.9210
 9029TIP3   OH227029   4.570   6.120   4.693 -0.3082 -0.0345 -0.4632
 9029TIP3    H127030   4.603   6.083   4.611 -1.3834 -1.4115 -0.3190
 9029TIP3    H227031   4.546   6.210   4.671  1.4018  0.3152 -1.1047
 9030TIP3   OH227032   3.136   1.499   4.506  0.2808 -0.1498  0.0198
 9030TIP3    H127033   3.194   1.549   4.448  0.8350  1.9232  2.2010
 9030TIP3    H227034   3.195   1.446   4.559  0.0855  0.4868  0.9048
 9031TIP3   OH227035   5.587   3.452   4.065  0.2091 -0.3406 -0.5408
 9031TIP3    H127036   5.500   3.471   4.031 -0.7757  0.0469  1.9403
 9031TIP3    H227037   5.640   3.527   4.037 -0.3470 -0.3502 -1.6926
 9032TIP3   OH227038   3.637   3.363   2.192 -0.6112 -0.1238  0.4776
 9032TIP3    H127039   3.678   3.280   2.169  2.1574  1.1894  0.2542
 9032TIP3    H227040   3.617   3.405   2.108  0.5771  0.5855  0.5337
 9033TIP3   OH227041   4.001   0.849   6.356 -0.0458 -0.6995 -0.6864
 9033TIP3    H127042   4.036   0.762   6.333 -2.0081 -1.1355 -2.2689
 9033TIP3    H227043   3.944   0.833   6.431  0.2961 -0.6071 -0.4034
 9034TIP3   OH227044   4.956   7.686   4.161  0.2725  0.0239 -0.0403
 9034TIP3    H127045   4.895   7.630   4.210 -0.9276  0.4867 -0.9522
 9034TIP3    H227046   4.908   7.709   4.081  1.0608  1.6684 -0.0743
 9035TIP3   OH227047   7.491   4.113   0.965  0.0628  0.4382  0.0968
 9035TIP3    H127048   7.564   4.056   0.940  1.2185  2.3825 -1.2805
 9035TIP3    H227049   7.456   4.143   0.881 -0.0525  2.2681  0.7695
 9036TIP3   OH227050   6.453   5.452   2.241 -0.1723 -0.7293 -0.4595
 9036TIP3    H127051   6.360   5.439   2.256 -0.4079  0.0725 -1.1623
 9036TIP3    H227052   6.466   5.547   2.249  0.9176 -0.9839  1.4493
 9037TIP3   OH227053   0.227   0.380   1.499  0.0933 -0.1359 -0.3629
 9037TIP3    H127054   0.253   0.358   1.589 -1.0520 -0.8977 -0.1988
 9037TIP3    H227055   0.298   0.435   1.467  0.0916  0.9224  1.3108
 9038TIP3   OH227056   1.812   4.679   1.714  0.0905  0.2369 -0.1372
 9038TIP3    H127057   1.743   4.688   1.649  0.9679  1.9609 -0.8901
 9038TIP3    H227058   1.857   4.764   1.714  1.6692 -0.5410  0.9394
 9039TIP3   OH227059   0.642   1.823   4.715 -0.3396  0.2198 -0.3395
 9039TIP3    H127060   0.683   1.845   4.631 -0.2318 -0.1443 -0.3848
 9039TIP3    H227061   0.551   1.804   4.692 -0.3128  0.1316 -0.3756
 9040TIP3   OH227062   6.154   1.432   4.719  0.2355 -0.1326 -0.6024
 9040TIP3    H127063   6.091   1.397   4.655  0.3017 -0.7776 -0.3246
 9040TIP3    H227064   6.231   1.376   4.709  0.2124 -0.2993  0.0954
 9041TIP3   OH227065   0.987   5.418   6.153  0.0354  0.3717  0.2795
 9041TIP3    H127066   1.038   5.469   6.090  1.6514 -2.6429 -1.0600
 9041TIP3    H227067   1.000   5.463   6.236  0.9663  2.3575 -0.8675
 9042TIP3   OH227068   2.957   0.134   1.022 -0.1479 -1.0613 -0.4044
 9042TIP3    H127069   2.869   0.169   1.031  0.2102 -0.4374  1.0915
 9042TIP3    H227070   2.963   0.106   0.931 -1.4612  0.0481 -0.8681
 9043TIP3   OH227071   2.028   2.026   4.424 -1.0982 -0.1672  0.3588
 9043TIP3    H127072   2.015   1.948   4.371 -0.8556  0.5654 -0.8312
 9043TIP3    H227073   1.960   2.087   4.394  0.0763  0.8609 -0.3603
 9044TIP3   OH227074   3.558   0.223   3.478 -0.2906 -0.4231  0.1395
 9044TIP3    H127075   3.562   0.184   3.566  0.1521 -1.6093 -0.3823
 9044TIP3    H227076   3.610   0.303   3.484 -2.2909  0.8711  1.6000
 9045TIP3   OH227077   7.678   7.418   0.345  0.4987 -0.3395 -0.4387
 9045TIP3    H127078   7.739   7.354   0.309  1.1806 -1.4381  2.4001
 9045TIP3    H227079   7.721   7.502   0.334  1.1072 -0.7452 -1.2540
 9046TIP3   OH227080   1.311   7.772   0.279 -0.0191 -0.2767  0.2957
 9046TIP3    H127081   1.270   7.690   0.306  0.6183 -0.2046  1.5392
 9046TIP3    H227082   1.361   7.750   0.201 -1.0311 -0.7381 -0.2385
 9047TIP3   OH227083   2.066   7.107   5.383  0.1167 -0.3455 -0.4153
 9047TIP3    H127084   2.051   7.114   5.477 -1.0986 -0.3084 -0.5947
 9047TIP3    H227085   2.092   7.195   5.356 -2.0978  0.3481 -0.5105
 9048TIP3   OH227086   4.163   4.610   2.335 -0.2674 -0.4456  0.2441
 9048TIP3    H127087   4.119   4.693   2.353 -0.8657 -0.8376  0.6234
 9048TIP3    H227088   4.154   4.560   2.417  0.4255 -0.7396  0.1529
 9049TIP3   OH227089   2.346   2.588   4.358  0.6425 -0.3113 -0.1682
 9049TIP3    H127090   2.300   2.583   4.442  0.9742  0.2494  0.0508
 9049TIP3    H227091   2.376   2.679   4.352 -0.7370  0.0940 -1.6146
 9050TIP3   OH227092   3.159   1.075   4.745 -0.1009  0.0648  0.1850
 9050TIP3    H127093   3.168   1.047   4.654  1.1377 -1.6563  0.7905
 9050TIP3    H227094   3.065   1.074   4.761 -0.2241 -2.5837 -0.2534
 9051TIP3   OH227095   4.457   2.506   5.244 -0.0534  0.4954  0.6352
 9051TIP3    H127096   4.448   2.516   5.339  3.1035  1.1595  0.9839
 9051TIP3    H227097   4.432   2.415   5.227  1.8139 -0.4519  2.5556
 9052TIP3   OH227098   3.109   7.517   1.796 -0.4749 -0.5480  0.0026
 9052TIP3    H127099   3.190   7.489   1.838  0.3329  1.6368  0.0172
 9052TIP3    H227100   3.105   7.466   1.715  0.7510 -0.9112  0.1626
 9053TIP3   OH227101   7.459   6.854   0.687  0.3820  0.0329 -0.0716
 9053TIP3    H127102   7.388   6.855   0.751  1.3820 -0.3071  1.0905
 9053TIP3    H227103   7.433   6.788   0.623 -0.6705  0.4305 -0.0756
 9054TIP3   OH227104   2.767   7.141   4.586  0.0875 -0.0719  0.3046
 9054TIP3    H127105   2.820   7.164   4.510 -0.0703 -2.1443 -0.4953
 9054TIP3    H227106   2.823   7.081   4.636 -1.3121 -2.0635 -0.3961
 9055TIP3   OH227107   0.899   2.077   3.652 -0.1407 -0.2391 -0.7388
 9055TIP3    H127108   0.920   2.094   3.744 -1.5666  0.8661 -0.5913
 9055TIP3    H227109   0.985   2.069   3.610  0.5597 -1.7350  0.8261
 9056TIP3   OH227110   5.484   7.686   5.020  0.0474 -0.1869 -0.0895
 9056TIP3    H127111   5.432   7.757   4.983  0.1465 -0.8222 -1.5138
 9056TIP3    H227112   5.573   7.720   5.021 -0.0536  0.0816  0.2448
 9057TIP3   OH227113   8.054   4.805   4.449  0.1378 -0.3847 -0.2905
 9057TIP3    H127114   8.002   4.735   4.411  0.1809  0.0873 -1.2526
 9057TIP3    H227115   7.991   4.875   4.468  0.0714 -0.7284  0.8046
 9058TIP3   OH227116   0.979   1.982   0.478  0.9705 -0.7081  0.2082
 9058TIP3    H127117   0.934   1.981   0.563 -1.1317  0.2128 -0.8168
 9058TIP3    H227118   0.946   1.905   0.432  0.4219 -0.0247 -0.5613
 9059TIP3   OH227119   6.629   4.713   5.081 -0.3917 -0.0396  0.3138
 9059TIP3    H127120   6.556   4.745   5.134 -1.1134  1.5443 -1.5227
 9059TIP3    H227121   6.701   4.773   5.099  0.3028 -1.2125  1.6244
 9060TIP3   OH227122   2.546   3.258   1.874 -0.5016 -0.4904 -0.3092
 9060TIP3    H127123   2.518   3.186   1.931 -0.3032  0.1085  0.5551
 9060TIP3    H227124   2.631   3.229   1.840  0.7765  0.3383  1.9673
 9061TIP3   OH227125   7.843   6.916   1.323  0.2957 -0.1487 -0.0380
 9061TIP3    H127126   7.820   6.862   1.247  0.0927  0.5146 -0.4652
 9061TIP3    H227127   7.935   6.895   1.341  1.0751  1.3310 -1.9247
 9062TIP3   OH227128   6.625   3.478   1.096  0.1815 -0.4210  0.4597
 9062TIP3    H127129   6.609   3.564   1.057  1.3856  0.5182  1.9343
 9062TIP3    H227130   6.539   3.436   1.096 -0.3109  0.4904 -0.8945
 9063TIP3   OH227131   5.052   3.716   4.017 -0.2625 -0.4336  0.0760
 9063TIP3    H127132   5.104   3.641   4.046 -1.4019 -1.3959 -0.2880
 9063TIP3    H227133   5.027   3.760   4.098  2.6742  1.2111  0.2205
 9064TIP3   OH227134   5.790   3.746   5.291  0.0655 -0.1190 -0.5007
 9064TIP3    H127135   5.854   3.686   5.253 -1.3273 -1.2446 -1.1870
 9064TIP3    H227136   5.727   3.689   5.335 -1.1420  0.8526 -0.9138
 9065TIP3   OH227137   4.038   3.009   0.685  0.0595 -0.2157 -0.4618
 9065TIP3    H127138   4.012   3.090   0.729 -2.3829 -2.3868  2.5355
 9065TIP3    H227139   3.983   3.005   0.607 -1.1572  0.1806  0.3514
 9066TIP3   OH227140   3.503   2.351   1.180  0.3836  0.2915 -0.0045
 9066TIP3    H127141   3.522   2.437   1.216  2.2360  0.9678 -2.3062
 9066TIP3    H227142   3.567   2.340   1.110 -0.7678 -2.3363 -0.7719
 9067TIP3   OH227143   3.801   4.019   4.048 -0.1305 -0.3380  0.4956
 9067TIP3    H127144   3.721   3.983   4.010  0.1908  0.1417 -0.6730
 9067TIP3    H227145   3.868   4.003   3.981  0.3526  0.9436  0.6517
 9068TIP3   OH227146   6.286   6.358   1.519  0.3953  0.0257  0.8186
 9068TIP3    H127147   6.207   6.373   1.466 -0.3133 -0.2782  1.7520
 9068TIP3    H227148   6.255   6.305   1.593  1.7780 -1.5016  0.3833
 9069TIP3   OH227149   7.529   6.343   6.127  0.0754 -0.4925  0.1097
 9069TIP3    H127150   7.528   6.344   6.031  0.5803  1.4081  0.0839
 9069TIP3    H227151   7.557   6.254   6.150 -0.5557 -1.1459 -1.4741
 9070TIP3   OH227152   0.329   5.114   5.438 -0.2728 -0.1614 -0.4751
 9070TIP3    H127153   0.240   5.082   5.424  0.0665 -0.9929 -0.8632
 9070TIP3    H227154   0.345   5.174   5.365 -0.9201  0.9394  0.2605
 9071TIP3   OH227155   0.936   3.308   3.667 -0.3438  0.7533  0.2514
 9071TIP3    H127156   0.943   3.215   3.686 -1.6858  0.6865  0.5038
 9071TIP3    H227157   1.021   3.344   3.694  0.2221 -0.3929  0.0742
 9072TIP3   OH227158   5.383   7.524   0.687  0.4658 -0.0610  0.0111
 9072TIP3    H127159   5.406   7.536   0.779  1.8329  0.9476 -0.4298
 9072TIP3    H227160   5.323   7.449   0.687 -1.5332  1.4017  1.9709
 9073TIP3   OH227161   6.060   2.539   4.676 -0.1989  0.3229  0.1670
 9073TIP3    H127162   6.066   2.458   4.727 -0.9725 -0.1993 -0.5406
 9073TIP3    H227163   6.006   2.597   4.730  1.5388  0.9269  1.3437
 9074TIP3   OH227164   4.099   5.457   3.391 -0.0515  0.0118 -0.0167
 9074TIP3    H127165   4.058   5.386   3.341 -0.4510 -0.2911  0.7248
 9074TIP3    H227166   4.027   5.518   3.408 -0.4471 -0.9222  2.0150
 9075TIP3   OH227167   2.380   0.792   0.116  0.0249 -0.0765 -0.1042
 9075TIP3    H127168   2.363   0.771   0.024  0.8104 -5.2725  0.6685
 9075TIP3    H227169   2.465   0.836   0.115 -0.8914  1.8223 -1.8974
 9076TIP3   OH227170   1.665   3.133   2.748  0.1692  0.2153  0.1356
 9076TIP3    H127171   1.747   3.176   2.775 -0.4295  2.3326 -1.2133
 9076TIP3    H227172   1.652   3.064   2.814  1.3246  1.9282  2.3047
 9077TIP3   OH227173   8.000   4.761   1.608  0.1362  0.2788  0.1201
 9077TIP3    H127174   8.047   4.706   1.545 -0.6396  1.5877 -1.6990
 9077TIP3    H227175   7.922   4.710   1.631 -0.1314  0.2242 -0.8603
 9078TIP3   OH227176   7.491   0.115   6.177 -0.0388  0.3529  1.0301
 9078TIP3    H127177   7.448   0.030   6.178 -0.1644  0.3190 -1.6702
 9078TIP3    H227178   7.489   0.143   6.086  1.4775  2.5154  1.5653
 9079TIP3   OH227179   1.276   0.469   3.605 -0.9242 -0.2929 -0.1122
 9079TIP3    H127180   1.282   0.470   3.509 -0.1600 -1.5588 -0.0964
 9079TIP3    H227181   1.186   0.497   3.623 -0.9508  0.4030 -1.1654
 9080TIP3   OH227182   7.793   4.163   1.152  0.2934  0.1639  0.3648
 9080TIP3    H127183   7.863   4.228   1.162  0.8806 -0.3209 -0.4514
 9080TIP3    H227184   7.713   4.211   1.172  0.8114  0.8748  0.7745
 9081TIP3   OH227185   3.892   6.397   0.091  0.4560 -0.0697  0.1354
 9081TIP3    H127186   3.872   6.445   0.010  0.4328 -0.2801  0.0158
 9081TIP3    H227187   3.926   6.313   0.061  0.4352 -0.1533  0.3453
 9082TIP3   OH227188   6.735   3.815   2.954  0.2790 -0.7645 -0.1795
 9082TIP3    H127189   6.775   3.874   3.017 -1.0276 -1.5543  1.4443
 9082TIP3    H227190   6.675   3.761   3.005  1.0112 -3.1566 -1.6743
 9083TIP3   OH227191   0.454   0.133   6.080 -0.7856  0.4000 -0.0823
 9083TIP3    H127192   0.504   0.198   6.030 -1.2980 -0.0012 -1.1328
 9083TIP3    H227193   0.465   0.160   6.172  0.9161  0.6254 -0.3245
 9084TIP3   OH227194   5.089   7.198   2.800 -0.3170 -0.2836  0.1635
 9084TIP3    H127195   5.127   7.112   2.781 -0.6379 -0.3049 -0.4224
 9084TIP3    H227196   5.042   7.187   2.882  1.7970  0.0100  1.5151
 9085TIP3   OH227197   1.265   5.265   2.791  0.2418 -0.1492  0.2029
 9085TIP3    H127198   1.288   5.357   2.780  1.3807 -0.1650  1.9311
 9085TIP3    H227199   1.348   5.218   2.778 -0.6749 -1.1595 -2.5069
 9086TIP3   OH227200   3.866   3.468   3.932 -0.1100 -0.0129 -0.1852
 9086TIP3    H127201   3.855   3.548   3.984  0.9147  0.1076 -0.1466
 9086TIP3    H227202   3.782   3.423   3.941 -0.4754  0.7451  0.3276
 9087TIP3   OH227203   2.418   1.731   3.939 -0.5806 -0.4660 -0.9085
 9087TIP3    H127204   2.369   1.680   4.003  0.8449 -1.0495 -0.2252
 9087TIP3    H227205   2.358   1.799   3.911 -0.9909  0.4411  1.8120
 9088TIP3   OH227206   2.164   5.771   4.991 -0.1495 -0.5264  0.0415
 9088TIP3    H127207   2.194   5.698   5.046  1.7877 -0.5962 -1.0173
 9088TIP3    H227208   2.245   5.813   4.961 -1.1929  0.7072 -1.1588
 9089TIP3   OH227209   1.264   0.374   4.204  0.1567 -0.7347  0.1558
 9089TIP3    H127210   1.172   0.380   4.228 -0.0423  0.5960 -0.8325
 9089TIP3    H227211   1.264   0.361   4.109  0.9872  0.5525 -0.0450
 9090TIP3   OH227212   4.721   2.681   6.194 -0.2953  0.0352 -0.2235
 9090TIP3    H127213   4.669   2.754   6.160  1.1386  0.3230 -1.9377
 9090TIP3    H227214   4.771   2.650   6.118 -0.5796 -2.4988  0.5416
 9091TIP3   OH227215   3.097   3.267   4.246  0.0391 -0.5309  0.1313
 9091TIP3    H127216   3.004   3.243   4.247  0.4395 -2.7632  3.4776
 9091TIP3    H227217   3.101   3.347   4.298 -0.0260 -0.4343 -0.0127
 9092TIP3   OH227218   4.399   7.314   5.645  0.3716  0.3656  0.2228
 9092TIP3    H127219   4.460   7.244   5.623 -1.4281 -1.1671 -0.2406
 9092TIP3    H227220   4.392   7.366   5.565  2.9604  2.1419  1.0689
 9093TIP3   OH227221   0.299   1.648   3.701 -0.1118  0.1075 -0.3868
 9093TIP3    H127222   0.328   1.590   3.631 -0.2856 -0.8243  0.2889
 9093TIP3    H227223   0.289   1.733   3.659  2.4476  0.2340 -0.9199
 9094TIP3   OH227224   5.862   0.240   5.945 -0.5665 -0.5640 -0.0909
 9094TIP3    H127225   5.790   0.270   5.999 -1.3654  0.8496 -1.8180
 9094TIP3    H227226   5.836   0.263   5.855  2.5009  1.1623 -0.6997
 9095TIP3   OH227227   8.126   3.458   3.949 -0.3483  0.4186  0.2260
 9095TIP3    H127228   8.193   3.403   3.988  0.1325 -0.1232 -1.3060
 9095TIP3    H227229   8.130   3.540   3.998  0.4621 -0.1128  1.0597
 9096TIP3   OH227230   2.890   4.233   1.149 -0.0618 -0.5748  0.3634
 9096TIP3    H127231   2.876   4.291   1.074  0.2797 -1.9113 -0.7882
 9096TIP3    H227232   2.802   4.206   1.175 -0.3046  1.2943  1.6474
 9097TIP3   OH227233   6.522   2.105   3.236  1.0967 -0.0166 -0.0777
 9097TIP3    H127234   6.536   2.086   3.328  0.9220  0.1790 -0.0105
 9097TIP3    H227235   6.484   2.024   3.200  1.1307 -0.0792  0.0276
 9098TIP3   OH227236   2.118   3.870   1.879  0.5564 -0.2032 -0.0105
 9098TIP3    H127237   2.186   3.914   1.929 -0.1175  0.7220  0.1007
 9098TIP3    H227238   2.063   3.940   1.845  0.2545 -0.8834 -0.9789
 9099TIP3   OH227239   7.773   5.661   3.111  0.1013  0.1025  0.1379
 9099TIP3    H127240   7.779   5.588   3.172  3.2558  0.4143  0.3405
 9099TIP3    H227241   7.787   5.739   3.164 -0.2886  0.6306 -0.5176
 9100TIP3   OH227242   3.416   0.108   6.131 -0.3757  0.5218  0.3368
 9100TIP3    H127243   3.495   0.121   6.079  0.1955 -1.0295  0.7319
 9100TIP3    H227244   3.410   0.186   6.186 -0.6913  1.9338 -1.6027
 9101TIP3   OH227245   8.265   7.350   1.638 -0.2702  0.3243 -0.7112
 9101TIP3    H127246   8.199   7.324   1.703 -0.7021  0.0096 -1.2636
 9101TIP3    H227247   8.294   7.437   1.666  1.4189 -0.8119  1.3618
 9102TIP3   OH227248   2.231   6.710   0.646 -0.0627 -0.6452  0.2820
 9102TIP3    H127249   2.163   6.716   0.713 -1.2453  0.4266 -0.9396
 9102TIP3    H227250   2.258   6.619   0.648  0.9242 -0.3907  3.1041
 9103TIP3   OH227251   6.520   6.199   5.558  0.1140  0.0291 -0.1402
 9103TIP3    H127252   6.577   6.130   5.591 -0.5797 -0.4838  0.0265
 9103TIP3    H227253   6.494   6.169   5.471 -0.3674 -0.0381  0.0193
 9104TIP3   OH227254   2.700   4.473   5.974 -0.6263  0.0083  0.3905
 9104TIP3    H127255   2.731   4.383   5.989  0.7502  0.5142  0.7026
 9104TIP3    H227256   2.753   4.526   6.034 -1.4185  1.0308  0.1888
 9105TIP3   OH227257   0.337   2.385   5.119 -0.3689  0.1619 -0.4273
 9105TIP3    H127258   0.356   2.466   5.072  0.1510  1.1159  1.3443
 9105TIP3    H227259   0.267   2.343   5.067  1.6629 -0.0082 -3.2554
 9106TIP3   OH227260   6.788   0.516   1.652 -0.0686  0.5408 -0.4917
 9106TIP3    H127261   6.845   0.497   1.726 -1.8925 -2.8279  0.2479
 9106TIP3    H227262   6.845   0.517   1.576  1.2293 -0.8074  0.4271
 9107TIP3   OH227263   4.780   4.586   6.076  0.1030  0.2063 -0.0636
 9107TIP3    H127264   4.874   4.601   6.073  0.2254 -0.3596  0.8629
 9107TIP3    H227265   4.768   4.500   6.035 -0.2241  1.0658 -1.9016
 9108TIP3   OH227266   6.683   4.347   1.705  0.1659 -0.0129 -0.7090
 9108TIP3    H127267   6.696   4.430   1.659  0.4155 -0.5754 -1.6846
 9108TIP3    H227268   6.728   4.282   1.651  1.0416 -0.6120  0.6967
 9109TIP3   OH227269   5.017   4.719   6.106  0.2546  0.3546 -0.5015
 9109TIP3    H127270   4.993   4.773   6.031 -0.3480  0.0954 -0.4996
 9109TIP3    H227271   5.087   4.768   6.149  0.1974  0.7897 -0.8937
 9110TIP3   OH227272   7.173   5.652   3.109  0.4659  0.5150  0.1614
 9110TIP3    H127273   7.233   5.666   3.182  0.3706 -0.9025  0.5279
 9110TIP3    H227274   7.201   5.570   3.070 -2.2748 -1.2144  1.4709
 9111TIP3   OH227275   5.498   6.604  -0.023  0.0864 -0.1108  0.0060
 9111TIP3    H127276   5.475   6.557   0.058 -0.3302 -0.6201 -0.4005
 9111TIP3    H227277   5.437   6.678  -0.025 -0.4873 -0.5888 -0.2824
 9112TIP3   OH227278   3.983   5.828   2.387 -0.8677  0.1382  0.2452
 9112TIP3    H127279   3.893   5.801   2.369 -1.2546  1.3067  0.3572
 9112TIP3    H227280   4.016   5.860   2.302 -1.3046  1.7378  0.6374
 9113TIP3   OH227281   6.466   0.200   4.152 -0.3426 -0.2666 -0.0703
 9113TIP3    H127282   6.559   0.179   4.148 -0.4571 -0.7052 -0.8633
 9113TIP3    H227283   6.453   0.240   4.237  0.5879 -0.1231  0.0105
 9114TIP3   OH227284   0.622   4.640   2.158  0.0055  0.0120 -0.0597
 9114TIP3    H127285   0.582   4.659   2.074 -0.0417  1.0918  0.1940
 9114TIP3    H227286   0.648   4.548   2.152  1.7296  0.5453 -1.9763
 9115TIP3   OH227287   0.240   6.990   2.278 -0.4087 -0.0118 -0.0723
 9115TIP3    H127288   0.230   7.008   2.371 -0.8938  1.4429 -0.3855
 9115TIP3    H227289   0.335   6.994   2.263 -0.4221  1.2754  0.0878
 9116TIP3   OH227290   4.896   6.261   3.927  0.3765 -0.5182 -0.2709
 9116TIP3    H127291   4.801   6.271   3.933  0.4957  0.9970 -0.5368
 9116TIP3    H227292   4.931   6.318   3.995  1.1099 -0.4984 -0.6550
 9117TIP3   OH227293   3.393   3.004   4.049 -0.2424  0.4395 -0.5665
 9117TIP3    H127294   3.421   3.062   4.119  0.7879 -0.4830 -0.1732
 9117TIP3    H227295   3.348   3.060   3.987 -0.4155  1.4209  0.4195
 9118TIP3   OH227296   6.724   6.504   4.948  0.2405 -0.3149  0.6302
 9118TIP3    H127297   6.630   6.521   4.940  0.4542  0.8275  0.3185
 9118TIP3    H227298   6.746   6.537   5.035 -0.1016 -2.9788  1.8195
 9119TIP3   OH227299   3.352   2.421   1.811  0.0089  0.2887 -0.6220
 9119TIP3    H127300   3.444   2.404   1.834 -0.1831  0.9604  0.7650
 9119TIP3    H227301   3.343   2.516   1.815 -0.7037  0.2410 -0.9310
 9120TIP3   OH227302   1.958   4.415   4.186  0.2528 -0.3096 -0.4247
 9120TIP3    H127303   2.045   4.414   4.147 -0.5375 -1.8738 -2.3782
 9120TIP3    H227304   1.920   4.499   4.160  0.3960 -0.5753 -1.5164
 9121TIP3   OH227305   0.140   2.288   1.468  0.2897  0.0779  0.3459
 9121TIP3    H127306   0.122   2.269   1.375  0.1005 -1.3696  0.6455
 9121TIP3    H227307   0.231   2.316   1.469  0.0292  1.0271 -0.3821
 9122TIP3   OH227308   0.690   2.036   5.219  0.2364  0.8435  0.0537
 9122TIP3    H127309   0.605   2.080   5.215 -0.3950 -0.4379 -1.1472
 9122TIP3    H227310   0.679   1.970   5.288 -0.3309 -0.4568 -1.2405
 9123TIP3   OH227311   7.613   3.960   6.349 -0.1523  0.7484 -0.0966
 9123TIP3    H127312   7.703   3.926   6.349 -0.6722 -0.9256 -2.7888
 9123TIP3    H227313   7.559   3.885   6.373 -1.0033  0.8513 -1.5539
 9124TIP3   OH227314   2.079   7.407   0.618  0.3284 -0.1212  0.1636
 9124TIP3    H127315   2.129   7.326   0.633 -0.1888 -0.4480  0.1446
 9124TIP3    H227316   2.012   7.407   0.685  0.0928  0.1062 -0.0697
 9125TIP3   OH227317   0.610   6.045   3.606  0.1075 -0.1759 -0.3738
 9125TIP3    H127318   0.524   6.016   3.636  0.1612  0.7711  0.7298
 9125TIP3    H227319   0.623   6.131   3.646  1.8537 -0.5800  0.0346
 9126TIP3   OH227320   0.812   4.443   6.421 -0.6447  0.7944  0.6578
 9126TIP3    H127321   0.862   4.524   6.426 -0.0209  0.3987  1.0014
 9126TIP3    H227322   0.806   4.413   6.512 -3.0776  1.7581  0.8818
 9127TIP3   OH227323   3.245   4.806   3.401  0.1008  0.1188  0.6928
 9127TIP3    H127324   3.309   4.831   3.334 -2.1208  2.5648 -0.7151
 9127TIP3    H227325   3.188   4.742   3.358 -0.3529  0.4440  0.8010
 9128TIP3   OH227326   3.398   2.967   0.307  0.2549  0.0152  0.0359
 9128TIP3    H127327   3.476   3.022   0.308 -0.1872  0.6513  0.2540
 9128TIP3    H227328   3.336   3.012   0.364 -0.2526 -0.5114 -0.0892
 9129TIP3   OH227329   1.667   3.237   4.550 -0.1985  0.2019  0.6268
 9129TIP3    H127330   1.657   3.177   4.625  1.9556 -1.5249 -0.3409
 9129TIP3    H227331   1.605   3.308   4.568 -2.1886 -1.7907  2.3687
 9130TIP3   OH227332   1.137   0.155   5.247 -0.4125  0.4934  0.5649
 9130TIP3    H127333   1.117   0.131   5.157 -0.0613  1.9194  0.0759
 9130TIP3    H227334   1.068   0.115   5.299  0.6787 -2.3786 -0.0257
 9131TIP3   OH227335   1.407   6.528   2.687 -0.1416 -0.1662 -0.1481
 9131TIP3    H127336   1.470   6.474   2.735  0.4081 -0.6737 -1.4088
 9131TIP3    H227337   1.388   6.479   2.607 -1.1468  0.5926 -0.3935
 9132TIP3   OH227338   3.334   0.741   4.042  0.0634 -0.2681  0.1182
 9132TIP3    H127339   3.321   0.689   3.963  1.3093 -1.7400  0.8015
 9132TIP3    H227340   3.336   0.832   4.012  1.1882 -0.8217 -1.6427
 9133TIP3   OH227341   6.227   2.117   6.268 -0.1031  0.0115  0.1101
 9133TIP3    H127342   6.246   2.023   6.281  0.5292 -0.0558 -1.1258
 9133TIP3    H227343   6.192   2.146   6.352  0.8411 -1.0623  0.9146
 9134TIP3   OH227344   6.139   7.179   2.772 -0.2843 -0.2603  0.5823
 9134TIP3    H127345   6.175   7.184   2.683 -0.5956  0.0625  0.4738
 9134TIP3    H227346   6.071   7.112   2.767 -2.8897  2.2867 -0.3478
 9135TIP3   OH227347   5.556   2.016   5.491  0.3356 -0.5542 -0.5714
 9135TIP3    H127348   5.488   1.953   5.467 -0.3585  0.1282 -0.4527
 9135TIP3    H227349   5.616   2.016   5.416 -1.0375  0.5092 -1.7394
 9136TIP3   OH227350   4.135   3.530   1.844  0.3766  0.2599  0.0994
 9136TIP3    H127351   4.118   3.601   1.782 -0.2986  0.6054  0.6577
 9136TIP3    H227352   4.047   3.501   1.870  0.6470 -0.8763 -0.2259
 9137TIP3   OH227353   2.832   4.946   5.083  0.2297 -0.1233  0.4932
 9137TIP3    H127354   2.848   4.882   5.013 -0.0479  0.0873  0.2357
 9137TIP3    H227355   2.796   4.894   5.155 -2.2264  0.0309 -0.5180
 9138TIP3   OH227356   8.203   7.223   3.283  0.3214 -0.1352 -0.4569
 9138TIP3    H127357   8.208   7.193   3.373  1.1452 -0.7332 -0.6876
 9138TIP3    H227358   8.258   7.162   3.234 -0.1665  0.1367 -1.3755
 9139TIP3   OH227359   1.550   2.603   4.055 -0.0017 -0.1167  0.2470
 9139TIP3    H127360   1.520   2.513   4.046 -0.6796 -0.2190  2.7964
 9139TIP3    H227361   1.474   2.651   4.088  0.1346  1.6009 -1.7338
 9140TIP3   OH227362   1.242   1.808   3.689  0.1357  0.1784  0.0432
 9140TIP3    H127363   1.249   1.827   3.596  1.6896 -1.7536 -0.3186
 9140TIP3    H227364   1.148   1.810   3.708 -0.0711  3.7630 -0.7436
 9141TIP3   OH227365   1.179   1.603   5.768  0.2014 -0.2602 -0.1295
 9141TIP3    H127366   1.101   1.549   5.766  0.5776 -0.7971 -0.6353
 9141TIP3    H227367   1.228   1.578   5.689  0.1537  1.1567 -0.6512
 9142TIP3   OH227368   3.109   1.653   0.468  0.3402  0.2931 -0.3134
 9142TIP3    H127369   3.198   1.685   0.453  0.2560  1.4221  1.3516
 9142TIP3    H227370   3.053   1.716   0.423  0.3568 -0.3151 -1.2059
 9143TIP3   OH227371   0.221   5.113   2.131 -0.2419 -0.0049  0.1194
 9143TIP3    H127372   0.161   5.187   2.122  0.8324  0.9247  0.3725
 9143TIP3    H227373   0.271   5.113   2.049  0.5419  0.2708  0.5898
 9144TIP3   OH227374   2.729   6.740   1.407 -0.4292  0.0375 -0.2448
 9144TIP3    H127375   2.802   6.757   1.347  0.0747  1.3269  0.6879
 9144TIP3    H227376   2.651   6.743   1.351  0.0832  0.6056 -0.9455
 9145TIP3   OH227377   0.956   4.237   5.102 -0.0862  0.3881 -0.2498
 9145TIP3    H127378   0.876   4.195   5.133 -0.0546 -1.0993 -1.9694
 9145TIP3    H227379   1.027   4.183   5.137  0.0397  0.1608 -0.8389
 9146TIP3   OH227380   5.517   4.802   2.785 -0.9131  0.1780  0.7387
 9146TIP3    H127381   5.565   4.721   2.804 -1.0805  0.1803  1.1774
 9146TIP3    H227382   5.585   4.864   2.759 -0.9297 -0.5419 -1.1508
 9147TIP3   OH227383   8.124   7.787   5.726 -0.2040  0.0449 -0.4599
 9147TIP3    H127384   8.151   7.700   5.696  1.0318  0.3653 -0.3527
 9147TIP3    H227385   8.155   7.846   5.658 -0.9001  0.4244 -0.4569
 9148TIP3   OH227386   2.330   7.339   1.319  0.0538 -0.5618  0.0723
 9148TIP3    H127387   2.334   7.429   1.353 -0.9459  0.3067 -1.9014
 9148TIP3    H227388   2.248   7.304   1.353 -1.2227  0.4957 -1.7277
 9149TIP3   OH227389   7.391   1.793   0.269 -0.4806  1.0449  0.1136
 9149TIP3    H127390   7.362   1.725   0.208  0.1924  0.3898  0.5192
 9149TIP3    H227391   7.463   1.837   0.224  0.5541  0.0369  0.7391
 9150TIP3   OH227392   1.957   2.278   2.161 -0.0213 -0.0650 -0.5591
 9150TIP3    H127393   2.030   2.308   2.215  1.0776 -0.4271 -1.7828
 9150TIP3    H227394   1.945   2.348   2.096 -0.3714 -0.2697 -0.7167
 9151TIP3   OH227395   3.734   0.215   5.221  0.6080 -0.0318  0.3264
 9151TIP3    H127396   3.693   0.134   5.191  0.5240 -0.2503  0.9970
 9151TIP3    H227397   3.673   0.284   5.197 -0.0103 -0.3220  1.0281
 9152TIP3   OH227398   2.452   4.847   1.398 -0.5224  0.2154 -0.0962
 9152TIP3    H127399   2.411   4.852   1.312  0.9585 -0.0450 -0.8631
 9152TIP3    H227400   2.439   4.933   1.437 -0.1703  0.7288 -1.0901
 9153TIP3   OH227401   8.031   6.197   5.860 -0.6740  0.4444 -0.5466
 9153TIP3    H127402   7.978   6.119   5.853 -0.1503 -0.0938  1.0875
 9153TIP3    H227403   8.041   6.228   5.770  1.1483 -2.7555 -1.5952
 9154TIP3   OH227404   6.633   3.585   3.676  0.2642  0.2271 -0.4153
 9154TIP3    H127405   6.641   3.511   3.737  1.9592  1.6818  1.2644
 9154TIP3    H227406   6.656   3.548   3.591 -0.6272 -1.5410  0.0670
 9155TIP3   OH227407   7.530   2.951   4.394 -0.1282  0.6817 -0.3695
 9155TIP3    H127408   7.597   2.997   4.343 -0.8971  0.0157 -2.0801
 9155TIP3    H227409   7.481   2.902   4.328 -1.8749  0.6255  0.9318
 9156TIP3   OH227410   4.266   7.664   2.634  0.5533 -0.0733 -0.1365
 9156TIP3    H127411   4.182   7.631   2.665  0.6533 -0.5656 -0.3797
 9156TIP3    H227412   4.265   7.650   2.540  1.1260 -0.5874 -0.0755
 9157TIP3   OH227413   4.490   1.502   1.416  0.0335 -0.4147  0.0689
 9157TIP3    H127414   4.575   1.459   1.404 -0.2666 -2.2777  3.4575
 9157TIP3    H227415   4.427   1.430   1.418 -1.1139  0.5650  1.3999
 9158TIP3   OH227416   3.054   0.535   2.514 -0.0038 -0.2768  0.0624
 9158TIP3    H127417   2.972   0.582   2.502 -0.4682 -0.5699  1.8879
 9158TIP3    H227418   3.072   0.495   2.428 -1.2984  0.4971 -0.5887
 9159TIP3   OH227419   6.686   0.207   3.621  0.4705  0.1866 -0.5969
 9159TIP3    H127420   6.709   0.300   3.614  1.4094  0.4268  3.1268
 9159TIP3    H227421   6.610   0.206   3.679  2.1911 -1.3426  1.8550
 9160TIP3   OH227422   6.253   6.820   4.173  0.8779 -0.1527 -0.1931
 9160TIP3    H127423   6.175   6.841   4.122  0.0557 -1.3793  0.5216
 9160TIP3    H227424   6.245   6.872   4.253 -0.1734 -1.6540  0.7096
 9161TIP3   OH227425   7.945   2.612   1.856  0.4546 -0.4248 -0.2721
 9161TIP3    H127426   7.868   2.670   1.857 -0.7358 -1.9155 -0.4275
 9161TIP3    H227427   7.979   2.619   1.767  0.0319 -0.3142 -0.4304
 9162TIP3   OH227428   4.944   4.808   0.150  0.2727  0.1490 -0.2746
 9162TIP3    H127429   5.004   4.737   0.129  2.7622  1.9988  0.1454
 9162TIP3    H227430   4.948   4.816   0.245 -2.2611 -0.9239  0.0182
 9163TIP3   OH227431   6.988   7.739   1.936 -0.6518  0.4563  0.0977
 9163TIP3    H127432   7.004   7.831   1.959 -0.8752  0.7372 -0.8420
 9163TIP3    H227433   6.971   7.697   2.020  0.3100  1.0912  0.6413
 9164TIP3   OH227434   1.738   0.776   3.390 -0.1036  0.0435 -0.3765
 9164TIP3    H127435   1.810   0.731   3.435 -0.5281 -1.8761 -1.5064
 9164TIP3    H227436   1.680   0.804   3.461  0.9158  0.1566  0.4558
 9165TIP3   OH227437   6.679   0.829   6.411 -0.3160 -0.7737 -0.0243
 9165TIP3    H127438   6.696   0.788   6.496 -0.1823  0.1417  0.3937
 9165TIP3    H227439   6.729   0.910   6.413 -2.5313  0.6544  0.1371
 9166TIP3   OH227440   3.508   6.260   4.840  0.4475 -0.3589  0.3623
 9166TIP3    H127441   3.463   6.310   4.908 -0.9297  0.1200 -0.8354
 9166TIP3    H227442   3.442   6.198   4.809  0.0171  1.3112 -2.4238
 9167TIP3   OH227443   2.010   4.468   2.617 -0.3514  0.4589 -0.0357
 9167TIP3    H127444   2.074   4.465   2.688  0.2173  0.3651 -0.5507
 9167TIP3    H227445   1.940   4.524   2.651 -0.0769  0.4343  0.5906
 9168TIP3   OH227446   8.028   7.383   0.223  0.1225  0.0654  0.6314
 9168TIP3    H127447   7.943   7.347   0.195 -0.3321  1.7858 -0.3188
 9168TIP3    H227448   8.085   7.371   0.147  0.3996 -0.0503  0.8591
 9169TIP3   OH227449   8.175   3.361   5.811  0.3996  0.0169 -0.8321
 9169TIP3    H127450   8.122   3.305   5.868  1.0693  1.0787  0.9559
 9169TIP3    H227451   8.173   3.319   5.726 -0.7240 -1.6404 -0.0357
 9170TIP3   OH227452   5.608   7.781   6.299  0.6797  0.1634 -0.1880
 9170TIP3    H127453   5.577   7.839   6.230  1.7636  0.2684 -0.6085
 9170TIP3    H227454   5.544   7.791   6.370  0.8511  1.9104 -0.2307
 9171TIP3   OH227455   0.415   7.182   3.401 -0.2853  0.1348  0.0211
 9171TIP3    H127456   0.501   7.144   3.421 -0.8944 -2.1988 -1.4942
 9171TIP3    H227457   0.434   7.274   3.383  1.8781 -0.2690 -0.0586
 9172TIP3   OH227458   7.500   4.113   2.954  0.1943  0.0556  0.0217
 9172TIP3    H127459   7.585   4.136   2.993 -0.2661  0.6731  0.6753
 9172TIP3    H227460   7.440   4.109   3.028 -0.3961 -0.1603 -0.4673
 9173TIP3   OH227461   2.575   4.997   6.109 -0.0542  0.3630 -0.3248
 9173TIP3    H127462   2.508   5.065   6.119 -2.5818 -1.5046 -2.8194
 9173TIP3    H227463   2.560   4.937   6.181 -1.9009 -0.5877 -1.4362
 9174TIP3   OH227464   3.194   2.781   3.551 -0.2951 -0.4006 -0.0385
 9174TIP3    H127465   3.191   2.820   3.639  0.4334  1.2030 -0.6830
 9174TIP3    H227466   3.274   2.728   3.552 -0.6536 -0.9481  0.4714
 9175TIP3   OH227467   2.659   3.313   2.230 -0.6600  0.0461 -0.1148
 9175TIP3    H127468   2.642   3.304   2.324  0.5680  0.2814  0.1399
 9175TIP3    H227469   2.571   3.316   2.190 -1.1928 -0.0645  1.0124
 9176TIP3   OH227470   3.576   0.464   1.702 -0.5271 -0.7202 -0.1268
 9176TIP3    H127471   3.550   0.505   1.619 -1.7411 -1.8249 -0.3290
 9176TIP3    H227472   3.619   0.534   1.750  0.4493 -0.1090 -1.7774
 9177TIP3   OH227473   5.692   3.897   0.195  1.0394 -0.4012 -0.2427
 9177TIP3    H127474   5.608   3.942   0.209  1.2583 -0.6257  2.3448
 9177TIP3    H227475   5.670   3.804   0.203  1.4264 -0.4935 -0.2616
 9178TIP3   OH227476   4.287   0.957   4.544 -0.3696 -0.3412  0.3478
 9178TIP3    H127477   4.304   1.018   4.473 -1.2887  1.0543  1.2637
 9178TIP3    H227478   4.366   0.960   4.598 -0.3100 -0.1290  0.2508
 9179TIP3   OH227479   6.425   4.154   3.287 -0.1322  0.1972 -0.2896
 9179TIP3    H127480   6.510   4.112   3.299  0.3831  1.1065 -0.6351
 9179TIP3    H227481   6.438   4.213   3.213 -0.7625  1.1217  0.3132
 9180TIP3   OH227482   1.312   3.511   2.631  0.0013 -0.1014 -0.4331
 9180TIP3    H127483   1.275   3.433   2.672  0.5629 -1.0390 -1.6710
 9180TIP3    H227484   1.389   3.480   2.585  0.5872  1.3021 -0.4449
 9181TIP3   OH227485   4.293   6.442   3.115  0.1740  0.3829 -0.1550
 9181TIP3    H127486   4.202   6.468   3.124 -0.1358 -0.5017 -0.5696
 9181TIP3    H227487   4.343   6.514   3.152 -0.7388  0.1417  1.6589
 9182TIP3   OH227488   2.412   6.645   3.877 -0.3066  0.0874  0.5324
 9182TIP3    H127489   2.320   6.642   3.904 -0.0491 -0.8173  1.3666
 9182TIP3    H227490   2.443   6.556   3.888  0.2437  0.0138 -1.3523
 9183TIP3   OH227491   0.999   0.920   3.570  0.1350  0.6254 -0.0455
 9183TIP3    H127492   1.060   0.924   3.644 -1.4437  1.2153  1.2772
 9183TIP3    H227493   0.921   0.879   3.605 -0.5741  0.6923 -1.4737
 9184TIP3   OH227494   5.533   0.730   1.668  0.0480  0.4234 -0.1272
 9184TIP3    H127495   5.489   0.812   1.691 -0.3274  0.2025 -0.0504
 9184TIP3    H227496   5.496   0.706   1.584  0.0776  0.2759 -0.0983
 9185TIP3   OH227497   3.933   2.185   1.601  0.0449 -0.1201  0.0881
 9185TIP3    H127498   3.898   2.195   1.512 -0.8633  2.6568  0.6750
 9185TIP3    H227499   3.987   2.262   1.615 -1.8393  0.8922  2.7560
 9186TIP3   OH227500   7.276   2.862   3.186  0.3883  0.0942  0.2101
 9186TIP3    H127501   7.308   2.880   3.274  0.7959  0.3509  0.0058
 9186TIP3    H227502   7.254   2.768   3.188 -1.0741  0.4255  1.0504
 9187TIP3   OH227503   4.503   6.633   6.519  0.4524  0.5300 -0.2716
 9187TIP3    H127504   4.517   6.699   6.452  2.0345  1.6065  1.0297
 9187TIP3    H227505   4.523   6.550   6.476  1.2961  1.1758 -1.1790
 9188TIP3   OH227506   6.958   7.329   3.554 -0.6050 -0.0341 -0.5636
 9188TIP3    H127507   6.925   7.354   3.640 -0.2566  1.1805 -0.7707
 9188TIP3    H227508   6.880   7.316   3.501 -0.9201 -2.5146  0.3351
 9189TIP3   OH227509   0.533   2.216   3.432 -0.2542  0.0190 -0.0838
 9189TIP3    H127510   0.449   2.179   3.460 -0.3431 -0.3131 -0.7619
 9189TIP3    H227511   0.573   2.249   3.512 -1.2036  0.5327  0.1909
 9190TIP3   OH227512   6.570   4.936   3.159  0.2494 -0.5535  0.0990
 9190TIP3    H127513   6.484   4.949   3.199 -0.2741 -0.9270 -0.8617
 9190TIP3    H227514   6.556   4.867   3.094  0.7984  0.7146 -1.4502
 9191TIP3   OH227515   6.981   6.825   1.657 -0.2394  0.4612 -0.1016
 9191TIP3    H127516   7.051   6.887   1.639  0.1542 -0.2585 -1.2009
 9191TIP3    H227517   7.026   6.744   1.680 -0.6106 -0.3846 -2.0671
 9192TIP3   OH227518   7.850   4.830   5.800 -0.2241 -0.3450  0.2608
 9192TIP3    H127519   7.883   4.747   5.765  0.2436 -0.2692  0.5290
 9192TIP3    H227520   7.914   4.895   5.773 -1.3193  0.1897 -1.2377
 9193TIP3   OH227521   3.059   2.151   5.942  0.3147  0.8650  0.3211
 9193TIP3    H127522   3.147   2.151   5.980  1.0267  0.7773 -1.2333
 9193TIP3    H227523   3.059   2.226   5.883 -0.0545 -0.1110 -0.9561
 9194TIP3   OH227524   7.979   0.099   1.207 -0.1814 -0.4535 -0.0262
 9194TIP3    H127525   7.983   0.038   1.133 -2.1939 -0.4548 -0.2029
 9194TIP3    H227526   8.065   0.094   1.248  0.6781 -1.1526 -1.8200
 9195TIP3   OH227527   4.124   7.165   0.351  0.0452 -0.2037  0.5431
 9195TIP3    H127528   4.130   7.240   0.411 -0.5429 -1.2315  1.9492
 9195TIP3    H227529   4.030   7.148   0.344  0.0615  0.2698 -1.1935
 9196TIP3   OH227530   2.874   3.341   1.455 -0.3552  0.2844  0.0114
 9196TIP3    H127531   2.791   3.389   1.460  0.3798  1.4397  1.7748
 9196TIP3    H227532   2.879   3.294   1.538  0.5386 -0.1694 -0.2886
 9197TIP3   OH227533   3.121   7.034   2.850  0.1540  0.1060  0.3966
 9197TIP3    H127534   3.092   7.113   2.803 -2.3990 -1.1272 -0.2803
 9197TIP3    H227535   3.046   7.010   2.905  0.6219 -2.1658  0.1343
 9198TIP3   OH227536   5.052   1.472   3.686  0.7527  0.2198 -0.0442
 9198TIP3    H127537   5.068   1.556   3.728  1.2796  1.0438 -1.7737
 9198TIP3    H227538   5.075   1.487   3.594 -0.8377 -1.3138 -0.7454
 9199TIP3   OH227539   0.664   0.075   0.258  0.5838  0.1515  0.3339
 9199TIP3    H127540   0.649  -0.006   0.306 -1.6525 -0.4439 -1.2100
 9199TIP3    H227541   0.710   0.048   0.179 -2.6556 -0.2381 -1.6169
 9200TIP3   OH227542   0.091   5.335   3.234 -0.5004 -0.4278 -0.1344
 9200TIP3    H127543   0.174   5.306   3.272 -1.3372 -2.9693 -0.0875
 9200TIP3    H227544   0.053   5.393   3.300  2.0426  2.4850 -0.9771
 9201TIP3   OH227545   1.333   1.328   3.838  0.0215 -0.1659 -0.1421
 9201TIP3    H127546   1.343   1.234   3.829 -0.7489 -0.4198  1.3326
 9201TIP3    H227547   1.262   1.351   3.777  1.0718 -0.2872 -1.4720
 9202TIP3   OH227548   6.586   5.372   3.501  0.4791 -0.1713 -0.2952
 9202TIP3    H127549   6.624   5.409   3.421  0.6706 -0.5364 -0.3742
 9202TIP3    H227550   6.523   5.438   3.530  1.2008  0.4636 -0.1397
 9203TIP3   OH227551   2.511   3.778   0.092  0.1315 -0.2623 -0.3633
 9203TIP3    H127552   2.453   3.704   0.074  0.8794 -1.0480  0.3308
 9203TIP3    H227553   2.587   3.738   0.136  1.0478  0.7721 -0.9653
 9204TIP3   OH227554   4.243   6.938   2.209 -0.1445  0.1378  0.3726
 9204TIP3    H127555   4.330   6.956   2.175  0.4773 -3.4006 -0.3578
 9204TIP3    H227556   4.258   6.914   2.301  0.2793 -3.4159 -0.4761
 9205TIP3   OH227557   0.428   3.390   2.434  0.1740  0.0785 -0.1814
 9205TIP3    H127558   0.481   3.360   2.508 -0.9240  0.7387  0.9145
 9205TIP3    H227559   0.480   3.370   2.357  0.7576 -1.9130  0.6726
 9206TIP3   OH227560   6.924   0.196   1.291 -0.1325  0.3062 -0.0205
 9206TIP3    H127561   6.854   0.139   1.324  0.7540 -0.4947  0.5389
 9206TIP3    H227562   6.979   0.212   1.368  0.9072 -0.0041 -0.6773
 9207TIP3   OH227563   3.022   3.020   3.786  0.0600 -0.3296 -0.0641
 9207TIP3    H127564   3.094   3.082   3.771 -0.5531  0.1577 -1.0758
 9207TIP3    H227565   3.065   2.943   3.823  0.9947  0.2485  0.0921
 9208TIP3   OH227566   2.603   2.152   4.551 -0.4730 -0.0247  0.3289
 9208TIP3    H127567   2.590   2.151   4.646 -1.4657  4.5333  0.4603
 9208TIP3    H227568   2.685   2.200   4.538 -1.2201  0.9342 -1.0764
 9209TIP3   OH227569   4.182   2.895   2.583 -0.3678 -0.0349  0.3165
 9209TIP3    H127570   4.187   2.975   2.635  1.0005  1.5878 -2.1257
 9209TIP3    H227571   4.273   2.866   2.574 -0.6015 -0.4997 -0.7955
 9210TIP3   OH227572   6.681   3.447   0.813  0.2571 -0.3976 -0.6412
 9210TIP3    H127573   6.658   3.440   0.905 -0.8279 -0.5626 -0.9079
 9210TIP3    H227574   6.727   3.531   0.806  1.7911 -1.1248  0.3140
 9211TIP3   OH227575   4.844   6.311   6.566 -0.2318  1.0211 -0.6221
 9211TIP3    H127576   4.883   6.393   6.536 -1.8431  1.3232 -2.0873
 9211TIP3    H227577   4.754   6.334   6.588 -0.4844 -0.2074 -0.2843
 9212TIP3   OH227578   7.371   7.495   6.432 -0.1366 -0.3946  0.3309
 9212TIP3    H127579   7.321   7.563   6.477  2.9988  0.9440  2.0497
 9212TIP3    H227580   7.391   7.534   6.346  1.8591  1.0837  1.3951
 9213TIP3   OH227581   5.392   7.418   1.600  0.1836  0.3489  0.3146
 9213TIP3    H127582   5.465   7.426   1.662  0.0113 -1.4229  0.8239
 9213TIP3    H227583   5.426   7.361   1.531 -0.1376  1.0218 -0.4065
 9214TIP3   OH227584   4.127   5.535   1.426 -0.0507 -0.1554 -0.1164
 9214TIP3    H127585   4.079   5.547   1.344  1.8177  0.9266 -1.0966
 9214TIP3    H227586   4.106   5.612   1.478  0.1458  0.0182 -0.2952
 9215TIP3   OH227587   7.435   1.963   5.444 -0.5333  0.4008  0.2427
 9215TIP3    H127588   7.390   1.928   5.367  0.2966 -0.3257  0.0827
 9215TIP3    H227589   7.400   1.912   5.517 -0.9504  0.7540  0.2985
 9216TIP3   OH227590   0.937   3.424   2.418  0.1155  0.2353  0.1750
 9216TIP3    H127591   0.854   3.467   2.441 -0.7947 -0.4146 -1.6697
 9216TIP3    H227592   1.003   3.493   2.426 -0.8601  1.2116  0.0844
 9217TIP3   OH227593   1.284   1.096   2.437 -0.6987 -0.1749  0.3042
 9217TIP3    H127594   1.347   1.133   2.499 -0.1915  0.1515 -0.3854
 9217TIP3    H227595   1.279   1.003   2.460 -0.0527 -0.1766  0.4491
 9218TIP3   OH227596   6.457   2.462   5.734 -0.3167 -0.1130 -0.7312
 9218TIP3    H127597   6.397   2.535   5.751 -1.2075 -0.8194 -0.8279
 9218TIP3    H227598   6.490   2.438   5.821 -1.6017 -0.9247 -0.4408
 9219TIP3   OH227599   3.134   6.801   4.071  0.1801 -0.0408  0.4975
 9219TIP3    H127600   3.066   6.866   4.054  0.2044 -0.4166 -1.2559
 9219TIP3    H227601   3.160   6.816   4.162  1.1225  3.2987 -0.1948
 9220TIP3   OH227602   4.996   4.493   2.957  0.0338 -0.4949 -0.3092
 9220TIP3    H127603   5.080   4.453   2.934  0.4191  0.3064 -0.3297
 9220TIP3    H227604   4.991   4.570   2.900 -0.2551  0.0086  0.3953
 9221TIP3   OH227605   2.276   1.154   5.872 -0.1350 -0.1440  0.0847
 9221TIP3    H127606   2.212   1.082   5.875  0.2028 -0.4619 -0.2723
 9221TIP3    H227607   2.246   1.216   5.939  0.4595 -1.3562  1.5275
 9222TIP3   OH227608   0.330   3.130   5.327  0.0686  0.3928 -0.0725
 9222TIP3    H127609   0.245   3.151   5.367  0.3119  3.3180 -0.9066
 9222TIP3    H227610   0.389   3.120   5.401 -0.9535 -1.7732  0.5291
 9223TIP3   OH227611   0.087   4.970   5.690  0.2006  0.6458  0.0449
 9223TIP3    H127612   0.051   4.896   5.641 -1.4814  1.7350 -0.4415
 9223TIP3    H227613   0.121   4.932   5.771  0.8259 -0.8520 -0.8807
 9224TIP3   OH227614   1.218   4.763   6.234  0.2114  0.4283  0.1970
 9224TIP3    H127615   1.174   4.752   6.318  0.1470  0.3268  0.1501
 9224TIP3    H227616   1.150   4.750   6.168  0.3831 -0.0772  0.1181
 9225TIP3   OH227617   7.374   7.144   6.048 -0.0351 -0.2275 -0.4287
 9225TIP3    H127618   7.334   7.224   6.082  0.8463 -0.3363  0.9626
 9225TIP3    H227619   7.381   7.159   5.954 -0.3277  1.1412 -0.2603
 9226TIP3   OH227620   1.968   2.767   1.554 -0.2055 -0.1586 -0.2870
 9226TIP3    H127621   1.934   2.814   1.478 -2.5441 -0.4967  0.4813
 9226TIP3    H227622   1.926   2.808   1.629 -0.6452 -2.0508  0.5675
 9227TIP3   OH227623   5.470   0.103   5.126  0.1908  0.2818 -0.0889
 9227TIP3    H127624   5.556   0.063   5.114 -0.0936 -0.6985  0.9474
 9227TIP3    H227625   5.450   0.143   5.041  2.3117  1.8928  0.0713
 9228TIP3   OH227626   4.711   2.824   3.751 -0.5223 -0.2399  0.3828
 9228TIP3    H127627   4.669   2.806   3.666 -0.0433  1.2308 -0.2035
 9228TIP3    H227628   4.794   2.776   3.747 -0.2262  0.3030 -0.2535
 9229TIP3   OH227629   1.576   6.967   2.277  0.3609 -0.6250  0.3652
 9229TIP3    H127630   1.557   6.887   2.327  0.9195 -1.2539 -0.4052
 9229TIP3    H227631   1.606   7.030   2.343  0.2670 -1.1628  0.9349
 9230TIP3   OH227632   0.474   5.693   6.469 -0.2232  0.2412  0.2293
 9230TIP3    H127633   0.533   5.768   6.459  0.8286 -0.4370  1.1880
 9230TIP3    H227634   0.531   5.616   6.465 -1.0146 -0.4283  1.2430
 9231TIP3   OH227635   3.015   3.651   4.620  0.1026  0.0734  0.5574
 9231TIP3    H127636   2.989   3.615   4.704  1.5415 -1.5453  0.3643
 9231TIP3    H227637   3.050   3.738   4.641  0.3500 -0.2708  1.6311
 9232TIP3   OH227638   6.608   0.677   1.762  0.4439 -0.6242 -0.3950
 9232TIP3    H127639   6.570   0.597   1.796  1.6730 -0.4494  1.5643
 9232TIP3    H227640   6.690   0.649   1.721  2.0619 -0.2350  2.3290
 9233TIP3   OH227641   1.246   2.495   5.115  0.3781  0.1097  0.5656
 9233TIP3    H127642   1.340   2.489   5.099  0.3754  0.0457  0.5732
 9233TIP3    H227643   1.214   2.405   5.109  0.5778 -0.1072  2.1193
 9234TIP3   OH227644   1.413   1.988   4.725  0.3696 -0.2326 -0.3716
 9234TIP3    H127645   1.382   2.033   4.804 -0.6881  0.2848 -1.0656
 9234TIP3    H227646   1.499   2.027   4.708 -0.4122  1.3975 -0.8096
 9235TIP3   OH227647   4.548   6.149   2.019  0.4369  0.0471  0.1394
 9235TIP3    H127648   4.626   6.192   2.054 -0.0873  1.3656 -0.2313
 9235TIP3    H227649   4.483   6.158   2.088  0.7922 -1.7490  0.7718
 9236TIP3   OH227650   0.518   4.901   2.230 -0.2607 -0.2335  0.5531
 9236TIP3    H127651   0.514   4.818   2.182 -0.9264 -1.1585  2.1217
 9236TIP3    H227652   0.610   4.929   2.221 -0.3663 -0.3461 -1.2143
 9237TIP3   OH227653   5.909   6.082   0.882  0.2597 -0.3148  0.0797
 9237TIP3    H127654   5.921   6.122   0.796  1.3599 -1.3397 -0.2700
 9237TIP3    H227655   5.831   6.124   0.917  0.0687  0.4712 -1.2128
 9238TIP3   OH227656   0.654   4.422   2.709  0.0845 -0.2480  0.4077
 9238TIP3    H127657   0.744   4.455   2.712  0.2537 -0.7260  0.6479
 9238TIP3    H227658   0.600   4.498   2.733  0.4829 -0.1701  1.0798
 9239TIP3   OH227659   1.950   1.685   4.559  0.3612  0.8493 -0.2189
 9239TIP3    H127660   2.040   1.717   4.557  0.2881  1.3060  1.9553
 9239TIP3    H227661   1.906   1.740   4.624 -0.7072 -1.3007  1.0012
 9240TIP3   OH227662   5.834   0.569   1.301 -0.1757 -0.2932 -0.6925
 9240TIP3    H127663   5.798   0.649   1.264 -1.2766 -1.1731 -1.5988
 9240TIP3    H227664   5.823   0.579   1.396 -1.0062  0.3061 -0.8431
 9241TIP3   OH227665   3.540   7.665   5.607  0.3290 -0.0793 -0.3240
 9241TIP3    H127666   3.535   7.572   5.628  1.8437 -0.1941 -0.3720
 9241TIP3    H227667   3.487   7.708   5.674  1.9858 -0.7423  1.4991
 9242TIP3   OH227668   1.435   6.224   4.834  0.1298  0.5839 -0.5402
 9242TIP3    H127669   1.505   6.288   4.848  0.3701  0.1951  0.0791
 9242TIP3    H227670   1.477   6.139   4.845 -0.1580  0.3086 -1.5153
 9243TIP3   OH227671   2.144   6.990   6.462 -0.2606 -0.1414  0.6455
 9243TIP3    H127672   2.123   7.081   6.480 -1.2162 -0.1216 -0.4392
 9243TIP3    H227673   2.182   6.990   6.374 -0.8521 -0.8516  0.3748
 9244TIP3   OH227674   5.500   5.106   3.766  0.2148 -0.7157  0.7245
 9244TIP3    H127675   5.437   5.174   3.791  0.8543  0.4538 -0.7295
 9244TIP3    H227676   5.460   5.062   3.691  0.7439 -0.5324  0.3305
 9245TIP3   OH227677   1.908   4.850   4.291 -0.6500  0.1835 -0.0150
 9245TIP3    H127678   1.970   4.818   4.357 -0.6115 -1.6580 -0.8794
 9245TIP3    H227679   1.845   4.779   4.281 -2.1730  1.4806 -0.1220
 9246TIP3   OH227680   3.533   6.657   0.605 -0.1044  0.1861 -0.6555
 9246TIP3    H127681   3.533   6.718   0.678 -0.9392  0.8394 -1.1801
 9246TIP3    H227682   3.621   6.664   0.568 -0.0428  0.7128 -0.4197
 9247TIP3   OH227683   1.538   5.381   3.481 -0.2060 -0.5623 -0.0224
 9247TIP3    H127684   1.459   5.381   3.535  0.1366 -3.1281  0.6169
 9247TIP3    H227685   1.608   5.404   3.542 -0.2265 -0.1223 -0.1632
 9248TIP3   OH227686   2.221   1.004   4.958  0.1516  0.0529  0.0431
 9248TIP3    H127687   2.133   0.991   4.993 -0.2662  0.2897 -0.8850
 9248TIP3    H227688   2.278   0.953   5.015 -0.2597  1.7889  2.1450
 9249TIP3   OH227689   1.961   6.756   6.429 -0.5122 -0.4848  0.5749
 9249TIP3    H127690   1.981   6.849   6.432 -0.2259 -0.5312  0.1625
 9249TIP3    H227691   1.986   6.729   6.341 -2.0491 -0.6262  0.1619
 9250TIP3   OH227692   4.901   2.203   3.769  0.7114 -0.1146 -0.4782
 9250TIP3    H127693   4.850   2.124   3.752 -0.6011  0.3735  0.9653
 9250TIP3    H227694   4.989   2.182   3.738  0.1419 -1.7571 -1.0733
 9251TIP3   OH227695   5.272   5.576   4.583 -0.1813  0.0510 -0.3848
 9251TIP3    H127696   5.278   5.666   4.552 -2.3838  0.6461  0.7141
 9251TIP3    H227697   5.320   5.575   4.666  0.5688 -0.0218 -0.8124
 9252TIP3   OH227698   1.926   7.164   0.674  0.1640  0.0517 -0.0766
 9252TIP3    H127699   1.865   7.124   0.737  2.9253  0.9952  3.5759
 9252TIP3    H227700   1.987   7.095   0.652  1.8241  0.7099  2.0499
 9253TIP3   OH227701   8.106   4.602   5.155  0.3523  0.0595  0.3902
 9253TIP3    H127702   8.020   4.641   5.169  0.0567 -0.6369  0.5405
 9253TIP3    H227703   8.104   4.571   5.064  0.1324 -0.7017  0.6438
 9254TIP3   OH227704   6.104   3.271   2.850 -0.1500  0.0588  0.2701
 9254TIP3    H127705   6.174   3.207   2.835 -0.5342 -0.6407  1.3571
 9254TIP3    H227706   6.024   3.218   2.857 -0.9684  0.8973 -1.7744
 9255TIP3   OH227707   4.428   0.643   6.602  0.3678 -0.1115  0.3736
 9255TIP3    H127708   4.380   0.574   6.556  0.6920 -1.1642  1.5566
 9255TIP3    H227709   4.362   0.710   6.620  0.0802 -0.0277 -0.9237
 9256TIP3   OH227710   7.045   3.256   0.359 -0.2450 -0.1491  0.0935
 9256TIP3    H127711   7.097   3.316   0.305 -0.3037 -0.1301  0.0579
 9256TIP3    H227712   7.055   3.171   0.317  0.4322 -0.3029  0.5631
 9257TIP3   OH227713   3.383   0.741   1.012 -0.2754 -0.6576 -0.4368
 9257TIP3    H127714   3.305   0.693   1.039 -0.4678  0.5351  1.2957
 9257TIP3    H227715   3.440   0.740   1.089  0.3622  0.5737 -0.8564
 9258TIP3   OH227716   7.857   6.808   0.057  0.1342 -0.0433 -0.4205
 9258TIP3    H127717   7.938   6.811   0.108 -0.4785  2.0813  0.5291
 9258TIP3    H227718   7.788   6.804   0.123 -0.5707 -2.7506 -1.2319
 9259TIP3   OH227719   7.956   3.988   2.032  0.2667 -0.5035 -0.4292
 9259TIP3    H127720   7.875   4.032   2.009 -1.4679 -3.0391  0.3767
 9259TIP3    H227721   8.023   4.028   1.976 -1.4024  2.0221 -0.7302
 9260TIP3   OH227722   1.482   3.903   6.587  0.4794 -0.1556  0.3547
 9260TIP3    H127723   1.576   3.898   6.570  0.5248  0.3427  0.4738
 9260TIP3    H227724   1.466   3.994   6.610 -0.0280 -0.2472  0.3718
 9261TIP3   OH227725   5.027   5.783   0.677 -0.2060 -0.2068  0.4719
 9261TIP3    H127726   5.062   5.749   0.595 -1.5770 -0.6935  0.0471
 9261TIP3    H227727   5.087   5.853   0.702 -0.7132  1.2180 -1.9320
 9262TIP3   OH227728   3.440   2.852   6.267  0.0389  0.3356 -0.2036
 9262TIP3    H127729   3.422   2.769   6.311  0.2195 -0.8795 -2.2809
 9262TIP3    H227730   3.359   2.902   6.276 -0.9518 -1.0611 -0.9477
 9263TIP3   OH227731   0.435   5.799   4.137 -0.3818  0.3178  0.5550
 9263TIP3    H127732   0.418   5.734   4.205  1.1567 -0.6665  0.0369
 9263TIP3    H227733   0.365   5.864   4.148 -2.1693 -1.5724  0.8442
 9264TIP3   OH227734   1.202   5.397   4.291 -0.5842  0.1216  0.1770
 9264TIP3    H127735   1.258   5.319   4.287  0.2840  0.6188  1.5468
 9264TIP3    H227736   1.263   5.470   4.279 -1.2411  0.6147 -0.1763
 9265TIP3   OH227737   0.284   5.585   6.215  0.1504 -0.2788 -0.3061
 9265TIP3    H127738   0.323   5.532   6.285  1.1073  1.8922  0.9168
 9265TIP3    H227739   0.261   5.522   6.147  1.1917 -2.2419  1.0634
 9266TIP3   OH227740   7.113   4.169   0.077  0.1520  0.5067  0.2033
 9266TIP3    H127741   7.125   4.105   0.148  1.5894 -0.0525 -0.5236
 9266TIP3    H227742   7.131   4.120  -0.003 -2.1889  0.9323 -0.6635
 9267TIP3   OH227743   7.897   3.487   2.114 -0.6397  0.2307  0.4887
 9267TIP3    H127744   7.990   3.492   2.090 -0.8414  0.6901 -0.2399
 9267TIP3    H227745   7.859   3.567   2.077 -1.7566 -1.0051 -1.2024
 9268TIP3   OH227746   5.698   5.149   5.086  0.3824  0.4555 -0.0795
 9268TIP3    H127747   5.766   5.157   5.154  0.1756 -0.5901  0.2614
 9268TIP3    H227748   5.704   5.231   5.037  0.5532  1.2345  1.1914
 9269TIP3   OH227749   6.166   5.237   3.170  0.2286  0.2090 -0.6781
 9269TIP3    H127750   6.204   5.279   3.093  0.6810 -0.3020 -0.7411
 9269TIP3    H227751   6.218   5.157   3.182 -0.4205 -0.1757 -0.3815
 9270TIP3   OH227752   7.316   5.429   0.228  0.8778  0.1617 -0.3017
 9270TIP3    H127753   7.244   5.443   0.166  0.2114  0.5323  0.5306
 9270TIP3    H227754   7.283   5.364   0.290  1.6533 -0.4454 -0.5148
 9271TIP3   OH227755   6.720   3.820   1.798 -0.4333 -0.1349 -0.4337
 9271TIP3    H127756   6.730   3.766   1.877 -0.4775 -1.2553 -1.1704
 9271TIP3    H227757   6.810   3.831   1.767 -0.3568  0.8326  0.1012
 9272TIP3   OH227758   1.758   3.419   4.005 -0.3711 -0.1140  0.6912
 9272TIP3    H127759   1.700   3.379   3.940  0.6251 -3.3164  1.5571
 9272TIP3    H227760   1.707   3.419   4.086 -0.4738  0.7855  0.6390
 9273TIP3   OH227761   0.137   0.206   3.510  0.3064  0.9195  0.1990
 9273TIP3    H127762   0.078   0.142   3.550  0.9787  0.5528  0.6133
 9273TIP3    H227763   0.225   0.171   3.525  0.6774  1.8562  0.2864
 9274TIP3   OH227764   5.655   2.755   4.328 -0.5928  0.3187  0.0680
 9274TIP3    H127765   5.649   2.850   4.330  1.3473  0.4805  2.7320
 9274TIP3    H227766   5.746   2.736   4.305 -1.3318 -0.9928 -2.0754
 9275TIP3   OH227767   0.206   1.279   1.140  0.1704 -0.1941 -0.0814
 9275TIP3    H127768   0.246   1.192   1.150  0.8141  0.1063  0.0369
 9275TIP3    H227769   0.273   1.340   1.173 -0.2885  0.3440 -0.1282
 9276TIP3   OH227770   3.331   0.641   3.228  0.3663  0.3981  0.1314
 9276TIP3    H127771   3.289   0.610   3.148  1.7767 -0.2776 -0.3899
 9276TIP3    H227772   3.343   0.563   3.281  2.1977  0.2888 -0.3568
 9277TIP3   OH227773   3.208   6.190   3.850  0.6296  0.0407  0.2139
 9277TIP3    H127774   3.167   6.270   3.882 -0.2775 -0.6140  0.7632
 9277TIP3    H227775   3.181   6.183   3.758  1.0227  0.5539  0.0590
 9278TIP3   OH227776   4.833   7.567   5.464  0.1201 -0.0948 -0.2774
 9278TIP3    H127777   4.798   7.631   5.525  1.1644  0.5986 -0.3729
 9278TIP3    H227778   4.796   7.591   5.379 -2.5322 -1.9501  0.2209
 9279TIP3   OH227779   0.031   5.873   2.003  0.3929 -0.3921  0.3061
 9279TIP3    H127780   0.024   5.827   1.919 -2.1151  2.3484 -1.1893
 9279TIP3    H227781   0.086   5.949   1.985  0.2499 -0.0345  1.3022
 9280TIP3   OH227782   5.766   1.940   1.661 -0.3832 -0.3661 -0.9058
 9280TIP3    H127783   5.843   1.996   1.648 -0.0887  0.5960  3.3646
 9280TIP3    H227784   5.797   1.851   1.641  1.7308  0.0773  0.0710
 9281TIP3   OH227785   1.673   1.804   4.823  0.4427  0.1203 -0.0306
 9281TIP3    H127786   1.629   1.719   4.830 -0.0048  0.0280 -2.6581
 9281TIP3    H227787   1.642   1.853   4.899 -0.1894 -1.6643  0.9404
 9282TIP3   OH227788   1.095   4.419   3.693  0.0655 -0.5210 -0.0252
 9282TIP3    H127789   1.185   4.434   3.663  0.2561  0.3659  0.9146
 9282TIP3    H227790   1.101   4.426   3.788 -0.8308 -1.4737  0.1111
 9283TIP3   OH227791   1.662   3.134   5.939 -0.2447 -0.1605  0.0077
 9283TIP3    H127792   1.685   3.214   5.986  1.7564  0.2050 -1.4563
 9283TIP3    H227793   1.683   3.063   6.000 -1.5234  0.3706  1.1153
 9284TIP3   OH227794   4.078   2.696   2.429 -0.1436 -0.3324 -0.9277
 9284TIP3    H127795   4.119   2.734   2.351  1.4147  1.6110  0.7333
 9284TIP3    H227796   4.091   2.761   2.498 -2.9023 -1.2526  0.6239
 9285TIP3   OH227797   3.904   5.457   2.485  0.8445 -0.1046 -0.4311
 9285TIP3    H127798   3.987   5.473   2.530  0.1737  1.9097  0.2029
 9285TIP3    H227799   3.930   5.428   2.397  2.1605 -2.4615  0.6434
 9286TIP3   OH227800   0.066   4.773   1.245 -0.0311 -0.1460  0.2744
 9286TIP3    H127801   0.116   4.780   1.164  2.2102 -0.1503  1.5952
 9286TIP3    H227802   0.120   4.817   1.311 -1.1192 -1.3698  2.0589
 9287TIP3   OH227803   8.008   6.375   3.156 -0.2713  0.2313 -0.5371
 9287TIP3    H127804   8.059   6.359   3.077 -0.1324  1.8663 -0.8123
 9287TIP3    H227805   7.949   6.447   3.133 -0.6450  0.3453  0.6725
 9288TIP3   OH227806   4.314   1.095   0.573 -0.3415  0.6555 -0.4150
 9288TIP3    H127807   4.249   1.146   0.623 -0.2932 -0.9075  1.3390
 9288TIP3    H227808   4.300   1.122   0.482 -3.0440  0.8507 -0.0370
 9289TIP3   OH227809   7.786   5.819   3.803  0.6218 -0.2655 -0.4042
 9289TIP3    H127810   7.773   5.823   3.898  0.3290 -2.0257 -0.3374
 9289TIP3    H227811   7.756   5.904   3.771 -1.3165 -0.4161  0.8619
 9290TIP3   OH227812   1.976   6.607   6.666 -0.1090  0.3089  0.1756
 9290TIP3    H127813   2.006   6.664   6.736 -1.2542  1.0580  0.0771
 9290TIP3    H227814   1.984   6.659   6.586  0.4627 -0.2736 -0.1622
 9291TIP3   OH227815   4.950   4.990   1.348 -0.1658  0.2124  0.4673
 9291TIP3    H127816   4.954   5.085   1.332 -0.4687  0.2748  0.7606
 9291TIP3    H227817   5.032   4.970   1.392  0.1934  0.2242 -0.1814
 9292TIP3   OH227818   6.620   2.622   3.652 -0.3111 -0.1873  0.6858
 9292TIP3    H127819   6.608   2.688   3.583  2.8465  0.2808  0.4136
 9292TIP3    H227820   6.612   2.671   3.734  0.5548  0.2758  0.5114
 9293TIP3   OH227821   2.436   7.618   5.720 -0.5874  0.0023  0.3185
 9293TIP3    H127822   2.438   7.523   5.728 -1.7285  0.1091  2.4367
 9293TIP3    H227823   2.505   7.649   5.778 -0.7315  0.4960  0.2352
 9294TIP3   OH227824   4.327   6.305   1.096 -0.4100  0.0549  0.1322
 9294TIP3    H127825   4.303   6.219   1.062  0.8749 -0.5881  0.7915
 9294TIP3    H227826   4.349   6.357   1.019  0.1939 -0.6593 -0.1806
 9295TIP3   OH227827   4.253   4.117   5.577 -0.2326  0.2007 -0.3114
 9295TIP3    H127828   4.241   4.023   5.564  0.2512  0.2398 -1.1516
 9295TIP3    H227829   4.335   4.125   5.624 -0.0167  0.2185 -0.6870
 9296TIP3   OH227830   7.845   0.432   0.466 -0.0737 -0.5149  0.2059
 9296TIP3    H127831   7.768   0.463   0.419  0.7594  1.8531  0.2744
 9296TIP3    H227832   7.811   0.371   0.531 -1.7541 -0.3247 -0.4662
 9297TIP3   OH227833   2.627   1.737   4.478 -0.2075 -0.1340  0.2120
 9297TIP3    H127834   2.585   1.725   4.393  0.4124 -1.9525  0.1177
 9297TIP3    H227835   2.624   1.650   4.518  3.2538 -0.3660  0.2855
 9298TIP3   OH227836   4.335   6.321   5.181  0.0097  0.0116 -0.4512
 9298TIP3    H127837   4.380   6.405   5.192 -2.1171  0.8954  3.1220
 9298TIP3    H227838   4.403   6.255   5.192  1.4996  1.1687 -2.1150
 9299TIP3   OH227839   5.395   6.151   0.404  0.4010 -0.2342  0.0756
 9299TIP3    H127840   5.344   6.190   0.333 -0.5939 -3.4137 -1.1449
 9299TIP3    H227841   5.434   6.073   0.364  1.6263 -0.9475  2.4866
 9300TIP3   OH227842   7.086   7.116   0.885 -0.3298  0.1706 -0.3493
 9300TIP3    H127843   7.093   7.196   0.936 -0.0557  0.1109 -0.2927
 9300TIP3    H227844   6.995   7.088   0.896 -0.7635  1.1210 -1.3381
 9301TIP3   OH227845   7.999   4.291   5.173 -0.0542  0.0526 -0.1429
 9301TIP3    H127846   7.939   4.361   5.199  0.0146  0.2761 -0.5864
 9301TIP3    H227847   7.943   4.215   5.160 -0.5058  0.6676 -2.2120
 9302TIP3   OH227848   6.124   4.060   3.213 -0.7732  0.0034  0.1788
 9302TIP3    H127849   6.154   4.143   3.248 -2.3713  0.4003  0.7150
 9302TIP3    H227850   6.110   4.077   3.119 -1.2387  0.3891  0.3159
 9303TIP3   OH227851   0.577   6.336   1.196 -0.3998 -0.3113  0.1815
 9303TIP3    H127852   0.628   6.267   1.154 -0.2202  0.2613 -0.5501
 9303TIP3    H227853   0.491   6.332   1.153 -0.3905 -0.0909  0.1387
 9304TIP3   OH227854   5.235   2.200   2.466  0.4054  0.4712 -0.0684
 9304TIP3    H127855   5.197   2.277   2.508  3.4210  1.3784  1.2873
 9304TIP3    H227856   5.314   2.182   2.517  0.7940 -2.4418 -1.4846
 9305TIP3   OH227857   1.188   5.532   5.118 -0.2540  0.1443  0.0231
 9305TIP3    H127858   1.210   5.609   5.171  0.3510 -0.5232  0.7657
 9305TIP3    H227859   1.137   5.567   5.045  1.6836  1.5213 -0.7491
 9306TIP3   OH227860   4.592   3.666   4.229 -0.3111  0.5089  0.2575
 9306TIP3    H127861   4.668   3.643   4.283  0.1616 -1.1106 -1.0082
 9306TIP3    H227862   4.518   3.625   4.274  0.0390 -0.5862 -0.1246
 9307TIP3   OH227863   7.852   3.107   5.692 -0.2958  0.6113 -0.0719
 9307TIP3    H127864   7.798   3.029   5.706  0.3378  0.1950  0.0740
 9307TIP3    H227865   7.807   3.155   5.623 -0.5013 -0.0657 -0.4124
 9308TIP3   OH227866   6.582   7.616   3.420  0.2423  0.2511 -0.8647
 9308TIP3    H127867   6.610   7.707   3.429 -0.0607  0.3350 -0.7674
 9308TIP3    H227868   6.532   7.615   3.338  0.9868 -0.0125 -1.3267
 9309TIP3   OH227869   0.246   4.505   2.482  0.1399  0.1371  0.5667
 9309TIP3    H127870   0.179   4.554   2.434  0.4666  1.3402  1.2906
 9309TIP3    H227871   0.328   4.533   2.443  0.2445 -1.6373 -0.5900
 9310TIP3   OH227872   3.326   7.608   0.886  0.1575 -0.0003 -0.1988
 9310TIP3    H127873   3.282   7.693   0.895 -0.7582 -0.5566  0.8493
 9310TIP3    H227874   3.410   7.629   0.846 -0.3546  1.3106 -0.6549
 9311TIP3   OH227875   0.927   4.236   5.650 -0.2475  0.1592 -0.5535
 9311TIP3    H127876   0.969   4.321   5.650 -0.0476  0.0734 -1.5778
 9311TIP3    H227877   0.840   4.252   5.687  0.8857  0.1861  2.3768
 9312TIP3   OH227878   1.613   3.123   4.806  0.4434 -0.7112  0.1744
 9312TIP3    H127879   1.679   3.114   4.874  1.2379 -1.5919 -0.6886
 9312TIP3    H227880   1.533   3.148   4.854  0.7859 -2.0339  1.5108
 9313TIP3   OH227881   7.470   5.274   0.483 -0.5464 -0.3183  0.0123
 9313TIP3    H127882   7.491   5.278   0.576  3.1520 -2.2246 -0.5243
 9313TIP3    H227883   7.521   5.345   0.444 -0.3043 -0.8988 -0.7569
 9314TIP3   OH227884   2.309   0.905   6.514  0.8006 -0.2214  0.3342
 9314TIP3    H127885   2.398   0.935   6.533  1.3100 -0.6572 -1.1947
 9314TIP3    H227886   2.311   0.812   6.534  0.3213 -0.0017  1.4517
 9315TIP3   OH227887   6.254   3.778   5.524 -0.7287 -0.8820 -0.8704
 9315TIP3    H127888   6.312   3.853   5.516 -1.2172 -0.3483  0.4064
 9315TIP3    H227889   6.165   3.814   5.519 -0.9705 -1.3276 -0.0421
 9316TIP3   OH227890   0.608   0.699   3.040 -0.0374 -0.0698  0.0494
 9316TIP3    H127891   0.625   0.722   3.132  1.0846 -0.4728 -0.0414
 9316TIP3    H227892   0.610   0.603   3.039 -1.3475 -0.1011 -0.1670
 9317TIP3   OH227893   4.773   1.625   1.441  0.2648 -0.5636 -0.3056
 9317TIP3    H127894   4.795   1.713   1.411 -0.2186  0.1321  1.2468
 9317TIP3    H227895   4.710   1.639   1.512  1.7846 -2.0088  1.4599
 9318TIP3   OH227896   7.473   7.811   2.515  0.0418  0.0568  0.1705
 9318TIP3    H127897   7.461   7.840   2.606 -0.9270  0.8347 -0.1869
 9318TIP3    H227898   7.407   7.743   2.503  2.1091 -2.2000  0.9118
 9319TIP3   OH227899   7.674   3.470   0.285  0.0363  0.5447  0.2586
 9319TIP3    H127900   7.666   3.426   0.200  0.7267 -0.9370  0.9217
 9319TIP3    H227901   7.694   3.561   0.262  0.3489  0.1525 -1.1716
 9320TIP3   OH227902   7.694   4.647   2.260 -0.4325  0.3596  0.0237
 9320TIP3    H127903   7.697   4.609   2.348  0.5245  1.6808  0.6008
 9320TIP3    H227904   7.621   4.604   2.217 -0.3323 -0.9911  1.1547
 9321TIP3   OH227905   0.936   0.712   4.183 -0.4621 -0.1532 -0.5094
 9321TIP3    H127906   0.979   0.709   4.097  0.3416 -1.8263 -0.0785
 9321TIP3    H227907   0.917   0.621   4.203 -2.5149  0.3652  0.2006
 9322TIP3   OH227908   4.117   4.930   1.664  0.0584 -0.1785 -0.0081
 9322TIP3    H127909   4.207   4.950   1.691  0.1602  0.5581 -0.8323
 9322TIP3    H227910   4.085   4.868   1.729  1.2378 -0.6104  0.1792
 9323TIP3   OH227911   1.978   5.033   6.121  0.5822  0.7551 -0.7205
 9323TIP3    H127912   2.017   5.032   6.209  0.6433 -0.4371 -0.7530
 9323TIP3    H227913   1.910   5.100   6.126 -1.7265 -1.5238  1.2670
 9324TIP3   OH227914   3.570   5.043   3.057 -0.7698 -0.2909  0.3087
 9324TIP3    H127915   3.601   4.964   3.014 -0.5249  0.1295 -0.2932
 9324TIP3    H227916   3.593   5.114   2.997 -0.4940  0.2929  1.1005
 9325TIP3   OH227917   1.134   2.897   2.681 -0.4623 -0.4869 -1.1383
 9325TIP3    H127918   1.223   2.933   2.687 -0.7010  0.1159 -1.0719
 9325TIP3    H227919   1.078   2.968   2.713 -0.9261 -1.0738 -0.6332
 9326TIP3   OH227920   4.496   3.974   2.411 -0.2460  0.2966  0.0152
 9326TIP3    H127921   4.490   4.043   2.478 -0.5600 -0.0294  0.3216
 9326TIP3    H227922   4.588   3.977   2.383 -0.3555  1.1251 -0.2791
 9327TIP3   OH227923   6.321   6.793   2.371 -0.3122  0.4076  0.2072
 9327TIP3    H127924   6.389   6.860   2.360 -0.9845  1.2416  0.9623
 9327TIP3    H227925   6.246   6.840   2.407 -0.8969 -0.7169  0.5202
 9328TIP3   OH227926   8.069   3.066   6.617  0.4131  0.3698  0.1151
 9328TIP3    H127927   8.149   3.026   6.650 -0.2478  0.5216  2.0396
 9328TIP3    H227928   8.007   2.993   6.609 -0.1773  0.6405  1.6998
 9329TIP3   OH227929   0.420   6.975   0.578 -0.5311  0.1514  0.1879
 9329TIP3    H127930   0.387   6.974   0.667 -1.1991 -0.9047 -0.0480
 9329TIP3    H227931   0.391   6.891   0.541 -0.2259  0.5500 -0.9982
 9330TIP3   OH227932   1.816   5.161   4.253  0.1306 -0.0303 -0.3961
 9330TIP3    H127933   1.825   5.079   4.301 -0.9752 -0.7425 -1.3722
 9330TIP3    H227934   1.906   5.187   4.232  0.4647 -1.3441 -0.6379
 9331TIP3   OH227935   5.130   7.694   0.700 -0.2692  0.2840  0.2070
 9331TIP3    H127936   5.079   7.615   0.721  1.1700 -0.7454  0.0323
 9331TIP3    H227937   5.212   7.660   0.665  0.1546  1.8941 -0.4421
 9332TIP3   OH227938   4.439   3.163   3.422  0.0818 -0.0129 -0.4159
 9332TIP3    H127939   4.370   3.230   3.422  0.6892  0.6737  1.1018
 9332TIP3    H227940   4.521   3.212   3.420  0.5378 -0.6990  0.3077
 9333TIP3   OH227941   1.924   1.886   4.216  0.5514  0.4614 -0.1573
 9333TIP3    H127942   1.956   1.796   4.221  0.7369  0.4896 -0.8234
 9333TIP3    H227943   1.832   1.878   4.195  0.5181  0.4252 -0.0011
 9334TIP3   OH227944   2.195   1.124   5.331  0.1843 -0.4499  0.3375
 9334TIP3    H127945   2.185   1.197   5.393  1.5078 -1.4555  1.8030
 9334TIP3    H227946   2.106   1.088   5.323 -0.5004  1.2807 -0.4311
 9335TIP3   OH227947   7.821   0.408   1.456 -0.2991 -0.4387 -0.2679
 9335TIP3    H127948   7.829   0.495   1.416  1.9357 -0.8755 -0.8536
 9335TIP3    H227949   7.772   0.357   1.392 -1.4010  0.2851 -0.0353
 9336TIP3   OH227950   0.809   0.909   3.252  0.0116 -0.1291 -0.1320
 9336TIP3    H127951   0.761   0.980   3.294 -0.5689 -0.8694  0.4961
 9336TIP3    H227952   0.763   0.829   3.279  1.9274 -0.9206  1.0176
 9337TIP3   OH227953   6.352   6.306   3.059  0.0035  0.1452 -0.2386
 9337TIP3    H127954   6.404   6.357   3.120 -2.0041  1.1150  0.7638
 9337TIP3    H227955   6.261   6.329   3.080 -0.8414 -1.3558 -1.9732
 9338TIP3   OH227956   1.332   2.971   1.881  0.6048 -0.2801  0.0679
 9338TIP3    H127957   1.313   3.039   1.945  2.0014 -0.3723  0.6213
 9338TIP3    H227958   1.290   2.893   1.916  1.8604 -0.4672  1.2139
 9339TIP3   OH227959   6.880   1.589   6.497 -0.0611  0.4001 -0.0794
 9339TIP3    H127960   6.811   1.553   6.552 -1.0568  1.3215 -0.6738
 9339TIP3    H227961   6.956   1.597   6.555 -0.2347 -1.2284  0.4225
 9340TIP3   OH227962   0.186   3.112   3.908  0.4560  0.6519  0.0527
 9340TIP3    H127963   0.114   3.141   3.853  0.4283  0.3377 -0.0738
 9340TIP3    H227964   0.174   3.160   3.990 -1.0849 -0.9152  0.8007
 9341TIP3   OH227965   0.530   1.733   2.390 -0.7111  0.2903 -0.6408
 9341TIP3    H127966   0.531   1.670   2.463  0.7075 -0.1651 -1.0131
 9341TIP3    H227967   0.570   1.686   2.317 -0.3403  1.3662 -1.1597
 9342TIP3   OH227968   3.848   7.837   5.504 -0.2124  0.0748 -0.0787
 9342TIP3    H127969   3.866   7.758   5.555  2.2845  0.8706  0.4467
 9342TIP3    H227970   3.825   7.805   5.417 -1.4381 -1.2331  0.6840
 9343TIP3   OH227971   3.894   6.244   2.400  0.4239 -0.1233  0.0713
 9343TIP3    H127972   3.963   6.252   2.466 -0.0694  0.7219  0.5079
 9343TIP3    H227973   3.841   6.323   2.411  0.0199 -0.2224 -0.9902
 9344TIP3   OH227974   0.708   2.631   3.458 -0.1381 -0.5680  0.0314
 9344TIP3    H127975   0.632   2.578   3.434 -0.2027 -0.8238  0.7611
 9344TIP3    H227976   0.727   2.683   3.380 -0.6153 -1.0284 -0.4005
 9345TIP3   OH227977   3.688   4.565   4.814 -0.3793 -0.5238 -0.4586
 9345TIP3    H127978   3.625   4.506   4.773 -0.3369 -1.1414  0.3198
 9345TIP3    H227979   3.760   4.507   4.841 -1.2917 -0.5472  2.2925
 9346TIP3   OH227980   6.077   6.860   5.212 -0.4312 -0.4461  0.1461
 9346TIP3    H127981   6.065   6.902   5.127  0.1099  0.6748  0.6016
 9346TIP3    H227982   6.160   6.894   5.244  0.2325 -2.1892  0.3851
 9347TIP3   OH227983   4.513   3.510   6.064  0.2734 -0.1592 -0.7608
 9347TIP3    H127984   4.428   3.504   6.021 -0.4271 -0.8263  0.6431
 9347TIP3    H227985   4.524   3.424   6.106  0.6328  0.6544  0.8775
 9348TIP3   OH227986   0.233   1.203   0.588  0.1381 -0.1808  0.2179
 9348TIP3    H127987   0.323   1.173   0.604  0.6660  1.0864 -0.2563
 9348TIP3    H227988   0.232   1.225   0.495 -1.4141 -2.5870 -0.4397
 9349TIP3   OH227989   3.568   5.854   5.066  0.4082  0.0203 -0.6839
 9349TIP3    H127990   3.553   5.776   5.119 -1.0336  0.1416 -0.8690
 9349TIP3    H227991   3.594   5.820   4.980  2.1623 -0.1825 -0.1232
 9350TIP3   OH227992   2.291   4.355   1.283  0.3263  0.2147  0.7292
 9350TIP3    H127993   2.351   4.412   1.330  0.3500 -0.3846  1.4422
 9350TIP3    H227994   2.235   4.318   1.351 -0.2454  0.0540  0.1778
 9351TIP3   OH227995   1.622   5.310   5.228 -0.0123 -0.4118 -0.3748
 9351TIP3    H127996   1.543   5.351   5.264 -1.3402 -0.7366 -2.7174
 9351TIP3    H227997   1.690   5.329   5.292 -2.0426 -0.4456  1.9368
 9352TIP3   OH227998   3.978   1.792   5.349 -0.5316 -0.0189  0.0623
 9352TIP3    H127999   3.943   1.766   5.264  2.1941 -2.4381 -0.4932
 9352TIP3    H228000   4.000   1.710   5.392  0.2185  1.2181  2.1870
 9353TIP3   OH228001   1.028   3.533   2.743  0.5287 -0.3333  0.0114
 9353TIP3    H128002   1.070   3.612   2.778  2.4510 -0.0687 -2.6064
 9353TIP3    H228003   1.068   3.461   2.792  0.7122  0.1479  0.5885
 9354TIP3   OH228004   0.716   3.619   6.209 -0.4605 -0.2517  0.2463
 9354TIP3    H128005   0.661   3.631   6.287 -1.0141 -0.8121 -0.0585
 9354TIP3    H228006   0.661   3.572   6.147 -0.0591  0.2847 -0.5362
 9355TIP3   OH228007   2.478   1.620   0.810 -0.2008  0.0584  0.3219
 9355TIP3    H128008   2.509   1.568   0.736  0.1629 -0.5625  0.8979
 9355TIP3    H228009   2.393   1.581   0.832 -0.8983  1.0464 -0.5504
 9356TIP3   OH228010   0.507   5.701   3.570  0.1777  0.5100  0.2534
 9356TIP3    H128011   0.591   5.734   3.600  1.3238 -1.1435 -0.9669
 9356TIP3    H228012   0.501   5.730   3.478 -0.8077  0.9944  0.4551
 9357TIP3   OH228013   1.181   7.471   2.439 -0.0337  0.4387 -0.2629
 9357TIP3    H128014   1.250   7.409   2.416 -0.0061 -0.4602  1.9852
 9357TIP3    H228015   1.146   7.500   2.355  1.7061 -0.6184 -1.4321
 9358TIP3   OH228016   5.617   2.244   2.563  0.3406 -0.3523 -0.1977
 9358TIP3    H128017   5.632   2.170   2.504  1.6594 -0.9093  0.7631
 9358TIP3    H228018   5.572   2.205   2.639  0.7394 -0.1136  0.1651
 9359TIP3   OH228019   4.993   0.382   1.414 -0.0817 -0.0813  0.2145
 9359TIP3    H128020   5.033   0.392   1.328  1.0546  0.7409  0.8095
 9359TIP3    H228021   4.995   0.469   1.452 -1.5908 -0.2047  0.6701
 9360TIP3   OH228022   7.898   0.195   4.481  0.4717  0.1150  0.1593
 9360TIP3    H128023   7.980   0.224   4.440  0.5656  0.4231  0.5626
 9360TIP3    H228024   7.892   0.102   4.458  0.7182  0.1919 -0.2309
 9361TIP3   OH228025   0.781   1.030   0.317 -0.4279  0.4427  0.0541
 9361TIP3    H128026   0.788   1.097   0.385 -1.8409  1.1043 -0.4179
 9361TIP3    H228027   0.859   1.044   0.262  0.1191  0.6466  0.8619
 9362TIP3   OH228028   8.278   0.209   4.793 -0.3442  0.4546  0.2911
 9362TIP3    H128029   8.211   0.143   4.809  1.6066 -1.5706  0.5891
 9362TIP3    H228030   8.278   0.221   4.698 -2.0437  1.5768  0.3922
 9363TIP3   OH228031   0.986   6.017   2.071  0.1181  0.3170  0.0439
 9363TIP3    H128032   0.900   5.979   2.051  0.7125 -1.4922  0.7674
 9363TIP3    H228033   0.992   6.014   2.166  1.4947 -0.8100 -0.0564
 9364TIP3   OH228034   6.331   1.528   2.732 -0.0236  0.0768 -0.1410
 9364TIP3    H128035   6.319   1.618   2.702  0.6396  0.9438  1.9694
 9364TIP3    H228036   6.401   1.493   2.677  0.3090  1.1572 -0.4276
 9365TIP3   OH228037   4.718   2.435   0.201 -0.0980  1.0536 -0.7570
 9365TIP3    H128038   4.633   2.392   0.193  0.7801 -0.7858 -0.6457
 9365TIP3    H228039   4.740   2.464   0.112  0.9221 -2.0742 -1.6377
 9366TIP3   OH228040   7.416   0.254   1.685 -0.2431 -0.1205  0.3797
 9366TIP3    H128041   7.495   0.272   1.635 -0.0174 -0.1649  0.7127
 9366TIP3    H228042   7.421   0.160   1.705  0.1321  0.0695  1.2524
 9367TIP3   OH228043   3.010   5.869   0.199  0.0600 -0.8285 -0.0712
 9367TIP3    H128044   2.918   5.895   0.203  0.2439 -0.3153  1.2660
 9367TIP3    H228045   3.012   5.797   0.135 -1.0363  0.0508 -1.1482
 9368TIP3   OH228046   7.437   0.701   6.438  0.4418  0.2599  0.0787
 9368TIP3    H128047   7.529   0.722   6.422  0.1357  0.3313 -1.9386
 9368TIP3    H228048   7.403   0.675   6.351 -2.3371  3.6677 -0.0629
 9369TIP3   OH228049   8.003   0.101   6.140 -0.5010  0.8638 -0.7520
 9369TIP3    H128050   7.908   0.108   6.125 -0.2989 -0.0042 -2.7688
 9369TIP3    H228051   8.026   0.182   6.185 -2.1758  1.1393 -0.3040
 9370TIP3   OH228052   7.230   5.989   5.892 -0.1887  0.0700  0.0838
 9370TIP3    H128053   7.206   5.896   5.901  1.4127 -0.2742  1.2113
 9370TIP3    H228054   7.263   6.013   5.978  0.3944  1.4021 -0.4982
 9371TIP3   OH228055   8.108   5.919   2.977 -0.0992  0.0676  0.0121
 9371TIP3    H128056   8.196   5.949   3.002  0.3988  0.3515 -1.8951
 9371TIP3    H228057   8.051   5.992   3.002  0.3633  0.3407  0.3031
 9372TIP3   OH228058   1.652   5.320   4.806  0.1932 -0.3861 -0.3167
 9372TIP3    H128059   1.706   5.329   4.727  0.5605 -0.2750 -0.0544
 9372TIP3    H228060   1.636   5.225   4.813  1.3399 -0.5561  0.2507
 9373TIP3   OH228061   3.648   6.108   2.404  0.0854 -0.1246 -0.0509
 9373TIP3    H128062   3.734   6.131   2.370 -0.2884  0.4154 -0.6473
 9373TIP3    H228063   3.665   6.082   2.495  0.8386  0.2510 -0.0728
 9374TIP3   OH228064   0.422   6.633   1.239 -0.2177 -0.7756 -0.5007
 9374TIP3    H128065   0.335   6.639   1.279 -0.1422  0.5306 -0.5078
 9374TIP3    H228066   0.416   6.558   1.180 -1.2381 -0.8900 -0.2615
 9375TIP3   OH228067   5.309   3.558   3.652 -0.2340  0.1970  0.0122
 9375TIP3    H128068   5.252   3.495   3.697  0.3919 -0.7449 -0.4806
 9375TIP3    H228069   5.329   3.516   3.568  0.0165  1.1611 -0.4143
 9376TIP3   OH228070   0.110   3.828   1.258  0.2991 -0.5405  0.8948
 9376TIP3    H128071   0.043   3.870   1.313  2.2123 -0.9177  3.7147
 9376TIP3    H228072   0.089   3.735   1.262 -1.2878 -0.3880 -1.6330
 9377TIP3   OH228073   5.153   1.591   4.042  0.2441 -0.2546 -0.1295
 9377TIP3    H128074   5.075   1.542   4.015 -0.0887 -0.2599  0.8166
 9377TIP3    H228075   5.167   1.567   4.133  1.0340  0.1756 -0.1254
 9378TIP3   OH228076   6.366   0.982   0.729 -0.0498  0.0350  0.0625
 9378TIP3    H128077   6.373   0.900   0.779  2.4560  1.3630  2.1254
 9378TIP3    H228078   6.449   0.987   0.681  0.1474  1.6409  0.5270
 9379TIP3   OH228079   7.787   6.492   3.874  0.6523 -0.2299  0.2307
 9379TIP3    H128080   7.865   6.491   3.818  1.8327 -1.8096  1.8031
 9379TIP3    H228081   7.821   6.510   3.961 -0.9268  0.2915  0.7639
 9380TIP3   OH228082   1.125   1.823   4.086 -0.0476 -0.3640 -0.0546
 9380TIP3    H128083   1.205   1.775   4.106  0.1025  0.3040  1.0201
 9380TIP3    H228084   1.134   1.906   4.133 -1.4336 -0.3420  0.2222
 9381TIP3   OH228085   4.246   1.208   1.301 -0.5383 -0.2221  0.4632
 9381TIP3    H128086   4.276   1.287   1.256  0.9656 -0.6082  0.7258
 9381TIP3    H228087   4.309   1.141   1.276  0.8399 -0.3075  3.6079
 9382TIP3   OH228088   5.789   5.402   1.212 -0.5351 -0.1045  0.2897
 9382TIP3    H128089   5.755   5.465   1.276 -1.3147  1.1117 -1.2483
 9382TIP3    H228090   5.772   5.443   1.127  1.8693 -0.9468 -0.6727
 9383TIP3   OH228091   7.454   2.459   1.228 -0.0549 -0.0357 -0.5105
 9383TIP3    H128092   7.379   2.482   1.175 -0.8943 -0.0272  0.6411
 9383TIP3    H228093   7.487   2.543   1.260 -0.0153 -0.0910 -0.4060
 9384TIP3   OH228094   0.442   6.459   5.919  0.1397  0.5339 -0.1193
 9384TIP3    H128095   0.446   6.486   5.828  0.3209 -1.7536 -0.8389
 9384TIP3    H228096   0.412   6.368   5.917  2.4091 -0.3794  1.9263
 9385TIP3   OH228097   4.703   0.592   1.283  0.3421 -0.7888 -0.1383
 9385TIP3    H128098   4.756   0.551   1.214 -0.7981 -2.1460 -0.2766
 9385TIP3    H228099   4.692   0.682   1.255  0.7968 -1.0458 -1.1969
 9386TIP3   OH228100   2.038   5.175   2.260  0.2481  0.1555 -0.6505
 9386TIP3    H128101   2.121   5.199   2.300  0.8995 -2.0154 -0.5973
 9386TIP3    H228102   2.052   5.189   2.166  1.6575 -2.6088 -0.9537
 9387TIP3   OH228103   5.438   4.043   0.664 -0.3938 -0.6127 -0.3289
 9387TIP3    H128104   5.421   4.047   0.758 -2.3310 -1.8587 -0.5697
 9387TIP3    H228105   5.487   3.962   0.651 -0.8092 -0.8449 -0.4682
 9388TIP3   OH228106   6.261   0.841   6.555  0.6641  0.1241 -0.0144
 9388TIP3    H128107   6.258   0.876   6.466  0.0015  0.3256  0.0777
 9388TIP3    H228108   6.311   0.906   6.605 -0.2914  0.8047  0.0871
 9389TIP3   OH228109   2.564   6.252   0.696 -0.5307  0.1837 -0.0511
 9389TIP3    H128110   2.546   6.216   0.783 -0.3814 -0.7658 -0.4041
 9389TIP3    H228111   2.506   6.328   0.690 -0.1840  0.5624  1.0654
 9390TIP3   OH228112   2.732   0.592   0.018 -0.9197 -0.0757  0.1061
 9390TIP3    H128113   2.807   0.642   0.050  0.9069 -1.2659 -2.0071
 9390TIP3    H228114   2.741   0.506   0.059 -1.3597 -0.0927  0.1684
 9391TIP3   OH228115   5.924   6.452   5.000 -0.5494 -1.2579 -0.1915
 9391TIP3    H128116   5.848   6.494   5.040 -0.2707  0.8965 -1.7508
 9391TIP3    H228117   5.997   6.472   5.058 -0.5122  0.0715 -0.6666
 9392TIP3   OH228118   7.283   3.919   3.206 -0.1624 -0.8709 -1.1031
 9392TIP3    H128119   7.187   3.908   3.204 -0.2653 -0.1010 -0.7619
 9392TIP3    H228120   7.297   4.010   3.179  0.5613 -1.3637 -2.4534
 9393TIP3   OH228121   7.328   7.740   6.620 -0.4677 -0.0743 -0.4118
 9393TIP3    H128122   7.353   7.784   6.701  1.0498 -1.4322 -0.0838
 9393TIP3    H228123   7.239   7.708   6.637  0.3601 -1.6518  1.3562
 9394TIP3   OH228124   6.190   6.636   5.964 -0.3737  0.3389 -0.3346
 9394TIP3    H128125   6.142   6.560   5.929 -1.5256  0.6648  0.4744
 9394TIP3    H228126   6.195   6.697   5.891 -0.2610 -0.1273 -0.7252
 9395TIP3   OH228127   5.230   0.285   1.636 -0.2398  0.0306 -0.0134
 9395TIP3    H128128   5.217   0.321   1.548  0.8340 -0.2853 -0.3215
 9395TIP3    H228129   5.291   0.213   1.624 -1.6097 -1.3104  0.7375
 9396TIP3   OH228130   6.455   1.890   4.187 -0.3645 -0.7099  0.1980
 9396TIP3    H128131   6.505   1.836   4.249 -0.9981 -1.4103  0.1183
 9396TIP3    H228132   6.392   1.937   4.242  0.0529 -0.1937  0.2438
 9397TIP3   OH228133   3.527   3.822   6.163  0.9218 -0.4928  0.5649
 9397TIP3    H128134   3.619   3.847   6.174  0.4240  1.1365  1.3568
 9397TIP3    H228135   3.526   3.765   6.086  2.4204  0.4963 -0.2272
 9398TIP3   OH228136   3.898   5.667   3.383 -0.1088  0.6846  0.5576
 9398TIP3    H128137   3.838   5.741   3.388 -1.5594 -0.3542 -0.6600
 9398TIP3    H228138   3.948   5.682   3.303 -0.3513  0.4155  0.3504
 9399TIP3   OH228139   0.670   5.249   2.154  0.7315 -0.3241  0.2867
 9399TIP3    H128140   0.631   5.199   2.082  1.1252 -0.4144  0.1345
 9399TIP3    H228141   0.694   5.182   2.219 -0.0971 -0.1992  0.7348
 9400TIP3   OH228142   0.913   5.821   3.283  0.1396  0.2875 -0.0549
 9400TIP3    H128143   0.853   5.778   3.222  1.8528 -1.2114 -0.7798
 9400TIP3    H228144   0.945   5.751   3.339  1.4885  0.9735  0.0648
 9401TIP3   OH228145   2.743   2.260   5.379  0.0077 -0.2409  0.2249
 9401TIP3    H128146   2.725   2.267   5.285  0.3533  1.1846  0.2523
 9401TIP3    H228147   2.703   2.176   5.404 -1.7377  0.2206 -0.8124
 9402TIP3   OH228148   8.189   3.456   2.165 -0.0109  0.1602  0.2564
 9402TIP3    H128149   8.245   3.409   2.228 -0.0765  1.7147  1.5314
 9402TIP3    H228150   8.245   3.525   2.129 -0.5332  0.4732  0.0379
 9403TIP3   OH228151   4.017   1.381   3.777  0.2514 -0.0422  0.5162
 9403TIP3    H128152   4.055   1.319   3.839  0.4992 -0.4737 -0.0621
 9403TIP3    H228153   3.942   1.418   3.823  1.5991  1.1506  1.8412
 9404TIP3   OH228154   4.038   7.042   2.683 -0.1569  0.5705  0.1833
 9404TIP3    H128155   3.975   6.971   2.668  1.0293 -0.6089  0.6602
 9404TIP3    H228156   4.119   7.011   2.643  0.6770  1.1558  1.3518
 9405TIP3   OH228157   3.389   4.825   2.018  0.5825 -0.3973  0.5316
 9405TIP3    H128158   3.456   4.893   2.012 -1.1445  1.2441 -2.4479
 9405TIP3    H228159   3.402   4.772   1.940 -1.3446 -0.2122  0.0463
 9406TIP3   OH228160   2.341   0.775   4.344 -0.2399 -0.7625 -0.0649
 9406TIP3    H128161   2.371   0.684   4.345  0.4429 -0.6124  2.6093
 9406TIP3    H228162   2.395   0.819   4.410 -1.6996  1.1826 -0.0473
 9407TIP3   OH228163   6.243   1.219   0.188 -1.2234  0.1736  0.1005
 9407TIP3    H128164   6.264   1.138   0.142 -1.3609  0.4626 -0.4776
 9407TIP3    H228165   6.318   1.276   0.171 -1.2916  0.2941  0.2040
 9408TIP3   OH228166   1.984   2.299   4.953 -0.0378 -0.0527 -0.0439
 9408TIP3    H128167   2.056   2.302   5.016  0.0617  0.4480 -0.1784
 9408TIP3    H228168   1.936   2.219   4.976 -0.7436  0.7534  1.5025
 9409TIP3   OH228169   1.425   4.634   1.658  0.6612 -0.1820 -0.4974
 9409TIP3    H128170   1.451   4.543   1.675 -0.1677 -0.2783  0.3518
 9409TIP3    H228171   1.345   4.646   1.709 -0.1467  0.5428 -1.8821
 9410TIP3   OH228172   1.187   3.703   0.710  0.0726  0.0409 -0.3217
 9410TIP3    H128173   1.218   3.634   0.768  0.1606 -0.7157 -1.2384
 9410TIP3    H228174   1.153   3.771   0.768  0.9367 -0.3187  0.6259
 9411TIP3   OH228175   4.314   5.737   3.881  0.4887 -0.3520 -0.1248
 9411TIP3    H128176   4.299   5.800   3.811  0.1780 -1.0038 -0.6522
 9411TIP3    H228177   4.229   5.728   3.924  0.9477  0.9861  1.1601
 9412TIP3   OH228178   5.481   2.256   4.512 -0.2900  0.2755 -0.3165
 9412TIP3    H128179   5.432   2.202   4.573 -0.2957  1.1539  0.4870
 9412TIP3    H228180   5.439   2.342   4.518  0.8788  0.8488 -0.1562
 9413TIP3   OH228181   7.598   7.174   6.616  0.4031  0.2383 -0.2290
 9413TIP3    H128182   7.664   7.107   6.630 -0.6566 -1.0946 -1.3356
 9413TIP3    H228183   7.516   7.125   6.604 -0.3732  1.7214 -1.2212
 9414TIP3   OH228184   0.126   7.688   1.525  0.3105  0.6560  0.0668
 9414TIP3    H128185   0.107   7.649   1.440 -0.4983  0.9021  0.1243
 9414TIP3    H228186   0.043   7.685   1.572  0.6216  1.0056  0.6523
 9415TIP3   OH228187   5.256   1.200   3.127  0.0809 -0.6326 -0.1064
 9415TIP3    H128188   5.162   1.217   3.121  0.4259  1.3360 -0.8511
 9415TIP3    H228189   5.292   1.236   3.046  1.9369  2.4324  1.8837
 9416TIP3   OH228190   4.715   0.706   0.937 -0.2421 -0.2011 -0.1346
 9416TIP3    H128191   4.707   0.775   0.872 -1.5878 -1.3099 -1.2159
 9416TIP3    H228192   4.625   0.688   0.965  0.2202 -0.4705  1.2603
 9417TIP3   OH228193   0.436   4.440   6.318 -0.1069 -0.0345  0.1750
 9417TIP3    H128194   0.445   4.415   6.226 -2.0787 -0.6569  0.1140
 9417TIP3    H228195   0.487   4.375   6.366 -0.6027 -0.8280 -0.3611
 9418TIP3   OH228196   2.823   5.242   0.939 -0.1526 -0.9006  0.5670
 9418TIP3    H128197   2.897   5.191   0.905  0.7030  0.6683 -0.0393
 9418TIP3    H228198   2.781   5.276   0.860  1.5926  2.4401  0.8720
 9419TIP3   OH228199   3.584   5.416   5.042 -0.0441  0.1927  0.0414
 9419TIP3    H128200   3.570   5.322   5.050  1.2043 -0.0069  0.0296
 9419TIP3    H228201   3.678   5.427   5.048 -0.2663  1.5972  1.4979
 9420TIP3   OH228202   0.607   3.636   4.201 -0.2316  0.1383  0.5954
 9420TIP3    H128203   0.663   3.568   4.240 -1.8723 -3.9643 -3.2312
 9420TIP3    H228204   0.668   3.693   4.154  1.0813 -0.9686  0.8792
 9421TIP3   OH228205   6.532   5.266   0.904  0.0881 -0.1216 -0.3730
 9421TIP3    H128206   6.517   5.245   0.812  0.6753 -1.9292 -0.0982
 9421TIP3    H228207   6.596   5.201   0.933 -0.2488  0.2729  1.3585
 9422TIP3   OH228208   4.720   0.937   3.484 -0.1671  0.3676  0.3736
 9422TIP3    H128209   4.625   0.952   3.486 -0.1060  1.0408 -0.7048
 9422TIP3    H228210   4.737   0.906   3.396  0.3197 -2.2538  1.3023
 9423TIP3   OH228211   1.131   5.048   2.165 -0.0311 -0.1236 -0.9563
 9423TIP3    H128212   1.222   5.027   2.146 -0.0669  0.2381 -1.5643
 9423TIP3    H228213   1.080   4.986   2.114 -0.1283  0.8644 -2.1174
 9424TIP3   OH228214   7.047   5.004   3.538  0.2188  0.1475  0.2566
 9424TIP3    H128215   6.967   5.007   3.591  0.3686 -2.2666  0.7157
 9424TIP3    H228216   7.016   5.005   3.448 -0.3783 -0.9942  0.4317
 9425TIP3   OH228217   5.710   1.684   6.431 -0.3866  0.6647 -0.4371
 9425TIP3    H128218   5.624   1.711   6.464 -0.5581 -0.4969  0.1321
 9425TIP3    H228219   5.743   1.622   6.497 -0.3985 -1.1552 -2.0476
 9426TIP3   OH228220   3.001   1.771   1.634 -0.2147  0.2557  0.2472
 9426TIP3    H128221   2.988   1.768   1.729  0.8406  0.0183  0.4014
 9426TIP3    H228222   2.952   1.847   1.605  1.4854  1.8683  1.3460
 9427TIP3   OH228223   7.250   1.575   4.486  0.4324  0.4641  0.5463
 9427TIP3    H128224   7.249   1.496   4.541  0.0776 -0.3507 -0.5990
 9427TIP3    H228225   7.175   1.565   4.428  1.5661  0.6437 -1.0010
 9428TIP3   OH228226   1.158   6.164   1.149  0.1299  0.3400 -0.6382
 9428TIP3    H128227   1.118   6.079   1.168 -0.4001  0.7976  0.3579
 9428TIP3    H228228   1.138   6.218   1.226  0.9153  1.2056 -1.0241
 9429TIP3   OH228229   1.862   6.315   5.413  0.3495 -0.4809  0.7613
 9429TIP3    H128230   1.913   6.244   5.376 -0.8170 -0.4782 -0.9819
 9429TIP3    H228231   1.925   6.369   5.461  1.4069 -2.1095  1.2708
 9430TIP3   OH228232   4.450   6.945   5.263 -0.3353  0.2146  0.0702
 9430TIP3    H128233   4.419   6.996   5.189 -3.1393  0.3286  1.1807
 9430TIP3    H228234   4.531   6.987   5.290 -0.4921  1.5904 -1.4651
 9431TIP3   OH228235   7.190   3.463   4.122  0.0053  0.4502 -0.2066
 9431TIP3    H128236   7.162   3.428   4.207 -1.0468  1.1095 -0.2571
 9431TIP3    H228237   7.145   3.408   4.058  1.5728 -0.6804 -0.3868
 9432TIP3   OH228238   3.980   4.971   3.238  0.8760 -0.1917  0.4498
 9432TIP3    H128239   3.998   5.035   3.169  0.6016  0.9362  1.3980
 9432TIP3    H228240   4.064   4.959   3.282  0.7224  0.2761  0.8852
 9433TIP3   OH228241   4.288   5.772   3.493 -0.4777 -0.0518  0.1356
 9433TIP3    H128242   4.359   5.771   3.558  0.3912 -1.0936 -0.7951
 9433TIP3    H228243   4.210   5.745   3.543 -0.2392  1.0541  1.1603
 9434TIP3   OH228244   7.798   1.128   3.699  0.5419  0.0165 -0.3048
 9434TIP3    H128245   7.862   1.058   3.710  0.9657  0.5457  0.7570
 9434TIP3    H228246   7.785   1.135   3.605  1.3498 -0.7259 -0.4749
 9435TIP3   OH228247   7.195   4.969   0.438  0.0086  0.6165 -0.4892
 9435TIP3    H128248   7.203   5.038   0.504  0.2594  0.9854 -0.9012
 9435TIP3    H228249   7.135   5.005   0.373  0.7210  0.7521 -1.0845
 9436TIP3   OH228250   4.047   1.398   6.238  0.8010 -0.2480 -0.0199
 9436TIP3    H128251   4.035   1.303   6.230 -1.1082 -0.0367 -0.2438
 9436TIP3    H228252   4.138   1.413   6.214  0.6277 -1.8221 -1.9709
 9437TIP3   OH228253   5.658   2.199   3.509  0.4039  0.0574 -0.3557
 9437TIP3    H128254   5.703   2.224   3.590 -0.1557 -1.0384  0.3202
 9437TIP3    H228255   5.728   2.180   3.447  0.9422 -1.6313  0.6801
 9438TIP3   OH228256   4.180   6.083   0.984  0.2413  0.1722  0.4852
 9438TIP3    H128257   4.127   6.039   1.050  0.2008 -1.9713 -0.8711
 9438TIP3    H228258   4.126   6.081   0.905  0.6789  1.7815  0.1066
 9439TIP3   OH228259   3.641   3.061   5.308  0.3508 -0.6136 -0.1956
 9439TIP3    H128260   3.594   3.025   5.384  0.8615 -1.3408 -0.2153
 9439TIP3    H228261   3.713   3.112   5.347 -0.2223  0.1905 -0.1726
 9440TIP3   OH228262   0.882   3.434   5.756 -0.2839 -0.0741 -0.0885
 9440TIP3    H128263   0.953   3.465   5.812  0.0790  1.2191 -1.2179
 9440TIP3    H228264   0.923   3.371   5.697 -0.3898 -0.4087  0.1874
 9441TIP3   OH228265   2.419   0.492   4.441 -0.2000  0.7124  0.2478
 9441TIP3    H128266   2.473   0.456   4.371 -0.6946  0.7330 -0.1479
 9441TIP3    H228267   2.428   0.428   4.513 -1.2978 -0.3816 -0.5450
 9442TIP3   OH228268   7.801   7.793   2.569 -0.2783 -0.2693  0.3380
 9442TIP3    H128269   7.734   7.828   2.510 -0.5160 -1.4091 -0.0993
 9442TIP3    H228270   7.880   7.787   2.515  0.1505  0.9145  0.8066
 9443TIP3   OH228271   5.020   3.393   5.968 -0.2329  0.1490 -0.6092
 9443TIP3    H128272   5.034   3.477   5.925  1.6350 -0.1104 -0.5980
 9443TIP3    H228273   5.102   3.345   5.955 -0.3708 -0.7535  1.4225
 9444TIP3   OH228274   7.114   6.247   3.273 -0.4381  0.3539  0.3693
 9444TIP3    H128275   7.084   6.180   3.212  0.5798 -0.2077  0.4640
 9444TIP3    H228276   7.105   6.207   3.360 -1.5007  1.0024  0.5810
 9445TIP3   OH228277   4.423   3.975   4.097  0.3927 -0.1700  0.1297
 9445TIP3    H128278   4.517   3.981   4.112  0.5330 -0.1976 -0.7043
 9445TIP3    H228279   4.415   3.926   4.016 -0.2625  1.5694 -0.9174
 9446TIP3   OH228280   6.373   4.733   4.504  0.6920 -0.1790  0.5317
 9446TIP3    H128281   6.313   4.706   4.434  0.6806 -0.2052  0.5518
 9446TIP3    H228282   6.447   4.673   4.497 -0.2297 -1.5295  1.8709
 9447TIP3   OH228283   5.420   6.575   5.717 -0.1578  0.6469  0.3597
 9447TIP3    H128284   5.476   6.618   5.782 -0.5757  0.6445  0.7257
 9447TIP3    H228285   5.460   6.596   5.633 -0.7531  2.3640  0.4678
 9448TIP3   OH228286   6.356   1.469   3.667 -0.1126 -0.0055  0.3135
 9448TIP3    H128287   6.330   1.425   3.586 -2.1385  0.6573  0.5574
 9448TIP3    H228288   6.431   1.523   3.641 -0.3096 -0.2941 -0.9569
 9449TIP3   OH228289   2.738   0.163   3.513 -0.7855  0.6332  0.1760
 9449TIP3    H128290   2.799   0.233   3.536 -0.3327  1.0122 -1.9296
 9449TIP3    H228291   2.652   0.198   3.535 -0.5235  1.6793 -0.3965
 9450TIP3   OH228292   0.874   4.325   4.853  0.4129 -0.0169 -0.2231
 9450TIP3    H128293   0.917   4.316   4.939  1.1006  2.2591 -0.2700
 9450TIP3    H228294   0.941   4.296   4.790  0.3017 -0.6280 -0.0691
 9451TIP3   OH228295   7.657   2.569   2.806 -0.8307 -0.6148 -0.4148
 9451TIP3    H128296   7.623   2.642   2.858 -0.8753 -1.2046  0.4156
 9451TIP3    H228297   7.655   2.494   2.867  0.6200 -0.9742 -0.7732
 9452TIP3   OH228298   1.818   1.042   3.656 -0.0729 -0.0912  0.2019
 9452TIP3    H128299   1.765   1.120   3.670  0.6612  0.6444 -0.9422
 9452TIP3    H228300   1.895   1.055   3.711  0.6257  0.6086 -0.8872
 9453TIP3   OH228301   6.916   5.267   1.460  0.1660  0.3235  0.2427
 9453TIP3    H128302   6.917   5.173   1.479  2.0098  0.3757  0.5930
 9453TIP3    H228303   6.823   5.290   1.457 -0.3198 -1.4515  0.3916
 9454TIP3   OH228304   5.373   4.165   3.263 -0.2572  0.2417 -0.2797
 9454TIP3    H128305   5.403   4.240   3.315  0.4545 -0.4901  0.4115
 9454TIP3    H228306   5.378   4.195   3.173  0.3059  0.9385 -0.0304
 9455TIP3   OH228307   4.134   4.020   2.629 -0.3181  0.6725 -0.3112
 9455TIP3    H128308   4.189   3.945   2.651  0.1585  1.6054  1.9824
 9455TIP3    H228309   4.045   3.986   2.629  0.0017 -0.2441 -1.1880
 9456TIP3   OH228310   0.018   2.101   3.863  0.1186 -0.1146 -0.5981
 9456TIP3    H128311   0.039   2.012   3.892 -0.1502  0.1475  0.4510
 9456TIP3    H228312   0.072   2.114   3.785  1.6722 -0.4851  0.3633
 9457TIP3   OH228313   6.940   0.951   5.553  0.6482  0.1939 -0.0161
 9457TIP3    H128314   7.036   0.953   5.560  0.6177  0.4114  0.3572
 9457TIP3    H228315   6.915   0.865   5.584  0.8008 -0.2959 -1.1793
 9458TIP3   OH228316   1.315   3.256   4.076  0.3069  0.1287  0.0889
 9458TIP3    H128317   1.328   3.279   4.168 -0.0615 -2.7350  0.9355
 9458TIP3    H228318   1.221   3.247   4.066  0.4768 -3.6723  0.6494
 9459TIP3   OH228319   4.174   3.981   2.942  0.4339 -0.0204 -0.0020
 9459TIP3    H128320   4.185   4.037   2.865  1.2178  0.4322  0.4247
 9459TIP3    H228321   4.215   4.030   3.013 -0.8962 -0.1027  0.8691
 9460TIP3   OH228322   6.424   7.342   4.921 -0.2367  0.5086 -0.2371
 9460TIP3    H128323   6.460   7.429   4.901  0.4914  0.2622 -0.0087
 9460TIP3    H228324   6.439   7.331   5.015 -1.0006  0.4386 -0.1167
 9461TIP3   OH228325   4.714   7.516   1.001  0.2877  0.4350  0.2925
 9461TIP3    H128326   4.693   7.530   0.909  1.5257 -0.4137 -0.1479
 9461TIP3    H228327   4.630   7.508   1.044 -0.3100  0.3455 -0.8526
 9462TIP3   OH228328   7.183   0.354   3.000  0.0295 -0.2108 -0.5237
 9462TIP3    H128329   7.096   0.338   3.036  0.2375  0.9205  0.5631
 9462TIP3    H228330   7.183   0.446   2.977  1.1574 -0.0180  0.1648
 9463TIP3   OH228331   4.253   2.343   6.308  0.1103  0.1297  0.5167
 9463TIP3    H128332   4.334   2.326   6.260 -0.2525 -0.0632 -0.0326
 9463TIP3    H228333   4.274   2.417   6.365  0.6423  0.1541  0.2891
 9464TIP3   OH228334   3.610   4.316   2.285 -0.1906 -0.2539 -0.6747
 9464TIP3    H128335   3.537   4.258   2.264 -0.0348 -0.1572 -1.5280
 9464TIP3    H228336   3.656   4.328   2.202 -1.1761  2.4336 -0.9407
 9465TIP3   OH228337   1.092   7.725   6.221 -0.0470 -0.1315  0.5723
 9465TIP3    H128338   1.089   7.818   6.244 -2.0066 -0.3351  1.3840
 9465TIP3    H228339   1.184   7.701   6.234  0.1845  1.2910  2.0854
 9466TIP3   OH228340   3.496   2.689   1.616  0.4888 -0.3801  0.0146
 9466TIP3    H128341   3.401   2.685   1.622  0.3019 -1.4314 -2.5911
 9466TIP3    H228342   3.523   2.599   1.597  1.6391  0.4490 -2.7284
 9467TIP3   OH228343   4.727   4.200   1.420 -0.2132  0.8320  0.2992
 9467TIP3    H128344   4.682   4.173   1.500  0.7740  0.7082  0.8392
 9467TIP3    H228345   4.738   4.295   1.430 -2.3930  1.2648 -0.9240
 9468TIP3   OH228346   3.908   1.995   5.527 -0.6302 -0.3825 -0.1687
 9468TIP3    H128347   3.985   2.050   5.513 -0.5495 -0.2242  0.8049
 9468TIP3    H228348   3.920   1.920   5.469  0.1374 -0.2326 -0.2117
 9469TIP3   OH228349   6.034   1.075   0.392 -0.7467 -0.2101  0.4841
 9469TIP3    H128350   6.117   1.059   0.437 -0.6515  2.2298  1.3332
 9469TIP3    H228351   6.051   1.049   0.302  0.7777 -0.2459  0.7480
 9470TIP3   OH228352   5.266   7.649   3.824  0.1290 -0.2584  0.0601
 9470TIP3    H128353   5.280   7.560   3.859 -1.0577 -0.1334  0.9134
 9470TIP3    H228354   5.250   7.635   3.731  0.0041 -0.9484  0.1738
 9471TIP3   OH228355   1.216   7.491   6.391  0.2289 -0.3060 -0.0651
 9471TIP3    H128356   1.159   7.481   6.314 -1.8376 -2.5321  1.5939
 9471TIP3    H228357   1.295   7.441   6.370 -0.0205 -0.3235 -0.9862
 9472TIP3   OH228358   3.569   1.898   5.049  0.4848 -0.7869 -0.2731
 9472TIP3    H128359   3.487   1.876   5.005  1.0189 -1.3464 -1.0190
 9472TIP3    H228360   3.635   1.895   4.980  1.0166  0.4657  0.1594
 9473TIP3   OH228361   3.161   5.357   1.075 -0.2226  0.1589  0.6813
 9473TIP3    H128362   3.242   5.307   1.079  1.5102  2.5075 -1.5018
 9473TIP3    H228363   3.137   5.373   1.166  0.3270 -2.6619  1.4029
 9474TIP3   OH228364   1.719   6.829   5.505 -0.1106 -0.4256  0.0949
 9474TIP3    H128365   1.718   6.754   5.565 -1.7563 -0.4076  0.1241
 9474TIP3    H228366   1.809   6.831   5.472  0.7867 -0.5829  2.3451
 9475TIP3   OH228367   0.763   7.339   3.527  0.3807  0.2006 -0.2141
 9475TIP3    H128368   0.783   7.359   3.619 -0.0651 -0.8710  0.1325
 9475TIP3    H228369   0.829   7.386   3.477 -0.2324  1.9862  0.5738
 9476TIP3   OH228370   2.285   6.948   0.352 -0.1436  0.1594  0.4318
 9476TIP3    H128371   2.321   6.938   0.264 -0.3636  0.1169  0.3455
 9476TIP3    H228372   2.350   7.001   0.399  0.1274 -0.0853  0.3381
 9477TIP3   OH228373   2.740   0.550   6.054 -0.1972  0.1194  0.3847
 9477TIP3    H128374   2.668   0.576   6.111 -0.5501 -0.1407  0.0675
 9477TIP3    H228375   2.736   0.455   6.052  0.3663  0.0905  0.6301
 9478TIP3   OH228376   5.829   3.797   0.870 -0.1578  0.1234  0.3243
 9478TIP3    H128377   5.808   3.772   0.960 -0.7395 -0.6026 -0.0098
 9478TIP3    H228378   5.921   3.824   0.875  0.0049 -0.4959  1.0240
 9479TIP3   OH228379   4.897   3.984   5.603 -0.6389 -0.3678  0.0628
 9479TIP3    H128380   4.846   4.065   5.613 -1.5108 -0.9453  0.4534
 9479TIP3    H228381   4.975   3.998   5.656 -0.9346  0.0892  0.3893
 9480TIP3   OH228382   1.978   5.679   0.592 -0.1470  0.2122  0.1493
 9480TIP3    H128383   1.946   5.589   0.584  0.8490 -0.1563  0.0613
 9480TIP3    H228384   2.014   5.700   0.505  1.5911 -0.1212  0.7467
 9481TIP3   OH228385   8.030   0.566   6.701 -0.0104  0.0938 -0.2471
 9481TIP3    H128386   8.076   0.597   6.779  1.9868  0.1530 -1.3721
 9481TIP3    H228387   7.943   0.543   6.732  0.7858 -0.1178  2.0347
 9482TIP3   OH228388   3.299   4.436   1.708 -0.2900 -0.4690 -0.3758
 9482TIP3    H128389   3.330   4.375   1.641  1.5669  0.8562 -0.7904
 9482TIP3    H228390   3.226   4.482   1.667 -1.8532 -2.4239  0.0034
 9483TIP3   OH228391   3.995   2.576   3.071  0.4572  0.2105  0.3780
 9483TIP3    H128392   3.905   2.595   3.095  0.1100  1.0600 -1.4127
 9483TIP3    H228393   3.991   2.552   2.978  1.9475 -0.8324  0.5378
 9484TIP3   OH228394   1.163   3.700   1.735  0.0419  0.2366  0.4097
 9484TIP3    H128395   1.137   3.616   1.774  0.5308 -0.4398 -0.6896
 9484TIP3    H228396   1.082   3.751   1.735 -0.1816 -0.0813  1.4406
 9485TIP3   OH228397   4.693   2.642   2.698 -0.1281 -0.2126 -0.3236
 9485TIP3    H128398   4.775   2.641   2.747  0.1751 -2.2558 -0.7927
 9485TIP3    H228399   4.716   2.677   2.612 -0.1941  1.1253  0.1702
 9486TIP3   OH228400   8.151   6.777   3.931 -0.2967  0.4357  0.0390
 9486TIP3    H128401   8.175   6.686   3.946  1.2723  0.6862 -0.8125
 9486TIP3    H228402   8.081   6.773   3.867  0.5500 -0.1349 -0.8736
 9487TIP3   OH228403   3.748   0.163   3.236  0.2681 -0.3730  0.3337
 9487TIP3    H128404   3.785   0.104   3.302 -0.3631 -1.9142 -0.6194
 9487TIP3    H228405   3.688   0.219   3.285  0.1524 -1.1879  1.1584
 9488TIP3   OH228406   5.598   1.156   4.286 -0.0862 -0.4298  0.4144
 9488TIP3    H128407   5.525   1.094   4.284  1.2524 -2.0988  1.1131
 9488TIP3    H228408   5.565   1.233   4.240 -1.3114 -2.2006 -1.8498
 9489TIP3   OH228409   1.862   0.195   5.378  0.3468  0.0086  0.3388
 9489TIP3    H128410   1.955   0.199   5.355  0.6233 -0.6206  1.3116
 9489TIP3    H228411   1.851   0.110   5.421 -0.0713  1.2518  2.8697
 9490TIP3   OH228412   2.885   6.183   1.029  0.9083 -0.0667  0.2906
 9490TIP3    H128413   2.806   6.138   1.058  1.9356 -1.4489  1.0600
 9490TIP3    H228414   2.925   6.215   1.110  0.5534  1.6799 -0.1884
 9491TIP3   OH228415   0.370   3.536   0.430 -0.1248 -0.0460  0.5664
 9491TIP3    H128416   0.360   3.505   0.520 -0.5892  0.0813  0.5612
 9491TIP3    H228417   0.282   3.560   0.402 -0.0155 -0.2542  0.0138
 9492TIP3   OH228418   1.514   4.951   4.455  0.3583 -0.5003  0.0327
 9492TIP3    H128419   1.558   4.939   4.371  1.4873 -0.4156  0.5868
 9492TIP3    H228420   1.584   4.980   4.514 -0.8967  2.0215  0.3980
 9493TIP3   OH228421   7.750   4.820   2.473 -0.0525 -0.1261  1.0467
 9493TIP3    H128422   7.833   4.776   2.489  0.8115  1.2299  0.4615
 9493TIP3    H228423   7.709   4.770   2.403  1.8205  1.0285 -1.0101
 9494TIP3   OH228424   4.877   0.177   4.838 -0.6346 -0.3220 -0.4797
 9494TIP3    H128425   4.882   0.173   4.933  0.8592  0.7814 -0.4660
 9494TIP3    H228426   4.784   0.188   4.819 -0.8357  0.7580  0.9348
 9495TIP3   OH228427   2.836   4.638   2.119  0.2419 -0.8389 -0.3237
 9495TIP3    H128428   2.766   4.703   2.120 -2.9368 -3.9506  1.5893
 9495TIP3    H228429   2.898   4.669   2.185 -0.9454  0.4419  0.2434
 9496TIP3   OH228430   5.058   5.572   3.103 -0.4846  0.1440 -0.5140
 9496TIP3    H128431   5.010   5.534   3.177  0.0707 -1.1009 -0.7740
 9496TIP3    H228432   5.023   5.661   3.096  0.5084  0.8675  2.2318
 9497TIP3   OH228433   7.602   3.601   2.457  0.0471  0.4340  1.2293
 9497TIP3    H128434   7.681   3.607   2.510  2.1038  0.6430 -1.6076
 9497TIP3    H228435   7.614   3.521   2.406 -2.7367 -0.7838  2.3093
 9498TIP3   OH228436   8.293   2.239   0.589  0.2140  0.0350  0.5259
 9498TIP3    H128437   8.248   2.244   0.505 -0.4143  3.0873  0.9223
 9498TIP3    H228438   8.270   2.153   0.624  1.6724 -1.9669 -2.9718
 9499TIP3   OH228439   0.208   4.057   1.497  0.0795 -0.2433  0.4131
 9499TIP3    H128440   0.192   4.127   1.560  0.1124 -0.9844  1.2600
 9499TIP3    H228441   0.121   4.021   1.478  0.0315  0.1958 -0.2352
 9500TIP3   OH228442   0.386   0.755   6.125  0.3445 -0.6269  0.0082
 9500TIP3    H128443   0.476   0.738   6.152  0.8203  0.4086 -0.8563
 9500TIP3    H228444   0.364   0.683   6.066  0.6335 -0.8396  0.1582
 9501TIP3   OH228445   0.542   3.066   4.189  0.3465  0.3519  0.5458
 9501TIP3    H128446   0.515   3.157   4.204  1.4200  0.7292  0.2761
 9501TIP3    H228447   0.630   3.061   4.226  1.3547  0.1427 -1.7052
 9502TIP3   OH228448   6.122   5.609   1.380  0.0104  0.0248 -0.1157
 9502TIP3    H128449   6.173   5.643   1.453 -0.5630  1.9191 -0.5479
 9502TIP3    H228450   6.173   5.633   1.302  0.9907 -2.6020 -0.3974
 9503TIP3   OH228451   1.968   7.463   5.093  1.1912 -0.1162 -0.9149
 9503TIP3    H128452   1.958   7.368   5.087 -3.0045  0.0262  0.6725
 9503TIP3    H228453   1.892   7.498   5.046  1.7066  2.3873 -0.0329
 9504TIP3   OH228454   4.040   2.402   4.543  0.6905  0.7828  0.2208
 9504TIP3    H128455   3.997   2.479   4.506 -0.5099  0.6598  1.2836
 9504TIP3    H228456   4.111   2.438   4.596 -1.3692  1.4312  2.7683
 9505TIP3   OH228457   1.559   5.754   5.231 -0.4331  0.3709  0.2574
 9505TIP3    H128458   1.559   5.691   5.159  1.1204 -0.5702  1.0298
 9505TIP3    H228459   1.647   5.792   5.229  0.0599 -0.5211  2.3291
 9506TIP3   OH228460   4.017   7.202   4.141  0.0748 -0.1335  0.6416
 9506TIP3    H128461   3.979   7.184   4.055  2.4676 -5.3362  0.3209
 9506TIP3    H228462   4.084   7.269   4.124 -0.0270 -0.5003 -1.4554
 9507TIP3   OH228463   0.824   6.939   1.275  0.3601  0.1726  0.4688
 9507TIP3    H128464   0.861   6.863   1.230  0.4592  0.3157  0.3106
 9507TIP3    H228465   0.892   7.007   1.268  0.8243 -0.1183  1.7099
 9508TIP3   OH228466   6.633   2.659   2.131 -0.0321  0.4117 -0.4190
 9508TIP3    H128467   6.638   2.565   2.114 -0.6394  0.1038  0.9951
 9508TIP3    H228468   6.671   2.670   2.218 -0.6958  1.3604 -0.2343
 9509TIP3   OH228469   1.396   2.630   3.697 -0.8088  0.2982 -0.3596
 9509TIP3    H128470   1.434   2.704   3.744 -0.4181  0.4476 -0.8933
 9509TIP3    H228471   1.405   2.556   3.756  1.8522 -0.0410 -1.0855
 9510TIP3   OH228472   0.050   5.531   0.281  0.0864  0.1857 -0.4398
 9510TIP3    H128473  -0.001   5.581   0.345  1.1835  1.2162 -0.3186
 9510TIP3    H228474   0.124   5.589   0.260  0.9523 -1.0622 -0.9444
 9511TIP3   OH228475   8.248   4.177   4.281  0.6156 -0.0012  0.3618
 9511TIP3    H128476   8.283   4.264   4.264  3.7770 -1.2064  0.0104
 9511TIP3    H228477   8.325   4.124   4.301 -1.4352 -1.9614  4.2495
 9512TIP3   OH228478   6.237   6.144   6.691 -0.3591  0.4766  0.3037
 9512TIP3    H128479   6.310   6.107   6.641  0.6987 -0.2233  2.2800
 9512TIP3    H228480   6.237   6.237   6.666  2.0039  0.7611  1.1166
 9513TIP3   OH228481   0.987   6.801   0.097 -0.1303  0.0163  0.1334
 9513TIP3    H128482   0.978   6.710   0.125 -0.5463 -0.0995 -0.3411
 9513TIP3    H228483   0.897   6.832   0.090  0.0324  1.3158  2.9033
 9514TIP3   OH228484   6.159   1.973   4.912  0.1219 -0.3137 -0.5305
 9514TIP3    H128485   6.164   1.996   4.819  0.1692 -0.9065 -0.6815
 9514TIP3    H228486   6.243   2.003   4.948 -0.7034  1.7354 -0.2372
 9515TIP3   OH228487   0.897   1.544   6.107 -0.6196 -0.4280 -0.4554
 9515TIP3    H128488   0.877   1.570   6.197  0.7414 -1.1389  0.0751
 9515TIP3    H228489   0.974   1.596   6.084 -1.3471  0.2404 -1.4747
 9516TIP3   OH228490   7.086   2.036   5.343 -0.2620 -0.1218  0.1042
 9516TIP3    H128491   6.993   2.015   5.342 -0.2922  0.0193 -0.0392
 9516TIP3    H228492   7.119   1.992   5.422  0.0746 -2.3455 -1.2053
 9517TIP3   OH228493   3.696   7.295   4.261 -0.3902 -0.1387 -0.5389
 9517TIP3    H128494   3.714   7.388   4.248 -0.0497 -0.4119 -2.3204
 9517TIP3    H228495   3.743   7.251   4.190  1.1383 -1.8851  1.4296
 9518TIP3   OH228496   7.956   6.724   2.128 -0.3808 -0.7016 -0.0649
 9518TIP3    H128497   7.929   6.745   2.217 -1.2658 -3.2938  0.3641
 9518TIP3    H228498   7.937   6.803   2.078 -1.0689  0.3700  1.7952
 9519TIP3   OH228499   6.028   4.987   2.759  0.3352 -0.3726  0.6182
 9519TIP3    H128500   6.123   4.992   2.770  0.5454  1.2602 -1.3381
 9519TIP3    H228501   5.995   5.067   2.800 -0.1109 -0.4660  0.4529
 9520TIP3   OH228502   6.025   1.132   2.141  0.1964  0.1169  0.6071
 9520TIP3    H128503   5.957   1.188   2.179  0.5216 -0.5887  2.2970
 9520TIP3    H228504   6.107   1.180   2.157  0.2702  0.1504  0.1386
 9521TIP3   OH228505   1.979   2.034   6.180 -0.2165  0.5361 -0.1725
 9521TIP3    H128506   1.889   2.026   6.212  0.4700 -2.0541  1.4592
 9521TIP3    H228507   2.033   1.998   6.251  1.9199 -0.1088 -1.9976
 9522TIP3   OH228508   7.472   4.570   1.008  0.0015  0.4428  0.1656
 9522TIP3    H128509   7.404   4.627   0.973  2.1597  3.2107  0.1423
 9522TIP3    H228510   7.551   4.594   0.960  1.3906 -1.3842  1.3909
 9523TIP3   OH228511   4.552   1.668   2.577 -0.1911  0.5654  0.5163
 9523TIP3    H128512   4.578   1.661   2.485 -1.7128  3.7344 -0.2951
 9523TIP3    H228513   4.492   1.595   2.591 -1.8048  1.3364 -1.7818
 9524TIP3   OH228514   0.960   6.673   6.442 -0.4180 -0.1151  0.0201
 9524TIP3    H128515   0.938   6.599   6.386  1.5205 -0.9685  0.2992
 9524TIP3    H228516   0.883   6.686   6.497 -1.3835 -0.8881 -1.1166
 9525TIP3   OH228517   7.404   1.860   3.390 -0.0611  0.4334 -0.2184
 9525TIP3    H128518   7.436   1.941   3.429  0.4211 -0.1035  0.5256
 9525TIP3    H228519   7.483   1.812   3.365 -0.0283 -1.7869  3.4228
 9526TIP3   OH228520   5.644   3.843   1.954  0.5245  0.0956  0.4185
 9526TIP3    H128521   5.630   3.758   1.996 -0.6324  0.6539  1.2230
 9526TIP3    H228522   5.659   3.821   1.862  0.3196 -0.9951  0.6249
 9527TIP3   OH228523   6.206   3.165   2.587 -0.4231  0.9270 -0.3492
 9527TIP3    H128524   6.249   3.167   2.502 -1.2523 -1.5991 -0.9195
 9527TIP3    H228525   6.117   3.198   2.569 -0.5251  0.6149 -0.4293
 9528TIP3   OH228526   7.458   4.521   5.544  0.0276 -0.1024  0.3617
 9528TIP3    H128527   7.434   4.588   5.608 -2.9589  0.6046 -1.3142
 9528TIP3    H228528   7.419   4.440   5.579  0.7772 -0.3153  0.7372
 9529TIP3   OH228529   1.356   5.844   2.151  0.4378  0.1187 -0.4558
 9529TIP3    H128530   1.367   5.909   2.221  2.5647  0.2516 -0.8518
 9529TIP3    H228531   1.397   5.765   2.184 -3.0930 -1.4990  0.4676
 9530TIP3   OH228532   6.642   4.902   3.935  0.3672 -0.1458  0.3291
 9530TIP3    H128533   6.579   4.875   3.869  0.6517 -0.5929  0.2364
 9530TIP3    H228534   6.611   4.987   3.965 -0.1379 -0.2509  0.1052
 9531TIP3   OH228535   3.534   2.011   1.339  0.2992  0.0895  0.3327
 9531TIP3    H128536   3.611   1.955   1.325  0.4018  0.0703  0.9142
 9531TIP3    H228537   3.467   1.951   1.372  0.5134  0.3555  1.2783
 9532TIP3   OH228538   7.468   5.264   4.514  0.4910  0.1553 -0.2188
 9532TIP3    H128539   7.536   5.328   4.491  1.4276 -0.9669 -0.6708
 9532TIP3    H228540   7.386   5.312   4.504  1.0602  0.8115 -2.3282
 9533TIP3   OH228541   0.080   4.554   3.469 -0.9326  0.2144 -0.2592
 9533TIP3    H128542   0.150   4.505   3.512  0.1265  0.5685 -1.5155
 9533TIP3    H228543   0.020   4.577   3.539  0.2527 -0.0442  0.8750
 9534TIP3   OH228544   3.220   4.859   3.798 -0.4940  0.8943  0.2221
 9534TIP3    H128545   3.164   4.842   3.874  0.7623  0.2867  1.0570
 9534TIP3    H228546   3.182   4.807   3.727 -0.1216 -0.7888  1.1984
 9535TIP3   OH228547   2.207   0.225   0.793  0.3082 -0.1428  0.6118
 9535TIP3    H128548   2.275   0.158   0.792  0.6418  0.0327 -3.4511
 9535TIP3    H228549   2.246   0.300   0.750 -1.7756  0.7472  0.1293
 9536TIP3   OH228550   5.627   2.866   5.284  0.1316 -0.1687  0.5012
 9536TIP3    H128551   5.641   2.931   5.353 -0.5840  1.2957 -0.6840
 9536TIP3    H228552   5.532   2.855   5.282 -0.0145  1.0899 -1.3509
 9537TIP3   OH228553   5.557   3.685   2.309 -0.4834 -0.0813 -0.0931
 9537TIP3    H128554   5.519   3.701   2.395  0.1305  1.6726 -0.1259
 9537TIP3    H228555   5.583   3.593   2.311 -1.0582 -0.2327  1.3466
 9538TIP3   OH228556   5.740   1.481   4.410 -0.4896  0.2712 -0.0265
 9538TIP3    H128557   5.709   1.429   4.336  0.7808 -0.5677 -0.0057
 9538TIP3    H228558   5.747   1.570   4.376 -1.9001  0.2901 -0.3062
 9539TIP3   OH228559   2.970   7.242   1.084  0.0032 -0.1374 -0.3637
 9539TIP3    H128560   2.893   7.298   1.073  0.4697  0.5023 -0.4582
 9539TIP3    H228561   2.947   7.161   1.039 -0.8582 -0.1952  0.1632
 9540TIP3   OH228562   2.223   7.796   5.667 -0.3661  0.1553  0.2074
 9540TIP3    H128563   2.311   7.768   5.691 -0.2874 -0.3009 -0.6171
 9540TIP3    H228564   2.166   7.753   5.731 -0.1160 -0.7213 -0.1491
 9541TIP3   OH228565   2.337   4.215   0.347 -0.2066  0.7412 -0.2166
 9541TIP3    H128566   2.399   4.243   0.280  1.3537 -0.7238  0.5354
 9541TIP3    H228567   2.348   4.120   0.353 -2.6711  0.3991 -0.1440
 9542TIP3   OH228568   2.013   6.086   6.197  0.4481  0.4916  0.5066
 9542TIP3    H128569   2.017   6.053   6.107 -1.8333  0.5189  0.3533
 9542TIP3    H228570   1.977   6.174   6.189 -1.0820 -0.0065  1.5254
 9543TIP3   OH228571   5.866   6.554   5.887 -0.1782 -0.9490 -0.0927
 9543TIP3    H128572   5.885   6.571   5.979 -1.3910 -1.0933  0.2054
 9543TIP3    H228573   5.908   6.470   5.869  1.0589 -0.3639 -0.0110
 9544TIP3   OH228574   5.280   3.478   1.628  0.1906  0.1880  0.3758
 9544TIP3    H128575   5.212   3.473   1.695 -1.5604  0.0386 -1.3074
 9544TIP3    H228576   5.307   3.388   1.614 -1.1893 -0.0994 -0.7314
 9545TIP3   OH228577   7.027   4.589   6.368  0.6320  0.1959 -0.4236
 9545TIP3    H128578   6.958   4.640   6.410  1.4079  1.0577 -0.1494
 9545TIP3    H228579   6.983   4.511   6.336 -0.7126  1.2695 -1.3261
 9546TIP3   OH228580   0.199   7.715   4.437  0.1108 -0.1448  0.9760
 9546TIP3    H128581   0.186   7.625   4.409  0.8901 -0.6878  2.2955
 9546TIP3    H228582   0.122   7.762   4.403  0.1908 -1.0682 -0.5837
 9547TIP3   OH228583   4.724   6.414   3.646 -0.5350 -0.2669  0.5636
 9547TIP3    H128584   4.653   6.372   3.695 -0.0203 -2.9861 -0.8113
 9547TIP3    H228585   4.690   6.419   3.556  0.7363 -0.9724  0.0293
 9548TIP3   OH228586   4.889   4.788   4.340 -0.1439 -0.1816  0.4584
 9548TIP3    H128587   4.901   4.742   4.424  1.0692 -0.5073  0.1285
 9548TIP3    H228588   4.886   4.717   4.275 -1.9207  0.0082  0.2680
 9549TIP3   OH228589   1.383   0.210   5.333 -0.0202  0.2067 -0.4231
 9549TIP3    H128590   1.424   0.236   5.251  0.0692 -0.4947 -0.6123
 9549TIP3    H228591   1.296   0.178   5.308  0.0637 -0.1526 -0.2631
 9550TIP3   OH228592   7.676   5.095   5.430  0.0267 -0.3993  0.0853
 9550TIP3    H128593   7.639   5.016   5.469  0.0887 -1.7538 -2.3675
 9550TIP3    H228594   7.616   5.165   5.457 -2.5100 -1.9806 -0.9768
 9551TIP3   OH228595   4.111   0.688   2.852  0.0308  0.1123  0.3341
 9551TIP3    H128596   4.087   0.647   2.935 -1.2702 -0.3775 -0.2444
 9551TIP3    H228597   4.039   0.664   2.793  1.1758  0.0194 -1.0667
 9552TIP3   OH228598   1.392   3.279   1.512 -0.1819  0.1947  0.6353
 9552TIP3    H128599   1.409   3.185   1.512  0.4667  0.3071  0.9958
 9552TIP3    H228600   1.475   3.319   1.487 -1.0547  0.6023 -1.9450
 9553TIP3   OH228601   6.558   7.736   2.471 -0.0020  0.3147  0.0218
 9553TIP3    H128602   6.627   7.688   2.518 -1.6110 -0.2341  1.9450
 9553TIP3    H228603   6.514   7.788   2.539 -1.9687  0.0589 -0.9883
 9554TIP3   OH228604   3.233   0.538   4.387  0.4304 -1.0154  0.2093
 9554TIP3    H128605   3.276   0.623   4.378 -1.4972  0.0466  0.4412
 9554TIP3    H228606   3.238   0.499   4.300 -1.4834  0.8086 -0.8047
 9555TIP3   OH228607   6.040   4.607   1.902 -0.6251 -0.6770  0.4560
 9555TIP3    H128608   5.968   4.660   1.866  0.3804  0.3187 -0.1515
 9555TIP3    H228609   6.063   4.547   1.831 -1.9209 -2.1630  1.2246
 9556TIP3   OH228610   6.994   0.372   3.312  0.2200 -0.0376 -0.2770
 9556TIP3    H128611   6.925   0.399   3.373  0.3226  0.6316 -0.4459
 9556TIP3    H228612   7.068   0.428   3.334  0.6996 -0.7295 -0.1260
 9557TIP3   OH228613   3.620   4.826   2.887  0.7093  0.1468  0.2694
 9557TIP3    H128614   3.657   4.868   2.809  0.2587 -0.2564 -0.1696
 9557TIP3    H228615   3.538   4.788   2.857 -0.2557  1.3181  1.3092
 9558TIP3   OH228616   3.517   7.390   4.638  0.0973 -0.0118  0.2462
 9558TIP3    H128617   3.431   7.431   4.640  0.7054  1.3941 -0.9499
 9558TIP3    H228618   3.501   7.302   4.604 -0.7642  0.5136 -0.7462
 9559TIP3   OH228619   5.301   6.212   5.364 -0.0899 -0.4810  0.2526
 9559TIP3    H128620   5.347   6.291   5.337  2.4938 -1.3983  1.5861
 9559TIP3    H228621   5.269   6.173   5.283  2.1833 -0.1153 -0.8951
 9560TIP3   OH228622   7.711   0.354   1.790 -0.1571  0.6898 -0.1143
 9560TIP3    H128623   7.756   0.292   1.733 -1.4717  0.0512 -0.4989
 9560TIP3    H228624   7.763   0.355   1.870  0.9879  0.6149 -0.8489
 9561TIP3   OH228625   0.565   7.677   0.680 -0.4110  0.2315  0.3182
 9561TIP3    H128626   0.626   7.746   0.654 -0.7686  0.9748  1.3801
 9561TIP3    H228627   0.620   7.607   0.713 -0.0987  0.8599  1.1849
 9562TIP3   OH228628   1.997   1.647   4.279  0.0031 -0.1188 -0.1767
 9562TIP3    H128629   1.921   1.595   4.253 -0.4543  0.0339  0.7899
 9562TIP3    H228630   1.987   1.658   4.374  0.4225  1.1929 -0.2611
 9563TIP3   OH228631   2.166   5.673   3.629  0.1325  0.2284 -0.1394
 9563TIP3    H128632   2.204   5.598   3.583  0.1785 -0.4520  0.9541
 9563TIP3    H228633   2.072   5.656   3.628  0.1825 -0.1405  0.5758
 9564TIP3   OH228634   8.095   1.370   1.584 -0.1580  0.2509  0.4025
 9564TIP3    H128635   8.179   1.357   1.628 -0.6617 -0.8465  1.0811
 9564TIP3    H228636   8.069   1.283   1.554 -0.9814  0.5997  0.0593
 9565TIP3   OH228637   1.282   1.717   2.828  0.3584  0.2842  0.2122
 9565TIP3    H128638   1.223   1.648   2.796  0.0278  0.2871  0.8199
 9565TIP3    H228639   1.342   1.671   2.887  0.4955  0.4170  0.1756
 9566TIP3   OH228640   1.734   2.655   3.843 -0.9938 -0.2948  0.2581
 9566TIP3    H128641   1.705   2.584   3.900 -1.9445 -0.8380 -0.8499
 9566TIP3    H228642   1.697   2.632   3.757  1.5935 -0.2865 -0.9382
 9567TIP3   OH228643   4.226   4.787   2.650 -0.2601 -0.1415  0.2400
 9567TIP3    H128644   4.196   4.830   2.570  0.6949  0.0567 -0.0323
 9567TIP3    H228645   4.166   4.816   2.718 -2.1974 -1.6953 -0.7016
 9568TIP3   OH228646   3.147   5.731   4.080 -0.2877  0.1408 -0.0504
 9568TIP3    H128647   3.215   5.690   4.026  1.1002  1.7525  0.4024
 9568TIP3    H228648   3.195   5.782   4.145 -1.9425 -0.0538  1.4077
 9569TIP3   OH228649   6.917   7.154   1.842 -0.6899  0.7036  0.2706
 9569TIP3    H128650   6.988   7.187   1.787 -1.3269  1.8413  0.1064
 9569TIP3    H228651   6.903   7.222   1.907 -1.1029  0.1286  0.8034
 9570TIP3   OH228652   1.005   2.291   6.182 -0.1351  0.1478  0.0298
 9570TIP3    H128653   0.964   2.261   6.263  0.8129 -1.4173 -0.0285
 9570TIP3    H228654   0.964   2.238   6.113 -0.5099  1.0473 -0.4588
 9571TIP3   OH228655   6.607   5.327   6.059  0.0462  0.0588 -0.1386
 9571TIP3    H128656   6.514   5.332   6.037 -0.1164 -0.1515  0.4803
 9571TIP3    H228657   6.609   5.301   6.151  0.7293 -0.6893 -0.3458
 9572TIP3   OH228658   7.700   0.972   5.162  0.3641  0.3906  0.3590
 9572TIP3    H128659   7.696   0.944   5.071  1.0785 -0.2153  0.5040
 9572TIP3    H228660   7.791   0.958   5.187  0.4763  1.7534  0.7905
 9573TIP3   OH228661   1.405   4.760   6.594  0.5178  0.2445 -0.1037
 9573TIP3    H128662   1.375   4.729   6.680  1.3566  2.0517  0.8832
 9573TIP3    H228663   1.326   4.759   6.540  0.2600 -2.3785  0.1847
 9574TIP3   OH228664   2.425   5.253   1.853 -0.3555 -0.4706  0.2272
 9574TIP3    H128665   2.491   5.210   1.799  0.3834 -1.7174  2.0365
 9574TIP3    H228666   2.475   5.309   1.912 -0.9229 -1.2245  1.4447
 9575TIP3   OH228667   2.276   0.825   1.114  0.3072 -0.1102  0.1048
 9575TIP3    H128668   2.290   0.915   1.083 -0.1029 -0.6033 -1.6056
 9575TIP3    H228669   2.183   0.809   1.100  0.6461 -1.2797 -1.0058
 9576TIP3   OH228670   2.542   6.022   4.382  0.0181  0.4888  0.2333
 9576TIP3    H128671   2.615   6.084   4.386 -0.8417  1.5148  0.2875
 9576TIP3    H228672   2.483   6.050   4.452 -0.1599 -0.6943  0.5821
 9577TIP3   OH228673   5.105   4.120   5.709 -0.0987  0.0316 -0.5412
 9577TIP3    H128674   5.157   4.170   5.646  1.8237 -2.2767 -0.9400
 9577TIP3    H228675   5.055   4.187   5.757  3.3034  2.5394 -0.0528
 9578TIP3   OH228676   4.798   0.259   0.335 -0.0363  0.4861 -0.1431
 9578TIP3    H128677   4.743   0.189   0.300  0.9659  1.0090 -2.9936
 9578TIP3    H228678   4.884   0.218   0.347 -0.0846  0.6101  0.7019
 9579TIP3   OH228679   2.563   4.380   4.960  0.1136  0.1122  0.2196
 9579TIP3    H128680   2.509   4.305   4.940 -0.6338  0.9379 -0.9567
 9579TIP3    H228681   2.511   4.432   5.021 -0.7366  1.2208 -1.3949
 9580TIP3   OH228682   3.227   2.109   2.034  0.0661 -0.1683  0.3156
 9580TIP3    H128683   3.165   2.159   2.087 -1.5037 -1.3036 -0.3998
 9580TIP3    H228684   3.194   2.115   1.945  0.9022 -0.9254 -0.0629
 9581TIP3   OH228685   2.396   1.516   6.468 -0.4078  0.7304 -0.0567
 9581TIP3    H128686   2.401   1.423   6.447  1.8756  0.8615 -0.3863
 9581TIP3    H228687   2.445   1.559   6.398 -1.4702  2.1960  0.0666
 9582TIP3   OH228688   0.267   4.814   1.969 -0.6591  0.2866 -0.2407
 9582TIP3    H128689   0.270   4.895   1.917 -0.2349  0.1275 -0.4681
 9582TIP3    H228690   0.252   4.844   2.059  1.1370  0.7303 -0.0578
 9583TIP3   OH228691   0.059   0.912   1.120  0.6297  0.3593 -0.4370
 9583TIP3    H128692   0.040   0.833   1.171 -2.0687  1.9348  1.2686
 9583TIP3    H228693   0.130   0.954   1.166  0.7552 -0.0989 -0.2038
 9584TIP3   OH228694   0.539   0.176   5.403 -0.3921  0.5151  0.0132
 9584TIP3    H128695   0.611   0.217   5.452 -0.6258  1.5051 -0.4401
 9584TIP3    H228696   0.500   0.114   5.465 -0.0877  1.0550  0.7683
 9585TIP3   OH228697   6.373   5.929   2.152  0.1126 -0.7501  0.1978
 9585TIP3    H128698   6.324   5.886   2.082 -0.1041  0.5475 -0.4719
 9585TIP3    H228699   6.411   6.007   2.111 -0.7055  0.5011  1.7033
 9586TIP3   OH228700   1.133   0.826   2.523 -0.4841 -0.4362  0.6331
 9586TIP3    H128701   1.061   0.888   2.541  1.2159  2.8951 -2.5844
 9586TIP3    H228702   1.095   0.763   2.461 -1.2703 -0.2359  0.8979
 9587TIP3   OH228703   1.237   4.070   0.274 -0.9169  0.4303 -0.2964
 9587TIP3    H128704   1.260   4.046   0.364  2.0397 -0.7795 -1.2621
 9587TIP3    H228705   1.292   4.146   0.254 -0.5110 -0.1387 -1.4735
 9588TIP3   OH228706   7.481   0.171   2.320 -0.2916 -0.0019  0.0293
 9588TIP3    H128707   7.385   0.168   2.320 -0.4317  1.5970 -2.4580
 9588TIP3    H228708   7.507   0.082   2.295 -1.1888 -0.1180 -0.5415
 9589TIP3   OH228709   0.985   1.380   0.824  0.5510  0.2266 -0.2416
 9589TIP3    H128710   1.036   1.323   0.767 -1.6397 -0.5784 -1.5295
 9589TIP3    H228711   1.016   1.361   0.912  0.5511 -2.2973 -0.7108
 9590TIP3   OH228712   6.444   3.737   2.061 -0.1258  0.3706 -0.3961
 9590TIP3    H128713   6.424   3.747   2.154  0.2929 -1.4320 -0.0781
 9590TIP3    H228714   6.443   3.826   2.026 -0.7823  1.0239  1.2268
 9591TIP3   OH228715   6.551   5.805   3.749  0.6110 -0.3692  0.1712
 9591TIP3    H128716   6.482   5.850   3.700 -0.0128 -2.1553 -0.6949
 9591TIP3    H228717   6.574   5.866   3.819  0.8247  1.8805 -1.7229
 9592TIP3   OH228718   1.465   5.269   6.198 -0.5494 -0.1349  0.5464
 9592TIP3    H128719   1.413   5.197   6.234 -1.4209 -0.2192 -0.8299
 9592TIP3    H228720   1.485   5.324   6.274 -0.0372 -1.6947  1.5964
 9593TIP3   OH228721   0.977   5.155   1.201 -0.0116  0.4393 -0.2985
 9593TIP3    H128722   0.889   5.117   1.211  0.1567  0.4990  1.7710
 9593TIP3    H228723   0.997   5.142   1.108 -2.1930  0.4208 -0.8394
 9594TIP3   OH228724   1.414   1.946   1.422  0.0119 -0.4108 -0.1532
 9594TIP3    H128725   1.327   1.933   1.458 -0.4030 -0.7935 -1.2308
 9594TIP3    H228726   1.405   2.020   1.362 -0.0296 -1.5330 -1.6097
 9595TIP3   OH228727   7.732   7.106   0.523  0.4502  0.0319  0.1264
 9595TIP3    H128728   7.738   7.028   0.578 -1.8485  0.6058  1.3281
 9595TIP3    H228729   7.655   7.091   0.468  1.5702  0.3297 -1.5930
 9596TIP3   OH228730   6.796   7.027   6.293  0.1846 -0.1781  0.1725
 9596TIP3    H128731   6.891   7.015   6.298  0.2660 -0.1397 -1.1105
 9596TIP3    H228732   6.759   6.941   6.312  0.4801 -0.2716  0.3194
 9597TIP3   OH228733   5.624   0.872   3.508  0.5506 -0.0699  0.0008
 9597TIP3    H128734   5.534   0.841   3.508  0.2914  0.5434  1.6440
 9597TIP3    H228735   5.677   0.793   3.509 -0.0079 -0.4497  0.3730
 9598TIP3   OH228736   3.906   5.371   4.703  0.4843  0.3388 -0.2622
 9598TIP3    H128737   3.996   5.365   4.672  0.5731  0.4875 -0.0402
 9598TIP3    H228738   3.892   5.289   4.750  1.5878  1.5864  2.4940
 9599TIP3   OH228739   1.748   4.992   4.591  0.4734  0.6661  0.3486
 9599TIP3    H128740   1.834   4.957   4.568  1.3278  1.4485  2.1348
 9599TIP3    H228741   1.757   5.087   4.582 -1.0239  0.6867 -1.8834
 9600TIP3   OH228742   5.106   0.989   6.409 -0.3546 -0.5488 -0.1188
 9600TIP3    H128743   5.091   0.895   6.410 -0.0769 -0.6018 -0.6969
 9600TIP3    H228744   5.168   1.005   6.481 -2.3800 -0.4455  1.7155
 9601TIP3   OH228745   2.833   4.688   1.612 -0.1221 -0.3363  0.1161
 9601TIP3    H128746   2.854   4.774   1.647 -1.9131  0.5641 -0.8853
 9601TIP3    H228747   2.775   4.649   1.678  0.5497 -0.7224  0.4874
 9602TIP3   OH228748   4.118   7.198   1.204  0.7578  0.6285  0.0395
 9602TIP3    H128749   4.151   7.146   1.131  0.9877 -0.0786  0.6309
 9602TIP3    H228750   4.030   7.225   1.177  0.3113 -0.7597  0.0341
 9603TIP3   OH228751   0.814   7.496   3.759 -0.4837  0.6859 -0.0640
 9603TIP3    H128752   0.873   7.571   3.761 -2.7886  2.5949  0.3383
 9603TIP3    H228753   0.817   7.460   3.848  0.6838  0.2095 -0.2810
 9604TIP3   OH228754   0.503   4.001   4.689 -0.0349 -0.1138 -0.5690
 9604TIP3    H128755   0.475   3.928   4.633 -0.0246 -1.0862  0.6539
 9604TIP3    H228756   0.576   3.965   4.740 -0.1949  0.6809  0.2338
 9605TIP3   OH228757   7.012   0.644   0.314  0.3590  0.5935 -0.3848
 9605TIP3    H128758   6.943   0.668   0.376 -0.7200  1.0502 -1.7194
 9605TIP3    H228759   7.007   0.549   0.307 -0.2338  0.6316 -0.5576
 9606TIP3   OH228760   4.790   1.904   4.146 -0.3676 -0.1742 -0.5554
 9606TIP3    H128761   4.785   1.914   4.241  0.3652  0.3837 -0.5744
 9606TIP3    H228762   4.880   1.928   4.123 -0.0652 -1.8094 -1.2129
 9607TIP3   OH228763   0.862   3.836   2.422 -0.5260 -0.1426 -0.1695
 9607TIP3    H128764   0.865   3.928   2.395 -0.9625  0.1373  0.6903
 9607TIP3    H228765   0.954   3.811   2.432 -0.4175  0.6747  1.0934
 9608TIP3   OH228766   7.497   5.007   4.937 -0.2761  0.3515 -0.7067
 9608TIP3    H128767   7.572   4.951   4.916 -0.5329  0.3890 -1.7581
 9608TIP3    H228768   7.440   5.001   4.860 -0.7065  1.3864 -0.4819
 9609TIP3   OH228769   5.193   3.033   1.059 -0.2070  0.0270 -0.2367
 9609TIP3    H128770   5.154   3.053   0.974 -1.7194  0.0408  0.4166
 9609TIP3    H228771   5.155   2.949   1.083  0.1853  0.0341  0.4247
 9610TIP3   OH228772   5.575   2.834   4.588 -0.2431 -0.2544  0.2580
 9610TIP3    H128773   5.626   2.854   4.510  0.3586  0.7317  0.8891
 9610TIP3    H228774   5.504   2.897   4.587 -0.5076 -0.5480  0.2668
 9611TIP3   OH228775   7.970   6.839   0.834  0.2617  0.1276  0.1247
 9611TIP3    H128776   7.906   6.820   0.766 -0.5674 -2.1088  1.4266
 9611TIP3    H228777   8.054   6.843   0.787 -0.4257 -0.1299 -1.1717
 9612TIP3   OH228778   7.679   7.719   1.900 -0.8040  0.1844  0.4630
 9612TIP3    H128779   7.636   7.803   1.912 -0.3174  0.4067  0.6749
 9612TIP3    H228780   7.608   7.656   1.890 -1.1689  0.5936  0.4979
 9613TIP3   OH228781   0.297   0.087   0.232  0.3047 -0.3901 -0.0780
 9613TIP3    H128782   0.213   0.051   0.206 -0.0484 -0.0291  0.5378
 9613TIP3    H228783   0.335   0.120   0.150 -1.3260  1.8476 -0.0207
 9614TIP3   OH228784   8.142   3.975   5.832  0.2103 -0.0552  0.1668
 9614TIP3    H128785   8.085   3.899   5.828  0.9445 -0.5787 -0.8371
 9614TIP3    H228786   8.093   4.046   5.791  0.0886 -0.3813 -0.2576
 9615TIP3   OH228787   7.748   4.418   3.305 -0.1438 -0.3638  0.8566
 9615TIP3    H128788   7.800   4.364   3.246  0.0543  1.1804 -0.4527
 9615TIP3    H228789   7.695   4.473   3.247 -1.1143  0.1117  2.1451
 9616TIP3   OH228790   1.491   2.168   6.533  0.3776 -0.2497 -0.8239
 9616TIP3    H128791   1.466   2.212   6.451  0.8603  0.7296 -0.4658
 9616TIP3    H228792   1.586   2.161   6.528  0.5585  0.9764  0.1839
 9617TIP3   OH228793   7.929   4.942   5.468 -0.4479  0.3122 -1.0482
 9617TIP3    H128794   7.964   5.008   5.529 -0.6544 -1.5638  1.2276
 9617TIP3    H228795   7.835   4.955   5.471 -0.5812 -0.7197  0.2766
 9618TIP3   OH228796   7.596   2.529   5.380 -0.4670 -0.2441  0.3083
 9618TIP3    H128797   7.691   2.527   5.371 -0.2910  1.7289  1.1070
 9618TIP3    H228798   7.564   2.469   5.313  1.3318 -1.0023  0.0626
 9619TIP3   OH228799   6.945   2.808   0.081 -0.0623  0.2721 -0.2871
 9619TIP3    H128800   6.894   2.728   0.072 -1.4357  1.3129 -2.5728
 9619TIP3    H228801   7.034   2.783   0.055 -0.4842 -0.5020 -1.0444
 9620TIP3   OH228802   6.636   6.259   2.351 -0.1895 -0.0609  0.3750
 9620TIP3    H128803   6.715   6.268   2.404  0.6400 -1.2533 -0.6133
 9620TIP3    H228804   6.610   6.168   2.361 -1.9994  0.5087  1.4011
 9621TIP3   OH228805   1.557   1.995   6.277 -0.1115 -0.0920  0.0719
 9621TIP3    H128806   1.632   1.938   6.258  0.4343  0.5380  0.3077
 9621TIP3    H228807   1.494   1.937   6.320 -0.3631 -0.9553 -1.4043
 9622TIP3   OH228808   2.729   5.433   3.059  0.2348  0.2857  0.1238
 9622TIP3    H128809   2.745   5.443   2.966  0.6662 -1.4304 -0.0128
 9622TIP3    H228810   2.649   5.483   3.075  1.0164  1.9167 -0.8263
 9623TIP3   OH228811   7.074   6.502   4.954  0.3241  0.0412 -0.2669
 9623TIP3    H128812   7.138   6.572   4.940 -0.3836  0.8326  0.3691
 9623TIP3    H228813   7.007   6.518   4.889  0.6673 -0.6797 -0.8096
 9624TIP3   OH228814   4.378   7.145   0.549  0.0013 -0.1351  0.3814
 9624TIP3    H128815   4.442   7.092   0.501  0.5473 -0.9403  1.9328
 9624TIP3    H228816   4.317   7.080   0.585 -0.1514  0.4243  1.1320
 9625TIP3   OH228817   1.465   2.162   5.722 -0.0444  0.4359 -0.5338
 9625TIP3    H128818   1.457   2.101   5.648  0.6932  1.4863 -1.5131
 9625TIP3    H228819   1.375   2.179   5.748 -0.2584 -1.9640  0.5567
 9626TIP3   OH228820   8.091   0.400   1.149  0.3569  0.3051  0.0353
 9626TIP3    H128821   8.148   0.392   1.225  0.1888 -1.3446  0.0374
 9626TIP3    H228822   8.081   0.310   1.117 -0.0603  0.8765 -1.5775
 9627TIP3   OH228823   3.388   1.460   4.689  0.1803  0.5136  0.2660
 9627TIP3    H128824   3.417   1.438   4.601  1.0166 -2.2313  1.1032
 9627TIP3    H228825   3.446   1.531   4.717 -0.5409  1.8788 -1.5777
 9628TIP3   OH228826   4.850   4.083   4.678  0.2637  0.1035  0.6321
 9628TIP3    H128827   4.811   4.044   4.757 -1.0357  1.5238  0.7342
 9628TIP3    H228828   4.822   4.026   4.607  0.0391 -0.2550  1.0007
 9629TIP3   OH228829   7.395   0.009   4.715 -0.3123  0.1522  0.6521
 9629TIP3    H128830   7.384   0.035   4.624  1.9256 -3.0520 -0.6916
 9629TIP3    H228831   7.462   0.068   4.749  0.4280 -0.0099 -0.4722
 9630TIP3   OH228832   4.257   1.102   5.529 -0.5960  0.5160 -0.0358
 9630TIP3    H128833   4.293   1.026   5.483 -1.6339 -0.6362  0.9678
 9630TIP3    H228834   4.299   1.178   5.488  0.7231 -0.6090 -0.8398
 9631TIP3   OH228835   7.372   2.906   3.440 -0.2130 -0.6494 -0.5669
 9631TIP3    H128836   7.459   2.946   3.436  0.0535 -1.2269 -0.4981
 9631TIP3    H228837   7.363   2.877   3.530 -0.1319 -1.3612 -0.7856
 9632TIP3   OH228838   3.398   3.561   1.672 -0.2803 -0.2597 -0.2768
 9632TIP3    H128839   3.337   3.626   1.708  0.9957 -0.0074  1.5713
 9632TIP3    H228840   3.354   3.477   1.683 -0.9143  0.0495 -0.3957
 9633TIP3   OH228841   3.144   7.732   4.182 -0.4318  0.0019 -0.3407
 9633TIP3    H128842   3.192   7.806   4.219 -1.0450 -0.1990  0.9140
 9633TIP3    H228843   3.201   7.699   4.112  1.0143  0.0973  0.7451
 9634TIP3   OH228844   6.049   1.579   0.169  0.0818  0.0592 -0.1552
 9634TIP3    H128845   6.040   1.572   0.264 -1.3948  1.7943 -0.1216
 9634TIP3    H228846   6.104   1.656   0.156  1.0158 -0.6681 -0.7409
 9635TIP3   OH228847   0.925   4.660   1.448 -0.3399  0.4437  0.2436
 9635TIP3    H128848   0.939   4.671   1.354  1.5946  0.8931  0.5533
 9635TIP3    H228849   0.860   4.590   1.454 -0.1530  0.0845 -1.4134
 9636TIP3   OH228850   2.815   1.517   5.893 -0.7423 -0.4851 -0.4861
 9636TIP3    H128851   2.789   1.428   5.919 -1.5466 -0.8911 -2.5071
 9636TIP3    H228852   2.876   1.504   5.821 -0.8138  0.6236 -0.7635
 9637TIP3   OH228853   3.343   2.206   4.357  0.5737 -0.1187  0.0273
 9637TIP3    H128854   3.306   2.163   4.435 -0.7886 -0.3089 -0.6938
 9637TIP3    H228855   3.324   2.299   4.369  1.3114 -0.0121  0.4131
 9638TIP3   OH228856   7.765   1.581   2.891  0.1484  0.4382  0.0346
 9638TIP3    H128857   7.782   1.511   2.954 -0.9743  0.6219  0.5643
 9638TIP3    H228858   7.852   1.609   2.863  0.6623 -2.3868 -1.6107
 9639TIP3   OH228859   5.236   6.829   1.532  0.3147 -0.1379  0.4181
 9639TIP3    H128860   5.229   6.738   1.559  1.4930 -0.8673 -1.5515
 9639TIP3    H228861   5.152   6.869   1.557  0.5728 -1.1515  3.2715
 9640TIP3   OH228862   4.034   4.775   1.005 -0.1245 -0.1119 -0.5967
 9640TIP3    H128863   4.119   4.797   1.044 -0.2255 -0.8488  0.0541
 9640TIP3    H228864   4.056   4.740   0.919  0.0589  2.2369 -1.6000
 9641TIP3   OH228865   7.689   1.872   6.348  0.6801  0.7906 -0.6566
 9641TIP3    H128866   7.729   1.834   6.270  1.6184  0.9954 -0.2873
 9641TIP3    H228867   7.632   1.941   6.314  0.0053 -0.0335 -1.2394
 9642TIP3   OH228868   3.307   3.469   2.032 -0.0862  0.0570  0.1308
 9642TIP3    H128869   3.235   3.426   2.077  0.1376  0.2307  0.6623
 9642TIP3    H228870   3.314   3.423   1.948 -1.7002  0.9210 -0.5274
 9643TIP3   OH228871   7.245   2.722   1.891  0.1766  0.3309 -0.0076
 9643TIP3    H128872   7.240   2.638   1.937 -0.5796  0.6071  0.4388
 9643TIP3    H228873   7.283   2.701   1.805 -2.0300 -0.8500 -0.7657
 9644TIP3   OH228874   0.325   2.721   6.473 -0.4630  0.0674  0.1579
 9644TIP3    H128875   0.245   2.764   6.443 -1.2669 -0.5382  1.3693
 9644TIP3    H228876   0.337   2.751   6.563  0.4993 -0.1140  0.1036
 9645TIP3   OH228877   1.425   5.309   1.951 -0.3095  0.5495  0.1102
 9645TIP3    H128878   1.335   5.321   1.982  0.5916  1.9137  2.4880
 9645TIP3    H228879   1.478   5.312   2.030  1.7554 -1.9525 -1.0428
 9646TIP3   OH228880   4.826   1.072   2.719  0.3024 -0.2528 -0.2630
 9646TIP3    H128881   4.756   1.090   2.781 -0.6481 -1.3822 -0.9734
 9646TIP3    H228882   4.855   0.983   2.740  0.3714 -0.4248 -1.0341
 9647TIP3   OH228883   0.531   2.201   3.961 -0.6657  0.0507 -0.5406
 9647TIP3    H128884   0.591   2.169   4.029 -1.1625  0.6156  0.1762
 9647TIP3    H228885   0.500   2.122   3.918 -0.4967 -0.3290  0.0229
 9648TIP3   OH228886   5.697   3.614   4.899  0.0052 -0.4485  0.4460
 9648TIP3    H128887   5.709   3.701   4.862 -0.5860 -0.3128  0.5686
 9648TIP3    H228888   5.785   3.587   4.926  0.8747 -1.3602 -2.7861
 9649TIP3   OH228889   4.631   1.249   4.518  0.4059 -0.0230  0.2822
 9649TIP3    H128890   4.548   1.210   4.545  1.0270 -0.7041  1.2944
 9649TIP3    H228891   4.670   1.184   4.460  0.9445 -0.4441  1.0936
 9650TIP3   OH228892   1.158   3.346   0.226  0.2718  0.0408 -0.0225
 9650TIP3    H128893   1.218   3.420   0.232 -1.0401  1.0236  2.3178
 9650TIP3    H228894   1.156   3.309   0.314 -1.1519 -1.0878 -0.4822
 9651TIP3   OH228895   0.108   4.947   3.585 -0.2674 -0.6426 -0.2244
 9651TIP3    H128896   0.153   4.888   3.645 -0.4825  0.6669  1.3074
 9651TIP3    H228897   0.178   4.987   3.533  0.0950 -0.5215  0.3521
 9652TIP3   OH228898   6.680   7.347   1.724 -0.0126 -0.1802 -0.2826
 9652TIP3    H128899   6.732   7.338   1.804  0.8348  1.4209 -0.5979
 9652TIP3    H228900   6.736   7.312   1.654 -0.0121  0.0465 -0.3998
 9653TIP3   OH228901   7.378   3.787   0.110  0.0676  0.0576 -0.3264
 9653TIP3    H128902   7.390   3.866   0.163  0.7637 -1.0092  1.1409
 9653TIP3    H228903   7.438   3.799   0.036  0.9162  0.4575  0.4099
 9654TIP3   OH228904   6.241   7.131   3.024 -0.0930 -0.3073 -0.1899
 9654TIP3    H128905   6.206   7.150   2.937 -0.3090 -1.3339 -0.3375
 9654TIP3    H228906   6.302   7.059   3.011 -1.5969 -1.8338  0.7684
 9655TIP3   OH228907   8.189   3.274   1.091 -0.3559  0.2660  0.0539
 9655TIP3    H128908   8.262   3.324   1.055  0.3070 -1.3971 -1.0194
 9655TIP3    H228909   8.223   3.234   1.171 -0.4928  0.4885  0.2264
 9656TIP3   OH228910   1.388   0.049   1.111  0.3382  0.3198  0.1866
 9656TIP3    H128911   1.371  -0.022   1.173 -2.6233  0.9275  0.2374
 9656TIP3    H228912   1.398   0.005   1.026 -0.0742 -0.2411  0.4264
 9657TIP3   OH228913   1.986   2.860   3.474  0.0180 -0.4160  0.6590
 9657TIP3    H128914   1.953   2.811   3.549  0.9946 -1.2679  0.5467
 9657TIP3    H228915   2.080   2.869   3.489 -0.1543  1.6845  0.8026
 9658TIP3   OH228916   3.534   4.509   2.481  0.0196 -0.4028 -0.5209
 9658TIP3    H128917   3.560   4.456   2.406  1.4331  0.8870 -0.9995
 9658TIP3    H228918   3.581   4.592   2.469 -1.9030  0.8773  0.3212
 9659TIP3   OH228919   4.359   4.845   4.890 -0.2994 -0.9072  0.3422
 9659TIP3    H128920   4.338   4.836   4.983 -0.8034 -0.0267  0.3278
 9659TIP3    H228921   4.420   4.918   4.886  0.0702 -1.2295  0.0204
 9660TIP3   OH228922   7.561   4.331   4.346  0.8526 -0.1011  0.8668
 9660TIP3    H128923   7.552   4.364   4.257  1.5065 -0.9177  0.4806
 9660TIP3    H228924   7.609   4.248   4.336  0.2993 -0.5666  1.9066
 9661TIP3   OH228925   4.253   1.758   6.633 -0.2706  0.4405 -0.3226
 9661TIP3    H128926   4.176   1.786   6.584 -1.1669 -1.2552  0.0505
 9661TIP3    H228927   4.234   1.784   6.724 -0.6252 -0.3646 -0.1566
 9662TIP3   OH228928   6.952   3.558   0.340  0.0756 -0.0418 -0.1944
 9662TIP3    H128929   7.007   3.538   0.263 -0.4418  1.2490 -0.9326
 9662TIP3    H228930   6.864   3.534   0.313  0.0264 -0.5491  0.3922
 9663TIP3   OH228931   7.764   2.886   2.979 -0.3474 -0.0768 -0.0476
 9663TIP3    H128932   7.804   2.966   3.013 -1.0517  0.6428 -0.8458
 9663TIP3    H228933   7.674   2.888   3.011 -0.2220 -0.8330  0.3733
 9664TIP3   OH228934   3.278   2.336   4.842  0.1061  0.7737  0.2391
 9664TIP3    H128935   3.261   2.430   4.836  1.1342  1.0350  1.2218
 9664TIP3    H228936   3.357   2.322   4.789 -1.7031 -0.0795 -2.4737
 9665TIP3   OH228937   6.040   4.720   6.058 -0.2862 -0.2793 -0.2897
 9665TIP3    H128938   6.013   4.656   5.993 -0.2672  0.8222 -1.4338
 9665TIP3    H228939   6.090   4.785   6.008 -1.5978  1.4399  0.5284
 9666TIP3   OH228940   3.676   6.761   2.404 -0.6177 -0.2164 -0.1697
 9666TIP3    H128941   3.691   6.777   2.310 -0.9535 -0.9011 -0.3527
 9666TIP3    H228942   3.581   6.748   2.410 -0.7785  1.1612  0.4911
 9667TIP3   OH228943   7.509   3.048   3.958  0.2956  0.3804 -0.0164
 9667TIP3    H128944   7.576   3.092   4.009 -1.1715  0.5722  1.8648
 9667TIP3    H228945   7.426   3.081   3.993 -0.8095 -0.6053 -1.5461
 9668TIP3   OH228946   3.038   1.413   4.838  0.3867  0.0830 -0.3134
 9668TIP3    H128947   3.107   1.383   4.897  0.2503 -0.2589 -0.3259
 9668TIP3    H228948   2.997   1.333   4.806 -0.5581  0.3087  0.3199
 9669TIP3   OH228949   1.961   2.552   2.761  0.3545  0.8003 -0.7075
 9669TIP3    H128950   1.904   2.504   2.700  1.6997  0.7942 -2.0160
 9669TIP3    H228951   1.905   2.568   2.837 -0.9621 -0.4471 -1.3406
 9670TIP3   OH228952   3.770   7.527   3.076  0.3477 -0.4805 -0.4058
 9670TIP3    H128953   3.845   7.469   3.088  0.6473  0.1127  0.6758
 9670TIP3    H228954   3.778   7.592   3.145 -0.9492 -0.1712 -0.5194
 9671TIP3   OH228955   4.182   7.066   0.968 -0.0658  0.2481  0.6314
 9671TIP3    H128956   4.250   7.005   0.940  0.1374  0.6744  0.1734
 9671TIP3    H228957   4.109   7.050   0.907  0.4496  1.3171 -0.3078
 9672TIP3   OH228958   4.581   7.044   5.601  0.0130 -0.0748 -0.6358
 9672TIP3    H128959   4.577   7.072   5.510  0.6535  1.4097 -0.2311
 9672TIP3    H228960   4.643   6.970   5.600 -0.9397 -0.8916 -1.5680
 9673TIP3   OH228961   5.540   3.717   5.853 -0.2147 -0.3711 -0.0919
 9673TIP3    H128962   5.551   3.764   5.936 -0.7512  0.3064 -0.3942
 9673TIP3    H228963   5.462   3.756   5.814  0.8250  0.3220 -1.5714
 9674TIP3   OH228964   1.548   6.712   0.796 -0.4524  0.0303 -0.0078
 9674TIP3    H128965   1.535   6.626   0.756 -0.1850  0.1725 -0.4182
 9674TIP3    H228966   1.485   6.769   0.751 -0.3242  0.1384 -0.0518
 9675TIP3   OH228967   2.815   2.234   5.108 -0.4125 -1.0199  0.4188
 9675TIP3    H128968   2.797   2.157   5.054 -0.7717  0.1183 -1.1439
 9675TIP3    H228969   2.907   2.256   5.089 -0.9876  0.3300 -1.0619
 9676TIP3   OH228970   2.909   6.108   3.200 -0.3521  0.1695  0.0043
 9676TIP3    H128971   2.964   6.143   3.129  0.6423 -0.8522  0.2484
 9676TIP3    H228972   2.951   6.025   3.224 -0.8176  0.3744  1.6222
 9677TIP3   OH228973   8.104   3.694   4.071 -0.0422  0.3226 -0.3510
 9677TIP3    H128974   8.182   3.731   4.110 -0.2789  0.7121 -0.2444
 9677TIP3    H228975   8.041   3.766   4.070  0.1437  0.4783 -1.9907
 9678TIP3   OH228976   0.995   5.164   6.592  0.2050  0.5788  0.0726
 9678TIP3    H128977   0.913   5.146   6.546  0.8304 -2.8466  0.0227
 9678TIP3    H228978   0.974   5.237   6.651 -2.8408 -0.0767 -0.0312
 9679TIP3   OH228979   1.144   0.077   5.625  0.1737 -0.1825 -0.0543
 9679TIP3    H128980   1.187   0.157   5.592 -0.7769 -0.0304 -1.0012
 9679TIP3    H228981   1.080   0.055   5.557 -0.6306 -0.8949  0.9014
 9680TIP3   OH228982   2.013   1.177   0.764 -0.5409  0.2035  0.2468
 9680TIP3    H128983   2.051   1.093   0.739 -0.4628  0.1013  0.7144
 9680TIP3    H228984   2.083   1.221   0.813 -0.9950  0.0441  1.0473
 9681TIP3   OH228985   7.520   4.617   0.264  0.3179  0.3175  0.2715
 9681TIP3    H128986   7.538   4.710   0.253 -0.0996  0.2996 -0.7176
 9681TIP3    H228987   7.488   4.589   0.178 -0.2354 -0.5861  0.7582
 9682TIP3   OH228988   3.234   4.469   4.839 -0.1158 -0.2191  0.2457
 9682TIP3    H128989   3.205   4.416   4.913 -0.5762 -0.0336  0.2021
 9682TIP3    H228990   3.156   4.480   4.785  0.0418  0.2721  0.1138
 9683TIP3   OH228991   4.710   5.092   5.995  0.2154 -0.1739  0.1432
 9683TIP3    H128992   4.714   5.143   6.076 -0.3916  1.9113 -1.0716
 9683TIP3    H228993   4.634   5.035   6.006 -0.7437  1.1319  0.4770
 9684TIP3   OH228994   0.525   6.172   6.198  0.2124 -0.0340 -0.2908
 9684TIP3    H128995   0.565   6.247   6.242  1.0493 -0.0876 -0.9351
 9684TIP3    H228996   0.433   6.196   6.189 -0.0041 -0.0724  1.5543
 9685TIP3   OH228997   2.931   7.586   3.355  0.0083 -0.2169  0.1075
 9685TIP3    H128998   3.007   7.589   3.413 -0.7546 -0.6610  1.1539
 9685TIP3    H228999   2.965   7.544   3.275  0.3988 -2.4629  1.3619
 9686TIP3   OH229000   0.086   6.564   0.334  0.1171 -0.2336 -0.1556
 9686TIP3    H129001   0.023   6.560   0.406 -0.5293  0.7364 -0.6354
 9686TIP3    H229002   0.120   6.475   0.326 -1.4251 -0.8669 -0.0840
 9687TIP3   OH229003   4.480   1.769   1.915 -0.4371  0.1779 -0.4115
 9687TIP3    H129004   4.515   1.731   1.834  2.7216 -0.8426  1.2497
 9687TIP3    H229005   4.489   1.864   1.904 -1.1064  0.1060 -1.6550
 9688TIP3   OH229006   8.151   5.036   0.555  0.2582  0.1754  0.4410
 9688TIP3    H129007   8.147   4.980   0.632 -1.2235  1.9501  1.7403
 9688TIP3    H229008   8.080   5.005   0.499 -1.6501  1.6682  1.9012
 9689TIP3   OH229009   6.190   0.818   1.326 -0.0520  0.1216 -0.1421
 9689TIP3    H129010   6.209   0.726   1.341  1.0221  0.3951  0.2970
 9689TIP3    H229011   6.114   0.818   1.268 -1.1954 -1.0095  1.2985
 9690TIP3   OH229012   0.840   7.661   6.417  0.2524 -0.5047  0.1321
 9690TIP3    H129013   0.776   7.638   6.350  0.2279 -0.0455 -0.0097
 9690TIP3    H229014   0.909   7.708   6.370  1.0425 -1.5990  0.1756
 9691TIP3   OH229015   7.198   5.706   5.969  0.0856  0.7476  0.1023
 9691TIP3    H129016   7.203   5.617   5.935 -0.9283  1.1407 -1.1520
 9691TIP3    H229017   7.109   5.713   6.006  0.0849  1.2927  0.0095
 9692TIP3   OH229018   0.003   3.759   4.255  0.5339  0.2427  0.3724
 9692TIP3    H129019  -0.035   3.799   4.333  0.3161  0.8015 -0.0114
 9692TIP3    H229020   0.079   3.814   4.235  0.1520  0.5545 -0.2397
 9693TIP3   OH229021   0.998   5.140   6.170 -0.5671  0.3100  0.2037
 9693TIP3    H129022   1.070   5.120   6.111 -0.9850  0.1541 -0.2560
 9693TIP3    H229023   0.982   5.234   6.158  1.4474  1.0232  2.4186
 9694TIP3   OH229024   7.791   4.833   3.222 -0.0592 -0.0520 -0.3666
 9694TIP3    H129025   7.816   4.848   3.131  1.8916  0.5130  0.1930
 9694TIP3    H229026   7.804   4.739   3.236  2.7516  0.3175  0.0901
 9695TIP3   OH229027   6.241   1.302   3.144 -0.0346 -0.5431  0.3984
 9695TIP3    H129028   6.209   1.359   3.074  0.6183 -1.0544 -0.3329
 9695TIP3    H229029   6.197   1.219   3.130  1.2844 -1.1366 -0.3928
 9696TIP3   OH229030   6.083   1.245   5.594 -0.1882 -0.4154  0.4140
 9696TIP3    H129031   6.045   1.309   5.654 -0.9735 -1.2662  0.8444
 9696TIP3    H229032   6.098   1.294   5.513 -0.5123  0.3772  0.8278
 9697TIP3   OH229033   7.610   7.001   6.067 -0.0245  0.2116  0.2798
 9697TIP3    H129034   7.528   7.051   6.062  0.3159  0.7628  0.1022
 9697TIP3    H229035   7.586   6.921   6.113 -1.5515 -1.4005 -2.9457
 9698TIP3   OH229036   0.383   7.752   6.356 -0.0091  0.1049 -0.1760
 9698TIP3    H129037   0.385   7.847   6.344 -1.8310  0.0508 -1.3989
 9698TIP3    H229038   0.436   7.717   6.284  0.4375  0.1927  0.1123
 9699TIP3   OH229039   5.498   4.165   1.185 -0.3738  0.3386 -0.3768
 9699TIP3    H129040   5.421   4.139   1.235 -0.3474  0.0360 -0.4953
 9699TIP3    H229041   5.491   4.118   1.102 -0.8859  1.5213 -1.0319
 9700TIP3   OH229042   1.107   2.348   3.947 -0.3756  0.1181  0.6207
 9700TIP3    H129043   1.128   2.336   3.854 -3.3166 -2.9438  0.1238
 9700TIP3    H229044   1.058   2.431   3.950  0.2278  0.5297 -0.4554
 9701TIP3   OH229045   3.284   7.275   3.940  0.2852  0.4499  0.0505
 9701TIP3    H129046   3.296   7.183   3.917  0.9964  0.2929  1.0192
 9701TIP3    H229047   3.194   7.294   3.913  0.5420 -0.1553 -1.3532
 9702TIP3   OH229048   7.286   4.813   4.976  0.8303 -0.5766 -0.3107
 9702TIP3    H129049   7.288   4.882   4.909  1.0014  0.1509  0.4400
 9702TIP3    H229050   7.342   4.845   5.046 -1.8101  0.1575  1.6047
 9703TIP3   OH229051   5.224   5.171   3.669  0.2624 -0.1661 -0.1956
 9703TIP3    H129052   5.236   5.077   3.680  2.0003 -0.0737 -0.8945
 9703TIP3    H229053   5.264   5.210   3.747 -1.1128 -0.0037  0.4577
 9704TIP3   OH229054   0.884   1.249   2.738 -0.5640 -0.7703  0.1599
 9704TIP3    H129055   0.954   1.225   2.799  0.0562  0.3451 -0.0858
 9704TIP3    H229056   0.805   1.213   2.778  0.0922 -1.7693  0.6072
 9705TIP3   OH229057   4.973   4.700   1.837  0.4139  0.3484 -0.6164
 9705TIP3    H129058   5.056   4.713   1.881  0.2492  1.3105 -0.5684
 9705TIP3    H229059   4.979   4.755   1.758 -0.2770  0.6570 -0.4627
 9706TIP3   OH229060   1.101   5.014   2.935 -0.3691  0.0323 -0.2601
 9706TIP3    H129061   1.060   4.929   2.952 -0.1219 -0.2243 -0.8890
 9706TIP3    H229062   1.051   5.051   2.863  1.6638 -1.2073 -2.4956
 9707TIP3   OH229063   8.169   2.999   4.103 -0.2931 -0.2855  0.0102
 9707TIP3    H129064   8.163   3.087   4.066 -1.5495 -0.2943  0.1448
 9707TIP3    H229065   8.175   3.012   4.197 -2.0091 -0.3420  0.1609
 9708TIP3   OH229066   3.446   0.900   0.184  0.0463  0.2915  0.0576
 9708TIP3    H129067   3.448   0.859   0.270 -0.3383  0.1568  0.0078
 9708TIP3    H229068   3.353   0.907   0.163  0.1434 -0.4605 -0.7115
 9709TIP3   OH229069   0.215   4.916   1.419  0.0952 -0.3249 -0.2278
 9709TIP3    H129070   0.251   4.973   1.351  1.2490 -0.5842  0.1463
 9709TIP3    H229071   0.175   4.977   1.482  0.0220 -0.0186 -0.5663
 9710TIP3   OH229072   2.185   1.538   0.084 -0.3854  0.3772  0.2382
 9710TIP3    H129073   2.182   1.632   0.066 -1.3979  0.3312  0.1212
 9710TIP3    H229074   2.093   1.513   0.097 -0.2790 -0.8513 -1.1048
 9711TIP3   OH229075   3.010   7.093   3.337 -0.3519  0.3363 -0.2805
 9711TIP3    H129076   2.965   7.011   3.359  1.3635 -0.1063  1.9029
 9711TIP3    H229077   3.102   7.076   3.352  0.0743  2.6628  0.2171
 9712TIP3   OH229078   3.000   2.119   2.444 -0.0248 -0.3205  0.0979
 9712TIP3    H129079   2.974   2.106   2.535 -0.3880 -0.5495 -0.0352
 9712TIP3    H229080   3.079   2.066   2.434  0.4825  0.3578  0.4987
 9713TIP3   OH229081   5.616   2.093   5.165 -0.3412  0.1890 -0.4342
 9713TIP3    H129082   5.638   2.163   5.226 -0.4430 -1.0836  1.0945
 9713TIP3    H229083   5.523   2.076   5.180 -0.1601 -0.7282 -0.3064
 9714TIP3   OH229084   7.892   6.690   2.786 -0.1496  0.3101  0.0281
 9714TIP3    H129085   7.941   6.691   2.868 -1.2126 -0.3332  0.6940
 9714TIP3    H229086   7.854   6.602   2.782 -3.7969  1.6600  1.1253
 9715TIP3   OH229087   0.744   3.524   2.860 -0.1716  0.0639 -0.0068
 9715TIP3    H129088   0.735   3.617   2.842 -0.2294 -0.0309 -0.4792
 9715TIP3    H229089   0.824   3.498   2.815 -0.7527 -0.3473 -0.8392
 9716TIP3   OH229090   2.504   0.651   5.463 -0.2803 -0.0949  0.1642
 9716TIP3    H129091   2.494   0.587   5.534 -2.4826  0.4514  0.4170
 9716TIP3    H229092   2.513   0.597   5.384  0.0844 -0.7150  0.6198
 9717TIP3   OH229093   3.054   3.376   6.715  0.3268  0.3624 -0.5373
 9717TIP3    H129094   3.095   3.399   6.799 -0.6188 -0.9864  0.3435
 9717TIP3    H229095   3.117   3.405   6.649  0.1393  3.4577  0.4828
 9718TIP3   OH229096   0.595   6.733   2.339  0.2616  0.8248 -0.1179
 9718TIP3    H129097   0.672   6.755   2.393  0.6676 -0.0292 -0.3286
 9718TIP3    H229098   0.629   6.673   2.273 -0.4880  0.8830 -0.5659
 9719TIP3   OH229099   7.516   2.525   1.982  0.0525  0.3851  0.0664
 9719TIP3    H129100   7.502   2.556   1.893 -0.1201 -0.2036 -0.1203
 9719TIP3    H229101   7.570   2.447   1.972  2.0383  1.6254  0.6606
 9720TIP3   OH229102   0.481   0.967  -0.021  0.0919 -0.0851 -0.1108
 9720TIP3    H129103   0.548   1.030  -0.046  0.3484 -0.3128 -0.0070
 9720TIP3    H229104   0.479   0.970   0.074  0.1565 -0.2832 -0.1017
 9721TIP3   OH229105   7.402   7.312   3.530 -0.7404 -0.4813 -0.2228
 9721TIP3    H129106   7.494   7.331   3.513 -0.6117 -0.8520  0.0367
 9721TIP3    H229107   7.403   7.262   3.612 -1.1875 -0.3205 -0.1191
 9722TIP3   OH229108   4.096   2.666   6.354  0.0493  0.4646  0.2376
 9722TIP3    H129109   4.031   2.703   6.293 -0.7394 -1.7862 -0.3726
 9722TIP3    H229110   4.179   2.705   6.327 -0.4640  0.4158 -1.5441
 9723TIP3   OH229111   7.285   5.823   5.593 -0.5545 -0.3427 -0.7387
 9723TIP3    H129112   7.358   5.845   5.652 -0.0762 -1.9607 -0.6862
 9723TIP3    H229113   7.265   5.905   5.549  2.3417 -0.1224 -1.8863
 9724TIP3   OH229114   0.064   2.160   2.460 -0.0564  0.1919  0.4261
 9724TIP3    H129115   0.095   2.092   2.400  1.4242  2.1849 -1.1865
 9724TIP3    H229116  -0.018   2.190   2.420 -0.9946 -0.9325  1.4251
 9725TIP3   OH229117   4.900   5.089   5.025  0.1595  0.0667  0.0558
 9725TIP3    H129118   4.899   5.127   4.937  0.6630 -1.3614 -0.6025
 9725TIP3    H229119   4.808   5.072   5.045 -0.0207  1.0617  0.1312
 9726TIP3   OH229120   6.481   2.836   5.121  0.4283  0.2152 -0.1355
 9726TIP3    H129121   6.447   2.830   5.031  0.0722  1.9705 -0.1706
 9726TIP3    H229122   6.411   2.879   5.170 -0.2020 -2.4635  1.5135
 9727TIP3   OH229123   1.109   1.751   0.911 -0.0962 -0.2412 -0.0481
 9727TIP3    H129124   1.184   1.700   0.880  0.3837  0.6034 -0.3047
 9727TIP3    H229125   1.105   1.825   0.851 -1.3165 -0.4268 -0.2091
 9728TIP3   OH229126   2.123   7.659   3.006 -0.4825  0.6320  0.1704
 9728TIP3    H129127   2.074   7.653   3.088  2.1179  2.9192  2.0900
 9728TIP3    H229128   2.186   7.587   3.011 -0.5738  0.5410  0.0046
 9729TIP3   OH229129   5.850   4.513   5.488  0.0808 -0.7937  0.3195
 9729TIP3    H129130   5.865   4.561   5.569  0.8186  0.2762 -0.4160
 9729TIP3    H229131   5.808   4.578   5.430  1.1626 -0.9953 -0.7234
 9730TIP3   OH229132   0.172   6.193   3.443  0.0357 -0.2738 -0.4563
 9730TIP3    H129133   0.265   6.197   3.419 -0.1326 -1.1455 -1.3219
 9730TIP3    H229134   0.165   6.112   3.494  0.0069  0.5355  0.8603
 9731TIP3   OH229135   3.648   3.369   3.028 -0.6800 -0.3634 -0.6431
 9731TIP3    H129136   3.670   3.277   3.032 -0.8879 -0.3953  2.4073
 9731TIP3    H229137   3.566   3.372   2.978 -0.2010 -1.6740 -1.5616
 9732TIP3   OH229138   0.051   2.097   6.323 -0.4014  0.0117  0.4584
 9732TIP3    H129139  -0.037   2.063   6.337 -0.3162 -0.0448  0.8655
 9732TIP3    H229140   0.075   2.068   6.235 -0.8738  0.2152  0.2609
 9733TIP3   OH229141   3.868   0.297   3.016 -0.2971 -0.4902  0.3085
 9733TIP3    H129142   3.920   0.231   2.969  0.2663 -0.3740  0.7491
 9733TIP3    H229143   3.807   0.246   3.068  0.3532 -0.6877  0.8959
 9734TIP3   OH229144   6.833   1.738   5.739  0.2864  0.3988 -0.3016
 9734TIP3    H129145   6.885   1.663   5.709 -1.4650 -0.9017 -0.3037
 9734TIP3    H229146   6.779   1.702   5.810  0.5879  2.1060  0.8267
 9735TIP3   OH229147   6.803   1.341   5.504  0.1654  0.0101  0.0921
 9735TIP3    H129148   6.774   1.427   5.536 -0.4402 -0.2720  0.3018
 9735TIP3    H229149   6.824   1.291   5.583 -0.8795 -0.5252  0.0477
 9736TIP3   OH229150   0.662   0.526   4.025 -0.1667 -0.1843 -0.0574
 9736TIP3    H129151   0.626   0.437   4.023 -2.0736  0.5394 -1.1796
 9736TIP3    H229152   0.731   0.523   4.092 -0.8827 -2.2278  0.6708
 9737TIP3   OH229153   2.856   0.386   2.038 -0.3639 -0.1259  0.4090
 9737TIP3    H129154   2.901   0.435   2.107 -2.1278  0.5128  1.1557
 9737TIP3    H229155   2.839   0.300   2.077  0.5217 -0.5058 -0.0151
 9738TIP3   OH229156   7.542   0.396   1.483 -0.2608  0.1588  0.6850
 9738TIP3    H129157   7.627   0.429   1.511 -0.0023  0.4362 -0.3856
 9738TIP3    H229158   7.534   0.422   1.391 -1.4250 -0.0214  0.7097
 9739TIP3   OH229159   6.476   6.240   4.498 -0.1693 -0.3948 -0.4811
 9739TIP3    H129160   6.515   6.244   4.586 -0.4601 -0.8700 -0.3249
 9739TIP3    H229161   6.384   6.263   4.512  0.1225  1.1686 -0.9118
 9740TIP3   OH229162   2.091   5.396   0.305 -0.2819 -0.1071 -0.0091
 9740TIP3    H129163   2.110   5.362   0.217 -0.2746 -1.6890  0.5729
 9740TIP3    H229164   2.029   5.332   0.342 -0.4920  0.6830  1.0395
 9741TIP3   OH229165   7.778   3.078   2.269  0.2097 -0.5608  0.1717
 9741TIP3    H129166   7.729   3.003   2.305  0.4199 -1.1676 -0.7677
 9741TIP3    H229167   7.774   3.144   2.338 -4.7076  0.7141 -0.9199
 9742TIP3   OH229168   6.908   3.543   1.050 -0.3732  0.5292  0.7625
 9742TIP3    H129169   6.859   3.488   1.111 -1.6779  2.1796  1.2746
 9742TIP3    H229170   6.970   3.591   1.106 -0.1922  0.6060  0.4993
 9743TIP3   OH229171   7.792   6.654   0.482  0.1258 -0.2549  0.0990
 9743TIP3    H129172   7.881   6.623   0.464  0.3956  0.8063 -0.5117
 9743TIP3    H229173   7.756   6.674   0.395 -1.7640 -3.3358  0.0531
 9744TIP3   OH229174   7.701   3.528   0.965 -0.8823 -0.3268 -0.5807
 9744TIP3    H129175   7.690   3.507   0.872  1.0689 -2.0159 -0.4888
 9744TIP3    H229176   7.616   3.506   1.004 -1.0560 -1.6657 -1.6353
 9745TIP3   OH229177   6.229   5.519   4.622 -0.8592  0.0931  0.4374
 9745TIP3    H129178   6.281   5.442   4.601 -2.5521 -1.0531  0.2782
 9745TIP3    H229179   6.288   5.575   4.673  0.7575 -0.7628 -0.4179
 9746TIP3   OH229180   3.066   7.052   0.297  0.0466 -0.4541 -0.1553
 9746TIP3    H129181   2.995   7.002   0.259 -0.3181  0.6692 -0.9878
 9746TIP3    H229182   3.056   7.040   0.392 -0.3102 -1.5468 -0.3233
 9747TIP3   OH229183   3.041   7.275   2.743 -0.3795  0.4154 -0.3408
 9747TIP3    H129184   2.981   7.324   2.799 -1.3612 -1.3637  0.2297
 9747TIP3    H229185   3.122   7.326   2.744 -0.9963  1.4215  1.1198
 9748TIP3   OH229186   5.389   5.575   2.673 -0.3226  0.0883  0.2095
 9748TIP3    H129187   5.322   5.605   2.734 -1.4698  1.2849 -1.5489
 9748TIP3    H229188   5.345   5.569   2.589  1.6556  0.4507 -0.9323
 9749TIP3   OH229189   5.411   7.223   0.370 -0.1756 -0.1617  0.4087
 9749TIP3    H129190   5.440   7.146   0.419 -0.7389  0.3481  1.5833
 9749TIP3    H229191   5.337   7.192   0.318  0.4252 -0.7100 -0.1384
 9750TIP3   OH229192   7.940   5.460   2.482  0.2404  0.0850  0.3607
 9750TIP3    H129193   7.981   5.447   2.568 -1.4777  1.2076  1.4217
 9750TIP3    H229194   8.012   5.486   2.425  1.5943 -1.6600  1.1838
 9751TIP3   OH229195   8.109   5.071   5.245 -0.1692  0.4038  0.3069
 9751TIP3    H129196   8.094   5.083   5.151  0.5730 -0.3021  0.0808
 9751TIP3    H229197   8.022   5.058   5.282 -0.4655  0.6463 -0.2840
 9752TIP3   OH229198   4.015   5.148   6.235 -0.5140  0.1129  0.3751
 9752TIP3    H129199   3.925   5.116   6.231 -0.1933 -0.7668 -2.4902
 9752TIP3    H229200   4.009   5.240   6.207 -0.5778  0.2996  0.9794
 9753TIP3   OH229201   5.001   1.265   3.374  0.6217  0.0637  0.1126
 9753TIP3    H129202   5.052   1.184   3.387 -0.0644 -0.1678  1.5917
 9753TIP3    H229203   5.050   1.331   3.423  1.0011  0.4904 -0.8214
 9754TIP3   OH229204   1.280   3.443   3.329  0.2292  0.4569 -0.3290
 9754TIP3    H129205   1.244   3.365   3.286 -0.4980  0.9524 -0.6451
 9754TIP3    H229206   1.352   3.471   3.272  0.1180  0.3450 -0.5261
 9755TIP3   OH229207   5.660   0.497   4.157  0.1082 -0.1539  0.0886
 9755TIP3    H129208   5.690   0.573   4.108  1.9312 -0.4286  0.6943
 9755TIP3    H229209   5.565   0.495   4.143 -0.0732  2.5314  0.5289
 9756TIP3   OH229210   1.626   4.696   1.496  0.0531  0.1853  0.4574
 9756TIP3    H129211   1.569   4.670   1.569  0.2082 -0.4280  0.3688
 9756TIP3    H229212   1.585   4.657   1.419  0.5061 -0.1282  0.3708
 9757TIP3   OH229213   1.169   7.640   4.962 -0.0603  0.4757  0.3209
 9757TIP3    H129214   1.188   7.618   5.053  1.7123 -0.0569 -0.1228
 9757TIP3    H229215   1.175   7.556   4.915 -3.4867  0.2588  0.0029
 9758TIP3   OH229216   4.099   2.985   4.721 -0.5364 -0.1883 -0.0071
 9758TIP3    H129217   4.030   2.977   4.655 -1.1276 -0.9050  0.6818
 9758TIP3    H229218   4.084   3.071   4.760 -1.5445 -0.6614  0.6797
 9759TIP3   OH229219   5.284   6.884   4.345  0.1533  0.2803  0.5446
 9759TIP3    H129220   5.368   6.911   4.307 -0.8466  0.6528 -1.5733
 9759TIP3    H229221   5.268   6.947   4.415  1.7011  0.0925  1.1092
 9760TIP3   OH229222   1.104   1.534   1.558 -0.3654  0.0209 -0.3898
 9760TIP3    H129223   1.171   1.572   1.614 -0.0061 -1.4643  0.2499
 9760TIP3    H229224   1.095   1.444   1.589  0.3479 -1.1059 -3.1250
 9761TIP3   OH229225   7.358   0.202   1.405 -0.2403  0.4716  0.6838
 9761TIP3    H129226   7.336   0.257   1.329 -1.1287  1.1314  1.3967
 9761TIP3    H229227   7.407   0.261   1.463 -0.8421  0.3968  1.2721
 9762TIP3   OH229228   6.802   7.401   1.985 -0.3643  0.1319  0.0601
 9762TIP3    H129229   6.745   7.478   1.992  0.2004  0.4818  1.0078
 9762TIP3    H229230   6.805   7.365   2.073  0.7392  0.0229 -0.0031
 9763TIP3   OH229231   2.231   6.386   5.665  0.0087 -0.5322 -0.0467
 9763TIP3    H129232   2.218   6.311   5.722  1.0423 -0.4458  0.3243
 9763TIP3    H229233   2.247   6.459   5.724 -0.0637 -0.2073 -0.4217
 9764TIP3   OH229234   7.923   4.807   2.732 -0.2758  0.2205 -0.4647
 9764TIP3    H129235   8.007   4.834   2.695 -0.7774  1.0081 -1.0523
 9764TIP3    H229236   7.896   4.733   2.677 -0.7880  1.0819 -1.4215
 9765TIP3   OH229237   2.937   4.353   1.501  0.3119 -0.0935 -0.2159
 9765TIP3    H129238   3.013   4.411   1.496 -0.7664  1.8156  2.8477
 9765TIP3    H229239   2.863   4.408   1.475 -0.5136 -0.5728  1.0030
 9766TIP3   OH229240   7.971   1.418   3.606 -0.3922  0.1054  0.1169
 9766TIP3    H129241   7.947   1.359   3.678 -0.0797 -0.2462 -0.0684
 9766TIP3    H229242   7.888   1.434   3.560 -0.7465  0.9728  1.0208
 9767TIP3   OH229243   5.711   1.425   0.092 -0.0971 -0.2546  0.0542
 9767TIP3    H129244   5.720   1.482   0.016  0.3119 -0.8617 -0.3663
 9767TIP3    H229245   5.750   1.474   0.164 -1.5441  0.8146  0.1447
 9768TIP3   OH229246  -0.000   1.321   2.041  0.2884 -0.2639 -0.7443
 9768TIP3    H129247  -0.006   1.408   2.082 -0.6424  0.5523 -2.4861
 9768TIP3    H229248   0.061   1.333   1.968 -0.4451 -0.8617 -1.4759
 9769TIP3   OH229249   3.841   5.340   3.672  0.2455  0.3792 -0.0288
 9769TIP3    H129250   3.838   5.425   3.716 -2.9376 -0.3464  1.4370
 9769TIP3    H229251   3.767   5.340   3.612 -0.9595 -1.9161  1.3070
 9770TIP3   OH229252   2.112   6.175   0.627 -0.0227 -0.0138  0.0681
 9770TIP3    H129253   2.063   6.123   0.564 -0.8594  3.3426 -2.3473
 9770TIP3    H229254   2.059   6.174   0.707 -1.3600 -0.6798 -0.8020
 9771TIP3   OH229255   2.670   3.222   2.482  0.1273  0.1674 -0.3374
 9771TIP3    H129256   2.649   3.264   2.566 -0.4179 -0.5712 -0.0863
 9771TIP3    H229257   2.656   3.128   2.499  1.3043 -0.1252 -0.8745
 9772TIP3   OH229258   4.020   6.545   2.877  0.7759 -0.6257  0.1379
 9772TIP3    H129259   3.929   6.546   2.848  0.2937  1.6264  1.4713
 9772TIP3    H229260   4.016   6.576   2.968  2.9966  1.1269 -0.2803
 9773TIP3   OH229261   4.050   3.892   6.472 -0.6693  0.4581  0.1162
 9773TIP3    H129262   4.000   3.966   6.437 -0.0024  0.3074 -1.2031
 9773TIP3    H229263   4.022   3.817   6.420  2.0021  0.6372 -1.7764
 9774TIP3   OH229264   3.077   3.346   5.346  0.8820  0.5607 -0.7049
 9774TIP3    H129265   3.166   3.328   5.315  2.0966 -0.4290  2.8205
 9774TIP3    H229266   3.046   3.261   5.378 -0.1815  1.4152  0.6440
 9775TIP3   OH229267   6.979   1.236   5.180  0.1472 -0.7590 -0.2627
 9775TIP3    H129268   7.020   1.215   5.096  0.7409 -1.6521  0.2360
 9775TIP3    H229269   6.949   1.151   5.213 -1.0681 -0.2722 -0.0762
 9776TIP3   OH229270   5.837   0.469   4.656  0.5232  0.8422  0.4381
 9776TIP3    H129271   5.826   0.564   4.650  0.9533  0.8605 -0.1874
 9776TIP3    H229272   5.807   0.436   4.572  0.8195  0.4755  0.4738
 9777TIP3   OH229273   0.524   7.625   1.260  0.1620 -0.7701  0.2912
 9777TIP3    H129274   0.477   7.656   1.337  0.3958  1.0796 -0.2491
 9777TIP3    H229275   0.483   7.541   1.238  0.0132 -1.2680  2.3237
 9778TIP3   OH229276   2.032   0.645   2.316  0.1922 -0.4877 -0.1405
 9778TIP3    H129277   1.949   0.606   2.342  0.7185 -2.7654 -1.6088
 9778TIP3    H229278   2.046   0.615   2.226  2.2189  0.5225 -0.2255
 9779TIP3   OH229279   7.456   7.399   6.683 -0.0452  0.0189 -0.3501
 9779TIP3    H129280   7.438   7.446   6.602  1.2899  0.3276 -0.4977
 9779TIP3    H229281   7.504   7.321   6.655  0.2945  0.0533  0.1228
 9780TIP3   OH229282   3.032   1.031   4.059 -0.2872 -0.3198  0.2385
 9780TIP3    H129283   3.126   1.019   4.044 -0.1655  0.9930 -0.1609
 9780TIP3    H229284   2.996   1.047   3.972 -0.7102  0.2631  0.5160
 9781TIP3   OH229285   1.284   1.670   0.183  0.0383 -0.0126  0.2937
 9781TIP3    H129286   1.349   1.681   0.252  0.3614 -0.2816  0.0317
 9781TIP3    H229287   1.218   1.611   0.221 -0.1203  0.3562  0.6007
 9782TIP3   OH229288   7.260   2.593   2.894 -0.5865  0.3948 -0.3368
 9782TIP3    H129289   7.312   2.545   2.830  1.0753 -0.6190  1.6433
 9782TIP3    H229290   7.173   2.552   2.890 -0.0850 -0.6475 -0.9018
 9783TIP3   OH229291   1.507   0.014   2.560 -0.0845 -0.5860 -0.1789
 9783TIP3    H129292   1.492  -0.059   2.621  0.7270 -2.4820 -2.1000
 9783TIP3    H229293   1.570   0.070   2.605  0.7574 -2.1005  0.6302
 9784TIP3   OH229294   4.109   6.601   5.769  0.0001 -0.5053 -0.2804
 9784TIP3    H129295   4.197   6.574   5.797  0.1511  1.5565  1.4934
 9784TIP3    H229296   4.065   6.519   5.746  2.3406 -1.6034 -1.1957
 9785TIP3   OH229297   1.455   1.940   5.868  0.0771 -0.1329 -0.5906
 9785TIP3    H129298   1.472   2.023   5.825 -0.4995  0.4097  0.2118
 9785TIP3    H229299   1.365   1.917   5.842 -0.1117 -0.0245 -0.0405
 9786TIP3   OH229300   2.067   3.268   1.246  0.5117  0.0265  0.0708
 9786TIP3    H129301   2.090   3.279   1.154 -1.1715 -2.0355 -0.6839
 9786TIP3    H229302   2.118   3.193   1.276  0.3188  0.0729  0.5365
 9787TIP3   OH229303   2.315   6.058   4.552  0.5271 -0.5673 -0.8614
 9787TIP3    H129304   2.227   6.048   4.516  0.5806  0.5748 -1.3654
 9787TIP3    H229305   2.302   6.067   4.646 -0.1064  1.4149 -1.0797
 9788TIP3   OH229306   6.138   5.802   5.069 -0.5864  0.3236 -0.1726
 9788TIP3    H129307   6.080   5.815   4.994  0.3886  2.2624 -0.6604
 9788TIP3    H229308   6.130   5.709   5.090 -3.5938  0.4328 -0.4027
 9789TIP3   OH229309   3.307   5.658   2.194  0.2755 -0.5398  0.4220
 9789TIP3    H129310   3.357   5.587   2.154  3.2446  1.1103  0.8686
 9789TIP3    H229311   3.318   5.644   2.288 -1.4048 -0.9149  0.5988
 9790TIP3   OH229312   4.411   4.816   1.623  0.1254  0.2339 -0.3093
 9790TIP3    H129313   4.425   4.738   1.677  0.0770 -0.6600 -1.5227
 9790TIP3    H229314   4.450   4.793   1.538 -0.0345  1.4791 -0.7427
 9791TIP3   OH229315   7.244   5.452   2.603 -0.6819  0.0621 -0.4520
 9791TIP3    H129316   7.258   5.370   2.555  0.6853  0.4006 -0.6562
 9791TIP3    H229317   7.165   5.436   2.655  0.1813 -1.7838  0.3817
 9792TIP3   OH229318   5.525   5.332   1.379 -0.1553 -0.4788  0.4338
 9792TIP3    H129319   5.556   5.418   1.351 -1.4001 -0.7781 -2.1575
 9792TIP3    H229320   5.430   5.340   1.381 -0.3717 -2.0657 -1.0476
 9793TIP3   OH229321   2.639   3.026   2.237 -0.0944  0.5604 -0.4589
 9793TIP3    H129322   2.669   2.978   2.314  0.9214 -1.1844 -1.8483
 9793TIP3    H229323   2.655   3.118   2.258 -3.0255  0.5262  2.7090
 9794TIP3   OH229324   6.993   3.531   5.546  0.0962 -0.1904  1.0678
 9794TIP3    H129325   6.944   3.450   5.557  1.5365 -1.0959  1.0319
 9794TIP3    H229326   6.933   3.600   5.574 -1.0054 -1.2986  1.4805
 9795TIP3   OH229327   0.369   4.593   0.378 -0.1160  0.6415 -0.0514
 9795TIP3    H129328   0.459   4.571   0.355  0.3286  0.5989  1.5693
 9795TIP3    H229329   0.368   4.689   0.379  0.2777  0.6450  1.1708
 9796TIP3   OH229330   4.584   7.262   0.715  1.2658  0.3385  0.0160
 9796TIP3    H129331   4.529   7.236   0.641 -0.2962  2.7201  0.2476
 9796TIP3    H229332   4.522   7.291   0.782  2.7371  1.7559  0.8377
 9797TIP3   OH229333   7.707   7.116   3.972 -0.2380  0.4908 -0.0977
 9797TIP3    H129334   7.732   7.031   3.934  1.9221  1.1644 -0.3595
 9797TIP3    H229335   7.714   7.103   4.067  2.3334  0.8686 -0.1395
 9798TIP3   OH229336   0.586   2.249   6.278  0.5697 -0.0848 -0.2371
 9798TIP3    H129337   0.566   2.336   6.314 -0.3151 -0.4737  0.2449
 9798TIP3    H229338   0.506   2.224   6.231  1.4640  0.1291 -1.9540
 9799TIP3   OH229339   6.885   3.274   5.568  0.1423 -0.1198 -0.0192
 9799TIP3    H129340   6.800   3.243   5.598  1.0662 -0.6827  2.2571
 9799TIP3    H229341   6.946   3.205   5.593  1.3894  0.6343 -0.8420
 9800TIP3   OH229342   3.550   1.342   3.391 -0.1748 -0.0731 -0.4996
 9800TIP3    H129343   3.635   1.373   3.421 -0.1518 -1.9361  1.5591
 9800TIP3    H229344   3.486   1.386   3.447 -0.3626 -0.9109 -0.0408
 9801TIP3   OH229345   4.180   7.469   1.670  0.5464  0.2089 -0.1282
 9801TIP3    H129346   4.108   7.432   1.619  0.4611 -1.6549  1.2599
 9801TIP3    H229347   4.259   7.447   1.619  0.2602  1.3828 -1.1403
 9802TIP3   OH229348   2.077   4.711   1.340  0.7248  0.4678 -0.1135
 9802TIP3    H129349   2.094   4.796   1.382 -0.7820  0.4217  0.6475
 9802TIP3    H229350   2.049   4.654   1.412  1.1021 -0.5166 -0.7216
 9803TIP3   OH229351   1.783   6.865   2.145 -0.0326 -0.2648 -0.3199
 9803TIP3    H129352   1.696   6.902   2.157 -0.1341 -0.7456  0.4849
 9803TIP3    H229353   1.829   6.883   2.227  0.8044  0.4210 -0.9130
 9804TIP3   OH229354   7.350   3.453   3.523 -0.1594 -0.6057  0.2059
 9804TIP3    H129355   7.278   3.394   3.501  0.0388 -0.2138 -1.5854
 9804TIP3    H229356   7.363   3.506   3.445  0.1081  1.3935  1.5177
 9805TIP3   OH229357   0.378   3.834   1.448  0.1796 -0.1948 -0.2793
 9805TIP3    H129358   0.376   3.868   1.358 -0.1108  1.2404  0.2490
 9805TIP3    H229359   0.328   3.898   1.499  0.0252 -1.1857  0.8483
 9806TIP3   OH229360   5.225   4.615   1.929  0.0805 -0.1429  0.2891
 9806TIP3    H129361   5.211   4.524   1.956 -1.3275 -0.0840 -0.1663
 9806TIP3    H229362   5.319   4.629   1.940  0.2890 -1.5891  0.5529
 9807TIP3   OH229363   0.044   4.354   2.198 -0.1299  0.1049 -0.8997
 9807TIP3    H129364   0.057   4.436   2.246 -1.7259  1.3301 -2.4441
 9807TIP3    H229365   0.085   4.288   2.253  0.8537  1.8697  0.6074
 9808TIP3   OH229366   7.330   3.264   3.245 -0.7613 -0.0634  0.0533
 9808TIP3    H129367   7.381   3.232   3.171 -1.0282 -1.5685  0.4839
 9808TIP3    H229368   7.263   3.321   3.206 -0.9983 -0.9617 -0.8926
 9809TIP3   OH229369   3.336   2.888   3.294  0.5193 -0.4885  0.0713
 9809TIP3    H129370   3.278   2.934   3.232 -0.0044 -0.1308  0.8031
 9809TIP3    H229371   3.276   2.842   3.353  1.0387 -2.1864 -0.6677
 9810TIP3   OH229372   5.592   2.018   4.654  0.0642  0.2945 -0.4871
 9810TIP3    H129373   5.580   2.073   4.732 -2.0202 -0.4038 -0.2518
 9810TIP3    H229374   5.528   2.051   4.591 -1.0197 -1.6044 -0.4523
 9811TIP3   OH229375   3.941   0.841   0.621  0.0912  0.1795 -0.2414
 9811TIP3    H129376   3.963   0.752   0.646 -1.2132 -0.2677 -0.6005
 9811TIP3    H229377   3.849   0.837   0.596  0.3142  1.3823 -1.3951
 9812TIP3   OH229378   1.531   0.450   4.847 -0.1172  0.2806  0.2526
 9812TIP3    H129379   1.530   0.458   4.752 -1.0559 -0.0191  0.2274
 9812TIP3    H229380   1.621   0.470   4.872  0.0027  0.9195 -0.6473
 9813TIP3   OH229381   1.296   3.852   1.924 -0.5490  0.7243  0.0222
 9813TIP3    H129382   1.371   3.828   1.979  0.0575  0.3976 -0.9180
 9813TIP3    H229383   1.220   3.841   1.981  0.0050 -0.2256  0.6060
 9814TIP3   OH229384   3.607   0.906   3.670 -0.1641  0.5478 -0.3568
 9814TIP3    H129385   3.662   0.958   3.728 -1.0850  1.5824 -0.3723
 9814TIP3    H229386   3.557   0.849   3.729  0.6951 -0.1874 -0.3251
 9815TIP3   OH229387   4.038   0.110   5.108  0.3035  0.5067 -0.1415
 9815TIP3    H129388   4.010   0.040   5.050 -0.9297  1.1505 -0.3515
 9815TIP3    H229389   3.970   0.114   5.176  1.5138  0.0248  1.1554
 9816TIP3   OH229390   1.962   7.306   2.312  0.1996 -0.5009  0.6143
 9816TIP3    H129391   2.024   7.333   2.380  0.6111 -1.1215  0.4976
 9816TIP3    H229392   1.981   7.213   2.298  0.9117 -0.1179 -1.1631
 9817TIP3   OH229393   0.805   4.986   6.043  0.5719  0.5360 -0.1992
 9817TIP3    H129394   0.893   5.003   6.077  0.6685  0.6136 -0.4855
 9817TIP3    H229395   0.818   4.913   5.982 -0.0616 -1.7473  2.1787
 9818TIP3   OH229396   3.779   1.538   0.298 -0.5089 -0.2757 -0.8823
 9818TIP3    H129397   3.751   1.446   0.292 -3.1198  0.5345 -2.7684
 9818TIP3    H229398   3.766   1.561   0.390  0.1216 -1.7331 -0.3916
 9819TIP3   OH229399   2.222   5.385   3.961  0.2772 -0.0314 -0.3158
 9819TIP3    H129400   2.155   5.443   3.924  0.5968  1.1526  0.8879
 9819TIP3    H229401   2.221   5.308   3.904 -1.2028  0.5127 -1.0825
 9820TIP3   OH229402   0.695   2.503   0.487  1.0812  0.1977  0.0904
 9820TIP3    H129403   0.613   2.499   0.536  0.4788  0.8673 -0.8314
 9820TIP3    H229404   0.671   2.476   0.399  1.3545  2.5400 -0.7720
 9821TIP3   OH229405   3.626   5.061   1.244  0.3900  0.5367 -0.4330
 9821TIP3    H129406   3.650   4.984   1.294 -0.8756  0.8995  0.7996
 9821TIP3    H229407   3.568   5.028   1.175 -1.1991  0.5046  0.8726
 9822TIP3   OH229408   5.532   7.107   6.574  0.1793  0.0932 -0.0437
 9822TIP3    H129409   5.550   7.182   6.631 -2.2274  0.6404  0.1108
 9822TIP3    H229410   5.480   7.047   6.629 -2.3790  0.7328 -1.5971
 9823TIP3   OH229411   3.571   4.203   6.059  0.2187  0.4811 -0.0100
 9823TIP3    H129412   3.533   4.205   5.972 -0.4187 -1.4157  0.1792
 9823TIP3    H229413   3.633   4.130   6.057 -1.1359 -0.7952  1.6061
 9824TIP3   OH229414   7.855   2.318   3.418  0.0889 -0.4004  0.2104
 9824TIP3    H129415   7.867   2.287   3.328  2.2434  0.5748  0.0958
 9824TIP3    H229416   7.792   2.390   3.410  0.5256 -0.0889 -0.5815
 9825TIP3   OH229417   2.591   1.115   2.482 -0.1243 -0.1879  0.1863
 9825TIP3    H129418   2.536   1.037   2.472  2.3789 -2.0148 -0.5441
 9825TIP3    H229419   2.642   1.098   2.561  0.4732  0.7169  0.0092
 9826TIP3   OH229420   8.175   0.500   3.895 -0.1010  0.1051  0.0193
 9826TIP3    H129421   8.081   0.481   3.895 -0.0007 -0.8129 -2.4890
 9826TIP3    H229422   8.215   0.419   3.862  1.3334  1.2326 -1.0983
 9827TIP3   OH229423   5.819   6.092   3.596  1.0889  0.6393  0.2614
 9827TIP3    H129424   5.865   6.015   3.563  0.9274 -0.0088  1.4863
 9827TIP3    H229425   5.783   6.064   3.680 -0.0923  1.6605  0.1158
 9828TIP3   OH229426   4.875   5.989   1.642  0.4405  0.0821 -0.4652
 9828TIP3    H129427   4.859   5.924   1.574 -1.2328  0.4843 -0.5113
 9828TIP3    H229428   4.817   5.963   1.714 -0.8363  1.9009 -0.7623
 9829TIP3   OH229429   7.239   3.527   6.612 -0.1564 -0.0310  0.5515
 9829TIP3    H129430   7.265   3.496   6.526  0.5091  0.6528  0.4888
 9829TIP3    H229431   7.172   3.465   6.642  0.7987 -1.2365  0.2572
 9830TIP3   OH229432   3.099   3.559   1.119  0.0315  0.1380 -0.1959
 9830TIP3    H129433   3.043   3.495   1.163  0.4370  0.9183  1.5496
 9830TIP3    H229434   3.105   3.527   1.029 -0.9862 -1.4438  0.2416
 9831TIP3   OH229435   2.615   5.434   3.412 -0.3288 -0.6242 -0.2288
 9831TIP3    H129436   2.641   5.520   3.377 -1.5695 -0.0352  0.2284
 9831TIP3    H229437   2.681   5.414   3.478  0.4385 -0.4237 -0.9087
 9832TIP3   OH229438   3.416   3.666   0.146  0.1780 -0.3487  0.1293
 9832TIP3    H129439   3.342   3.708   0.103 -0.2169  1.2761  2.2442
 9832TIP3    H229440   3.493   3.709   0.108 -0.1649  1.1295  1.0340
 9833TIP3   OH229441   2.941   0.389   1.446  0.0673 -0.0869 -1.2680
 9833TIP3    H129442   2.945   0.433   1.531  0.3106 -1.5621 -0.4775
 9833TIP3    H229443   2.861   0.422   1.406 -0.0919  0.5815 -0.4309
 9834TIP3   OH229444   3.405   6.787   2.368  0.2411  0.2888 -0.1441
 9834TIP3    H129445   3.358   6.857   2.412  0.7438  0.3312  0.3328
 9834TIP3    H229446   3.391   6.804   2.275 -1.3269 -0.1415 -0.0231
 9835TIP3   OH229447   4.972   7.062   4.908  0.1378  0.3680 -0.4556
 9835TIP3    H129448   4.991   7.000   4.978  0.1957  2.0576  1.0885
 9835TIP3    H229449   5.056   7.072   4.862  0.0878 -0.7811 -0.8297
 9836TIP3   OH229450   7.437   4.896   5.196  0.4022 -0.2849  0.3544
 9836TIP3    H129451   7.423   4.946   5.276  2.1377  0.9954 -0.0881
 9836TIP3    H229452   7.467   4.960   5.132 -0.3378 -1.3861 -1.1623
 9837TIP3   OH229453   5.977   7.580   5.154 -0.4447 -0.2148 -0.6594
 9837TIP3    H129454   6.037   7.655   5.156 -2.3697  1.4216 -1.4765
 9837TIP3    H229455   6.035   7.504   5.146  1.5216  1.3716 -2.9685
 9838TIP3   OH229456   0.326   0.966   2.649 -0.3545 -0.1157 -0.0356
 9838TIP3    H129457   0.353   0.914   2.725 -1.9276  0.2366  0.8005
 9838TIP3    H229458   0.264   0.911   2.603  1.6340 -0.9203 -1.9510
 9839TIP3   OH229459   5.732   6.007   4.521  0.2778 -0.2352 -0.4533
 9839TIP3    H129460   5.690   5.979   4.439 -0.5927 -1.6686  0.4367
 9839TIP3    H229461   5.785   5.932   4.547 -0.1018 -0.1228  0.7083
 9840TIP3   OH229462   0.675   5.454   1.248 -0.2285  0.4369  0.0720
 9840TIP3    H129463   0.721   5.484   1.327  0.1179  1.4518 -0.4960
 9840TIP3    H229464   0.658   5.362   1.264 -3.5843  1.3212  3.0390
 9841TIP3   OH229465   5.493   3.301   6.650  0.0594 -0.1808 -0.1257
 9841TIP3    H129466   5.405   3.301   6.612  0.9625 -0.0180 -2.3925
 9841TIP3    H229467   5.480   3.330   6.740 -2.1832 -0.0332 -0.4253
 9842TIP3   OH229468   5.846   4.883   4.142 -0.2395 -0.0199  0.5139
 9842TIP3    H129469   5.877   4.969   4.172  0.1780 -0.0842  0.2798
 9842TIP3    H229470   5.797   4.903   4.062 -0.5863  0.0541  0.7419
 9843TIP3   OH229471   6.911   0.124   5.243 -0.6103 -0.1341 -0.2514
 9843TIP3    H129472   6.891   0.212   5.273  0.6241  0.6953 -1.7007
 9843TIP3    H229473   6.955   0.082   5.317 -2.0698  0.1032  0.7900
 9844TIP3   OH229474   8.195   5.235   1.620 -0.3134 -0.3770 -0.4383
 9844TIP3    H129475   8.181   5.150   1.663 -2.5804  0.2633  0.2051
 9844TIP3    H229476   8.243   5.286   1.685 -1.8952 -0.1041  0.5613
 9845TIP3   OH229477   2.135   2.901   2.550  0.6102  0.2928 -0.5044
 9845TIP3    H129478   2.050   2.894   2.506 -0.2788 -0.2702  1.2385
 9845TIP3    H229479   2.129   2.981   2.602 -0.2674 -1.5500  2.4258
 9846TIP3   OH229480   4.506   0.296   2.078 -0.4680  0.5180 -0.2980
 9846TIP3    H129481   4.598   0.311   2.099  0.3657  0.1800 -3.2265
 9846TIP3    H229482   4.486   0.363   2.013 -2.1266  0.2157 -0.1345
 9847TIP3   OH229483   7.045   3.664   4.642  0.3357  0.4146 -0.2442
 9847TIP3    H129484   7.000   3.658   4.726 -0.6286 -0.2996 -0.8075
 9847TIP3    H229485   6.978   3.692   4.580  1.4519  2.9318 -0.4499
 9848TIP3   OH229486   2.662   4.790   0.742  0.1383 -0.3038 -0.2696
 9848TIP3    H129487   2.703   4.741   0.813  2.7648  0.8534 -0.8627
 9848TIP3    H229488   2.732   4.803   0.678 -0.8476  2.7517 -0.9045
 9849TIP3   OH229489   4.658   3.852   5.744  0.1858 -0.4134 -0.0075
 9849TIP3    H129490   4.736   3.907   5.737  0.0217 -0.0299  1.0433
 9849TIP3    H229491   4.686   3.777   5.795  0.8307 -2.1588 -2.7205
 9850TIP3   OH229492   7.218   3.752   1.667 -0.1697 -0.5587  0.0214
 9850TIP3    H129493   7.246   3.724   1.754  0.1969 -0.8194 -0.1759
 9850TIP3    H229494   7.262   3.691   1.607 -1.2767 -1.0776 -0.2866
 9851TIP3   OH229495   3.931   4.529   5.416  0.1880 -0.5435 -0.1561
 9851TIP3    H129496   3.978   4.613   5.416  0.0021 -0.3587  2.5840
 9851TIP3    H229497   3.846   4.549   5.455 -0.0911 -1.8998 -0.0369
 9852TIP3   OH229498   1.016   0.445   3.012  0.2676  0.4220 -0.0693
 9852TIP3    H129499   0.963   0.419   3.087  0.2891 -0.9407 -0.5104
 9852TIP3    H229500   0.968   0.519   2.974 -1.0751 -0.4603 -0.1535
 9853TIP3   OH229501   7.127   1.619   5.357 -0.1765 -0.1335 -0.0778
 9853TIP3    H129502   7.136   1.528   5.385 -1.9319  0.1066  1.5191
 9853TIP3    H229503   7.092   1.613   5.268 -1.7047 -1.0912  0.5328
 9854TIP3   OH229504   2.158   1.021   1.329  1.2648 -0.1854  0.2461
 9854TIP3    H129505   2.095   0.991   1.265  0.2139  1.7821  0.2944
 9854TIP3    H229506   2.108   1.028   1.411  2.1102 -0.7689  0.8363
 9855TIP3   OH229507   0.115   5.907   5.110 -0.1629  0.4202 -0.2722
 9855TIP3    H129508   0.021   5.893   5.118  0.0392 -1.9196 -1.3636
 9855TIP3    H229509   0.155   5.830   5.149  1.2194  0.0833 -2.2033
 9856TIP3   OH229510   5.553   1.877   2.914  0.0276 -0.6738 -0.0562
 9856TIP3    H129511   5.504   1.958   2.929  0.9253 -0.3769  1.5815
 9856TIP3    H229512   5.644   1.901   2.931  0.2234 -2.1987  1.2618
 9857TIP3   OH229513   3.464   0.789   3.414  0.4211 -0.2824 -0.4966
 9857TIP3    H129514   3.413   0.865   3.442  1.0379  0.1947 -0.6614
 9857TIP3    H229515   3.409   0.747   3.347  0.5803  0.6856 -1.2646
 9858TIP3   OH229516   5.470   7.834   3.734  0.0063 -0.3324  0.3647
 9858TIP3    H129517   5.390   7.786   3.756  0.2408 -0.5688  0.7008
 9858TIP3    H229518   5.514   7.779   3.669  1.0598 -1.3598  1.9098
 9859TIP3   OH229519   3.674   0.909   2.114 -0.1587  0.1212 -0.7500
 9859TIP3    H129520   3.699   0.993   2.154 -3.2145  0.8213  0.0028
 9859TIP3    H229521   3.684   0.845   2.185 -0.0227  0.2940 -0.6128
 9860TIP3   OH229522   2.117   1.042   6.384 -0.2398 -0.3307  0.3751
 9860TIP3    H129523   2.155   1.125   6.356 -1.4854 -0.0661 -0.6309
 9860TIP3    H229524   2.188   0.998   6.430  0.8443  0.7278 -0.2136
 9861TIP3   OH229525   6.836   3.413   2.602  0.0186  0.2602  0.5864
 9861TIP3    H129526   6.842   3.490   2.659 -0.4548 -1.0519  2.5077
 9861TIP3    H229527   6.791   3.445   2.523  0.9260  2.2038  0.7866
 9862TIP3   OH229528   4.377   2.699   0.913 -0.1666  0.1239 -0.0965
 9862TIP3    H129529   4.425   2.637   0.857  1.3125 -1.7802  3.0226
 9862TIP3    H229530   4.439   2.769   0.930  0.1929 -0.4137  0.8710
 9863TIP3   OH229531   7.810   3.164   0.960 -0.8505  0.2498  0.2370
 9863TIP3    H129532   7.831   3.219   1.035 -0.1653 -0.9082  0.9185
 9863TIP3    H229533   7.769   3.086   0.998  0.4586 -0.8203 -0.4729
 9864TIP3   OH229534   2.853   2.378   2.986  0.3626  0.5986 -0.8047
 9864TIP3    H129535   2.758   2.374   2.998  0.5781  0.7208  1.1357
 9864TIP3    H229536   2.882   2.288   2.998  0.7928  1.0259  1.7045
 9865TIP3   OH229537   4.540   5.524   0.257 -0.2790 -0.2566 -0.0699
 9865TIP3    H129538   4.478   5.580   0.304 -1.7951 -2.2748  0.5113
 9865TIP3    H229539   4.606   5.584   0.223 -0.3648  1.5953  2.6887
 9866TIP3   OH229540   7.568   3.268   6.363 -0.8244 -0.4435  0.3910
 9866TIP3    H129541   7.643   3.285   6.421 -0.3894  0.9637 -0.5273
 9866TIP3    H229542   7.585   3.181   6.327  0.3265 -0.1880  0.2751
 9867TIP3   OH229543   5.405   2.133   1.398  0.2936 -0.7879 -0.2871
 9867TIP3    H129544   5.477   2.193   1.377 -0.8184  0.8412  0.4075
 9867TIP3    H229545   5.356   2.125   1.316 -0.1235  0.0805 -0.1341
 9868TIP3   OH229546   2.574   5.018   1.624  0.5718  0.5086 -0.0909
 9868TIP3    H129547   2.552   5.100   1.579  0.7195  0.6220  0.0424
 9868TIP3    H229548   2.669   5.010   1.616  0.3332 -0.8657 -2.1646
 9869TIP3   OH229549   5.723   0.821   1.842  0.2715 -0.1114 -0.1619
 9869TIP3    H129550   5.722   0.813   1.937  1.3729  3.1732  0.2750
 9869TIP3    H229551   5.659   0.757   1.811 -1.2444 -0.2320  2.8815
 9870TIP3   OH229552   3.324   2.638   6.418 -0.4401  0.0355 -0.2751
 9870TIP3    H129553   3.251   2.579   6.436 -1.0237  0.9502  0.4967
 9870TIP3    H229554   3.313   2.709   6.481 -0.2946  1.4469 -1.7815
 9871TIP3   OH229555   5.441   5.281   0.758  1.1327  0.5250  0.0150
 9871TIP3    H129556   5.500   5.240   0.821 -2.2536 -2.3934  1.5854
 9871TIP3    H229557   5.455   5.232   0.677  2.1091  1.1129 -0.1945
 9872TIP3   OH229558   0.269   4.786   3.736 -0.2996  0.0804  0.1773
 9872TIP3    H129559   0.318   4.721   3.684  0.2894  0.2155  0.5582
 9872TIP3    H229560   0.243   4.739   3.815  1.8021  0.8019  1.3694
 9873TIP3   OH229561   7.338   1.230   2.583 -0.4557 -0.2638 -0.2151
 9873TIP3    H129562   7.403   1.212   2.514 -0.3291 -2.1239  0.3307
 9873TIP3    H229563   7.351   1.323   2.604  0.3662  0.0241 -1.8022
 9874TIP3   OH229564   6.316   0.785   2.116  0.5011  0.2390  0.0719
 9874TIP3    H129565   6.283   0.854   2.174 -2.0325 -0.4554 -0.4094
 9874TIP3    H229566   6.308   0.705   2.167  1.1638 -0.0098 -0.2016
 9875TIP3   OH229567   6.165   4.067   1.458  0.1371 -0.2085 -0.6061
 9875TIP3    H129568   6.246   4.111   1.433  0.1779 -1.0429 -2.0148
 9875TIP3    H229569   6.165   4.071   1.554  0.4748  2.2036 -0.6428
 9876TIP3   OH229570   0.903   1.181   4.446  0.0525 -0.2289 -0.0064
 9876TIP3    H129571   0.825   1.233   4.423  0.2726  0.5074  0.8483
 9876TIP3    H229572   0.942   1.229   4.518 -0.3532 -2.2064  1.6088
 9877TIP3   OH229573   3.365   3.959   1.574 -0.7481 -0.0367 -0.6918
 9877TIP3    H129574   3.425   3.962   1.500  0.6585 -1.0669  0.3380
 9877TIP3    H229575   3.334   3.868   1.576  0.4570 -0.4550  0.8653
 9878TIP3   OH229576   7.273   2.340   0.416  0.0562 -0.4447 -0.1861
 9878TIP3    H129577   7.361   2.356   0.452  0.5889  0.2199 -1.6851
 9878TIP3    H229578   7.252   2.251   0.443  0.5416 -0.1164  1.4433
 9879TIP3   OH229579   5.079   6.431   1.797 -0.4471 -0.0271 -0.4686
 9879TIP3    H129580   5.046   6.499   1.738  3.8101  0.6270 -2.4840
 9879TIP3    H229581   5.060   6.349   1.753  1.5655  0.4033 -2.3095
 9880TIP3   OH229582   6.473   7.411   1.922 -0.0954  0.3538 -0.2769
 9880TIP3    H129583   6.516   7.408   1.836 -0.5597  1.4632 -0.5738
 9880TIP3    H229584   6.516   7.343   1.973  1.9152  1.2930 -0.6119
 9881TIP3   OH229585   3.578   1.103   0.665  0.0695  0.5925  0.5140
 9881TIP3    H129586   3.494   1.100   0.621 -0.0158  0.7492  0.6610
 9881TIP3    H229587   3.578   1.188   0.710 -0.0442  0.2428  1.1955
 9882TIP3   OH229588   6.466   2.352   4.725  0.0234  0.0092  0.3740
 9882TIP3    H129589   6.398   2.286   4.711 -0.1025 -0.5566  3.0949
 9882TIP3    H229590   6.419   2.434   4.738  0.0012  0.0537  0.0176
 9883TIP3   OH229591   8.184   6.760   4.263  0.3328 -0.7531 -0.5518
 9883TIP3    H129592   8.183   6.849   4.299  1.3287  0.2096 -2.7284
 9883TIP3    H229593   8.109   6.757   4.203  1.2283 -0.8002 -1.7072
 9884TIP3   OH229594   8.210   7.678   4.642 -0.0079 -0.7200 -0.0693
 9884TIP3    H129595   8.141   7.743   4.626  1.0036  0.7444  1.1731
 9884TIP3    H229596   8.214   7.626   4.562 -2.1297 -0.4603 -0.3915
 9885TIP3   OH229597   0.749   6.906   5.395 -0.0004  0.4021  0.1103
 9885TIP3    H129598   0.669   6.958   5.405  0.4154  0.7751  1.6668
 9885TIP3    H229599   0.816   6.954   5.443  1.1837  0.0836 -1.1649
 9886TIP3   OH229600   3.209   4.096   0.601 -0.2829 -0.2206  0.5331
 9886TIP3    H129601   3.203   4.186   0.569  0.8839 -0.3631 -0.1337
 9886TIP3    H229602   3.300   4.087   0.630 -0.8542 -0.6104  2.3957
 9887TIP3   OH229603   6.909   1.983   1.029 -0.0095  0.2040  0.4882
 9887TIP3    H129604   6.908   2.067   0.984 -2.3463  0.3768  0.7385
 9887TIP3    H229605   6.991   1.983   1.078  1.5733  0.9237 -2.0003
 9888TIP3   OH229606   3.447   1.539   2.698 -0.1620 -0.0478  0.1472
 9888TIP3    H129607   3.390   1.543   2.621  0.4617 -1.9404 -0.4788
 9888TIP3    H229608   3.420   1.459   2.743  0.0994  0.5596  1.4149
 9889TIP3   OH229609   0.555   6.531   3.847  0.2921 -0.2839 -0.4239
 9889TIP3    H129610   0.598   6.608   3.812 -1.2446  0.8129  0.0253
 9889TIP3    H229611   0.627   6.469   3.863  1.5425  1.0029 -0.8573
 9890TIP3   OH229612   3.659   2.785   0.196  0.0263  1.1693  0.1385
 9890TIP3    H129613   3.753   2.765   0.192  0.2065  1.4790  1.7585
 9890TIP3    H229614   3.639   2.783   0.290 -1.4103  1.9087 -0.1273
 9891TIP3   OH229615   2.044   5.999   5.467 -0.5041  0.4932 -0.0245
 9891TIP3    H129616   1.952   6.020   5.448 -1.0026 -0.6135  0.9915
 9891TIP3    H229617   2.075   5.953   5.389 -2.1741 -3.0042  1.1497
 9892TIP3   OH229618   0.722   0.153   2.300 -0.0470  0.0572 -0.0290
 9892TIP3    H129619   0.797   0.189   2.254 -1.1089  0.6637 -1.3445
 9892TIP3    H229620   0.733   0.058   2.294  1.1340  0.1216  0.7206
 9893TIP3   OH229621   3.599   0.257   0.471 -0.2504  0.0379  0.4958
 9893TIP3    H129622   3.532   0.309   0.514 -0.8517  1.8235 -2.3353
 9893TIP3    H229623   3.591   0.279   0.378  2.0872 -2.2136 -0.3730
 9894TIP3   OH229624   2.775   2.496   5.578 -0.1360 -0.8555  0.7195
 9894TIP3    H129625   2.764   2.448   5.660  0.2318  0.7210  1.7386
 9894TIP3    H229626   2.747   2.435   5.510 -0.2072 -2.2920  1.9918
 9895TIP3   OH229627   4.715   7.021   1.635  0.3124 -0.3407 -0.4459
 9895TIP3    H129628   4.707   6.960   1.562 -0.8760  0.5467 -1.0875
 9895TIP3    H229629   4.644   6.997   1.695  1.1342 -0.9122  0.3290
 9896TIP3   OH229630   3.488   1.524   5.664 -0.0952  0.4633  0.1083
 9896TIP3    H129631   3.551   1.564   5.604 -0.0121  1.5406  0.8709
 9896TIP3    H229632   3.448   1.599   5.709 -0.0484 -0.3125  1.4867
 9897TIP3   OH229633   0.283   5.196   5.856  0.1295  0.0983 -0.4255
 9897TIP3    H129634   0.301   5.245   5.937  0.5562  0.2346 -0.6000
 9897TIP3    H229635   0.369   5.186   5.815  0.2596 -1.9119  0.2383
 9898TIP3   OH229636   6.596   7.088   4.615 -0.8843 -0.3451 -0.3983
 9898TIP3    H129637   6.539   7.163   4.598 -0.2392  0.1056 -0.6045
 9898TIP3    H229638   6.615   7.052   4.529 -1.2425 -0.7912 -0.2951
 9899TIP3   OH229639   0.998   5.612   3.435 -0.2762 -0.2785 -0.4626
 9899TIP3    H129640   1.077   5.586   3.387 -0.5606  0.1369 -1.1650
 9899TIP3    H229641   1.016   5.586   3.525 -0.3850 -2.5995 -1.0358
 9900TIP3   OH229642   3.712   6.501   5.933  0.4426 -0.3463  0.1940
 9900TIP3    H129643   3.755   6.558   5.997 -1.2828  1.6716 -0.3008
 9900TIP3    H229644   3.725   6.412   5.966  1.5127  0.4735  2.1324
 9901TIP3   OH229645   5.208   3.975   3.687  0.0349 -0.0820 -0.3968
 9901TIP3    H129646   5.209   3.969   3.592  1.3819 -1.1766 -0.3334
 9901TIP3    H229647   5.156   3.900   3.716  2.1828 -1.5919 -0.2114
 9902TIP3   OH229648   1.884   0.650   5.628 -0.6810 -0.6795  0.1684
 9902TIP3    H129649   1.923   0.597   5.698  1.6737 -2.5086 -2.3340
 9902TIP3    H229650   1.949   0.719   5.612 -0.2783 -1.4033 -1.4241
 9903TIP3   OH229651   2.469   5.762   4.531  0.1867 -0.6494  0.7568
 9903TIP3    H129652   2.387   5.734   4.491 -0.3681 -0.2099  1.5464
 9903TIP3    H229653   2.470   5.857   4.519  0.9271 -0.7317  0.1343
 9904TIP3   OH229654   7.180   1.009   2.863 -0.2761 -0.4899  0.2859
 9904TIP3    H129655   7.088   1.014   2.837  0.2464 -1.4101 -1.9793
 9904TIP3    H229656   7.179   1.032   2.956 -2.8259 -0.8506  0.4390
 9905TIP3   OH229657   3.975   2.170   4.683 -1.1063 -0.3404  0.4131
 9905TIP3    H129658   3.908   2.225   4.724  0.1582  1.5216  0.1014
 9905TIP3    H229659   4.022   2.229   4.625  1.7166 -1.1771  1.6731
 9906TIP3   OH229660   4.846   0.304   1.674  1.1032 -0.5186  0.7740
 9906TIP3    H129661   4.883   0.333   1.591  0.6672 -3.0589 -0.4095
 9906TIP3    H229662   4.830   0.385   1.723 -0.1857  1.2250 -2.2521
 9907TIP3   OH229663   1.831   0.115   0.363  0.4675 -0.3352 -0.6707
 9907TIP3    H129664   1.838   0.088   0.455 -1.7385  1.4847  0.1114
 9907TIP3    H229665   1.737   0.108   0.343  0.5991  1.3975 -2.1023
 9908TIP3   OH229666   2.622   5.254   6.302  0.2779 -0.2737  0.4307
 9908TIP3    H129667   2.654   5.195   6.371  0.3701  0.5829  1.1289
 9908TIP3    H229668   2.697   5.308   6.279 -0.1467  0.4554  0.7263
 9909TIP3   OH229669   8.042   3.839   2.575 -0.5949 -0.1241 -0.2579
 9909TIP3    H129670   8.041   3.909   2.510  1.1274  1.1455  1.0008
 9909TIP3    H229671   8.116   3.859   2.631 -0.4886 -2.5837  0.6098
 9910TIP3   OH229672   8.092   6.126   2.471  0.1330 -0.5744  0.2041
 9910TIP3    H129673   8.002   6.129   2.505  0.0993 -0.0794  0.0804
 9910TIP3    H229674   8.085   6.070   2.393 -0.4321  0.8785 -0.8276
 9911TIP3   OH229675   4.892   6.295   5.835 -0.9151 -0.2005  0.0474
 9911TIP3    H129676   4.950   6.332   5.902 -1.1155  1.1000 -0.4708
 9911TIP3    H229677   4.804   6.310   5.870 -1.0614  1.2280 -0.8212
 9912TIP3   OH229678   4.368   0.398   5.758 -0.1589  0.2033  0.7236
 9912TIP3    H129679   4.379   0.305   5.775 -2.3880  0.2154  2.7122
 9912TIP3    H229680   4.326   0.432   5.838  0.3359  2.8516 -0.0571
 9913TIP3   OH229681   2.904   7.252   5.921  0.0875  0.6701 -0.0176
 9913TIP3    H129682   2.822   7.230   5.876  0.3995 -0.0919 -0.2243
 9913TIP3    H229683   2.939   7.168   5.950  1.7083  0.7802 -1.4844
 9914TIP3   OH229684   7.139   3.529   6.125 -0.2946 -0.1180 -0.0927
 9914TIP3    H129685   7.107   3.466   6.061 -0.5064  0.3850 -0.4847
 9914TIP3    H229686   7.134   3.614   6.081 -0.5605  0.2523  0.6303
 9915TIP3   OH229687   7.552   4.200   6.233 -0.0377  0.3006  0.0555
 9915TIP3    H129688   7.534   4.167   6.145  2.0732  0.5414 -0.5346
 9915TIP3    H229689   7.587   4.125   6.280  0.7907  0.6477  0.0178
 9916TIP3   OH229690   0.659   5.276   2.755 -0.0945 -0.1925 -0.7525
 9916TIP3    H129691   0.722   5.274   2.826 -0.5304 -2.2245 -0.3429
 9916TIP3    H229692   0.712   5.289   2.676  0.7937 -1.3199 -0.3660
 9917TIP3   OH229693   0.595   6.100   1.946  0.1107  0.1789  0.3266
 9917TIP3    H129694   0.569   6.031   2.007 -0.2196  0.8729  0.9772
 9917TIP3    H229695   0.672   6.065   1.902  0.1746 -0.4519  0.9287
 9918TIP3   OH229696   0.287   5.726   5.901 -0.4910  0.3312  0.4950
 9918TIP3    H129697   0.270   5.634   5.882 -2.0037  0.3759  1.5050
 9918TIP3    H229698   0.291   5.731   5.996  1.9809  0.9456  0.4290
 9919TIP3   OH229699   8.067   6.093   5.157  0.7163 -0.6463 -0.4168
 9919TIP3    H129700   8.014   6.059   5.086 -1.2939  0.4401  0.4835
 9919TIP3    H229701   8.110   6.170   5.121 -1.2661  0.6258 -0.1581
 9920TIP3   OH229702   4.064   1.947   1.655  0.2265  0.3015 -0.1740
 9920TIP3    H129703   4.105   2.022   1.613 -1.5794  0.9915 -0.7851
 9920TIP3    H229704   3.970   1.967   1.655 -0.2402 -1.6639  0.2336
 9921TIP3   OH229705   4.533   3.582   1.801 -0.3200  0.3800  0.0641
 9921TIP3    H129706   4.584   3.624   1.731  1.8687 -0.7184  0.9051
 9921TIP3    H229707   4.475   3.521   1.755 -0.1810  0.9302 -0.8688
 9922TIP3   OH229708   2.391   6.493   3.595 -0.0865  0.1047 -0.9535
 9922TIP3    H129709   2.317   6.433   3.594 -1.1169  1.3327 -0.9026
 9922TIP3    H229710   2.425   6.489   3.685 -0.3934 -0.0928 -0.8476
 9923TIP3   OH229711   0.794   5.670   5.074  0.7047  0.2354  0.5409
 9923TIP3    H129712   0.795   5.672   5.169 -1.7020  0.4744  0.6318
 9923TIP3    H229713   0.722   5.610   5.052  0.5263  0.9948 -1.1128
 9924TIP3   OH229714   0.621   2.338   2.177 -0.4235  0.3475 -0.0609
 9924TIP3    H129715   0.603   2.263   2.233 -1.2346  0.9644  0.5266
 9924TIP3    H229716   0.544   2.394   2.186  0.3259  1.4290 -0.1987
 9925TIP3   OH229717   6.466   7.364   2.202  0.1386  0.1479  0.1148
 9925TIP3    H129718   6.476   7.288   2.259 -0.3034  1.1962  1.6888
 9925TIP3    H229719   6.387   7.346   2.152  0.8857 -1.0822 -0.6626
 9926TIP3   OH229720   7.097   5.363   0.480  0.0541  0.6817  0.3358
 9926TIP3    H129721   7.098   5.287   0.537  0.0700  0.2721 -0.1969
 9926TIP3    H229722   7.010   5.403   0.493 -1.2445 -1.2314 -1.6694
 9927TIP3   OH229723   2.746   4.366   2.742  0.4788  0.4123  0.0076
 9927TIP3    H129724   2.667   4.312   2.739  0.1581  0.8272  0.8436
 9927TIP3    H229725   2.745   4.406   2.829  1.9784 -0.1271  0.3038
 9928TIP3   OH229726   4.396   1.785   0.704 -0.5703 -0.3189 -0.3768
 9928TIP3    H129727   4.321   1.797   0.646 -0.5681  0.4735 -0.2266
 9928TIP3    H229728   4.466   1.836   0.663 -0.7823  0.9028  0.7055
 9929TIP3   OH229729   0.699   0.550   1.107  0.3354  0.2715  0.3213
 9929TIP3    H129730   0.643   0.503   1.045  0.6877 -0.4631  0.5382
 9929TIP3    H229731   0.679   0.642   1.093 -0.5582  0.0483  0.0446
 9930TIP3   OH229732   7.645   1.448   4.271 -1.1356 -0.4712 -0.2555
 9930TIP3    H129733   7.583   1.454   4.198 -0.5487 -1.0598 -0.8130
 9930TIP3    H229734   7.623   1.366   4.315  0.7756 -1.9937 -1.9301
 9931TIP3   OH229735   7.126   2.824   2.877 -0.2135 -0.3467  0.0588
 9931TIP3    H129736   7.176   2.901   2.903  0.5393 -0.0674 -2.0446
 9931TIP3    H229737   7.191   2.755   2.867 -0.3859 -0.3157 -1.4566
 9932TIP3   OH229738   5.686   7.379   0.893 -0.0983  0.3369 -0.1543
 9932TIP3    H129739   5.705   7.412   0.805 -0.7940 -0.5462 -0.6521
 9932TIP3    H229740   5.591   7.388   0.901 -0.1147 -0.2020  0.2493
 9933TIP3   OH229741   0.723   4.840   6.752  0.6944 -0.1961  0.0934
 9933TIP3    H129742   0.707   4.758   6.706  1.1566  0.0897 -0.5880
 9933TIP3    H229743   0.636   4.873   6.774  0.5049 -0.8392  0.3305
 9934TIP3   OH229744   2.858   1.667   2.804 -0.6357 -0.0695 -0.0030
 9934TIP3    H129745   2.769   1.683   2.833  0.3274  2.0523  2.1420
 9934TIP3    H229746   2.898   1.617   2.876  0.6126  1.4431  0.4190
 9935TIP3   OH229747   2.075   1.263   2.929  0.3097 -0.2498 -0.1283
 9935TIP3    H129748   2.049   1.238   3.017  1.0597 -0.2718  0.0989
 9935TIP3    H229749   2.090   1.179   2.884  1.6452 -0.2492  0.2684
 9936TIP3   OH229750   1.331   7.684   4.266  0.1681 -0.3928  0.3696
 9936TIP3    H129751   1.356   7.660   4.177  1.3497 -1.4966  0.9794
 9936TIP3    H229752   1.413   7.708   4.309 -0.4975  1.0276  0.9277
 9937TIP3   OH229753   1.670   5.245   2.554  0.3406  0.4758  0.3093
 9937TIP3    H129754   1.689   5.230   2.461 -0.2737  1.0132  0.0933
 9937TIP3    H229755   1.684   5.338   2.567  1.8670  0.1710  1.1122
 9938TIP3   OH229756   3.350   2.331   2.791  0.1046 -0.2554  0.0634
 9938TIP3    H129757   3.379   2.325   2.882 -0.5601 -1.3936  0.2238
 9938TIP3    H229758   3.342   2.240   2.762 -2.2449 -0.0086 -0.2827
 9939TIP3   OH229759   4.495   6.090   3.579  0.1765  0.2076 -0.0701
 9939TIP3    H129760   4.457   6.137   3.653 -1.0886  0.9624 -1.1360
 9939TIP3    H229761   4.471   5.998   3.593 -0.8009  0.4663  0.0492
 9940TIP3   OH229762   7.917   3.200   5.354 -0.1779 -0.5221 -0.5113
 9940TIP3    H129763   7.922   3.121   5.409 -1.0104 -1.4586 -1.7467
 9940TIP3    H229764   7.830   3.198   5.316 -0.9695  2.0571  0.8994
 9941TIP3   OH229765   6.810   1.128   1.040  0.1292 -0.1619 -0.2180
 9941TIP3    H129766   6.722   1.138   1.005 -0.2876 -1.3145  0.4479
 9941TIP3    H229767   6.845   1.217   1.046 -1.0199  0.3055 -0.4064
 9942TIP3   OH229768   7.819   5.444   2.928 -0.6588 -0.2514 -0.1545
 9942TIP3    H129769   7.750   5.492   2.882 -0.4438  0.8339  0.6212
 9942TIP3    H229770   7.826   5.488   3.013 -1.0905 -2.2163  0.9695
 9943TIP3   OH229771   3.601   0.049   4.619  0.0816  0.1649  0.0500
 9943TIP3    H129772   3.515   0.090   4.608  0.3264  1.8758  3.3716
 9943TIP3    H229773   3.644   0.064   4.535 -2.7439 -0.7165 -1.7185
 9944TIP3   OH229774   7.539   1.445   6.772  0.3894 -0.3798  0.3545
 9944TIP3    H129775   7.517   1.536   6.750  0.6445 -0.9065 -2.4219
 9944TIP3    H229776   7.616   1.425   6.719  1.2172 -1.8125  2.0079
 9945TIP3   OH229777   3.691   4.551   0.644  0.5350  0.3083  0.7352
 9945TIP3    H129778   3.766   4.505   0.682  0.3907 -0.6680 -0.0834
 9945TIP3    H229779   3.634   4.480   0.614 -0.3685  1.0474  0.6982
 9946TIP3   OH229780   4.030   3.670   0.214 -0.0818 -0.4797 -0.4037
 9946TIP3    H129781   4.034   3.610   0.140  1.8512 -0.1438 -0.6489
 9946TIP3    H229782   3.942   3.707   0.212 -0.4794 -1.4475 -1.7471
 9947TIP3   OH229783   6.613   1.406   5.869  0.1899  0.3780  0.5197
 9947TIP3    H129784   6.606   1.319   5.908 -1.4893  0.8272  1.3071
 9947TIP3    H229785   6.616   1.390   5.774  2.5547 -0.6211  0.6769
 9948TIP3   OH229786   4.963   7.369   2.439 -0.5377  0.0749  0.3765
 9948TIP3    H129787   4.868   7.382   2.441 -0.5625 -0.1666  1.1804
 9948TIP3    H229788   4.981   7.341   2.349 -1.5818 -2.3939  0.8484
 9949TIP3   OH229789   4.821   2.144   5.736  0.0643  0.1836  0.0946
 9949TIP3    H129790   4.809   2.207   5.665 -0.0829 -0.3086 -0.3226
 9949TIP3    H229791   4.744   2.155   5.791  0.0881  0.4366  0.0798
 9950TIP3   OH229792   1.895   6.006   3.550 -0.0857 -0.5290 -0.2710
 9950TIP3    H129793   1.950   5.991   3.626  0.7061 -0.6975 -0.8689
 9950TIP3    H229794   1.954   5.998   3.475 -0.9296 -0.7695 -0.9286
 9951TIP3   OH229795   8.272   0.585   5.021  0.0184  0.2060  0.1584
 9951TIP3    H129796   8.299   0.676   5.035 -0.7315  0.1438  2.2011
 9951TIP3    H229797   8.275   0.574   4.925  0.5138  2.2366 -0.1009
 9952TIP3   OH229798   2.902   1.181   5.075 -0.9500 -0.0339  0.1014
 9952TIP3    H129799   2.876   1.149   5.162  1.4844  0.9094  1.2854
 9952TIP3    H229800   2.990   1.145   5.062 -0.7351  0.9600 -1.3614
 9953TIP3   OH229801   3.424   2.719   3.055  0.1374 -0.1981  0.3696
 9953TIP3    H129802   3.336   2.682   3.044  0.2415 -0.6711  1.0210
 9953TIP3    H229803   3.422   2.800   3.005  0.0078 -1.2430 -1.4002
 9954TIP3   OH229804   8.242   6.871   5.815 -0.0670 -0.4056  0.4281
 9954TIP3    H129805   8.182   6.827   5.876 -0.5661  0.7067  0.7643
 9954TIP3    H229806   8.314   6.809   5.804 -0.8904 -1.4347  0.6412
 9955TIP3   OH229807   7.400   1.648   1.172 -0.1381  0.2492 -0.1532
 9955TIP3    H129808   7.417   1.554   1.175 -1.4631 -0.0005  0.1159
 9955TIP3    H229809   7.410   1.671   1.079  0.9615  0.0079 -0.1005
 9956TIP3   OH229810   7.239   3.499   1.506  0.0616  0.4410 -0.0335
 9956TIP3    H129811   7.229   3.476   1.599 -0.6814  1.7588  0.2458
 9956TIP3    H229812   7.197   3.426   1.459 -0.9612  0.5074  0.7386
 9957TIP3   OH229813   5.681   3.881   6.348  0.1800  0.3536 -0.1259
 9957TIP3    H129814   5.652   3.941   6.416  0.4951  2.8836 -2.0606
 9957TIP3    H229815   5.773   3.903   6.334  1.0764 -2.4257  0.8368
 9958TIP3   OH229816   2.255   5.131   6.711  0.4081 -0.0507 -0.3536
 9958TIP3    H129817   2.190   5.088   6.656  1.1861  1.7056 -2.8325
 9958TIP3    H229818   2.282   5.208   6.661  1.3109  1.6308  2.4624
 9959TIP3   OH229819   4.372   7.264   3.491  0.5041 -0.2469 -0.4088
 9959TIP3    H129820   4.368   7.282   3.397 -0.1639  3.8963  0.2423
 9959TIP3    H229821   4.327   7.337   3.531  0.9866 -1.7557  3.2285
 9960TIP3   OH229822   6.100   4.853   3.407  0.0619  0.0038 -0.2283
 9960TIP3    H129823   6.144   4.925   3.451  0.5850  0.2938 -1.2019
 9960TIP3    H229824   6.021   4.837   3.459 -0.1743  1.4259 -0.1260
 9961TIP3   OH229825   4.299   5.829   6.495 -0.2779 -0.1263 -0.3265
 9961TIP3    H129826   4.231   5.765   6.475  0.1252 -0.2561 -1.3101
 9961TIP3    H229827   4.381   5.785   6.473  0.2915 -0.5815  2.3958
 9962TIP3   OH229828   5.538   1.662   1.667  0.0252  0.4122 -0.3306
 9962TIP3    H129829   5.542   1.621   1.580  1.5968  1.4699 -0.8032
 9962TIP3    H229830   5.512   1.753   1.649  0.6769  0.7219  0.2493
 9963TIP3   OH229831   5.444   1.992   1.949  0.5179 -0.1505  0.5033
 9963TIP3    H129832   5.492   1.926   1.899  0.8676 -0.4194  1.1852
 9963TIP3    H229833   5.436   1.955   2.037  0.1003  0.4098  0.7095
 9964TIP3   OH229834   5.797   6.333   1.691 -0.0505  0.3375  0.1888
 9964TIP3    H129835   5.774   6.306   1.780  1.1090  0.1341  0.4336
 9964TIP3    H229836   5.870   6.394   1.702  0.5584 -0.2153 -0.6515
 9965TIP3   OH229837   7.687   6.196   2.532  0.2197 -0.5143 -0.2483
 9965TIP3    H129838   7.618   6.139   2.498  1.4265 -1.8624 -0.5802
 9965TIP3    H229839   7.674   6.280   2.488 -1.8867 -0.3544  0.5846
 9966TIP3   OH229840   0.509   3.575   4.696 -0.4767 -0.2221  0.0169
 9966TIP3    H129841   0.451   3.638   4.652  0.0508 -0.9688 -1.8121
 9966TIP3    H229842   0.581   3.562   4.635  1.2147 -0.0121  1.8565
 9967TIP3   OH229843   3.141   3.328   2.643 -0.6795  0.1440 -0.3022
 9967TIP3    H129844   3.085   3.273   2.588 -1.3557  0.2895  0.2326
 9967TIP3    H229845   3.127   3.295   2.731 -0.4604  0.6519 -0.0770
 9968TIP3   OH229846   7.788   6.228   4.653 -0.5545 -0.7259  0.0248
 9968TIP3    H129847   7.758   6.287   4.722  0.1116 -0.2526 -0.0874
 9968TIP3    H229848   7.883   6.223   4.664 -0.5165 -1.1702 -0.4487
 9969TIP3   OH229849   0.495   4.072   4.372 -0.1949  0.2315  0.0895
 9969TIP3    H129850   0.416   4.116   4.401  0.1984  0.1321  1.3903
 9969TIP3    H229851   0.563   4.139   4.377 -0.3479  0.5778 -1.9340
 9970TIP3   OH229852   5.199   1.982   3.840 -0.2409 -0.4661 -0.0080
 9970TIP3    H129853   5.201   2.060   3.784 -0.0511 -0.6253 -0.2254
 9970TIP3    H229854   5.172   2.015   3.926  2.1322  0.2134  0.5404
 9971TIP3   OH229855   6.400   5.501   5.301 -0.6683 -0.4187 -0.2180
 9971TIP3    H129856   6.444   5.419   5.323  1.7241  0.3459 -1.6956
 9971TIP3    H229857   6.370   5.488   5.211 -0.8174  0.1099 -0.2475
 9972TIP3   OH229858   7.739   0.241   6.183 -0.2107  0.2485 -0.1559
 9972TIP3    H129859   7.668   0.176   6.180 -0.4095  0.3174  1.8169
 9972TIP3    H229860   7.746   0.272   6.093 -1.8963 -0.6131 -0.6378
 9973TIP3   OH229861   5.933   5.140   0.902 -0.1226  0.2445 -0.4062
 9973TIP3    H129862   6.021   5.150   0.866  0.0446  2.1348  0.4220
 9973TIP3    H229863   5.899   5.060   0.861  1.7273 -0.1676 -1.2183
 9974TIP3   OH229864   3.435   1.934   6.378 -0.4362 -0.2928  0.0182
 9974TIP3    H129865   3.372   1.879   6.332  1.1205 -0.7973 -1.6324
 9974TIP3    H229866   3.521   1.904   6.347  0.5804  1.2556  1.1523
 9975TIP3   OH229867   5.716   1.686   3.975 -0.6542  0.0750  0.0897
 9975TIP3    H129868   5.661   1.658   4.048  0.0173 -0.4393  0.4147
 9975TIP3    H229869   5.689   1.630   3.902 -0.7278 -0.0081  0.1804
 9976TIP3   OH229870   4.652   4.659   1.634  0.0069  0.1882  0.0437
 9976TIP3    H129871   4.639   4.727   1.568 -0.4173  0.4179  0.3571
 9976TIP3    H229872   4.664   4.706   1.716  1.6484 -0.0626 -0.0264
 9977TIP3   OH229873   6.189   3.244   5.946  0.0209 -0.0670 -0.2263
 9977TIP3    H129874   6.284   3.245   5.938  0.1130 -0.9665  0.5702
 9977TIP3    H229875   6.171   3.274   6.035 -0.2641 -2.3220  0.5637
 9978TIP3   OH229876   3.837   4.330   4.840  0.5679  0.4775  0.4077
 9978TIP3    H129877   3.859   4.352   4.750  0.1996 -0.1814  0.1465
 9978TIP3    H229878   3.921   4.310   4.882  0.7081  0.4512  0.1131
 9979TIP3   OH229879   4.032   3.236   4.799 -0.1411 -0.0836 -0.1050
 9979TIP3    H129880   3.976   3.289   4.741 -0.6537 -0.4082  0.0934
 9979TIP3    H229881   4.106   3.294   4.820 -1.2996  1.0103  1.1049
 9980TIP3   OH229882   6.506   4.481   5.744  0.4858  0.1923  0.3406
 9980TIP3    H129883   6.578   4.432   5.705 -0.3559 -0.3599 -0.5481
 9980TIP3    H229884   6.519   4.471   5.839  1.6033  0.1620  0.1950
 9981TIP3   OH229885   5.849   2.739   2.614 -0.3853 -0.3221  0.0829
 9981TIP3    H129886   5.935   2.697   2.610  0.4967  1.4280 -0.1963
 9981TIP3    H229887   5.789   2.667   2.635  0.9840 -1.7801 -0.7239
 9982TIP3   OH229888   5.813   3.572   6.381 -0.2075  0.2187  0.2650
 9982TIP3    H129889   5.800   3.628   6.305  0.4604 -0.3825 -0.3047
 9982TIP3    H229890   5.726   3.537   6.401 -0.2158 -0.4320 -0.8606
 9983TIP3   OH229891   6.938   3.151   2.301 -0.0374  0.4304  0.2450
 9983TIP3    H129892   6.934   3.166   2.206 -0.7984  2.3876  0.5511
 9983TIP3    H229893   7.010   3.206   2.331 -0.6537  0.8450  0.9739
 9984TIP3   OH229894   7.690   3.401   2.273 -0.3857 -0.4582  0.1613
 9984TIP3    H129895   7.627   3.425   2.206 -0.5198  1.1721  0.8166
 9984TIP3    H229896   7.771   3.444   2.246 -0.6376  0.8783  1.3859
 9985TIP3   OH229897   4.499   5.755   2.443 -0.3277 -0.1145  0.0986
 9985TIP3    H129898   4.465   5.667   2.429  0.0048 -0.0419 -1.2456
 9985TIP3    H229899   4.592   5.749   2.422  0.1245  0.1457  1.8288
 9986TIP3   OH229900   4.979   5.469   0.607 -0.7419  0.3591  0.5357
 9986TIP3    H129901   4.910   5.461   0.540 -0.9119  0.6252  0.6755
 9986TIP3    H229902   4.943   5.532   0.670 -0.8023 -0.2955  1.1590
 9987TIP3   OH229903   0.776   3.864   4.845 -0.1453 -0.2746 -0.3500
 9987TIP3    H129904   0.801   3.935   4.785 -0.6813 -0.0908 -0.3669
 9987TIP3    H229905   0.859   3.826   4.874  0.2375  1.3866  0.9107
 9988TIP3   OH229906   4.811   6.226   2.107 -0.2747 -0.1978  0.1610
 9988TIP3    H129907   4.788   6.284   2.180  0.2694  0.5014 -0.2104
 9988TIP3    H229908   4.895   6.259   2.075 -0.9156  0.0780 -1.3426
 9989TIP3   OH229909   4.673   1.479   2.126 -0.0280 -0.1694  0.2407
 9989TIP3    H129910   4.581   1.483   2.099 -0.3695  1.3770  1.4263
 9989TIP3    H229911   4.718   1.536   2.064 -0.0947  0.0538  0.3940
 9990TIP3   OH229912   0.900   0.105   5.396 -0.0695 -0.4145 -0.0053
 9990TIP3    H129913   0.883   0.171   5.463 -2.5141  1.6799 -2.4703
 9990TIP3    H229914   0.871   0.022   5.436 -1.6176  0.7738  1.4936
 9991TIP3   OH229915   5.114   6.917   5.080  0.5476 -0.3385 -0.6745
 9991TIP3    H129916   5.208   6.931   5.091  0.7619 -0.0443 -2.5823
 9991TIP3    H229917   5.081   6.906   5.169  2.7155 -2.6815 -0.0468
 9992TIP3   OH229918   2.013   3.642   2.357  0.5565 -0.0355  0.0639
 9992TIP3    H129919   1.934   3.696   2.355 -0.3598 -1.3113  0.0061
 9992TIP3    H229920   2.016   3.609   2.447  0.5522 -0.6368 -0.1510
 9993TIP3   OH229921   5.117   2.761   5.450 -0.3600 -0.2383 -0.2462
 9993TIP3    H129922   5.053   2.831   5.442 -0.0538  0.3347  1.7053
 9993TIP3    H229923   5.067   2.687   5.486 -0.0810 -0.0249  0.5876
 9994TIP3   OH229924   6.474   1.170   3.445  0.2927 -0.4008  0.1074
 9994TIP3    H129925   6.418   1.145   3.519 -1.6067  0.6407 -0.8921
 9994TIP3    H229926   6.491   1.264   3.457  0.6349 -0.3958 -0.3539
 9995TIP3   OH229927   3.335   2.732   0.208 -0.2997  0.1244  0.2505
 9995TIP3    H129928   3.358   2.823   0.223 -2.0265  0.7069 -0.3102
 9995TIP3    H229929   3.366   2.685   0.285  1.5371  0.9787  0.0779
 9996TIP3   OH229930   5.367   1.307   3.345 -0.1755 -0.3833  0.4135
 9996TIP3    H129931   5.318   1.269   3.272 -0.8547  0.6981  0.2823
 9996TIP3    H229932   5.455   1.272   3.335 -0.4141 -0.7419 -0.5633
 9997TIP3   OH229933   6.909   2.864   5.931  0.4375  0.1905 -0.2409
 9997TIP3    H129934   6.913   2.954   5.966  0.7272  0.1922 -0.2791
 9997TIP3    H229935   6.894   2.876   5.838  1.4207  0.2204 -0.4039
 9998TIP3   OH229936   5.559   3.012   0.163  0.2402  0.5351 -0.1678
 9998TIP3    H129937   5.478   3.010   0.112 -0.4136  2.0499  0.7347
 9998TIP3    H229938   5.537   2.970   0.246  0.3347  1.0471  0.1233
 9999TIP3   OH229939   6.375   2.869   2.367  0.3631  0.0946  0.3197
 9999TIP3    H129940   6.447   2.867   2.430  0.5486  0.2181  0.1120
 9999TIP3    H229941   6.343   2.959   2.371  0.3846  0.1062  0.2273
10000TIP3   OH229942   7.123   4.730   2.360 -0.2582 -0.1506  0.3253
10000TIP3    H129943   7.060   4.799   2.383 -1.1846 -0.1399 -1.9527
10000TIP3    H229944   7.207   4.776   2.352 -0.5837  0.4372  0.2645
10001TIP3   OH229945   6.426   5.645   2.869 -0.0095  0.0240  0.3737
10001TIP3    H129946   6.478   5.723   2.851  0.6398 -0.6109 -0.5866
10001TIP3    H229947   6.344   5.659   2.823 -0.3922  0.6760  1.2297
10002TIP3   OH229948   1.976   3.063   1.073  0.0708 -0.5314 -0.3839
10002TIP3    H129949   1.976   3.026   1.161  1.7749  0.6453  0.1638
10002TIP3    H229950   1.961   3.157   1.086  0.7996 -0.2656 -1.2900
10003TIP3   OH229951   1.445   2.282   3.505  0.2888  0.2483  0.0818
10003TIP3    H129952   1.460   2.227   3.582  3.0623  1.3988  0.4961
10003TIP3    H229953   1.432   2.219   3.434  1.0041 -0.9281  0.9467
10004TIP3   OH229954   7.650   3.194   5.220  0.5312  0.1319 -0.1069
10004TIP3    H129955   7.694   3.141   5.154  0.3142 -0.7971  0.4782
10004TIP3    H229956   7.557   3.177   5.207  0.3339  1.7217 -1.0312
10005TIP3   OH229957   7.974   0.535   1.775 -0.0231 -0.0030  0.0057
10005TIP3    H129958   7.933   0.544   1.861 -1.8814 -0.9386 -0.7341
10005TIP3    H229959   7.979   0.625   1.742 -1.8070  0.1332  0.0083
10006TIP3   OH229960   2.928   7.291   1.925  0.7402  0.5311 -0.0482
10006TIP3    H129961   2.994   7.244   1.976 -1.0012 -1.7472  0.2296
10006TIP3    H229962   2.866   7.324   1.990 -0.4847 -0.7858 -0.4808
10007TIP3   OH229963   2.426   4.890   6.635 -0.3981 -0.0397 -0.2745
10007TIP3    H129964   2.350   4.938   6.601 -0.3832 -0.0112 -0.2674
10007TIP3    H229965   2.388   4.820   6.689 -0.4303 -0.2738 -0.6002
10008TIP3   OH229966   0.356   3.940   3.297 -0.0513 -0.2682  0.2315
10008TIP3    H129967   0.324   3.907   3.381 -0.3978 -0.1919  0.1336
10008TIP3    H229968   0.309   4.023   3.284  1.3605  0.6467  0.8239
10009TIP3   OH229969   1.728   4.520   3.545 -0.6241  0.2343  0.6099
10009TIP3    H129970   1.743   4.439   3.495 -2.9761 -0.0184  0.2138
10009TIP3    H229971   1.782   4.585   3.500 -1.0100 -0.4757 -0.9721
10010TIP3   OH229972   7.882   4.267   0.353 -0.0798  0.3714  0.2330
10010TIP3    H129973   7.852   4.337   0.410  0.3470  0.6410  0.1318
10010TIP3    H229974   7.850   4.187   0.394  0.4813  0.5409  1.0199
10011TIP3   OH229975   1.493   1.555   0.572  0.5025  0.2672 -0.8897
10011TIP3    H129976   1.448   1.483   0.615 -0.3806  0.6960 -1.0854
10011TIP3    H229977   1.516   1.522   0.486  0.8895 -0.0697 -0.6609
10012TIP3   OH229978   8.293   1.145   3.476 -0.3511  0.3652 -0.5868
10012TIP3    H129979   8.209   1.171   3.437 -1.1296 -2.2307 -0.8361
10012TIP3    H229980   8.333   1.228   3.504 -2.6007  1.7632 -1.2177
10013TIP3   OH229981   0.579   2.335   4.828  0.3726  0.4431  0.1290
10013TIP3    H129982   0.521   2.337   4.752 -0.5526  0.3894  0.8228
10013TIP3    H229983   0.594   2.242   4.845  0.3730  0.4494  0.1632
10014TIP3   OH229984   4.451   5.653   1.829  0.4011  0.2927  0.2702
10014TIP3    H129985   4.466   5.695   1.745  0.1895 -1.9680 -0.9840
10014TIP3    H229986   4.531   5.604   1.847 -0.5174 -1.3693  0.0194
10015TIP3   OH229987   4.910   6.576   1.027  0.4887 -0.6824 -0.7320
10015TIP3    H129988   4.879   6.641   0.964  1.8322  0.0854 -0.6351
10015TIP3    H229989   4.832   6.552   1.078  0.1538  1.5930 -0.1002
10016TIP3   OH229990   0.257   4.572   1.672 -0.5560 -0.1676 -0.1080
10016TIP3    H129991   0.258   4.492   1.725 -3.4628 -0.8321 -0.8538
10016TIP3    H229992   0.292   4.546   1.587  1.6923  0.2681  0.6243
10017TIP3   OH229993   6.781   3.402   5.114 -0.6052  0.2856  0.6965
10017TIP3    H129994   6.780   3.455   5.193 -0.4465 -0.9361  1.5518
10017TIP3    H229995   6.827   3.322   5.139  0.8967  0.5210 -1.0694
10018TIP3   OH229996   1.055   1.634   0.318 -0.1308 -0.4114 -0.3117
10018TIP3    H129997   1.101   1.637   0.401 -1.8543  2.3630  0.7026
10018TIP3    H229998   0.983   1.573   0.332 -2.3369  2.3501  1.5293
10019TIP3   OH229999   8.245   2.125   0.204  0.1916 -0.1877  0.2318
10019TIP3    H130000   8.231   2.216   0.180  1.6977  0.4023  1.4594
10019TIP3    H230001   8.262   2.080   0.121 -1.3204  0.4728 -0.4599
10020TIP3   OH230002   4.520   3.332   6.268  0.3446  0.2259 -0.5552
10020TIP3    H130003   4.615   3.344   6.260  1.0631 -3.3274  0.6066
10020TIP3    H230004   4.495   3.388   6.341  2.2344 -1.0442  1.1800
10021TIP3   OH230005   7.613   2.118   2.347  0.2685 -0.0994 -0.1653
10021TIP3    H130006   7.612   2.102   2.252  0.0004 -1.2245  0.0100
10021TIP3    H230007   7.636   2.210   2.355  0.7634 -0.0978 -1.3158
10022TIP3   OH230008   4.293   1.674   3.967 -0.1270  0.3814  0.2829
10022TIP3    H130009   4.357   1.736   4.001  0.4014 -0.3018  0.5500
10022TIP3    H230010   4.336   1.632   3.892  0.0527 -0.6443  0.9394
10023TIP3   OH230011   0.860   3.767   5.489  0.1563 -0.0484  0.0918
10023TIP3    H130012   0.931   3.708   5.514 -0.7491  0.1513  3.6874
10023TIP3    H230013   0.786   3.739   5.542 -1.3092  2.1874 -0.6395
10024TIP3   OH230014   3.090   5.995   4.303 -0.0366  0.8430 -0.3317
10024TIP3    H130015   3.135   5.994   4.219  1.3190  1.8082  0.3486
10024TIP3    H230016   3.128   5.921   4.351 -1.6002 -0.3994 -0.9225
10025TIP3   OH230017   1.949   2.732   3.704 -0.2487  0.1302 -0.6834
10025TIP3    H130018   1.867   2.703   3.744 -0.7853 -0.2827 -2.0248
10025TIP3    H230019   2.013   2.727   3.775 -1.3041  0.1023  0.2909
10026TIP3   OH230020   3.315   5.332   3.274 -0.5244 -0.1482 -0.5714
10026TIP3    H130021   3.397   5.355   3.229  0.9158 -2.3415  0.7648
10026TIP3    H230022   3.342   5.307   3.362 -2.5601 -1.5736 -0.2931
10027TIP3   OH230023   4.416   3.259   0.707 -0.0595  0.6549  0.0808
10027TIP3    H130024   4.320   3.259   0.709 -0.0610 -0.1961  0.3733
10027TIP3    H230025   4.440   3.167   0.698  0.7333  0.8587  0.0433
10028TIP3   OH230026   8.243   2.855   5.726 -0.5231  0.9425  0.1294
10028TIP3    H130027   8.289   2.788   5.776 -3.4841 -1.0129  0.4503
10028TIP3    H230028   8.287   2.856   5.641  0.0798 -0.8937  0.3807
10029TIP3   OH230029   5.757   5.765   2.113 -0.1360 -0.6054 -0.2679
10029TIP3    H130030   5.842   5.810   2.113 -1.1457  1.4832 -1.4431
10029TIP3    H230031   5.723   5.781   2.025 -2.6270  0.4076  0.8105
10030TIP3   OH230032   4.607   4.487   2.401  0.6131 -0.0194  0.5493
10030TIP3    H130033   4.676   4.426   2.376  0.8818  0.0517  1.1150
10030TIP3    H230034   4.527   4.450   2.362  1.0549  0.2003 -0.5832
10031TIP3   OH230035   7.919   7.315   5.114 -0.0806  0.7470  0.3816
10031TIP3    H130036   7.825   7.300   5.127 -0.1510 -0.6448 -1.3292
10031TIP3    H230037   7.945   7.369   5.188 -1.9979  0.2131  1.5262
10032TIP3   OH230038   5.470   4.693   1.999 -0.2442 -0.6100  0.4017
10032TIP3    H130039   5.564   4.713   1.991 -0.5019  0.2728 -0.7204
10032TIP3    H230040   5.428   4.779   2.004 -1.0655 -0.9817 -0.0600
10033TIP3   OH230041   4.207   5.422   0.964 -0.1556  0.0863 -0.8228
10033TIP3    H130042   4.283   5.369   0.943  0.2247  0.1387  0.3607
10033TIP3    H230043   4.137   5.358   0.980 -0.7173  0.0576 -3.0488
10034TIP3   OH230044   4.635   5.157   5.564 -0.0841  0.0452 -0.4829
10034TIP3    H130045   4.715   5.151   5.615  0.2758  0.9128 -0.9094
10034TIP3    H230046   4.660   5.130   5.476 -0.1147  0.8239 -0.7442
10035TIP3   OH230047   7.812   2.169   1.246  0.0323 -0.1565  0.0394
10035TIP3    H130048   7.837   2.129   1.329 -0.2795 -0.1840  0.1215
10035TIP3    H230049   7.874   2.132   1.182 -0.6218 -1.2601  0.0038
10036TIP3   OH230050   4.537   3.881   1.984 -0.1566 -0.3062 -0.3472
10036TIP3    H130051   4.449   3.849   1.962 -0.6948  0.3225  0.7994
10036TIP3    H230052   4.523   3.972   2.011  1.1630  0.5338 -2.2664
10037TIP3   OH230053   3.406   4.562   5.035 -0.2950  0.3330 -0.8289
10037TIP3    H130054   3.361   4.540   4.954 -2.5707  1.1391  0.1437
10037TIP3    H230055   3.479   4.500   5.040 -1.4792 -1.2687 -2.3193
10038TIP3   OH230056   2.923   7.814   1.502  0.8211  0.0415 -0.0397
10038TIP3    H130057   2.927   7.735   1.556 -0.8502  0.4475  0.7203
10038TIP3    H230058   2.858   7.793   1.434 -0.1596  0.9983  0.5857
10039TIP3   OH230059   1.624   3.675   3.100  0.2960  0.0593 -0.3934
10039TIP3    H130060   1.643   3.718   3.016 -0.6458 -1.9206 -1.6780
10039TIP3    H230061   1.614   3.748   3.161  1.6221  1.5510 -1.8342
10040TIP3   OH230062   1.819   3.548   6.454 -0.4486  0.0393  0.3850
10040TIP3    H130063   1.808   3.458   6.486  2.1508 -0.5072 -0.0318
10040TIP3    H230064   1.886   3.541   6.386 -0.3782  2.2698  0.1549
10041TIP3   OH230065   1.509   0.720   1.298  0.4679  0.3534 -0.4520
10041TIP3    H130066   1.569   0.758   1.234  2.1022 -2.1595 -0.5465
10041TIP3    H230067   1.447   0.669   1.245 -0.3304  1.0106 -0.1867
10042TIP3   OH230068   4.692   4.766   4.620  0.3387  0.6716  0.5076
10042TIP3    H130069   4.759   4.712   4.578 -1.9810 -1.8015 -0.2867
10042TIP3    H230070   4.738   4.811   4.690  2.9266 -0.4827 -0.3333
10043TIP3   OH230071   2.315   4.622   4.920  0.2809  0.1953 -0.1704
10043TIP3    H130072   2.257   4.693   4.948 -0.8509 -1.0116  0.6701
10043TIP3    H230073   2.301   4.552   4.984  1.0420 -0.9471 -1.2016
10044TIP3   OH230074   3.648   0.762   5.048  0.2515  0.1210  0.1319
10044TIP3    H130075   3.710   0.834   5.042 -0.0607  0.5244  1.4270
10044TIP3    H230076   3.580   0.784   4.985  0.8617  0.2361 -0.4961
10045TIP3   OH230077   1.836   5.694   6.024  0.5264 -0.1653  0.0370
10045TIP3    H130078   1.892   5.663   6.095 -1.2643 -1.8921  0.7797
10045TIP3    H230079   1.792   5.615   5.992 -1.3363  1.0745 -0.6200
10046TIP3   OH230080   3.313   5.059   4.738  0.1960  0.6575 -0.4399
10046TIP3    H130081   3.267   5.142   4.751 -0.0705  0.4187  0.1963
10046TIP3    H230082   3.400   5.075   4.775 -0.7512 -0.2101  2.4304
10047TIP3   OH230083   4.747   6.831   6.761 -0.2157  0.0415 -0.1778
10047TIP3    H130084   4.763   6.788   6.677 -0.7480 -0.6289  0.0536
10047TIP3    H230085   4.653   6.844   6.763 -0.3751 -1.0924  0.8444
10048TIP3   OH230086   2.754   6.571   0.094  0.4054 -0.6432 -0.1004
10048TIP3    H130087   2.705   6.576   0.176 -2.6372 -0.2760 -1.8048
10048TIP3    H230088   2.797   6.486   0.098 -1.5839 -1.6738  0.9160
10049TIP3   OH230089   7.533   6.101   3.112  0.1094 -0.5339 -0.4518
10049TIP3    H130090   7.467   6.038   3.142 -1.2944  1.5847  1.2662
10049TIP3    H230091   7.567   6.139   3.193  1.2859  0.5349 -1.4152
10050TIP3   OH230092   5.600   2.188   0.585 -0.7813 -0.2812  0.0296
10050TIP3    H130093   5.614   2.098   0.615 -0.5315 -0.4708 -0.6236
10050TIP3    H230094   5.658   2.241   0.639  0.0128 -0.6703 -0.4104
10051TIP3   OH230095   3.262   1.377   6.405  0.4077 -0.2723  0.5829
10051TIP3    H130096   3.260   1.327   6.323  3.3068 -0.6743  0.6768
10051TIP3    H230097   3.286   1.465   6.379 -1.4066  0.3363  0.7872
10052TIP3   OH230098   3.010   7.417   6.355 -0.4964 -0.1927  0.4497
10052TIP3    H130099   3.027   7.428   6.449 -0.7413  2.2170  0.2785
10052TIP3    H230100   3.026   7.504   6.318 -1.2451 -0.8885 -1.6179
10053TIP3   OH230101   0.643   6.350   3.026  0.5855  0.4092  0.3244
10053TIP3    H130102   0.694   6.270   3.016  2.6106  1.7771 -1.4302
10053TIP3    H230103   0.600   6.362   2.941 -0.7272  0.5745  0.9786
10054TIP3   OH230104   5.660   5.588   4.479  0.8457  0.7080  0.2178
10054TIP3    H130105   5.584   5.637   4.446  0.4578  1.0138  1.5208
10054TIP3    H230106   5.689   5.536   4.404 -2.0035 -1.1358  0.2357
10055TIP3   OH230107   4.322   5.721   5.602 -0.2684 -0.0393 -0.0078
10055TIP3    H130108   4.324   5.642   5.657 -0.4554  0.6419  1.0036
10055TIP3    H230109   4.414   5.743   5.589 -0.2100 -0.5712 -0.5123
10056TIP3   OH230110   5.314   7.406   3.331  0.3339  0.9038  0.0031
10056TIP3    H130111   5.365   7.484   3.310 -0.3708  0.9318 -1.8271
10056TIP3    H230112   5.279   7.377   3.247 -1.0445 -0.2548  0.9226
10057TIP3   OH230113   0.195   0.071   4.453  0.1185 -0.1658 -0.2096
10057TIP3    H130114   0.178  -0.018   4.424 -0.3910 -0.9238  2.1921
10057TIP3    H230115   0.266   0.102   4.397 -0.1113 -1.8518 -1.4808
10058TIP3   OH230116   3.952   0.323   0.312 -0.2814  0.1938 -0.2432
10058TIP3    H130117   3.959   0.273   0.231  0.4514 -0.4553  0.2124
10058TIP3    H230118   3.946   0.257   0.381  1.2339  0.6996  0.4149
10059TIP3   OH230119   8.158   1.811   3.389 -0.5104 -0.1364 -0.1733
10059TIP3    H130120   8.105   1.815   3.309  1.7848 -0.9161 -1.8239
10059TIP3    H230121   8.145   1.896   3.430 -1.6968  0.3187 -1.4005
10060TIP3   OH230122   3.039   3.226   0.181  0.4312  0.1202  0.4680
10060TIP3    H130123   3.040   3.300   0.120 -0.4984 -1.8492 -2.0782
10060TIP3    H230124   3.103   3.250   0.248 -1.5056  4.2949  1.1665
10061TIP3   OH230125   2.110   6.983   0.978 -0.0485 -0.2534 -0.7513
10061TIP3    H130126   2.034   7.010   1.029 -0.0091  0.5077 -1.0903
10061TIP3    H230127   2.077   6.914   0.920 -0.7951  0.9904 -1.8377
10062TIP3   OH230128   2.729   3.691   3.394 -0.2611  0.1373 -0.1906
10062TIP3    H130129   2.770   3.635   3.328  2.2747  2.3445 -0.6842
10062TIP3    H230130   2.708   3.632   3.466  2.9451 -1.4294 -0.3482
10063TIP3   OH230131   7.923   5.391   6.548  0.3993 -0.0770 -0.4438
10063TIP3    H130132   7.852   5.327   6.537 -1.0556  1.0051  1.8603
10063TIP3    H230133   7.906   5.456   6.480 -1.5199  0.6914  0.6916
10064TIP3   OH230134   2.193   1.526   6.210 -0.2481  0.5501  0.4787
10064TIP3    H130135   2.171   1.454   6.151 -1.8935  1.3956  0.0124
10064TIP3    H230136   2.193   1.604   6.155 -0.4235  1.1715  1.3439
10065TIP3   OH230137   5.958   5.417   5.506  0.8663  0.4828  0.6848
10065TIP3    H130138   5.952   5.500   5.458  1.9567 -0.1114 -0.5319
10065TIP3    H230139   6.047   5.386   5.488 -0.7705 -3.0498 -2.4124
10066TIP3   OH230140   5.446   2.414   0.183 -0.0121 -0.0755 -0.1904
10066TIP3    H130141   5.470   2.334   0.135 -0.5567 -0.1684 -0.3066
10066TIP3    H230142   5.516   2.475   0.161  0.8869 -0.7863  0.6019
10067TIP3   OH230143   7.850   4.363   4.195  0.8385  0.1939  0.3901
10067TIP3    H130144   7.894   4.338   4.114  0.0753  0.2247 -0.0392
10067TIP3    H230145   7.883   4.302   4.261  0.6889 -0.4819 -0.1603
10068TIP3   OH230146   2.263   2.830   1.960  0.1458 -0.6319 -0.2736
10068TIP3    H130147   2.170   2.814   1.947 -0.3140  0.8770  0.8706
10068TIP3    H230148   2.306   2.765   1.904 -1.5743 -0.3975 -2.0022
10069TIP3   OH230149   0.742   6.640   2.910  0.3177 -0.3856 -0.2485
10069TIP3    H130150   0.694   6.557   2.916  0.4659 -0.7942 -3.2078
10069TIP3    H230151   0.685   6.704   2.953 -0.7971 -1.6471  0.2195
10070TIP3   OH230152   5.764   3.548   3.160 -0.5792  0.2028 -0.3846
10070TIP3    H130153   5.809   3.556   3.076 -0.9634 -1.5172 -0.8039
10070TIP3    H230154   5.681   3.504   3.139 -0.6933 -0.2349  0.8886
10071TIP3   OH230155   2.987   2.197   3.356 -0.1372 -0.2375  0.0208
10071TIP3    H130156   2.894   2.219   3.368 -0.1300  0.4070 -0.9625
10071TIP3    H230157   3.029   2.230   3.435 -0.7317 -0.4623  0.4436
10072TIP3   OH230158   8.221   0.899   1.630 -0.2253 -0.8594  0.8267
10072TIP3    H130159   8.229   0.937   1.718  0.2817 -3.5825  2.0530
10072TIP3    H230160   8.280   0.823   1.631 -0.8785 -1.4758 -1.5904
10073TIP3   OH230161   7.121   2.677   0.693 -0.6855  0.3751 -0.4726
10073TIP3    H130162   7.144   2.733   0.618 -1.2064 -0.7877 -1.5417
10073TIP3    H230163   7.050   2.723   0.736  1.3786  2.4371  0.9961
10074TIP3   OH230164   3.432   4.672   1.506  0.4948 -0.4917 -0.3028
10074TIP3    H130165   3.367   4.619   1.459 -0.0778 -0.9711  0.9968
10074TIP3    H230166   3.516   4.645   1.468  0.1411 -1.6778 -0.2962
10075TIP3   OH230167   2.894   1.623   4.577  0.9253  0.5361  0.4062
10075TIP3    H130168   2.971   1.579   4.542  1.1729  0.1310  1.4262
10075TIP3    H230169   2.861   1.564   4.645  0.6107  1.4033  1.0302
10076TIP3   OH230170   1.168   5.310   4.924 -0.4650 -0.2594 -0.4038
10076TIP3    H130171   1.199   5.363   4.998  0.8276  0.9623 -1.7351
10076TIP3    H230172   1.086   5.271   4.955 -0.4812  0.9896  1.3162
10077TIP3   OH230173   0.155   5.111   0.907  0.6493  0.0257 -0.2258
10077TIP3    H130174   0.193   5.079   0.825 -0.3969  2.9149 -2.0090
10077TIP3    H230175   0.144   5.205   0.893 -1.0426  0.3765  2.6718
10078TIP3   OH230176   7.013   7.622   3.657  0.3180 -0.0780  0.3779
10078TIP3    H130177   7.013   7.536   3.617 -0.3249 -0.4882  1.2254
10078TIP3    H230178   7.105   7.640   3.677  0.6955  0.2689 -1.4912
10079TIP3   OH230179   2.624   2.478   2.686  0.0835 -0.2283 -0.2028
10079TIP3    H130180   2.583   2.402   2.725  0.5027 -0.2812  0.1412
10079TIP3    H230181   2.676   2.442   2.614  1.9548 -0.5470  1.2326
10080TIP3   OH230182   7.666   1.758   6.687  0.1467 -0.0044  0.1013
10080TIP3    H130183   7.720   1.679   6.695 -0.5984 -0.5552 -0.1457
10080TIP3    H230184   7.611   1.741   6.610  0.5530  1.1157 -0.4437
10081TIP3   OH230185   8.310   3.952   0.589 -0.1986  0.0256 -0.1054
10081TIP3    H130186   8.337   4.035   0.549 -1.2573  0.5725  0.2856
10081TIP3    H230187   8.224   3.970   0.626  0.1446 -0.8752  1.1722
10082TIP3   OH230188   1.518   6.913   4.069  0.2611 -1.1291  0.1402
10082TIP3    H130189   1.510   6.821   4.045  0.4062 -1.7269  2.1912
10082TIP3    H230190   1.552   6.912   4.158  1.6680  0.9491 -0.2912
10083TIP3   OH230191   5.890   1.592   3.694  0.1928 -0.0164  0.0423
10083TIP3    H130192   5.798   1.566   3.691  0.7667 -2.1636 -1.9194
10083TIP3    H230193   5.924   1.547   3.772 -0.3195  0.4606  0.5489
10084TIP3   OH230194   1.466   3.811   4.233 -0.3390  0.2349  0.1281
10084TIP3    H130195   1.552   3.816   4.192 -0.0117  0.7687  0.8519
10084TIP3    H230196   1.421   3.890   4.203 -1.3376 -1.0031 -1.8485
10085TIP3   OH230197   1.226   1.929   2.418 -0.1054 -0.5140  0.0572
10085TIP3    H130198   1.300   1.975   2.379  1.0126 -0.5574  1.9916
10085TIP3    H230199   1.224   1.845   2.373  2.9451 -1.7190  1.8741
10086TIP3   OH230200   7.376   2.897   1.504 -0.5657 -0.0107 -0.2292
10086TIP3    H130201   7.337   2.980   1.476 -1.2369  0.9119  3.0832
10086TIP3    H230202   7.428   2.919   1.581  2.2194 -2.1595 -1.2927
10087TIP3   OH230203   0.097   7.470   3.332 -0.1629 -0.0418  0.8362
10087TIP3    H130204   0.167   7.464   3.267 -0.2339  0.8752  0.6611
10087TIP3    H230205   0.038   7.397   3.311 -0.9036  1.0184 -1.0041
10088TIP3   OH230206   5.845   6.667   2.138  0.3748  0.2541 -0.0868
10088TIP3    H130207   5.931   6.629   2.149  0.4855  0.7385  0.7702
10088TIP3    H230208   5.821   6.701   2.224 -0.2617  0.9679 -0.5207
10089TIP3   OH230209   7.844   3.746   4.890  0.4969  0.0316 -0.2864
10089TIP3    H130210   7.812   3.806   4.958 -0.7104 -2.3547  1.3854
10089TIP3    H230211   7.765   3.710   4.851  1.1773 -1.0004 -0.7533
10090TIP3   OH230212   3.257   4.727   2.590  0.2495 -0.1579 -0.5884
10090TIP3    H130213   3.220   4.640   2.574  0.7893 -0.9721  2.0857
10090TIP3    H230214   3.211   4.784   2.527 -0.4878 -2.2379 -2.0685
10091TIP3   OH230215   6.936   7.687   2.192  0.2291 -0.1769 -0.2813
10091TIP3    H130216   6.872   7.730   2.249  0.8155  0.6259 -0.2113
10091TIP3    H230217   6.934   7.595   2.218 -0.1314  0.0303  0.4426
10092TIP3   OH230218   2.398   2.811   5.856 -0.2643  0.3163  0.1266
10092TIP3    H130219   2.368   2.727   5.820  2.0938 -1.4064  1.8213
10092TIP3    H230220   2.321   2.848   5.899 -1.2844 -1.1375 -0.3643
10093TIP3   OH230221   7.446   6.533   5.034  0.1284  0.7601  0.3103
10093TIP3    H130222   7.364   6.491   5.059  0.1829  0.6697  0.3379
10093TIP3    H230223   7.420   6.604   4.975  0.0321  0.7225  0.3086
10094TIP3   OH230224   2.060   4.137   0.764  0.0634 -0.9543 -0.6698
10094TIP3    H130225   2.078   4.221   0.722  0.3776 -0.3870  0.5766
10094TIP3    H230226   1.966   4.125   0.754 -0.0975 -0.1069 -0.2239
10095TIP3   OH230227   3.551   6.776   3.548 -0.2455  0.5315 -0.7364
10095TIP3    H130228   3.542   6.761   3.454  1.8137  3.1119 -1.4595
10095TIP3    H230229   3.644   6.767   3.566 -0.8060 -2.1135  1.6078
10096TIP3   OH230230   3.182   0.103   2.393 -0.0409  0.3440 -0.5604
10096TIP3    H130231   3.191   0.164   2.466 -1.9135 -0.3374  0.3028
10096TIP3    H230232   3.262   0.114   2.342  0.0974  2.8094  0.0777
10097TIP3   OH230233   5.590   7.475   4.400 -0.1905  0.3424  0.3644
10097TIP3    H130234   5.498   7.476   4.375 -0.0684 -0.6919 -0.1713
10097TIP3    H230235   5.634   7.430   4.329  0.5468 -0.2919  1.1921
10098TIP3   OH230236   5.474   0.333   0.094 -0.1251  0.0744 -0.0725
10098TIP3    H130237   5.515   0.329   0.180 -0.7200 -0.7336  0.1883
10098TIP3    H230238   5.454   0.242   0.072 -1.6978  0.4223 -0.2092
10099TIP3   OH230239   8.098   2.231   4.001 -0.7026 -0.1204  0.1331
10099TIP3    H130240   8.043   2.269   3.933 -0.4051  0.3396  0.1511
10099TIP3    H230241   8.162   2.178   3.953 -0.6620 -0.0143  0.0703
10100TIP3   OH230242   1.040   3.728   4.931  0.0555 -0.1847 -0.2043
10100TIP3    H130243   1.090   3.651   4.901 -0.8035 -0.9715  0.3327
10100TIP3    H230244   1.084   3.755   5.011 -1.1424 -1.7401  1.0542
10101TIP3   OH230245   2.400   1.877   2.687  0.4820 -0.4747 -0.1585
10101TIP3    H130246   2.443   1.963   2.682 -0.5404 -0.0161 -2.0398
10101TIP3    H230247   2.329   1.890   2.750  1.0106 -0.2754  0.4076
10102TIP3   OH230248   7.728   0.830   3.860  0.4358  0.3827 -0.6846
10102TIP3    H130249   7.789   0.760   3.842 -1.9721 -1.5092 -2.0962
10102TIP3    H230250   7.677   0.840   3.779 -1.5675  1.3398  0.5944
10103TIP3   OH230251   7.545   2.078   3.471 -0.2460 -0.1004 -0.5241
10103TIP3    H130252   7.606   2.079   3.545  0.2650 -0.3506 -0.9317
10103TIP3    H230253   7.494   2.158   3.481 -1.4261 -1.0033  1.1045
10104TIP3   OH230254   6.932   3.602   4.883 -0.3250 -0.2630 -0.5447
10104TIP3    H130255   6.945   3.508   4.867  0.5645 -0.1873 -0.3626
10104TIP3    H230256   6.838   3.615   4.880 -0.5489 -1.3932  0.6203
10105TIP3   OH230257   4.246   2.416   3.188 -0.1209 -0.3818 -0.3634
10105TIP3    H130258   4.158   2.385   3.167 -0.2006 -0.3905 -0.0173
10105TIP3    H230259   4.259   2.492   3.130 -1.0979  0.8099  0.8984
10106TIP3   OH230260   2.430   6.896   4.635 -0.4021  0.5634  0.7174
10106TIP3    H130261   2.365   6.828   4.652  0.7870 -0.4351  1.4310
10106TIP3    H230262   2.449   6.888   4.542  0.1261 -0.4814  0.8976
10107TIP3   OH230263   5.438   5.153   4.652  0.3169  0.1769  0.1374
10107TIP3    H130264   5.363   5.164   4.711  0.6357  1.9313  0.2613
10107TIP3    H230265   5.506   5.209   4.689  1.2785 -0.4017 -0.6906
10108TIP3   OH230266   0.918   3.781   6.279 -0.0627 -0.2682 -0.2265
10108TIP3    H130267   0.846   3.724   6.250 -1.2536  1.5073 -0.9190
10108TIP3    H230268   0.902   3.792   6.373 -1.0134  0.4849 -0.4568
10109TIP3   OH230269   1.291   3.854   0.096 -0.3758 -0.1502  0.2249
10109TIP3    H130270   1.300   3.933   0.150 -0.4165 -0.4605  0.6952
10109TIP3    H230271   1.205   3.819   0.119 -2.0629  1.6483 -2.7031
10110TIP3   OH230272   3.420   5.588   0.120 -0.5367  0.5629  0.0323
10110TIP3    H130273   3.379   5.542   0.046 -0.1380 -0.4981  0.4429
10110TIP3    H230274   3.360   5.573   0.193 -0.9960  1.7221 -0.0921
10111TIP3   OH230275   5.369   3.833   4.902 -0.1701 -0.2732 -0.0917
10111TIP3    H130276   5.310   3.807   4.831 -1.1199 -0.2348  0.6615
10111TIP3    H230277   5.353   3.927   4.912  1.8840  0.3112 -1.5572
10112TIP3   OH230278   3.415   1.566   2.415 -0.2906 -0.4050  0.1734
10112TIP3    H130279   3.505   1.534   2.416 -0.3229 -0.4774  0.5952
10112TIP3    H230280   3.392   1.571   2.322  0.2289 -0.1621  0.0566
10113TIP3   OH230281   0.771   5.033   2.332  0.1998 -0.7586  0.1207
10113TIP3    H130282   0.749   5.014   2.423 -1.1601 -0.9705 -0.2422
10113TIP3    H230283   0.805   4.951   2.298  2.3812 -0.2465  0.8780
10114TIP3   OH230284   3.317   3.220   6.369  0.4047  0.1031 -0.1239
10114TIP3    H130285   3.318   3.285   6.298  2.2426  1.8124  1.3337
10114TIP3    H230286   3.407   3.191   6.376  0.2267 -0.1654  1.3795
10115TIP3   OH230287   0.138   0.555   0.640 -0.4198 -0.3302 -0.3268
10115TIP3    H130288   0.179   0.473   0.613 -1.3590 -1.0522  0.3761
10115TIP3    H230289   0.053   0.556   0.596  0.2004  1.0298 -1.5627
10116TIP3   OH230290   4.880   1.828   1.062  0.3956  0.0444 -0.8209
10116TIP3    H130291   4.788   1.804   1.052  0.4522 -0.1882 -0.7849
10116TIP3    H230292   4.890   1.846   1.156  0.8022 -1.6755 -0.5085
10117TIP3   OH230293   0.375   6.632   4.502  0.3948 -0.4564 -0.8370
10117TIP3    H130294   0.323   6.644   4.422 -1.9302 -0.3917  0.6072
10117TIP3    H230295   0.437   6.705   4.501 -0.2157  0.0892 -2.0949
10118TIP3   OH230296   6.455   5.210   5.712 -0.0873 -0.4640 -0.5991
10118TIP3    H130297   6.502   5.189   5.631  0.3760  0.9896 -0.7259
10118TIP3    H230298   6.451   5.305   5.713 -2.7009 -0.5120 -0.3983
10119TIP3   OH230299   7.590   1.601   0.105 -0.3320 -0.0165 -0.6047
10119TIP3    H130300   7.553   1.512   0.108 -0.4001 -0.0090 -1.2102
10119TIP3    H230301   7.684   1.588   0.123 -0.3505 -0.2087 -0.6401
10120TIP3   OH230302   2.330   0.619   3.080  0.2339  0.3486  0.2054
10120TIP3    H130303   2.244   0.654   3.103  0.4582  0.6887  0.5366
10120TIP3    H230304   2.372   0.688   3.031  0.2787  0.1398 -0.0517
10121TIP3   OH230305   7.806   0.984   0.143  1.0425 -0.0397 -0.0348
10121TIP3    H130306   7.845   1.031   0.069  0.1596 -1.0043 -1.1523
10121TIP3    H230307   7.715   1.015   0.146  0.6237 -1.1708 -0.3921
10122TIP3   OH230308   4.752   7.339   4.445  0.0410  0.5109 -0.6026
10122TIP3    H130309   4.711   7.373   4.524 -0.8274  1.9795 -1.6518
10122TIP3    H230310   4.687   7.280   4.407  0.5348 -0.3514 -0.1481
10123TIP3   OH230311   6.651   0.512   0.820 -0.5162 -0.0328  0.2649
10123TIP3    H130312   6.732   0.543   0.780  1.6139 -0.9944  3.4891
10123TIP3    H230313   6.652   0.417   0.806 -1.5622  0.0221 -0.3386
10124TIP3   OH230314   4.132   3.277   0.836  0.0387  0.0401 -0.4964
10124TIP3    H130315   4.088   3.263   0.920  0.3648  0.1151 -0.3124
10124TIP3    H230316   4.136   3.372   0.826  1.9997  0.0978  0.4761
10125TIP3   OH230317   0.949   3.408   6.138 -0.3674  0.5667  0.0232
10125TIP3    H130318   0.980   3.323   6.106 -1.0822 -0.4277  1.8363
10125TIP3    H230319   0.955   3.466   6.061  1.1474 -0.8258 -0.9744
10126TIP3   OH230320   5.689   2.259   1.272 -0.1350 -0.1028 -0.1237
10126TIP3    H130321   5.732   2.310   1.341  1.6299  1.0274 -1.9453
10126TIP3    H230322   5.746   2.182   1.260 -0.1106 -0.0040 -0.6772
10127TIP3   OH230323   3.727   7.470   5.105  1.0743 -0.0980 -0.5218
10127TIP3    H130324   3.795   7.506   5.160  0.6475  0.0827 -0.1049
10127TIP3    H230325   3.663   7.541   5.097  0.1072 -0.8232  0.4998
10128TIP3   OH230326   5.219   5.665   6.159  0.4027 -0.0036  0.4284
10128TIP3    H130327   5.225   5.730   6.089 -0.0639  0.0081  0.3991
10128TIP3    H230328   5.131   5.629   6.152 -0.8409  2.2010  2.9292
10129TIP3   OH230329   6.714   6.268   3.591  0.4253  0.6984 -0.6825
10129TIP3    H130330   6.662   6.280   3.512  0.7397  1.7651 -0.7377
10129TIP3    H230331   6.655   6.293   3.663 -0.4285 -1.8400 -0.3859
10130TIP3   OH230332   7.328   1.654   3.551 -0.9706 -0.5503  0.0767
10130TIP3    H130333   7.342   1.734   3.500 -0.5448 -0.3107  0.5577
10130TIP3    H230334   7.369   1.585   3.499  0.0254 -0.2122  0.3749
10131TIP3   OH230335   1.447   5.366   5.691  0.0234  0.0305  0.0550
10131TIP3    H130336   1.530   5.352   5.646  0.0909  2.4880 -0.7104
10131TIP3    H230337   1.470   5.374   5.783  0.5236 -0.0011 -0.0661
10132TIP3   OH230338   6.059   2.927   3.233 -0.2776 -0.1256  0.6434
10132TIP3    H130339   6.053   2.900   3.325 -0.0164 -0.6275  0.5147
10132TIP3    H230340   5.969   2.920   3.201 -0.2797 -0.4724  0.7184
10133TIP3   OH230341   4.635   0.015   0.142 -0.0758  0.1937  0.1984
10133TIP3    H130342   4.562   0.075   0.128  0.6669  0.9080 -0.7693
10133TIP3    H230343   4.698   0.038   0.074  0.8512 -0.7243  0.7191
10134TIP3   OH230344   6.680   1.904   0.907 -0.3345  0.5794 -0.3425
10134TIP3    H130345   6.735   1.943   0.974 -0.4659 -0.2260  0.2553
10134TIP3    H230346   6.599   1.954   0.910  0.6556  2.4138 -1.8961
10135TIP3   OH230347   6.987   1.907   1.559 -0.7476 -0.3144 -0.8402
10135TIP3    H130348   6.981   1.988   1.508 -1.1308  0.1508 -0.0673
10135TIP3    H230349   6.992   1.838   1.493  1.1224  0.4199 -1.5300
10136TIP3   OH230350   4.796   3.561   4.388 -0.2239 -0.4077 -0.4342
10136TIP3    H130351   4.884   3.564   4.425 -0.8317  2.2934  1.0470
10136TIP3    H230352   4.741   3.526   4.459 -0.9801  2.3159  0.4467
10137TIP3   OH230353   1.173   5.450   0.183 -0.2792  0.2011 -0.1135
10137TIP3    H130354   1.085   5.427   0.152 -0.6215  0.7984  0.3840
10137TIP3    H230355   1.158   5.513   0.253  0.5380  0.0502  0.2133
10138TIP3   OH230356   3.676   0.093   5.979 -0.3567  0.3664  0.3351
10138TIP3    H130357   3.692   0.090   5.884 -1.4625  0.0602  0.1338
10138TIP3    H230358   3.671   0.001   6.005 -1.7830  0.4219  0.3473
10139TIP3   OH230359   8.269   5.557   0.020 -0.2594  0.7045  0.7133
10139TIP3    H130360   8.227   5.643   0.013 -2.3125 -0.2840  0.2583
10139TIP3    H230361   8.278   5.542   0.114  0.2523  1.4702  0.7934
10140TIP3   OH230362   1.991   7.205   4.811 -0.2878 -0.1607 -0.0993
10140TIP3    H130363   1.919   7.169   4.760  0.7718 -1.2517 -0.8588
10140TIP3    H230364   2.070   7.182   4.762  0.7364 -0.7708  1.7244
10141TIP3   OH230365   6.865   1.243   6.127  0.4493  0.2201  0.2045
10141TIP3    H130366   6.818   1.195   6.059  1.8933 -1.4454  0.3018
10141TIP3    H230367   6.817   1.325   6.137 -0.6610 -0.1404 -1.7592
10142TIP3   OH230368   4.427   2.727   4.396  0.0855  0.3605  0.0231
10142TIP3    H130369   4.455   2.667   4.328  1.8755  0.2054  0.8182
10142TIP3    H230370   4.332   2.729   4.390 -0.0254 -2.3815 -0.1638
10143TIP3   OH230371   0.132   5.874   1.546  0.1026 -0.2051 -0.2765
10143TIP3    H130372   0.192   5.860   1.620 -0.2913 -0.4763 -0.0061
10143TIP3    H230373   0.170   5.825   1.474 -0.3036 -1.1833  0.1619
10144TIP3   OH230374   4.897   2.984   1.169  0.1496 -0.4347 -0.3964
10144TIP3    H130375   4.952   2.914   1.137  0.0888  0.1302 -1.8294
10144TIP3    H230376   4.880   2.962   1.261  0.0129 -2.3466 -0.8357
10145TIP3   OH230377   7.307   2.835   4.239 -0.0298  0.4892 -0.4187
10145TIP3    H130378   7.303   2.786   4.157  0.9694 -2.7147  1.2784
10145TIP3    H230379   7.220   2.824   4.278 -0.1657  1.1024 -0.5345
10146TIP3   OH230380   7.441   5.380   4.815 -0.2318 -0.0082  0.5361
10146TIP3    H130381   7.466   5.289   4.803 -0.6527 -0.1008  0.3304
10146TIP3    H230382   7.419   5.411   4.727  0.1487  0.3651  0.5678
10147TIP3   OH230383   6.560   4.000   1.914  0.4416  0.0298  0.4258
10147TIP3    H130384   6.490   4.023   1.853  0.2999 -0.1969  0.5017
10147TIP3    H230385   6.630   3.964   1.860  0.7585  0.8383  0.2775
10148TIP3   OH230386   6.474   4.577   2.330  0.0487 -0.3107 -0.3703
10148TIP3    H130387   6.478   4.564   2.235  0.0484 -2.1684 -0.1561
10148TIP3    H230388   6.381   4.582   2.350  0.0575  1.6374 -0.6044
10149TIP3   OH230389   6.764   2.358   5.947 -0.9611  0.1621 -0.0242
10149TIP3    H130390   6.717   2.391   6.024  0.1940 -1.1234  1.2932
10149TIP3    H230391   6.770   2.433   5.888 -2.0569  1.1258  1.0353
10150TIP3   OH230392   0.392   0.545   6.472  0.4874  0.5420  0.2745
10150TIP3    H130393   0.374   0.637   6.455 -3.1934  0.3951  2.2457
10150TIP3    H230394   0.357   0.500   6.395  0.7998  0.7088  0.0334
10151TIP3   OH230395   0.807   7.083   3.901 -0.0136  0.5126  0.4489
10151TIP3    H130396   0.831   7.174   3.916  0.8262  0.6076 -1.2316
10151TIP3    H230397   0.868   7.052   3.834 -1.0936 -0.9109  0.0454
10152TIP3   OH230398   3.675   4.263   1.317 -0.0960 -0.4873 -0.3541
10152TIP3    H130399   3.723   4.331   1.364  0.1833 -1.7051  1.2023
10152TIP3    H230400   3.735   4.189   1.314 -0.8052 -1.0541 -1.0136
10153TIP3   OH230401   3.754   1.815   1.286  0.3527 -0.1600 -0.1560
10153TIP3    H130402   3.790   1.869   1.215 -0.5441  1.0634  0.2896
10153TIP3    H230403   3.726   1.735   1.243 -0.2033  0.5733 -1.2111
10154TIP3   OH230404   0.326   1.784   0.063  0.3896  0.0280  0.3143
10154TIP3    H130405   0.348   1.700   0.023  0.3507 -0.4649  1.2813
10154TIP3    H230406   0.404   1.838   0.051 -0.6142  0.9826 -3.0234
10155TIP3   OH230407   5.269   2.617   0.134 -0.2078  0.0017 -0.3977
10155TIP3    H130408   5.223   2.553   0.079 -1.1671  0.4285 -0.1081
10155TIP3    H230409   5.345   2.569   0.167 -0.3885 -0.6969 -0.9594
10156TIP3   OH230410   0.627   0.678   6.200 -0.7286 -0.2799  0.2932
10156TIP3    H130411   0.645   0.584   6.206  1.1474 -0.0264 -0.7468
10156TIP3    H230412   0.686   0.719   6.263  0.3165  0.3616 -1.0542
10157TIP3   OH230413   6.993   2.465   2.073  0.0493  0.0486 -0.4858
10157TIP3    H130414   6.949   2.545   2.102  0.3963  0.5421 -1.2698
10157TIP3    H230415   7.086   2.480   2.093 -0.2249 -1.6298  2.6161
10158TIP3   OH230416   2.905   0.085   5.780 -0.5979  0.2066 -0.1380
10158TIP3    H130417   2.832   0.029   5.754  0.3181 -1.0713 -0.0375
10158TIP3    H230418   2.878   0.173   5.753 -3.1119  0.1501  1.7903
10159TIP3   OH230419   0.306   7.773   2.951  0.5822  0.5541 -0.4716
10159TIP3    H130420   0.311   7.681   2.977 -0.9592  0.0046 -1.9627
10159TIP3    H230421   0.274   7.817   3.029  0.4584 -0.3203 -0.0086
10160TIP3   OH230422   7.297   0.352   1.113  0.0227  0.4963  0.5926
10160TIP3    H130423   7.265   0.439   1.135  0.5451  0.6739  0.6780
10160TIP3    H230424   7.325   0.359   1.022  1.0322  0.7165  0.9066
10161TIP3   OH230425   2.784   4.238   1.970 -0.1665 -0.5042 -0.2458
10161TIP3    H130426   2.710   4.245   1.909  0.0956  0.2560 -0.4884
10161TIP3    H230427   2.861   4.259   1.917  0.1388 -0.5197  0.1875
10162TIP3   OH230428   4.673   3.328   4.192 -0.1407  0.1983  0.2006
10162TIP3    H130429   4.746   3.388   4.177 -0.7891  0.5101 -1.9485
10162TIP3    H230430   4.712   3.255   4.241  1.9864 -0.3127 -2.0428
10163TIP3   OH230431   6.750   5.058   6.278 -0.1026 -0.0744 -0.1213
10163TIP3    H130432   6.677   5.113   6.306 -0.2814  0.2656 -1.2008
10163TIP3    H230433   6.743   4.980   6.332 -0.1051  0.7617  1.1363
10164TIP3   OH230434   4.000   3.197   4.453  0.1026 -0.5721 -0.7673
10164TIP3    H130435   3.956   3.133   4.509  0.5692  0.2880  0.6339
10164TIP3    H230436   3.934   3.265   4.439  0.7913  0.5641  1.0768
10165TIP3   OH230437   2.554   6.302   6.357  0.3153 -0.4776 -0.0296
10165TIP3    H130438   2.499   6.359   6.410  0.8967 -0.5610  0.6823
10165TIP3    H230439   2.594   6.242   6.421  1.0154 -0.5881 -0.5693
10166TIP3   OH230440   4.544   2.546   4.623  0.7059  0.3735 -0.2170
10166TIP3    H130441   4.608   2.488   4.662 -2.2265 -1.9131  1.6582
10166TIP3    H230442   4.530   2.511   4.535 -0.5155 -1.4581  0.6488
10167TIP3   OH230443   5.429   3.230   6.174 -0.5042 -0.0914  0.3875
10167TIP3    H130444   5.427   3.153   6.231 -1.2968  0.9153  1.7740
10167TIP3    H230445   5.484   3.203   6.100 -0.0612 -1.6890  1.2473
10168TIP3   OH230446   4.289   1.823   3.174  0.1208 -0.3530  0.0051
10168TIP3    H130447   4.301   1.888   3.244 -0.7629 -0.2929  0.1067
10168TIP3    H230448   4.343   1.749   3.202  2.4031  0.8814 -0.8716
10169TIP3   OH230449   6.057   0.501   6.449 -0.2954 -0.0857  0.7022
10169TIP3    H130450   6.105   0.455   6.518 -1.7537 -1.8491  0.6230
10169TIP3    H230451   6.018   0.576   6.494  1.1231  0.4447  1.1192
10170TIP3   OH230452   3.568   5.784   0.456  0.4016  0.3733 -0.0214
10170TIP3    H130453   3.527   5.699   0.440  1.0603  0.4438 -2.5533
10170TIP3    H230454   3.547   5.836   0.378  1.7800  1.8045  0.4992
10171TIP3   OH230455   1.368   3.777   3.836  0.0141 -0.5838  0.5194
10171TIP3    H130456   1.461   3.798   3.835 -0.5718  2.4777 -1.0871
10171TIP3    H230457   1.363   3.686   3.807  2.4430 -0.4940 -0.3861
10172TIP3   OH230458   7.178   6.025   0.775 -0.2384 -0.0374  0.0321
10172TIP3    H130459   7.168   5.932   0.756 -2.4407 -0.3656  2.2076
10172TIP3    H230460   7.191   6.029   0.870 -0.8177  1.8822  0.0810
10173TIP3   OH230461   7.931   5.191   3.017  0.0248 -0.0740 -0.4876
10173TIP3    H130462   7.876   5.260   2.980  0.1253 -0.9583 -2.4307
10173TIP3    H230463   8.014   5.198   2.970  0.8468 -0.1279  0.8853
10174TIP3   OH230464   1.940   1.296   5.862  0.5490  0.3837 -0.3651
10174TIP3    H130465   1.916   1.204   5.851  0.4632  0.2469  0.8669
10174TIP3    H230466   1.880   1.343   5.805 -0.2394 -0.2413 -0.0690
10175TIP3   OH230467   6.336   3.220   4.974 -0.0390 -0.1611  0.1493
10175TIP3    H130468   6.255   3.240   5.021 -0.5020 -1.5920  0.0183
10175TIP3    H230469   6.401   3.208   5.044 -0.6050 -1.7485  0.4581
10176TIP3   OH230470   7.034   2.459   2.933  0.0737  0.1631 -0.3048
10176TIP3    H130471   6.977   2.399   2.885  1.4620 -0.6827 -0.9772
10176TIP3    H230472   7.039   2.422   3.021 -2.6607  1.8418  0.6809
10177TIP3   OH230473   3.734   2.529   6.418 -0.5556 -0.1297 -0.5293
10177TIP3    H130474   3.713   2.493   6.332  0.8590  1.3704 -1.5789
10177TIP3    H230475   3.820   2.491   6.439 -0.9662 -0.6109  0.3088
10178TIP3   OH230476   4.847   6.454   5.597 -0.6491  0.0624 -0.3367
10178TIP3    H130477   4.764   6.410   5.612 -0.5353  0.2211  0.8173
10178TIP3    H230478   4.826   6.547   5.600 -0.2822  0.1224  0.9874
10179TIP3   OH230479   7.044   5.687   5.610 -0.3027 -0.1364  0.1902
10179TIP3    H130480   7.125   5.736   5.595  0.0983 -1.0048 -0.5887
10179TIP3    H230481   7.040   5.674   5.704  0.8575 -0.7210  0.1721
10180TIP3   OH230482   1.229   0.734   1.731  0.1526 -0.0992  0.2423
10180TIP3    H130483   1.227   0.709   1.639 -0.2200 -0.7974  0.4333
10180TIP3    H230484   1.290   0.808   1.735 -2.2955  2.1747 -1.1053
10181TIP3   OH230485   7.103   2.336   4.926 -0.4804  0.5983 -0.1878
10181TIP3    H130486   7.054   2.294   4.996  1.0025 -0.3376  0.3153
10181TIP3    H230487   7.163   2.269   4.894 -1.0158  1.0324 -2.2781
10182TIP3   OH230488   0.345   4.729   6.095  0.1111 -0.0023 -0.1835
10182TIP3    H130489   0.313   4.664   6.033 -0.6542  0.9340 -0.8099
10182TIP3    H230490   0.282   4.728   6.167 -0.9927  1.3055 -1.0624
10183TIP3   OH230491   6.109   5.979   2.661  0.4178 -0.1168  0.1447
10183TIP3    H130492   6.133   6.033   2.736 -1.9788 -0.6647  1.3952
10183TIP3    H230493   6.105   6.040   2.587 -0.6674  1.1488  1.1988
10184TIP3   OH230494   0.669   2.292   3.685 -0.2419 -0.1893  0.5795
10184TIP3    H130495   0.640   2.268   3.773 -1.2633  1.4691  0.7359
10184TIP3    H230496   0.749   2.241   3.671  0.0306 -0.3652  2.5264
10185TIP3   OH230497   6.709   4.146   2.615  0.2152  0.9253 -0.0797
10185TIP3    H130498   6.619   4.178   2.611 -0.5348 -0.6502  2.3805
10185TIP3    H230499   6.730   4.123   2.524 -2.3386  0.1486 -0.5477
10186TIP3   OH230500   5.631   7.004   2.964 -0.6203 -0.6526 -0.1234
10186TIP3    H130501   5.664   7.057   2.892 -0.1499 -1.6033 -0.6291
10186TIP3    H230502   5.568   7.061   3.009 -1.1816 -0.1501 -1.4811
10187TIP3   OH230503   0.409   1.526   2.885  0.3805 -0.1819  0.1078
10187TIP3    H130504   0.427   1.507   2.793  0.5487  1.6763 -0.2843
10187TIP3    H230505   0.493   1.553   2.921  0.7384 -2.7074  1.3557
10188TIP3   OH230506   3.623   3.463   4.973 -0.0453  0.4903  0.4877
10188TIP3    H130507   3.577   3.484   4.892  1.2928  0.9086 -0.2008
10188TIP3    H230508   3.577   3.387   5.008  0.3103 -0.7355 -1.5241
10189TIP3   OH230509   7.816   1.365   3.082  0.0519  0.4640 -0.3819
10189TIP3    H130510   7.848   1.429   3.145  0.6366 -1.0362  0.9413
10189TIP3    H230511   7.755   1.311   3.132 -0.4573  0.0018 -1.4633
10190TIP3   OH230512   0.925   0.767   0.411  0.0222 -0.3292  0.0003
10190TIP3    H130513   0.984   0.842   0.413  1.7585 -1.6383  0.5269
10190TIP3    H230514   0.839   0.805   0.396  1.0678  1.6100 -1.6676
10191TIP3   OH230515   0.248   5.847   6.482 -0.3925  0.0455 -0.0085
10191TIP3    H130516   0.173   5.816   6.431  1.0170  1.3499 -3.1379
10191TIP3    H230517   0.310   5.774   6.480 -0.4162  0.0255 -0.0171
10192TIP3   OH230518   4.423   0.796   1.027 -0.1528 -0.0554 -0.3000
10192TIP3    H130519   4.339   0.806   0.981 -0.9785  0.7442  1.3129
10192TIP3    H230520   4.430   0.703   1.044 -0.7841 -0.1109 -0.3223
10193TIP3   OH230521   1.825   1.454   5.104 -0.3868  0.2131  0.1706
10193TIP3    H130522   1.849   1.544   5.124  2.1658 -0.5124  0.6090
10193TIP3    H230523   1.880   1.430   5.029 -3.9896  0.2662 -2.8025
10194TIP3   OH230524   1.609   5.629   5.525  0.0019  0.0215 -0.8310
10194TIP3    H130525   1.603   5.724   5.525 -1.7598 -0.0681 -0.5320
10194TIP3    H230526   1.680   5.610   5.463  1.2175  1.5361  0.0193
10195TIP3   OH230527   4.738   6.910   0.000  0.0982  0.2957 -0.1262
10195TIP3    H130528   4.653   6.955  -0.002 -1.2561 -2.0392  0.7449
10195TIP3    H230529   4.777   6.938   0.083  0.6556  2.0869 -0.9433
10196TIP3   OH230530   3.730   3.238   1.892  0.7076 -0.1319  0.1290
10196TIP3    H130531   3.635   3.248   1.885  0.9316  1.0309 -2.1889
10196TIP3    H230532   3.761   3.324   1.920  1.1495 -0.1164 -0.3794
10197TIP3   OH230533   4.985   1.506   6.068 -0.2568  0.2540 -0.3010
10197TIP3    H130534   5.001   1.586   6.018 -0.5442  0.6319  0.1914
10197TIP3    H230535   5.063   1.453   6.054 -0.2186  0.4648 -0.9242
10198TIP3   OH230536   0.117   3.866   4.577  0.4298  0.4003 -0.0082
10198TIP3    H130537   0.023   3.881   4.573  0.3736  0.2903  0.7744
10198TIP3    H230538   0.134   3.842   4.668  1.2538  0.6875 -0.0754
10199TIP3   OH230539   1.929   4.517   6.626 -0.2735 -0.3994 -0.1262
10199TIP3    H130540   1.834   4.514   6.635 -0.0861 -2.9303  2.3355
10199TIP3    H230541   1.946   4.473   6.543 -1.2118 -0.8649 -0.0849
10200TIP3   OH230542   4.404   5.915   1.055 -0.0084 -0.2873  0.3616
10200TIP3    H130543   4.478   5.938   0.999  0.6611  0.4616  1.5128
10200TIP3    H230544   4.336   5.979   1.033  0.6148  0.6497  1.0990
10201TIP3   OH230545   6.357   1.580   4.839 -0.0307  0.1674  0.0418
10201TIP3    H130546   6.288   1.534   4.791 -0.2516 -0.3131  0.8047
10201TIP3    H230547   6.429   1.517   4.843 -0.7019 -0.5552  1.9867
10202TIP3   OH230548   3.874   2.611   5.829  0.6595 -0.3520 -0.4525
10202TIP3    H130549   3.872   2.644   5.919 -0.5910 -0.8633 -0.2694
10202TIP3    H230550   3.786   2.628   5.796  0.9990 -0.5065 -1.4649
10203TIP3   OH230551   3.399   0.792   4.668 -0.1374 -0.5556 -0.4814
10203TIP3    H130552   3.304   0.795   4.657 -0.0269  0.5760 -1.4258
10203TIP3    H230553   3.429   0.727   4.604 -0.2638 -0.8418 -0.2507
10204TIP3   OH230554   5.606   5.399   2.697 -0.5720  0.2955 -0.1990
10204TIP3    H130555   5.553   5.476   2.719 -0.1895  0.2876  0.8140
10204TIP3    H230556   5.546   5.325   2.706 -0.8690  0.4391 -0.9060
10205TIP3   OH230557   0.043   6.990   5.351 -0.0540  0.0274 -0.1616
10205TIP3    H130558  -0.027   6.993   5.416 -1.2439  0.0307 -1.4030
10205TIP3    H230559   0.070   7.081   5.340 -0.5914  0.1517 -0.4515
10206TIP3   OH230560   5.915   5.333   1.513  1.0321  0.4641  0.0257
10206TIP3    H130561   5.876   5.404   1.563 -2.1277 -0.6082 -0.6803
10206TIP3    H230562   5.916   5.259   1.574  0.8731  0.1787 -0.3128
10207TIP3   OH230563   7.795   6.040   1.184 -0.2591  0.1402 -0.0639
10207TIP3    H130564   7.765   5.973   1.246  1.4129 -0.8288 -0.2485
10207TIP3    H230565   7.738   6.030   1.108 -0.5442 -0.5427  0.2353
10208TIP3   OH230566   7.986   7.386   2.487  0.0224  0.2099 -0.7288
10208TIP3    H130567   8.024   7.347   2.566  0.5136  0.9886 -0.5742
10208TIP3    H230568   8.035   7.347   2.415  0.8512  0.8991 -0.5491
10209TIP3   OH230569   4.709   4.366   6.351  0.0842  0.2154  0.4581
10209TIP3    H130570   4.733   4.305   6.421  2.6717  2.0102  1.3030
10209TIP3    H230571   4.664   4.438   6.397  0.8704  0.9111  0.1705
10210TIP3   OH230572   6.509   3.277   2.413  0.3611  0.1326  0.2518
10210TIP3    H130573   6.431   3.237   2.375  1.1922 -1.1021 -0.2577
10210TIP3    H230574   6.499   3.370   2.397 -1.2305  0.0557  0.6410
10211TIP3   OH230575   7.407   0.120   5.375  0.4759  0.4846  0.0760
10211TIP3    H130576   7.442   0.209   5.367  2.2712 -0.3322 -1.6944
10211TIP3    H230577   7.458   0.081   5.446  0.4013  0.5293  0.1549
10212TIP3   OH230578   6.543   0.837   3.412  0.0988  0.1857  1.2086
10212TIP3    H130579   6.481   0.863   3.344  0.3955 -0.3668  0.7097
10212TIP3    H230580   6.617   0.898   3.402  0.0373  0.2573  1.1926
10213TIP3   OH230581   0.653   2.624   1.401 -0.3428 -0.1915 -0.0330
10213TIP3    H130582   0.709   2.699   1.383  0.5715 -1.1349 -1.3888
10213TIP3    H230583   0.652   2.616   1.496  1.0589  0.4378  0.0509
10214TIP3   OH230584   6.892   5.785   4.163 -0.3861 -0.4711 -0.1786
10214TIP3    H130585   6.853   5.861   4.205  0.4404  0.8514 -1.7018
10214TIP3    H230586   6.986   5.805   4.158 -0.6281  0.5084 -4.4529
10215TIP3   OH230587   7.757   3.342   4.373  0.0765 -0.1244  0.3794
10215TIP3    H130588   7.733   3.298   4.291  2.3622  0.1805 -0.5381
10215TIP3    H230589   7.690   3.315   4.436 -3.1282  1.4687 -2.0887
10216TIP3   OH230590   1.668   1.529   1.479  0.7906 -0.4443  0.1756
10216TIP3    H130591   1.635   1.585   1.408  1.5278 -0.9844 -0.6152
10216TIP3    H230592   1.729   1.585   1.527  0.6346 -0.2112  0.1075
10217TIP3   OH230593   0.871   5.589   1.394  0.0624 -0.3123 -0.3254
10217TIP3    H130594   0.870   5.684   1.392  0.9443 -0.2548  0.7264
10217TIP3    H230595   0.932   5.567   1.464 -2.2205 -1.6126  1.4245
10218TIP3   OH230596   0.529   6.982   1.777  0.3118 -0.0815  0.1037
10218TIP3    H130597   0.596   7.002   1.712 -1.0922 -1.5562 -1.9157
10218TIP3    H230598   0.449   7.024   1.743 -0.4458 -0.8747  0.8363
10219TIP3   OH230599   0.397   0.101   5.120  0.2926 -0.5637  0.1730
10219TIP3    H130600   0.429   0.120   5.209  1.0652 -1.5975  0.1370
10219TIP3    H230601   0.441   0.165   5.065 -0.9619  0.7462  0.6342
10220TIP3   OH230602   8.039   3.626   2.793 -0.4964  0.0768  0.6588
10220TIP3    H130603   7.995   3.594   2.715  0.7365  0.4140 -0.2034
10220TIP3    H230604   8.072   3.712   2.768  0.2968  0.0034  1.4060
10221TIP3   OH230605   7.907   1.214   6.612  0.1479  0.2182  0.2459
10221TIP3    H130606   7.945   1.127   6.596 -1.6813 -0.5815  0.0460
10221TIP3    H230607   7.828   1.197   6.663 -0.8832  1.6537 -0.7808
10222TIP3   OH230608   2.266   7.576   4.389  0.0347 -0.2282 -0.1489
10222TIP3    H130609   2.230   7.662   4.410  0.6318 -0.3043  1.3017
10222TIP3    H230610   2.192   7.516   4.401  0.1924 -0.1861  1.2127
10223TIP3   OH230611   0.706   5.861   6.386  0.0199  0.4431  0.2404
10223TIP3    H130612   0.754   5.846   6.467  1.6579  0.4880 -0.6679
10223TIP3    H230613   0.754   5.810   6.320 -0.7398  1.1121 -0.8651
10224TIP3   OH230614   3.373   6.975   6.475  0.2082 -0.1214 -0.4940
10224TIP3    H130615   3.442   7.041   6.477 -0.4750  0.5993 -0.4151
10224TIP3    H230616   3.311   7.002   6.543  0.4868 -1.4890  0.3527
10225TIP3   OH230617   3.558   3.302   0.725  0.2489 -0.0321  0.2424
10225TIP3    H130618   3.483   3.276   0.778  0.7041 -1.1810  0.3583
10225TIP3    H230619   3.583   3.222   0.678  2.7057 -0.3105  1.8155
10226TIP3   OH230620   3.308   7.443   5.688 -0.2124 -0.2588  0.0193
10226TIP3    H130621   3.233   7.386   5.704 -0.1174 -0.4733 -0.2859
10226TIP3    H230622   3.276   7.509   5.627 -0.7217  0.8694  1.4533
10227TIP3   OH230623   1.187   0.282   4.905  0.3233 -0.1590  0.3487
10227TIP3    H130624   1.228   0.233   4.834  0.4455 -0.7466  0.8219
10227TIP3    H230625   1.094   0.263   4.896  0.3371 -0.2226  0.3422
10228TIP3   OH230626   1.524   5.505   2.557 -0.8685  0.0867  0.2403
10228TIP3    H130627   1.516   5.493   2.652 -1.3452 -0.4306  0.1332
10228TIP3    H230628   1.468   5.580   2.538 -1.5473 -0.4195  0.2257
10229TIP3   OH230629   1.525   5.552   3.043  0.4903 -0.0339  0.2662
10229TIP3    H130630   1.480   5.492   3.103  1.2457 -0.7400  0.1457
10229TIP3    H230631   1.618   5.536   3.059  0.7179  1.4799  0.5896
10230TIP3   OH230632   7.751   0.180   1.295 -0.4583  0.2467  0.0659
10230TIP3    H130633   7.697   0.160   1.219 -1.5762  1.8569  0.3771
10230TIP3    H230634   7.840   0.183   1.261 -0.8192 -0.1715 -0.9498
10231TIP3   OH230635   0.927   0.928   2.680  0.5312  0.4322  0.6234
10231TIP3    H130636   0.965   1.003   2.726  0.6151 -0.3487  1.8684
10231TIP3    H230637   0.858   0.896   2.738 -0.0192  0.0020 -0.2441
10232TIP3   OH230638   4.095   7.317   1.922  0.0033 -0.5183 -0.7059
10232TIP3    H130639   4.149   7.351   1.851  0.6609 -0.1049 -0.0206
10232TIP3    H230640   4.015   7.368   1.918  0.2654 -0.1108 -0.7981
10233TIP3   OH230641   6.303   7.335   0.384 -0.4252  0.1573  0.1316
10233TIP3    H130642   6.365   7.262   0.381  0.2451  0.7574 -1.8265
10233TIP3    H230643   6.320   7.378   0.467  2.5675  0.9289 -0.7834
10234TIP3   OH230644   7.427   0.969   0.640 -0.1631 -0.6815 -0.2721
10234TIP3    H130645   7.502   0.979   0.698 -1.7047 -1.2783  1.9394
10234TIP3    H230646   7.464   0.937   0.558  1.9801 -0.9273  0.7349
10235TIP3   OH230647   7.512   1.496   0.953 -0.1715  0.7107 -0.2108
10235TIP3    H130648   7.448   1.425   0.962 -1.6331  2.0520  0.3766
10235TIP3    H230649   7.568   1.469   0.880 -0.4853 -1.1773  0.1979
10236TIP3   OH230650   1.377   6.123   1.741 -0.0524 -0.4712 -0.0126
10236TIP3    H130651   1.327   6.096   1.818 -0.3443 -2.1679 -0.7419
10236TIP3    H230652   1.430   6.046   1.720  1.2826  0.5604 -0.5233
10237TIP3   OH230653   2.893   7.011   0.945 -0.0283  0.2744 -0.0370
10237TIP3    H130654   2.939   6.930   0.968  0.4944  0.7660  0.6767
10237TIP3    H230655   2.800   6.987   0.948  0.1566 -0.7754 -1.6762
10238TIP3   OH230656   0.225   3.645   3.886 -0.0149 -0.2804  0.2479
10238TIP3    H130657   0.319   3.633   3.905  0.0968 -0.5595 -0.4705
10238TIP3    H230658   0.207   3.584   3.815 -0.5434  0.3926 -0.2014
10239TIP3   OH230659   5.753   0.019   3.787 -0.1807 -0.8067  1.0157
10239TIP3    H130660   5.794   0.102   3.764  0.3348 -0.8610  1.6726
10239TIP3    H230661   5.663   0.041   3.809  0.0890 -0.3322  1.6848
10240TIP3   OH230662   2.928   6.504   3.153 -0.3678 -0.3191  0.1237
10240TIP3    H130663   2.845   6.463   3.129 -0.4531 -0.9111  1.3415
10240TIP3    H230664   2.993   6.435   3.140 -0.2878 -0.3436  0.6184
10241TIP3   OH230665   7.710   3.125   2.021 -0.0933 -0.2910  0.2486
10241TIP3    H130666   7.755   3.128   2.105  0.2976  1.7625  0.0256
10241TIP3    H230667   7.620   3.101   2.042  0.2539 -0.8424  1.1234
10242TIP3   OH230668   4.111   0.350   0.610 -0.3579 -0.6347  0.0254
10242TIP3    H130669   4.179   0.364   0.544 -0.4649 -0.0686  0.0342
10242TIP3    H230670   4.104   0.255   0.617  1.0843 -0.7210  0.6977
10243TIP3   OH230671   5.318   4.651   1.340  0.4358 -0.1932 -0.1800
10243TIP3    H130672   5.239   4.640   1.393  0.5394  1.0220  0.2652
10243TIP3    H230673   5.299   4.607   1.257  0.0679 -1.6685  0.6595
10244TIP3   OH230674   3.296   5.448   2.938 -0.2220 -0.4229 -0.8622
10244TIP3    H130675   3.292   5.352   2.946 -1.3485 -0.3670 -0.6073
10244TIP3    H230676   3.389   5.467   2.927  0.2832 -1.3821  1.2386
10245TIP3   OH230677   4.726   4.404   0.620 -0.6237 -0.0738 -0.1881
10245TIP3    H130678   4.704   4.318   0.655  2.4282 -0.4609  1.1206
10245TIP3    H230679   4.676   4.465   0.674 -1.4576 -0.9392  0.0491
10246TIP3   OH230680   2.264   0.305   6.532  0.1483  0.0927  0.1881
10246TIP3    H130681   2.178   0.300   6.575  0.1962  1.8331  0.5360
10246TIP3    H230682   2.319   0.246   6.584  0.8622  3.8533  4.2966
10247TIP3   OH230683   3.308   1.056   4.049 -0.1175 -0.9565  0.0934
10247TIP3    H130684   3.402   1.037   4.045 -0.0845 -0.5934 -1.8841
10247TIP3    H230685   3.302   1.140   4.094  0.2389 -2.3369  2.8801
10248TIP3   OH230686   1.049   0.005   4.577 -0.0492  1.0190  0.0541
10248TIP3    H130687   1.132  -0.029   4.610 -0.3808 -1.0800 -1.0905
10248TIP3    H230688   1.068   0.030   4.486 -0.8171 -0.2384 -0.4732
10249TIP3   OH230689   5.990   4.559   4.991 -0.6886  0.5538  0.5468
10249TIP3    H130690   5.895   4.550   4.994 -0.6617  0.2592  0.5618
10249TIP3    H230691   6.005   4.635   4.935 -0.9180  0.1874 -0.0220
10250TIP3   OH230692   6.351   6.027   3.003 -0.9124  0.2898 -0.0669
10250TIP3    H130693   6.261   5.998   3.018 -0.9392 -0.8405 -2.0593
10250TIP3    H230694   6.353   6.116   3.038 -2.0437 -0.5180  2.3264
10251TIP3   OH230695   1.081   5.091   0.229  0.5442  0.2852  0.1440
10251TIP3    H130696   1.051   5.139   0.306  0.5732 -0.8226  0.8703
10251TIP3    H230697   1.073   4.999   0.254  1.8689 -0.0746 -0.6774
10252TIP3   OH230698   4.609   1.338   0.437 -0.0299  0.1204 -0.3527
10252TIP3    H130699   4.615   1.365   0.345 -3.7961 -0.3337 -0.8788
10252TIP3    H230700   4.591   1.419   0.484  0.1472  0.0921 -0.2324
10253TIP3   OH230701   0.979   1.290   6.438 -0.6518 -0.3587  0.3179
10253TIP3    H130702   1.059   1.280   6.490 -0.5538 -0.2634  0.1861
10253TIP3    H230703   0.926   1.354   6.486  0.5275  1.7089 -0.9772
10254TIP3   OH230704   5.904   7.469   6.655 -0.8610 -0.1316 -0.1786
10254TIP3    H130705   5.939   7.382   6.670 -2.1392 -0.1458  3.6129
10254TIP3    H230706   5.867   7.465   6.566 -0.7395 -3.3442 -0.1921
10255TIP3   OH230707   6.177   5.907   5.474 -0.0864  0.5217  0.2842
10255TIP3    H130708   6.135   5.915   5.560 -2.7542  1.4964 -1.0013
10255TIP3    H230709   6.213   5.819   5.473 -0.5847  0.2586  2.1605
10256TIP3   OH230710   0.834   1.320   3.461  0.6706  0.3252 -0.4763
10256TIP3    H130711   0.857   1.407   3.492  0.0030  0.5371 -0.5652
10256TIP3    H230712   0.790   1.279   3.535  1.2135 -0.0356 -0.3462
10257TIP3   OH230713   0.153   5.917   3.449  0.0863 -0.5933  0.1990
10257TIP3    H130714   0.083   5.853   3.456 -1.3991  0.9428 -0.1302
10257TIP3    H230715   0.190   5.903   3.362 -1.0932 -0.1808 -0.3848
10258TIP3   OH230716   4.709   7.095   5.351  0.6058  0.1138 -0.3677
10258TIP3    H130717   4.762   7.030   5.305  0.5802  1.3378 -2.2372
10258TIP3    H230718   4.771   7.160   5.381  0.3015  1.2095 -1.9790
10259TIP3   OH230719   3.346   2.610   1.250  0.2847 -0.1222  0.6359
10259TIP3    H130720   3.287   2.580   1.319 -0.6808 -0.3023 -0.2364
10259TIP3    H230721   3.292   2.666   1.195  0.8011 -0.6347 -0.4316
10260TIP3   OH230722   7.011   1.431   3.725  0.3193 -0.3143  0.0710
10260TIP3    H130723   7.012   1.384   3.808  0.4717  1.4002  1.0919
10260TIP3    H230724   6.942   1.497   3.736  1.3500  0.9171 -0.5839
10261TIP3   OH230725   4.894   3.524   5.158  0.0316  0.0345 -0.3599
10261TIP3    H130726   4.851   3.522   5.244  0.9708 -0.7754  0.1092
10261TIP3    H230727   4.968   3.464   5.167  0.3761  0.2480 -1.6209
10262TIP3   OH230728   2.599   0.728   1.436  0.2204  0.2810  0.4009
10262TIP3    H130729   2.629   0.814   1.466  1.9543 -0.8015  1.9263
10262TIP3    H230730   2.614   0.669   1.510 -0.4739 -1.4472 -0.7651
10263TIP3   OH230731   0.697   3.807   2.212 -0.6548  0.8676  0.4059
10263TIP3    H130732   0.688   3.723   2.167 -0.7570  0.5906  0.9439
10263TIP3    H230733   0.747   3.787   2.291 -0.0717  1.4346  0.1949
10264TIP3   OH230734   1.636   5.200   0.623 -0.3519 -0.4059  0.6442
10264TIP3    H130735   1.625   5.235   0.712 -0.3702 -1.0028  0.8825
10264TIP3    H230736   1.547   5.177   0.596 -0.6156  1.5466 -0.2863
10265TIP3   OH230737   7.089   4.265   4.688 -0.3700  0.2564 -0.6905
10265TIP3    H130738   7.002   4.291   4.660 -0.5876 -1.0112 -1.3009
10265TIP3    H230739   7.119   4.335   4.745 -2.4202  0.0012  0.7978
10266TIP3   OH230740   6.849   0.457   3.523 -0.4012  0.3493  0.6025
10266TIP3    H130741   6.782   0.526   3.523 -0.7135  0.0492  0.8891
10266TIP3    H230742   6.869   0.444   3.616 -0.1795  0.2111  0.5342
10267TIP3   OH230743   4.522   7.702   1.948  0.0168 -0.3195  0.1666
10267TIP3    H130744   4.431   7.702   1.917  0.0621 -0.2715  0.0327
10267TIP3    H230745   4.533   7.786   1.992  0.0881 -0.1939 -0.0890
10268TIP3   OH230746   3.918   1.906   4.595  0.1575 -0.0706 -0.6566
10268TIP3    H130747   3.931   1.995   4.628  0.0971 -0.2222 -0.2252
10268TIP3    H230748   3.976   1.901   4.519  3.1993 -0.8905  1.4937
10269TIP3   OH230749   7.496   4.756   1.646  0.1834 -0.1498 -0.2485
10269TIP3    H130750   7.436   4.824   1.613  2.0902  1.1397 -1.2417
10269TIP3    H230751   7.519   4.705   1.569 -0.2637 -1.1790  0.2832
10270TIP3   OH230752   7.178   5.012   2.674 -0.2726  0.1346  0.7676
10270TIP3    H130753   7.264   5.039   2.707 -0.0868  1.2035 -0.5438
10270TIP3    H230754   7.148   5.085   2.620 -1.7359 -0.4857  0.6865
10271TIP3   OH230755   5.910   2.999   2.471 -0.1043 -0.0377  0.2665
10271TIP3    H130756   5.814   3.001   2.467 -0.1587 -2.0304 -0.8676
10271TIP3    H230757   5.930   2.932   2.537  0.5695  1.3862  1.5806
10272TIP3   OH230758   5.574   2.503   1.047  0.1740 -0.0038  0.3270
10272TIP3    H130759   5.665   2.506   1.016  0.4231 -1.4551  0.8387
10272TIP3    H230760   5.565   2.416   1.086 -0.9425  0.7351  1.8242
10273TIP3   OH230761   2.766   7.246   2.618  0.0923  0.5860  0.0304
10273TIP3    H130762   2.854   7.271   2.646  0.3682 -0.4474  0.1359
10273TIP3    H230763   2.744   7.307   2.548 -0.2300  2.6346  1.8064
10274TIP3   OH230764   5.549   6.615   3.199 -0.1199 -0.1718 -0.7754
10274TIP3    H130765   5.493   6.561   3.254 -1.2243  1.1492 -0.5339
10274TIP3    H230766   5.638   6.592   3.225 -0.5954 -0.6466  0.5002
10275TIP3   OH230767   2.969   7.729   6.030  0.5213 -0.2544  0.4303
10275TIP3    H130768   2.955   7.761   5.941  0.9099 -0.3664  0.3279
10275TIP3    H230769   2.994   7.638   6.019  0.3441 -0.3322  0.6703
10276TIP3   OH230770   6.937   2.061   2.310 -0.1006  0.1162 -0.2131
10276TIP3    H130771   6.957   2.097   2.224  0.8567  0.9087  0.3165
10276TIP3    H230772   7.011   2.087   2.365 -1.0320  0.2517  1.0320
10277TIP3   OH230773   7.546   0.769   0.169  0.1379 -0.3308 -0.0906
10277TIP3    H130774   7.457   0.735   0.169  0.2293 -0.9023  2.7861
10277TIP3    H230775   7.601   0.690   0.167  0.5487 -0.0371 -0.5319
10278TIP3   OH230776   1.912   3.268   2.774 -0.0092  0.0294  0.0565
10278TIP3    H130777   2.005   3.289   2.764 -0.2359  0.2554 -1.9634
10278TIP3    H230778   1.891   3.294   2.864  1.1235  2.9896 -0.4098
10279TIP3   OH230779   5.714   5.171   0.119 -0.7043  0.2923  0.0175
10279TIP3    H130780   5.777   5.153   0.050 -2.0668 -0.3192 -1.1224
10279TIP3    H230781   5.724   5.265   0.137  1.2030  0.0111  0.6117
10280TIP3   OH230782   3.016   2.216   5.396  0.0227  0.1342 -0.2465
10280TIP3    H130783   3.028   2.133   5.351 -0.3999 -0.4108  0.6102
10280TIP3    H230784   2.925   2.239   5.381  0.2546  0.6917 -0.8669
10281TIP3   OH230785   8.064   4.376   5.857 -0.0763  0.0851  0.4365
10281TIP3    H130786   8.135   4.381   5.793  1.6936 -0.8876  2.2016
10281TIP3    H230787   8.074   4.454   5.911 -0.5075  0.0685  0.5481
10282TIP3   OH230788   7.672   0.466   3.691 -0.2398  0.3867  0.0519
10282TIP3    H130789   7.591   0.500   3.728 -1.1089  0.1581 -1.5540
10282TIP3    H230790   7.647   0.382   3.652  1.0869 -0.3624  0.7559
10283TIP3   OH230791   0.107   1.977   0.019  0.2341  0.4907 -0.5471
10283TIP3    H130792   0.171   1.948   0.085  0.3852 -0.1139 -0.9488
10283TIP3    H230793   0.143   1.945  -0.064 -1.5356 -1.5719 -0.5967
10284TIP3   OH230794   1.385   2.401   3.849 -0.5215 -0.0389  0.7469
10284TIP3    H130795   1.442   2.327   3.871  1.1543  0.5659 -1.2925
10284TIP3    H230796   1.318   2.363   3.792 -1.5988 -0.5322  2.2627
10285TIP3   OH230797   2.245   0.299   3.376  0.2757  0.1334 -0.3221
10285TIP3    H130798   2.254   0.273   3.285 -0.3001 -0.6282 -0.1733
10285TIP3    H230799   2.271   0.391   3.378 -0.1533  0.2823 -1.3283
10286TIP3   OH230800   4.360   5.477   4.534  0.5147  0.5490 -0.3407
10286TIP3    H130801   4.295   5.407   4.532  1.8228 -0.7204 -0.4743
10286TIP3    H230802   4.357   5.515   4.446  0.6771 -0.2222 -0.6948
10287TIP3   OH230803   1.852   1.513   3.204 -0.2618  0.4235 -0.6479
10287TIP3    H130804   1.903   1.527   3.124 -0.1845  2.1062 -0.3409
10287TIP3    H230805   1.763   1.537   3.179  0.0774  2.8448  0.2117
10288TIP3   OH230806   8.101   4.804   0.721  0.0105 -0.1157 -0.2454
10288TIP3    H130807   8.115   4.860   0.797 -0.0705  0.5451 -0.7152
10288TIP3    H230808   8.007   4.812   0.702  0.0180 -0.3316 -0.3797
10289TIP3   OH230809   6.254   2.301   3.765 -0.0207  0.3503  0.0282
10289TIP3    H130810   6.262   2.253   3.847  0.5793  0.2475 -0.0849
10289TIP3    H230811   6.207   2.241   3.707  0.3756  0.0552  0.0110
10290TIP3   OH230812   3.572   2.754   0.504  0.2551  0.5173  0.2468
10290TIP3    H130813   3.661   2.764   0.538  0.5678  0.6165 -0.5960
10290TIP3    H230814   3.521   2.818   0.553  0.1590 -1.0896  2.4075
10291TIP3   OH230815   2.641   1.840   1.423  0.0206 -0.0407  0.6394
10291TIP3    H130816   2.715   1.856   1.365 -0.0428  0.4300  0.6861
10291TIP3    H230817   2.573   1.900   1.392  0.3329  0.9787  1.8523
10292TIP3   OH230818   5.004   2.686   3.293 -0.0319  0.4747  0.4025
10292TIP3    H130819   4.971   2.741   3.222  0.3316 -1.6308 -1.5211
10292TIP3    H230820   5.052   2.616   3.249 -0.7556 -1.5972  2.6671
10293TIP3   OH230821   1.175   6.704   5.075  0.5200 -0.0485  0.2769
10293TIP3    H130822   1.099   6.654   5.105  0.4875 -0.3154 -0.2261
10293TIP3    H230823   1.250   6.649   5.097  0.4539 -0.5836 -0.7358
10294TIP3   OH230824   4.074   2.444   1.575 -0.2059  0.1308  0.2898
10294TIP3    H130825   4.110   2.444   1.486 -0.9119 -0.4463 -0.0048
10294TIP3    H230826   4.020   2.522   1.579 -0.1921  0.1455  0.1977
10295TIP3   OH230827   6.700   3.080   2.417 -0.2959 -0.3738 -0.3267
10295TIP3    H130828   6.638   3.153   2.417 -0.0239 -0.0764  1.6954
10295TIP3    H230829   6.780   3.116   2.379 -0.4355  0.1256 -0.1482
10296TIP3   OH230830   8.023   7.225   6.777  0.3679  0.3678  0.8773
10296TIP3    H130831   7.966   7.297   6.753  0.8382  0.7228  0.8024
10296TIP3    H230832   8.103   7.239   6.726  0.7016  0.1487  1.3259
10297TIP3   OH230833   3.381   6.679   4.428  0.0243 -0.0246 -0.4344
10297TIP3    H130834   3.293   6.706   4.453  0.5750  1.2089  0.2421
10297TIP3    H230835   3.382   6.584   4.442 -1.4858 -0.2197 -1.4313
10298TIP3   OH230836   1.402   5.598   4.321  0.0305  0.5982 -0.3780
10298TIP3    H130837   1.464   5.656   4.277 -0.0546  1.3420  0.4574
10298TIP3    H230838   1.454   5.555   4.389 -0.6322  2.3360  1.3273
10299TIP3   OH230839   5.447   0.959   3.235 -0.0107 -0.1861 -0.1085
10299TIP3    H130840   5.363   0.999   3.256 -0.5885 -0.5701 -1.6013
10299TIP3    H230841   5.495   1.026   3.186  1.2530  0.6307  2.0949
10300TIP3   OH230842   6.862   2.675   6.233 -0.3109  0.5297 -0.0737
10300TIP3    H130843   6.954   2.700   6.222 -0.5393  1.3224 -0.3158
10300TIP3    H230844   6.856   2.586   6.198  0.3328  0.5308 -0.1928
10301TIP3   OH230845   4.836   0.464   1.063  0.6393  1.0370  0.1077
10301TIP3    H130846   4.779   0.394   1.095  1.4047 -0.4952 -1.7008
10301TIP3    H230847   4.777   0.523   1.015 -0.0437  1.8246  1.8305
10302TIP3   OH230848   6.958   3.826   1.321 -0.5682 -0.0914  0.1434
10302TIP3    H130849   7.033   3.795   1.271 -0.8009 -0.4573  0.0183
10302TIP3    H230850   6.954   3.769   1.397 -1.4889 -0.9217 -0.5010
10303TIP3   OH230851   0.910   7.117   2.553 -0.2956 -0.3092  0.0357
10303TIP3    H130852   0.980   7.052   2.547 -1.2525 -1.3717  0.0200
10303TIP3    H230853   0.862   7.109   2.470 -0.3009  0.5794 -0.0588
10304TIP3   OH230854   4.540   2.849   5.440 -0.1809 -0.0047  0.3037
10304TIP3    H130855   4.611   2.845   5.505 -0.9761 -0.4691  1.1541
10304TIP3    H230856   4.574   2.798   5.366  0.7167  0.4940  0.3474
10305TIP3   OH230857   7.184   2.696   1.431 -0.3283 -0.1419  0.7442
10305TIP3    H130858   7.228   2.779   1.415 -0.0144 -0.6568 -1.4748
10305TIP3    H230859   7.252   2.640   1.470  0.4613 -0.2854 -0.7234
10306TIP3   OH230860   1.709   1.215   0.558  0.2009 -0.2717  0.2387
10306TIP3    H130861   1.798   1.224   0.523 -0.0110  1.6347  0.0796
10306TIP3    H230862   1.653   1.214   0.481  0.0250 -0.4401  0.3699
10307TIP3   OH230863   6.231   0.928   2.873  0.6878 -0.1385  0.6611
10307TIP3    H130864   6.326   0.940   2.869  0.9055 -1.8675 -0.3327
10307TIP3    H230865   6.208   0.888   2.789 -1.2595  2.1047  0.0387
10308TIP3   OH230866   4.251   6.828   5.044 -1.1003  0.2333  0.0515
10308TIP3    H130867   4.192   6.814   4.970 -0.3878  0.2170 -0.5310
10308TIP3    H230868   4.339   6.831   5.004 -0.7801  1.0959  0.7841
10309TIP3   OH230869   0.168   3.493   6.581  0.0274  0.0523  0.4355
10309TIP3    H130870   0.165   3.412   6.531 -0.7439 -0.8328  1.8500
10309TIP3    H230871   0.108   3.552   6.535 -0.2827 -0.5647  0.0417
10310TIP3   OH230872   1.511   3.137   5.163 -0.6842  0.3506 -0.2160
10310TIP3    H130873   1.417   3.129   5.182 -0.9557 -0.7976 -1.8755
10310TIP3    H230874   1.518   3.217   5.111 -0.7905  0.2758 -0.3459
10311TIP3   OH230875   1.267   1.479   6.338 -0.4901  0.5558 -0.0734
10311TIP3    H130876   1.236   1.393   6.367 -2.7219  1.1160 -0.6099
10311TIP3    H230877   1.252   1.479   6.243  0.9150  1.0042 -0.3129
10312TIP3   OH230878   6.674   5.038   2.032 -0.5397 -0.0225  0.3684
10312TIP3    H130879   6.761   5.044   1.992 -0.4414  1.2906  0.7283
10312TIP3    H230880   6.633   4.964   1.988 -0.5984  1.5934 -2.5287
10313TIP3   OH230881   0.923   5.637   3.968  0.1691 -0.0603  0.3412
10313TIP3    H130882   0.943   5.575   3.898  2.6293 -1.7006  2.2938
10313TIP3    H230883   0.928   5.723   3.926 -0.8300 -1.0157 -1.9274
10314TIP3   OH230884   4.357   1.044   6.429 -0.6352 -0.2054  0.5659
10314TIP3    H130885   4.358   0.979   6.359  0.4856  0.3439  0.0435
10314TIP3    H230886   4.412   1.116   6.396 -1.7359  0.9638  1.1650
10315TIP3   OH230887   8.150   3.124   2.455 -0.5511  0.3307 -0.0276
10315TIP3    H130888   8.212   3.066   2.499  0.7224 -0.4551 -2.6832
10315TIP3    H230889   8.066   3.104   2.496  0.4313 -0.7298  1.6138
10316TIP3   OH230890   7.235   6.317   3.661  0.0833  0.7182 -0.2843
10316TIP3    H130891   7.158   6.373   3.674  0.3734  0.8485  0.9604
10316TIP3    H230892   7.200   6.238   3.618 -0.7234  0.8493  0.1133
10317TIP3   OH230893   0.785   0.762   5.971  0.0384  0.1440 -0.2369
10317TIP3    H130894   0.790   0.693   6.036  0.7155  1.1360  0.7897
10317TIP3    H230895   0.704   0.744   5.923 -0.2444 -0.8398  0.5882
10318TIP3   OH230896   7.402   1.257   5.732  0.0956 -0.4122 -0.4798
10318TIP3    H130897   7.401   1.244   5.637  1.0394  1.3494 -0.7579
10318TIP3    H230898   7.490   1.233   5.758 -0.4218 -1.7619  0.1279
10319TIP3   OH230899   2.671   4.060   5.671  0.5919  0.0911  0.0380
10319TIP3    H130900   2.579   4.036   5.679  1.0581 -1.5772  0.8835
10319TIP3    H230901   2.670   4.152   5.645 -1.2934  0.4120  1.0828
10320TIP3   OH230902   2.036   4.575   1.574 -1.1000  0.6223 -0.1954
10320TIP3    H130903   2.118   4.574   1.622 -0.0641  0.6097 -1.8748
10320TIP3    H230904   1.969   4.597   1.639  0.3364  1.4565  1.0425
10321TIP3   OH230905   5.744   0.925   5.109 -0.1380 -1.1358 -0.5480
10321TIP3    H130906   5.673   0.894   5.165  0.2771 -1.6282 -0.2828
10321TIP3    H230907   5.805   0.967   5.169 -0.7438  0.3207 -0.9180
10322TIP3   OH230908   7.218   0.749   4.337  0.0026  0.1164 -0.2942
10322TIP3    H130909   7.243   0.746   4.244  2.4913  1.5933  0.2301
10322TIP3    H230910   7.192   0.839   4.352  2.5398  0.7251  1.0186
10323TIP3   OH230911   5.907   3.577   2.921  0.0656  0.1693 -0.4603
10323TIP3    H130912   6.003   3.569   2.918  0.3067  2.1590 -0.0469
10323TIP3    H230913   5.878   3.541   2.838  1.0489 -1.5056 -0.1336
10324TIP3   OH230914   4.151   7.661   5.476  0.0468  0.4687  0.0695
10324TIP3    H130915   4.187   7.624   5.557  1.4868 -2.2318 -1.6750
10324TIP3    H230916   4.207   7.737   5.459  1.8260 -0.8002 -0.0011
10325TIP3   OH230917   8.182   0.511   4.163  0.1867  0.2588 -0.0287
10325TIP3    H130918   8.260   0.560   4.189 -1.2061  2.2646  0.6066
10325TIP3    H230919   8.189   0.505   4.068  0.0527  2.4524 -0.2431
10326TIP3   OH230920   5.892   6.650   5.311  0.3252 -0.5076 -0.3330
10326TIP3    H130921   5.944   6.702   5.250  0.0279 -0.9409 -0.9659
10326TIP3    H230922   5.811   6.631   5.264 -0.2861 -0.1073  0.5234
10327TIP3   OH230923   7.453   5.939   1.176 -0.3729  0.1090 -0.0472
10327TIP3    H130924   7.509   5.955   1.252 -2.5408  0.5413  1.5425
10327TIP3    H230925   7.513   5.906   1.109  1.6017 -0.5017  1.8950
10328TIP3   OH230926   5.144   2.918   2.076 -0.1529 -0.5546  0.5480
10328TIP3    H130927   5.203   2.843   2.076  0.2849 -0.2730 -1.6429
10328TIP3    H230928   5.193   2.988   2.032 -1.0136  0.6534  1.4170
10329TIP3   OH230929   6.108   4.886   2.141 -0.5949  0.0484 -0.0290
10329TIP3    H130930   6.065   4.811   2.181  0.1089 -0.0029  0.6538
10329TIP3    H230931   6.055   4.961   2.166 -1.5391 -0.2463 -1.0546
10330TIP3   OH230932   2.946   3.838   4.138 -0.0110  0.1728 -0.1665
10330TIP3    H130933   2.860   3.854   4.176  0.2801  1.0351  0.1522
10330TIP3    H230934   2.934   3.851   4.044  0.2511  2.5912  0.0869
10331TIP3   OH230935   2.411   2.247   3.452  0.0761  0.5393 -0.1099
10331TIP3    H130936   2.323   2.215   3.475 -0.5817  1.0587 -1.6877
10331TIP3    H230937   2.462   2.239   3.532 -1.0076 -1.1757  0.4707
10332TIP3   OH230938   6.923   0.960   2.352 -0.1073 -0.0512 -0.1756
10332TIP3    H130939   6.840   0.922   2.379  0.9063 -1.8306  0.5785
10332TIP3    H230940   6.967   0.984   2.434  1.3728 -1.9652 -0.3317
10333TIP3   OH230941   5.049   3.855   1.904 -0.0060 -0.3079 -0.1048
10333TIP3    H130942   5.091   3.938   1.927 -0.3056 -0.0103 -0.6109
10333TIP3    H230943   5.005   3.873   1.821  0.4666 -1.1576 -0.5491
10334TIP3   OH230944   4.273   7.153   1.411 -0.4601 -0.3420  0.7052
10334TIP3    H130945   4.270   7.058   1.421  1.2465 -0.4920  0.1576
10334TIP3    H230946   4.231   7.170   1.327  4.6529 -1.3778 -2.5054
10335TIP3   OH230947   2.982   5.196   5.006  0.6735 -0.0104 -0.1013
10335TIP3    H130948   2.893   5.219   4.981  0.4595 -0.4582  0.2236
10335TIP3    H230949   2.978   5.102   5.024  0.8990  0.2249  1.2467
10336TIP3   OH230950   7.878   2.354   1.865  0.1596 -0.4820  0.4320
10336TIP3    H130951   7.890   2.449   1.868  5.7487 -0.8443  0.6684
10336TIP3    H230952   7.925   2.328   1.786  0.4950 -3.1632  1.4377
10337TIP3   OH230953   3.224   6.975   2.437 -0.2205  0.0161  0.1988
10337TIP3    H130954   3.278   7.049   2.465 -0.1890  0.9605 -2.1657
10337TIP3    H230955   3.135   6.999   2.463 -0.2641  1.1011 -0.8551
10338TIP3   OH230956   0.062   5.982   6.212  0.3090  0.0636  0.1995
10338TIP3    H130957   0.146   5.952   6.177 -0.1132 -0.1101 -0.6941
10338TIP3    H230958  -0.003   5.926   6.170 -0.2775  0.3816  0.6710
10339TIP3   OH230959   8.061   4.855   3.345 -0.0338  0.8395  0.3847
10339TIP3    H130960   8.101   4.919   3.405 -1.4931  0.7501  1.5109
10339TIP3    H230961   7.998   4.807   3.399  0.3154 -0.9007 -0.6785
10340TIP3   OH230962   2.356   1.486   1.527 -0.9210  0.4121 -0.6974
10340TIP3    H130963   2.402   1.567   1.503 -1.5379  1.4614  1.4136
10340TIP3    H230964   2.397   1.419   1.473  2.2329  1.4839  0.0982
10341TIP3   OH230965   4.492   2.738   2.317 -0.3055 -0.9506 -0.7456
10341TIP3    H130966   4.524   2.726   2.228  1.6678 -0.5257 -0.1640
10341TIP3    H230967   4.471   2.832   2.322 -0.7848 -1.0498 -0.8653
10342TIP3   OH230968   7.297   0.135   3.957 -0.2607  0.4223  0.0739
10342TIP3    H130969   7.362   0.179   4.012  0.1128 -0.1232  0.0808
10342TIP3    H230970   7.275   0.055   4.005 -1.6527  1.0631  0.5230
10343TIP3   OH230971   6.197   0.620   3.421 -0.2175  0.5127 -0.7082
10343TIP3    H130972   6.216   0.704   3.465 -0.1835  0.6461 -0.9742
10343TIP3    H230973   6.277   0.601   3.372 -0.3741  0.5279 -0.9695
10344TIP3   OH230974   3.839   5.492   6.042  0.2232  0.0107 -0.2885
10344TIP3    H130975   3.760   5.465   5.996 -0.2298 -0.2713  0.6303
10344TIP3    H230976   3.889   5.541   5.977 -1.8173  2.3427 -0.2301
10345TIP3   OH230977   8.103   3.770   3.125  0.2174 -0.5024 -0.2586
10345TIP3    H130978   8.059   3.798   3.206 -0.1633 -1.6161 -0.0520
10345TIP3    H230979   8.160   3.843   3.102 -2.0693  1.2173 -0.7958
10346TIP3   OH230980   4.313   2.926   6.411 -0.0008  0.1774 -0.0220
10346TIP3    H130981   4.367   2.988   6.460  0.3062 -0.1729  0.0933
10346TIP3    H230982   4.261   2.882   6.478 -1.2474  1.2818 -0.2370
10347TIP3   OH230983   2.138   7.618   6.416  0.1920 -0.2016  0.1982
10347TIP3    H130984   2.181   7.627   6.331 -0.0404 -2.7791 -0.2692
10347TIP3    H230985   2.092   7.701   6.428  0.2507  0.2549 -2.1849
10348TIP3   OH230986   0.682   5.171   6.201 -0.4088  0.2091  0.0066
10348TIP3    H130987   0.657   5.094   6.253  0.4470 -0.2202 -0.2042
10348TIP3    H230988   0.735   5.136   6.129  0.7791  1.0641  0.4251
10349TIP3   OH230989   1.869   2.847   2.436  0.1010  0.1794 -1.1242
10349TIP3    H130990   1.827   2.770   2.400  1.2603 -0.5267 -1.0183
10349TIP3    H230991   1.797   2.908   2.454 -0.8752 -1.0522 -0.7532
10350TIP3   OH230992   6.482   0.926   5.575 -0.4426  0.4945 -0.0387
10350TIP3    H130993   6.438   1.002   5.613  0.0488  0.2261  1.1056
10350TIP3    H230994   6.489   0.864   5.648  0.9600  0.1446 -0.4529
10351TIP3   OH230995   6.499   7.162   2.392  0.1402  0.8084  0.0365
10351TIP3    H130996   6.507   7.077   2.350 -0.5667  0.9662 -0.4286
10351TIP3    H230997   6.473   7.142   2.482 -0.7601  0.5494 -0.2692
10352TIP3   OH230998   2.714   2.053   6.493  0.1900 -0.3767  0.7415
10352TIP3    H130999   2.682   2.137   6.460 -3.6703 -1.7278  0.4803
10352TIP3    H231000   2.742   2.072   6.582 -0.6487  1.2029  0.7101
10353TIP3   OH231001   7.807   2.817   1.327  0.1023  0.6145  0.2925
10353TIP3    H131002   7.887   2.869   1.331 -0.2506  1.1829  0.1223
10353TIP3    H231003   7.816   2.753   1.397  0.6059  0.8188  0.4166
10354TIP3   OH231004   7.858   6.343   0.522 -0.4713 -0.0679  0.2897
10354TIP3    H131005   7.912   6.285   0.469 -1.0692  1.6082 -2.3089
10354TIP3    H231006   7.772   6.340   0.482 -0.5081  2.6063 -0.0197
10355TIP3   OH231007   5.305   5.642   0.041  0.2188  0.2234 -0.6532
10355TIP3    H131008   5.222   5.670   0.003 -0.1557  0.7995  0.5329
10355TIP3    H231009   5.304   5.546   0.033 -0.1024  0.2849 -1.5258
10356TIP3   OH231010   1.091   6.263   2.054 -0.4784 -0.1551 -0.3784
10356TIP3    H131011   1.071   6.171   2.066  0.5124 -0.3059  0.2575
10356TIP3    H231012   1.035   6.309   2.117  0.1368 -0.4506  0.3918
10357TIP3   OH231013   6.188   0.514   5.496 -0.1400  0.0106  0.3322
10357TIP3    H131014   6.097   0.523   5.468 -0.8669 -1.5046  1.9704
10357TIP3    H231015   6.227   0.454   5.433 -0.3946  0.3206 -0.1249
10358TIP3   OH231016   6.319   0.878   3.565  0.2825  0.1194 -0.8916
10358TIP3    H131017   6.326   0.907   3.655 -1.3725  0.3085 -0.7809
10358TIP3    H231018   6.407   0.887   3.529  0.8257  0.6424  0.5098
10359TIP3   OH231019   0.083   5.344   4.350  0.3222 -0.1639 -0.0385
10359TIP3    H131020   0.111   5.340   4.441  1.1049  1.8115 -0.1234
10359TIP3    H231021   0.034   5.264   4.336  0.2268 -0.5399  2.1021
10360TIP3   OH231022   0.759   5.872   2.063  0.4845  0.0768  0.2355
10360TIP3    H131023   0.812   5.801   2.026  2.6457  0.7523  1.9107
10360TIP3    H231024   0.690   5.827   2.112  0.4719 -0.8312 -0.5852
10361TIP3   OH231025   4.922   6.000   5.502  0.7459 -0.6004  0.3000
10361TIP3    H131026   4.856   6.021   5.569 -0.7826  0.1339 -1.3553
10361TIP3    H231027   4.959   6.084   5.477  0.0635 -0.6648 -0.9809
10362TIP3   OH231028   0.888   2.430   1.803  0.2020 -0.2786  0.0777
10362TIP3    H131029   0.874   2.405   1.711 -1.7633  0.0718  0.2301
10362TIP3    H231030   0.832   2.371   1.852  0.4787  0.1953  0.9781
10363TIP3   OH231031   7.460   7.549   5.011  0.5313 -0.1758  0.3040
10363TIP3    H131032   7.475   7.459   4.980  3.2076  0.7544 -1.4116
10363TIP3    H231033   7.427   7.595   4.934 -2.6095  0.0592  1.6151
10364TIP3   OH231034   7.146   1.894   0.334  0.1111  0.1867  0.3595
10364TIP3    H131035   7.209   1.831   0.299  0.4633  0.4875  0.4538
10364TIP3    H231036   7.076   1.896   0.268 -0.1152 -0.6224  0.5614
10365TIP3   OH231037   5.946   4.881   0.790 -0.1299 -0.5094  0.9024
10365TIP3    H131038   5.861   4.838   0.783 -0.1430 -0.5320  1.1788
10365TIP3    H231039   5.987   4.839   0.865  0.3669 -0.9117  0.4145
10366TIP3   OH231040   4.680   3.223   2.079  0.0078 -0.1567  0.0761
10366TIP3    H131041   4.722   3.283   2.141  0.9198 -1.6715  1.0036
10366TIP3    H231042   4.693   3.263   1.994  0.8821  0.7980  0.6368
10367TIP3   OH231043   1.788   5.577   3.281  0.3620  0.3367  0.0224
10367TIP3    H131044   1.823   5.500   3.326 -0.0037 -0.0482 -0.3554
10367TIP3    H231045   1.845   5.587   3.204  0.0829  0.1278 -0.2130
10368TIP3   OH231046   6.189   4.067   3.649  0.1540 -0.5899  0.3970
10368TIP3    H131047   6.145   4.041   3.568 -1.7096  0.5983  0.9613
10368TIP3    H231048   6.122   4.060   3.716  1.4917 -0.9405  1.7597
10369TIP3   OH231049   0.303   6.506   1.711 -0.0297 -0.0456  0.3147
10369TIP3    H131050   0.362   6.437   1.741 -0.6659 -0.4482  0.6566
10369TIP3    H231051   0.349   6.587   1.732 -0.1613 -0.3230  1.7853
10370TIP3   OH231052   6.923   7.246   5.116 -0.3654  0.0944  0.1123
10370TIP3    H131053   6.832   7.227   5.137  0.0933 -2.6964 -0.0846
10370TIP3    H231054   6.922   7.336   5.082 -3.4647 -0.6977 -2.3556
10371TIP3   OH231055   5.222   2.495   6.500 -0.4981 -0.5728 -0.3925
10371TIP3    H131056   5.187   2.445   6.426 -0.9108  0.4514 -0.9097
10371TIP3    H231057   5.156   2.562   6.517  0.1386 -0.0657  0.1508
10372TIP3   OH231058   4.863   1.348   4.646 -0.1048  0.7093 -0.0182
10372TIP3    H131059   4.771   1.333   4.624 -0.2536 -0.8205  1.4475
10372TIP3    H231060   4.880   1.438   4.617 -1.8062  0.7400 -1.0754
10373TIP3   OH231061   1.707   2.496   6.342  0.5673  0.5104 -0.6621
10373TIP3    H131062   1.802   2.489   6.328  0.4631 -0.2719 -1.0198
10373TIP3    H231063   1.697   2.489   6.437  0.7980 -0.3801 -0.6968
10374TIP3   OH231064   6.938   6.466   0.193 -0.2205 -0.1585 -0.2560
10374TIP3    H131065   6.998   6.396   0.221  0.6469  0.2663 -1.0110
10374TIP3    H231066   6.937   6.459   0.097 -0.5803  0.5011 -0.3016
10375TIP3   OH231067   7.828   1.049   2.749  0.0583 -0.5388 -0.5689
10375TIP3    H131068   7.817   1.118   2.684 -0.4509 -0.0629  0.0099
10375TIP3    H231069   7.876   1.091   2.821 -0.3134 -0.7583 -0.1850
10376TIP3   OH231070   3.986   4.862   4.177  0.3240  0.0707  0.0971
10376TIP3    H131071   3.992   4.840   4.270  0.6896  0.1292  0.0889
10376TIP3    H231072   4.077   4.880   4.150  0.1051  1.0173 -0.0361
10377TIP3   OH231073   5.924   4.254   4.424 -0.0647 -0.0861 -0.3943
10377TIP3    H131074   5.923   4.195   4.349 -2.3775 -0.7483  0.0734
10377TIP3    H231075   5.884   4.335   4.392 -1.0396 -0.3635  0.0583
10378TIP3   OH231076   5.028   3.082   3.542 -0.4133  0.3283 -0.7807
10378TIP3    H131077   4.983   3.131   3.611 -1.5132  0.5521 -1.6203
10378TIP3    H231078   5.044   2.996   3.581 -1.3107  0.3415 -0.3384
10379TIP3   OH231079   6.794   4.691   5.364 -0.8411  0.7196  0.3455
10379TIP3    H131080   6.837   4.730   5.288  0.1535  1.2177  1.1342
10379TIP3    H231081   6.751   4.613   5.330 -1.3402  1.5152 -0.9273
10380TIP3   OH231082   5.305   3.223   4.745  0.5536  0.0692 -0.4578
10380TIP3    H131083   5.390   3.262   4.725  0.7808 -0.7129 -1.0945
10380TIP3    H231084   5.260   3.220   4.661 -0.3276  0.9607 -0.0378
10381TIP3   OH231085   4.957   2.904   2.517  0.4086 -0.3572 -0.3732
10381TIP3    H131086   4.877   2.855   2.497  0.1083  0.0733 -0.2494
10381TIP3    H231087   4.935   2.952   2.597  0.4635  0.5028 -0.8666
10382TIP3   OH231088   2.266   2.796   0.914  0.4370 -0.2453 -0.2585
10382TIP3    H131089   2.304   2.859   0.976  0.1061 -0.1676 -0.1364
10382TIP3    H231090   2.299   2.825   0.829  1.4793 -0.7728 -0.0584
10383TIP3   OH231091   3.413   0.337   0.132 -0.2293  0.3627  0.5355
10383TIP3    H131092   3.421   0.241   0.130  0.8629  0.3357  2.6484
10383TIP3    H231093   3.481   0.368   0.072 -0.7188 -0.1747 -0.3094
10384TIP3   OH231094   6.898   0.128   2.252  0.6162  0.2177  0.7940
10384TIP3    H131095   6.896   0.081   2.335 -0.6729 -0.8522  0.1838
10384TIP3    H231096   6.914   0.060   2.186  0.5132  0.8862  0.0583
10385TIP3   OH231097   3.898   1.318   2.287 -0.4788  0.2010 -0.1559
10385TIP3    H131098   3.893   1.393   2.228 -1.9008  0.5000  0.3239
10385TIP3    H231099   3.923   1.355   2.371 -1.2145  0.1545  0.0890
10386TIP3   OH231100   7.953   5.560   5.014  0.5121  0.2674  0.6354
10386TIP3    H131101   7.875   5.581   4.963 -0.5741 -2.0626  1.1755
10386TIP3    H231102   7.923   5.564   5.105  0.3512 -2.6127  0.8096
10387TIP3   OH231103   4.363   3.764   3.902 -0.3798 -0.5493  0.5127
10387TIP3    H131104   4.274   3.789   3.880  1.0469  2.9476 -2.2209
10387TIP3    H231105   4.416   3.793   3.827  3.2731 -0.9437  2.6862
10388TIP3   OH231106   2.093   3.546   1.241  0.0936  0.1649  0.6378
10388TIP3    H131107   2.089   3.450   1.244 -1.2905  0.0284 -2.0629
10388TIP3    H231108   2.092   3.573   1.333 -0.1916 -2.3838  1.4744
10389TIP3   OH231109   0.259   5.866   0.728  0.1023  0.6699 -0.3517
10389TIP3    H131110   0.352   5.846   0.739 -0.3829 -1.3345  0.5328
10389TIP3    H231111   0.247   5.950   0.772  1.6135  1.3296 -1.1241
10390TIP3   OH231112   8.050   7.171   2.680 -0.3989 -0.1236  0.4545
10390TIP3    H131113   7.990   7.108   2.719 -1.2870  0.1834 -0.3657
10390TIP3    H231114   8.094   7.122   2.610 -0.8471  0.0616  0.0346
10391TIP3   OH231115   6.583   3.988   4.434 -0.0857 -0.0315 -0.7971
10391TIP3    H131116   6.651   4.024   4.491 -0.1451  1.9506 -1.8501
10391TIP3    H231117   6.501   4.021   4.470 -0.3566 -0.9741 -0.5267
10392TIP3   OH231118   6.532   3.714   6.284 -0.1651 -0.1757 -0.1175
10392TIP3    H131119   6.445   3.678   6.294 -0.6813  0.6039 -1.4745
10392TIP3    H231120   6.572   3.663   6.214  0.0472  0.2137 -0.2860
10393TIP3   OH231121   2.345   6.187   1.516 -0.0149  0.1227  0.1853
10393TIP3    H131122   2.314   6.097   1.508 -0.9704  0.3233  1.2160
10393TIP3    H231123   2.272   6.233   1.558  0.6889  1.2412  0.2240
10394TIP3   OH231124   3.985   1.688   3.508 -0.3014 -0.4857 -0.2204
10394TIP3    H131125   3.966   1.778   3.537 -0.8785  0.0334 -2.1199
10394TIP3    H231126   3.900   1.651   3.487  0.1943  0.3311 -4.4219
10395TIP3   OH231127   6.578   5.806   6.587  1.1949  0.7513  0.1517
10395TIP3    H131128   6.501   5.764   6.549  0.8003  1.4337  0.1892
10395TIP3    H231129   6.630   5.833   6.512  1.0547  0.9191  0.1142
10396TIP3   OH231130   7.325   1.134   3.523  0.2993  0.3279  0.4708
10396TIP3    H131131   7.410   1.122   3.565  1.0428  1.6788 -0.5499
10396TIP3    H231132   7.275   1.056   3.547  1.7790 -0.4448  1.1928
10397TIP3   OH231133   0.329   7.222   6.591 -0.7074  0.0276  0.6418
10397TIP3    H131134   0.358   7.197   6.678 -0.8649 -1.1373  0.3665
10397TIP3    H231135   0.287   7.144   6.555 -0.3536  0.3792 -0.6035
10398TIP3   OH231136   4.853   2.754   0.343 -0.3445  0.5944  0.5179
10398TIP3    H131137   4.939   2.727   0.376 -0.2193  1.3217  0.8189
10398TIP3    H231138   4.865   2.845   0.316 -0.5559  0.1456 -1.1778
10399TIP3   OH231139   4.798   6.700   3.787 -0.0270  0.3472  0.3198
10399TIP3    H131140   4.749   6.624   3.756  2.3089 -1.0936 -0.1226
10399TIP3    H231141   4.808   6.685   3.881  2.4649 -1.2436 -0.1245
10400TIP3   OH231142   3.085   7.693   0.474 -0.3799 -0.2202 -0.4186
10400TIP3    H131143   3.067   7.669   0.384 -0.9305 -1.7492  0.0751
10400TIP3    H231144   3.130   7.617   0.511  1.1602  0.9303  0.2261
10401TIP3   OH231145   7.480   4.101   0.666  0.2666 -0.0451  0.0869
10401TIP3    H131146   7.547   4.167   0.650  1.9332 -2.2548 -3.4952
10401TIP3    H231147   7.400   4.138   0.627  0.7914  0.4791 -0.5201
10402TIP3   OH231148   1.299   2.438   4.198 -0.1632 -0.0577 -0.1027
10402TIP3    H131149   1.298   2.364   4.138 -0.3941 -0.7498  0.7394
10402TIP3    H231150   1.302   2.515   4.140 -0.0360 -0.7042 -0.9873
10403TIP3   OH231151   2.229   4.354   4.050  0.6214  0.4077  0.1757
10403TIP3    H131152   2.314   4.323   4.083  0.7801 -2.1864 -2.2765
10403TIP3    H231153   2.249   4.389   3.963 -0.6842  0.7304 -0.0111
10404TIP3   OH231154   8.163   6.160   5.410 -0.6516  0.0706  0.2714
10404TIP3    H131155   8.193   6.186   5.498  0.7787  1.3926 -0.5417
10404TIP3    H231156   8.190   6.233   5.354  0.0674 -1.5089 -1.5498
10405TIP3   OH231157   7.537   2.353   1.605  0.2880  0.4222  0.4917
10405TIP3    H131158   7.570   2.328   1.692 -0.8112  2.8877  1.7148
10405TIP3    H231159   7.507   2.271   1.566  1.4331 -0.8539  2.1329
10406TIP3   OH231160   7.649   0.673   0.940 -0.0542  0.1212 -0.3676
10406TIP3    H131161   7.580   0.732   0.908  1.6979  1.6585 -1.5203
10406TIP3    H231162   7.729   0.726   0.938  1.2982 -1.7717  0.3331
10407TIP3   OH231163   5.352   6.099   2.461 -0.3588  0.1155  0.1401
10407TIP3    H131164   5.284   6.116   2.396  1.6473  1.2471 -1.8094
10407TIP3    H231165   5.333   6.159   2.533 -0.6189  1.4457 -1.0161
10408TIP3   OH231166   2.740   2.765   5.490 -0.1252  0.0024  0.1885
10408TIP3    H131167   2.820   2.772   5.541 -1.3145  0.7016  2.0683
10408TIP3    H231168   2.704   2.680   5.514 -0.4086  0.0831  0.0559
10409TIP3   OH231169   7.720   1.819   0.015  0.0810  0.7140 -0.0981
10409TIP3    H131170   7.798   1.810   0.070  0.2158  1.0845 -0.2282
10409TIP3    H231171   7.655   1.761   0.056  0.0765  1.2249  0.6478
10410TIP3   OH231172   6.379   4.981   2.243 -0.7974 -0.0320  0.2437
10410TIP3    H131173   6.352   4.926   2.169  1.6573  0.2865 -0.9897
10410TIP3    H231174   6.363   5.071   2.213  0.4260  0.1086 -0.0572
10411TIP3   OH231175   2.162   3.401   2.721  0.6056  0.0369  0.4217
10411TIP3    H131176   2.207   3.403   2.637  1.4437  2.2453  0.8571
10411TIP3    H231177   2.232   3.403   2.786 -0.0381  2.0982  1.1276
10412TIP3   OH231178   5.154   7.650   4.844  0.2821  0.0720  0.4171
10412TIP3    H131179   5.198   7.568   4.820 -0.6898 -0.2872 -0.1960
10412TIP3    H231180   5.111   7.679   4.764  0.8165  1.3351  0.5653
10413TIP3   OH231181   6.818   1.429   6.723  0.2949 -0.1636 -0.2390
10413TIP3    H131182   6.767   1.349   6.732  1.1223 -0.7017 -0.2445
10413TIP3    H231183   6.781   1.489   6.787  0.5872 -1.0425  0.7891
10414TIP3   OH231184   2.701   7.655   0.833  0.1594  0.1607 -0.5621
10414TIP3    H131185   2.630   7.663   0.769 -1.5870 -3.6244  0.6186
10414TIP3    H231186   2.757   7.587   0.797  0.1307 -0.7406  1.0553
10415TIP3   OH231187   5.957   6.672   3.438  0.4596  0.3432  0.0841
10415TIP3    H131188   5.949   6.663   3.533  0.5656  1.2737  0.1915
10415TIP3    H231189   5.945   6.766   3.421  0.1523  0.1493 -0.8533
10416TIP3   OH231190   7.687   1.183   0.563  0.1574  0.2427 -0.0951
10416TIP3    H131191   7.738   1.132   0.499 -0.2685 -0.4135  0.0787
10416TIP3    H231192   7.678   1.124   0.638 -1.2085  0.1929 -0.2804
10417TIP3   OH231193   0.370   3.302   5.818  0.2192 -0.0042 -0.1022
10417TIP3    H131194   0.367   3.398   5.813  0.6355  0.0564  0.6066
10417TIP3    H231195   0.461   3.279   5.800  0.8670 -0.0224  2.6691
10418TIP3   OH231196   7.661   3.385   3.134  0.0994 -0.6278 -0.0609
10418TIP3    H131197   7.594   3.451   3.119 -1.7544 -2.5529 -0.6733
10418TIP3    H231198   7.741   3.424   3.097 -1.1039  0.8973 -1.2095
10419TIP3   OH231199   4.522   4.471   5.526 -0.4912 -0.7796 -0.5514
10419TIP3    H131200   4.523   4.499   5.617  0.8495  0.3026 -0.8701
10419TIP3    H231201   4.593   4.520   5.485 -1.2184 -1.0713 -2.2342
10420TIP3   OH231202   0.618   0.044   5.635 -0.1436 -0.1292  0.6315
10420TIP3    H131203   0.653  -0.015   5.568  0.6852  0.7468  0.2902
10420TIP3    H231204   0.669   0.025   5.713 -0.2325 -0.2195  0.6694
10421TIP3   OH231205   3.080   2.308   5.042  0.4230 -0.1186 -0.0512
10421TIP3    H131206   3.018   2.361   4.993 -0.3640  0.0362  1.0629
10421TIP3    H231207   3.163   2.317   4.996 -0.2538  0.1300 -1.2438
10422TIP3   OH231208   7.976   1.926   1.336  0.2465 -0.2788 -0.4403
10422TIP3    H131209   8.041   1.959   1.274 -0.2379  1.0482 -0.2732
10422TIP3    H231210   8.026   1.874   1.398  0.9363 -0.4800 -1.1569
10423TIP3   OH231211   0.427   2.360   6.600 -0.6325  0.5302 -0.3139
10423TIP3    H131212   0.456   2.281   6.644  0.6691  1.1293 -0.0625
10423TIP3    H231213   0.353   2.331   6.546  0.0842 -0.9369 -0.5623
10424TIP3   OH231214   3.106   6.374   6.252  0.2699 -0.1153  0.0709
10424TIP3    H131215   3.040   6.443   6.247  0.2554 -0.1611 -0.4196
10424TIP3    H231216   3.168   6.406   6.318  0.0355  0.1666  0.1594
10425TIP3   OH231217   0.541   6.660   2.630 -0.0679  1.1624 -0.2517
10425TIP3    H131218   0.504   6.679   2.544 -1.6438  1.1144  0.3813
10425TIP3    H231219   0.634   6.683   2.621 -0.4227  2.2458 -1.6251
10426TIP3   OH231220   7.126   1.278   5.775  0.2351 -0.7250  0.0651
10426TIP3    H131221   7.220   1.280   5.789  0.5363 -0.2973 -1.7244
10426TIP3    H231222   7.104   1.185   5.771  0.6326 -0.8237  0.2078
10427TIP3   OH231223   4.896  -0.002   4.451 -0.2261 -0.3576 -0.0311
10427TIP3    H131224   4.831   0.016   4.519 -0.1397 -2.9438  0.8521
10427TIP3    H231225   4.854   0.025   4.369 -0.1908  3.1762  0.9462
10428TIP3   OH231226   7.250   4.365   3.766 -0.1413  0.2378 -0.1775
10428TIP3    H131227   7.278   4.276   3.744 -1.7581 -0.8677  1.8918
10428TIP3    H231228   7.256   4.413   3.683 -2.9316 -2.8055 -2.4268
10429TIP3   OH231229   4.964   0.608   1.625 -0.7446 -0.3026  0.8711
10429TIP3    H131230   5.014   0.616   1.707 -0.5398 -0.1303  0.7314
10429TIP3    H231231   4.873   0.609   1.653 -0.7591  1.9422  0.9614
10430TIP3   OH231232   0.850   1.456   4.182  0.2535 -0.0417 -0.6380
10430TIP3    H131233   0.905   1.502   4.119  2.3980  0.0902  1.2036
10430TIP3    H231234   0.912   1.417   4.244 -1.6500 -2.2222  0.0300
10431TIP3   OH231235   4.901   7.330   6.508 -0.2255 -0.1424  0.2717
10431TIP3    H131236   4.898   7.235   6.518  0.5135 -0.2755 -0.6363
10431TIP3    H231237   4.875   7.346   6.418  0.6559  0.4323  0.1053
10432TIP3   OH231238   6.060   7.122   4.213 -0.7866  0.1215 -0.1678
10432TIP3    H131239   6.101   7.206   4.191 -0.1148  0.1254  1.0208
10432TIP3    H231240   5.966   7.137   4.200 -0.8326  1.5623  1.5356
10433TIP3   OH231241   1.214   6.541   1.993  0.6687 -0.7203 -0.1260
10433TIP3    H131242   1.248   6.471   2.049  1.9418 -0.1054 -0.0805
10433TIP3    H231243   1.226   6.508   1.904  0.7365 -0.7837 -0.0938
10434TIP3   OH231244   6.729   6.569   1.016 -0.3788  0.2219 -0.6069
10434TIP3    H131245   6.668   6.563   1.090 -0.0166  0.6258 -0.2677
10434TIP3    H231246   6.704   6.651   0.973 -1.6644 -0.8025 -1.9200
10435TIP3   OH231247   6.759   5.990   6.099  0.4120  0.2711  0.9373
10435TIP3    H131248   6.674   5.966   6.061 -0.4041  0.7763  2.3577
10435TIP3    H231249   6.755   6.085   6.109  2.4190  0.7704 -1.8358
10436TIP3   OH231250   2.262   6.532   3.262 -0.5738  0.5195 -0.0933
10436TIP3    H131251   2.279   6.627   3.262 -2.0490  0.8192 -0.2507
10436TIP3    H231252   2.340   6.493   3.302  0.3322  1.7457 -0.5936
10437TIP3   OH231253   4.949   1.566   0.643 -0.3165  0.2321  0.2913
10437TIP3    H131254   4.903   1.487   0.612 -1.7110  0.2652  2.1283
10437TIP3    H231255   4.891   1.603   0.710  1.5894  1.3009  1.4279
10438TIP3   OH231256   4.990   0.620   6.656  0.0204  0.2062 -0.0265
10438TIP3    H131257   4.927   0.687   6.631  0.2233  0.3452 -0.1724
10438TIP3    H231258   4.967   0.596   6.745 -0.6212 -0.1865 -0.2901
10439TIP3   OH231259   5.857   2.386   1.024 -0.1555  0.3155 -0.3608
10439TIP3    H131260   5.871   2.415   1.114  0.3124  1.8986 -0.9145
10439TIP3    H231261   5.930   2.326   1.006 -0.1441  0.1431  0.2296
10440TIP3   OH231262   1.607   5.683   6.316 -0.1546  0.3101  0.1921
10440TIP3    H131263   1.529   5.692   6.261  0.3564 -0.6384 -0.7324
10440TIP3    H231264   1.646   5.770   6.317 -0.1335  0.3345 -1.0453
10441TIP3   OH231265   1.204   0.691   0.893  0.1287  0.3679 -0.0982
10441TIP3    H131266   1.187   0.626   0.825  1.6101 -0.2500  0.0731
10441TIP3    H231267   1.118   0.721   0.920 -0.5702 -1.1073 -0.5825
10442TIP3   OH231268   0.738   6.848   0.405 -0.1964 -0.1057 -0.1816
10442TIP3    H131269   0.722   6.885   0.318 -0.7223 -0.8996 -0.4378
10442TIP3    H231270   0.743   6.924   0.463  1.7799  0.5468 -1.1254
10443TIP3   OH231271   2.348   0.435   6.119  0.7762 -0.1252  0.2430
10443TIP3    H131272   2.343   0.346   6.154  1.1906  0.0235  0.6869
10443TIP3    H231273   2.434   0.466   6.145  0.9448  0.1318 -0.5841
10444TIP3   OH231274   7.913   3.962   2.836 -0.0419 -0.0628 -0.2655
10444TIP3    H131275   7.997   4.000   2.864  0.4526 -1.3756  0.0984
10444TIP3    H231276   7.936   3.904   2.763 -0.4693 -1.2123  0.4847
10445TIP3   OH231277   1.393   1.384   3.233 -0.3515  0.2607  0.1413
10445TIP3    H131278   1.421   1.300   3.270  1.0623  0.1300 -1.1307
10445TIP3    H231279   1.412   1.448   3.302  0.1882 -0.2443  0.4661
10446TIP3   OH231280   3.421   0.295   4.104  0.2008  0.1122 -0.0312
10446TIP3    H131281   3.381   0.333   4.026 -1.8899  2.2055  1.8858
10446TIP3    H231282   3.478   0.365   4.137 -1.0972  0.4229  1.7300
10447TIP3   OH231283   2.450   3.507   2.809 -0.3069 -0.2903 -0.5071
10447TIP3    H131284   2.416   3.542   2.726 -1.5172 -1.4055 -0.5178
10447TIP3    H231285   2.409   3.562   2.876 -1.7630 -1.2920 -0.5448
10448TIP3   OH231286   7.626   0.959   2.468 -0.0184  0.1355 -0.2955
10448TIP3    H131287   7.620   1.046   2.507 -1.9118  0.3522 -0.9816
10448TIP3    H231288   7.535   0.933   2.453  0.3696 -2.6469  1.3601
10449TIP3   OH231289   7.159   1.416   6.466 -0.0206 -0.2919  0.0123
10449TIP3    H131290   7.169   1.493   6.522  1.4507 -0.1583 -0.4019
10449TIP3    H231291   7.117   1.450   6.387 -1.8112 -0.4244  0.8540
10450TIP3   OH231292   6.581   2.306   6.415  0.5410 -0.3512  0.0276
10450TIP3    H131293   6.596   2.221   6.455  1.3895 -0.7960 -1.1910
10450TIP3    H231294   6.486   2.319   6.422  0.5203 -0.9172  1.1125
10451TIP3   OH231295   0.649   1.621   4.085 -0.1647  0.1377  0.0514
10451TIP3    H131296   0.565   1.617   4.131  0.1617 -1.0449  0.5961
10451TIP3    H231297   0.712   1.580   4.146  0.4874 -0.4726 -0.9972
10452TIP3   OH231298   1.555   6.086   4.199 -0.2185  0.0659 -0.0191
10452TIP3    H131299   1.555   6.066   4.105 -0.8800  1.6982 -0.4027
10452TIP3    H231300   1.640   6.125   4.215  0.2335 -0.9885  0.2760
10453TIP3   OH231301   1.348   6.078   4.383  0.1749  0.4260 -0.0778
10453TIP3    H131302   1.288   6.032   4.324  0.1046 -0.9821  1.0350
10453TIP3    H231303   1.419   6.109   4.326 -0.1183 -0.4876 -0.9729
10454TIP3   OH231304   2.991   5.110   1.205 -0.1769  0.2551 -0.2185
10454TIP3    H131305   2.994   5.205   1.216  0.4975  0.2113  0.0467
10454TIP3    H231306   3.078   5.080   1.234 -0.5423 -0.4850  0.1294
10455TIP3   OH231307   0.723   6.350   1.909  0.2278  0.4421  0.5081
10455TIP3    H131308   0.701   6.258   1.893 -0.3662  0.1530  2.7159
10455TIP3    H231309   0.671   6.398   1.845 -1.5212 -0.6445  1.0455
10456TIP3   OH231310   7.896   1.578   3.987 -0.0399  0.1342 -0.0411
10456TIP3    H131311   7.917   1.495   3.944  0.5787  0.0816  0.3507
10456TIP3    H231312   7.805   1.595   3.963 -0.2238 -0.7364 -0.0043
10457TIP3   OH231313   4.291   3.816   2.616  0.0222 -0.3208  0.1653
10457TIP3    H131314   4.329   3.759   2.683  0.7317 -2.2386 -1.7491
10457TIP3    H231315   4.365   3.846   2.564 -0.3650  2.2344  0.9259
10458TIP3   OH231316   4.810   4.006   3.498  0.2154  0.5922  0.1214
10458TIP3    H131317   4.752   4.078   3.471  2.4393  1.7732 -1.8888
10458TIP3    H231318   4.862   4.043   3.569 -0.4386  0.0250  0.9158
10459TIP3   OH231319   4.871   6.363   3.012  0.2881 -0.4628  0.1045
10459TIP3    H131320   4.864   6.410   3.095  0.4491  3.2408 -1.7515
10459TIP3    H231321   4.784   6.329   2.996 -0.1333  0.1031  1.1044
10460TIP3   OH231322   3.253   4.987   2.719  0.2304 -0.3533 -0.5593
10460TIP3    H131323   3.253   4.894   2.696 -0.5994 -0.7219  0.8362
10460TIP3    H231324   3.175   5.022   2.675 -1.0769 -0.9521  1.1834
10461TIP3   OH231325   7.961   1.908   5.802  0.3868  0.2773 -0.2425
10461TIP3    H131326   7.954   1.835   5.863  0.2814  0.8572  0.4538
10461TIP3    H231327   7.995   1.869   5.722  4.8714  0.0883  1.4667
10462TIP3   OH231328   3.401   5.890   0.762 -0.3014  0.5956  0.0006
10462TIP3    H131329   3.350   5.879   0.842  1.1510  0.6668  0.9850
10462TIP3    H231330   3.348   5.948   0.708  0.1089  3.3854  2.3120
10463TIP3   OH231331   6.442   5.176   2.941  0.0446 -0.0816 -0.3048
10463TIP3    H131332   6.471   5.205   3.028 -0.7252  0.9324 -0.3692
10463TIP3    H231333   6.476   5.243   2.881  1.1112 -1.1018 -0.8880
10464TIP3   OH231334   2.534   2.116   2.645  0.0258  0.6673 -0.1619
10464TIP3    H131335   2.484   2.187   2.686  0.3332  0.4624  0.5843
10464TIP3    H231336   2.602   2.160   2.595 -0.2951  0.9204 -0.3770
10465TIP3   OH231337   5.219   4.775   0.068  0.2771  0.2017  0.1740
10465TIP3    H131338   5.270   4.773   0.149 -0.2522  0.6923  0.5307
10465TIP3    H231339   5.214   4.868   0.046  3.0119 -0.0650 -2.1145
10466TIP3   OH231340   6.110   7.222   0.027  0.4399 -0.2525  0.0200
10466TIP3    H131341   6.117   7.309   0.067 -0.5107  1.3013 -2.9278
10466TIP3    H231342   6.200   7.188   0.029  0.5894  0.1178  2.4910
10467TIP3   OH231343   5.420   2.077   2.683 -0.2251  0.3112 -0.1693
10467TIP3    H131344   5.371   2.084   2.766 -0.1002  0.6585 -0.1239
10467TIP3    H231345   5.431   1.983   2.670  0.3920  0.2636  0.5897
10468TIP3   OH231346   5.542   2.704   6.634  0.4818  0.1819  0.3279
10468TIP3    H131347   5.459   2.744   6.662  0.0687 -1.0392  0.9008
10468TIP3    H231348   5.609   2.766   6.662 -0.2323  1.2316 -0.2150
10469TIP3   OH231349   6.823   2.220   1.731  0.1346  0.6332 -0.1744
10469TIP3    H131350   6.831   2.286   1.662 -0.3121  0.3808 -0.4678
10469TIP3    H231351   6.760   2.257   1.792  0.2782  0.7072 -0.0696
10470TIP3   OH231352   4.086   3.442   6.129 -0.0807  0.1371 -0.2800
10470TIP3    H131353   3.991   3.434   6.139  0.1302 -0.4896  1.8093
10470TIP3    H231354   4.116   3.483   6.210  1.3709  1.1114 -1.2530
10471TIP3   OH231355   6.092   0.640   2.871 -0.3964 -0.4044 -0.0604
10471TIP3    H131356   6.115   0.694   2.795  0.3412  1.8784  1.6561
10471TIP3    H231357   5.999   0.658   2.886 -0.4420 -0.5424 -0.1732
10472TIP3   OH231358   0.064   7.233   0.444  0.6596 -0.2474 -0.4326
10472TIP3    H131359   0.006   7.308   0.452 -1.2815 -1.4105 -2.2962
10472TIP3    H231360   0.084   7.227   0.350  2.8094 -0.6592 -0.0215
10473TIP3   OH231361   5.041   5.356   1.876 -0.4822  0.4945  0.0171
10473TIP3    H131362   5.128   5.317   1.873 -0.1943  1.0935  0.4901
10473TIP3    H231363   5.038   5.402   1.960 -1.1772  0.6517 -0.0885
10474TIP3   OH231364   3.407   6.238   1.699  0.5350 -0.7778 -0.1264
10474TIP3    H131365   3.407   6.148   1.731  1.0045 -0.7315  0.0206
10474TIP3    H231366   3.329   6.245   1.645 -0.4682 -0.7746  1.2663
10475TIP3   OH231367   8.255   2.593   5.046 -0.2597  0.7789  0.1886
10475TIP3    H131368   8.286   2.507   5.016 -0.6581  0.6618  0.1045
10475TIP3    H231369   8.314   2.655   5.004 -0.5634  0.5920 -0.5352
10476TIP3   OH231370   6.243   5.362   2.449 -0.1847 -0.1292 -0.7313
10476TIP3    H131371   6.258   5.336   2.540 -1.3616 -0.9826 -0.7502
10476TIP3    H231372   6.147   5.364   2.440 -0.0911 -0.0787 -1.9545
10477TIP3   OH231373   6.733   0.689   6.656 -0.2257 -0.2651 -0.0437
10477TIP3    H131374   6.660   0.663   6.711  1.7103 -0.7436  2.5029
10477TIP3    H231375   6.765   0.770   6.695  0.5871 -0.0285 -1.1374
10478TIP3   OH231376   4.179   4.901   2.403  0.9674  0.0828  0.1207
10478TIP3    H131377   4.198   4.916   2.310 -1.9223  0.6657 -0.4806
10478TIP3    H231378   4.156   4.988   2.437  1.9163 -0.1387  1.3877
10479TIP3   OH231379   4.350   1.492   2.472  0.2866 -0.3318  0.0441
10479TIP3    H131380   4.327   1.519   2.383 -0.1501  0.0728  0.2779
10479TIP3    H231381   4.432   1.443   2.461 -0.4011 -1.3629 -0.7376
10480TIP3   OH231382   1.871   6.136   4.508 -0.0092 -0.0629  0.1875
10480TIP3    H131383   1.864   6.099   4.419 -0.1683 -1.9310  0.9178
10480TIP3    H231384   1.873   6.059   4.565  0.2225  1.0990  1.8077
10481TIP3   OH231385   7.462   4.035   4.903 -0.1942  0.1947 -0.0054
10481TIP3    H131386   7.442   3.942   4.887 -0.3788  0.5786 -2.2518
10481TIP3    H231387   7.376   4.076   4.913 -0.1929  0.3864 -0.7263
10482TIP3   OH231388   2.087   2.916   5.592 -0.1128 -0.2800  0.0513
10482TIP3    H131389   2.000   2.891   5.561 -0.0005  0.8409 -1.2865
10482TIP3    H231390   2.096   2.872   5.677 -1.1290 -2.1097 -0.7272
10483TIP3   OH231391   7.813   1.425   1.678 -0.4358 -0.0168  0.0368
10483TIP3    H131392   7.892   1.417   1.625  0.2434  0.0763  1.0124
10483TIP3    H231393   7.771   1.505   1.646  0.3596  0.4555  0.1422
10484TIP3   OH231394   4.534   3.544   3.987  0.1664 -0.6337  0.2944
10484TIP3    H131395   4.476   3.618   3.969 -0.2037 -0.2702  2.6584
10484TIP3    H231396   4.579   3.569   4.068 -0.0704 -3.0440  1.2294
10485TIP3   OH231397   5.896   2.040   6.450 -0.1128  0.2977 -0.4750
10485TIP3    H131398   5.849   2.116   6.417  1.4749  1.7367  0.3794
10485TIP3    H231399   5.841   2.007   6.522 -0.7873  0.6680 -0.8143
10486TIP3   OH231400   1.204   1.278   6.578 -0.6200  0.6015  0.0008
10486TIP3    H131401   1.184   1.203   6.634  3.5796 -0.6268  0.1568
10486TIP3    H231402   1.236   1.345   6.638  1.6704  0.1103 -0.5689
10487TIP3   OH231403   2.031   3.793   6.680  0.0930 -0.6047  0.0251
10487TIP3    H131404   2.107   3.755   6.724  1.5421 -0.9893 -2.5914
10487TIP3    H231405   2.065   3.873   6.639 -0.9070 -0.6966 -1.0408
10488TIP3   OH231406   0.295   0.891   4.786 -0.2543  0.0479  0.3168
10488TIP3    H131407   0.321   0.978   4.755  0.2684  0.0474  0.7459
10488TIP3    H231408   0.210   0.875   4.744 -0.9773  1.3198  1.2449
10489TIP3   OH231409   7.628   7.049   2.807 -0.0283  0.1921  0.3798
10489TIP3    H131410   7.707   7.042   2.859  0.0993  3.4064  0.8441
10489TIP3    H231411   7.559   7.070   2.870 -0.4578  1.2094 -0.3992
10490TIP3   OH231412   0.006   3.482   0.558  0.0032 -0.4081  0.0515
10490TIP3    H131413  -0.049   3.547   0.600 -1.4702 -1.6767  0.1510
10490TIP3    H231414   0.044   3.431   0.630  0.8611  0.0665 -0.0412
10491TIP3   OH231415   4.617   2.399   5.909  0.2749  0.3197 -0.3132
10491TIP3    H131416   4.591   2.394   5.817 -2.0947 -0.7069  0.3519
10491TIP3    H231417   4.637   2.308   5.934 -1.2177  0.2223  0.6967
10492TIP3   OH231418   3.536   7.532   0.058 -0.0522 -0.6572  0.3674
10492TIP3    H131419   3.452   7.552   0.099  0.3441 -0.5457  1.1425
10492TIP3    H231420   3.591   7.501   0.130  0.8807  0.1963  0.0382
10493TIP3   OH231421   5.841   3.017   0.205  0.2424 -0.2134 -0.3127
10493TIP3    H131422   5.862   2.963   0.128  1.3840 -1.0349  0.5320
10493TIP3    H231423   5.746   3.016   0.210  0.1872 -0.9873 -1.1354
10494TIP3   OH231424   1.019   1.607   3.996  0.4843  0.4338  0.6117
10494TIP3    H131425   1.027   1.702   4.008 -1.8089  0.6035  1.2586
10494TIP3    H231426   1.098   1.582   3.949  1.9124  2.3999  1.8312
10495TIP3   OH231427   1.269   6.873   1.133 -0.5945 -0.1602  0.5655
10495TIP3    H131428   1.338   6.817   1.169 -0.5201 -0.4531 -0.0169
10495TIP3    H231429   1.275   6.954   1.183  0.2165 -0.1560  0.4719
10496TIP3   OH231430   2.638   5.606   6.256 -0.0944  0.4382  0.3756
10496TIP3    H131431   2.686   5.539   6.306 -0.9070 -0.0064  0.5719
10496TIP3    H231432   2.684   5.611   6.172  0.4537  0.2122  0.6540
10497TIP3   OH231433   1.078   4.739   5.730 -0.1306 -0.1406 -0.4157
10497TIP3    H131434   1.167   4.741   5.764  0.2960  0.9986 -1.5212
10497TIP3    H231435   1.024   4.771   5.802 -0.0239 -2.9503  1.0926
10498TIP3   OH231436   2.040   2.763   6.665  0.1733  0.3183 -0.8590
10498TIP3    H131437   2.027   2.800   6.578 -2.1018  0.1867 -0.6335
10498TIP3    H231438   1.999   2.826   6.724  1.9476  0.5554  0.1861
10499TIP3   OH231439   0.174   1.005   2.130 -0.0115 -0.5057 -0.3089
10499TIP3    H131440   0.203   0.915   2.120  1.4056 -0.3922  2.1203
10499TIP3    H231441   0.104   1.000   2.196  0.5337  0.2112  0.3407
10500TIP3   OH231442   6.214   5.643   0.303 -0.1823  0.1009  0.2771
10500TIP3    H131443   6.291   5.661   0.250  0.7395 -0.5364  1.3707
10500TIP3    H231444   6.199   5.725   0.352  0.8828 -0.3384  1.3772
10501TIP3   OH231445   3.162   5.663   6.254 -0.1871 -0.1515  0.0954
10501TIP3    H131446   3.232   5.721   6.225 -1.2384  0.8104 -0.5555
10501TIP3    H231447   3.206   5.602   6.314  1.6525 -0.9561 -1.9322
10502TIP3   OH231448   0.036   3.673   4.925  0.1631  0.0659  0.1850
10502TIP3    H131449  -0.046   3.719   4.905 -0.0131  1.0117  2.7441
10502TIP3    H231450   0.031   3.592   4.873 -1.7056  0.7598 -0.8198
10503TIP3   OH231451   0.093   3.099   5.494  0.0543  0.0754  0.0470
10503TIP3    H131452   0.019   3.131   5.442 -1.1277  0.8509  2.1140
10503TIP3    H231453   0.074   3.007   5.510  0.1391 -0.0204 -0.3787
10504TIP3   OH231454   7.485   3.848   4.320 -0.1575 -0.4640  0.2546
10504TIP3    H131455   7.501   3.780   4.385  3.0649 -0.2511 -0.1714
10504TIP3    H231456   7.462   3.800   4.240 -0.1761 -0.9139  0.5266
10505TIP3   OH231457   3.172   7.123   6.687  0.5104 -0.4323  0.2037
10505TIP3    H131458   3.238   7.189   6.666 -0.9380  1.5636  1.5414
10505TIP3    H231459   3.094   7.174   6.712 -0.7472 -2.6512  1.1153
10506TIP3   OH231460   5.097   6.174   2.270  0.2945 -0.2154 -0.0983
10506TIP3    H131461   5.078   6.204   2.358 -1.9780  1.2750 -1.0115
10506TIP3    H231462   5.012   6.145   2.235  1.3332 -1.9172 -1.4132
10507TIP3   OH231463   7.734   2.818   5.307  0.3572 -0.1333  0.3457
10507TIP3    H131464   7.646   2.814   5.344  0.1531 -1.3501 -0.2204
10507TIP3    H231465   7.761   2.727   5.300  0.7800  0.0952 -1.5455
10508TIP3   OH231466   5.508   7.379   3.856 -0.1406  0.3229 -0.5544
10508TIP3    H131467   5.414   7.382   3.875  0.1222 -0.6322  1.0746
10508TIP3    H231468   5.514   7.335   3.771 -1.1369 -0.3233 -0.3086
10509TIP3   OH231469   5.652   0.434   1.810 -0.1250 -0.7102  0.0776
10509TIP3    H131470   5.626   0.371   1.743  0.5697 -0.7009 -0.2125
10509TIP3    H231471   5.744   0.451   1.792  0.0534 -0.6496  0.9851
10510TIP3   OH231472   7.980   4.031   5.579 -0.5177 -0.1066 -0.0548
10510TIP3    H131473   7.940   4.004   5.496 -1.5509  1.0230  0.0403
10510TIP3    H231474   7.908   4.070   5.628 -0.3751 -2.4291  2.2026
10511TIP3   OH231475   8.086   1.782   4.439  0.1208 -0.5346  0.2123
10511TIP3    H131476   8.146   1.707   4.433 -1.0149 -1.6826  2.1619
10511TIP3    H231477   8.143   1.858   4.450  1.2922 -1.1107 -1.4621
10512TIP3   OH231478   6.023   0.595   2.275 -0.6518  0.3643  0.2763
10512TIP3    H131479   6.027   0.682   2.235 -1.0659 -0.6031 -2.0193
10512TIP3    H231480   5.959   0.604   2.346  0.4004  2.2487  1.0483
10513TIP3   OH231481   7.645   5.884   6.171  0.0607 -0.7524 -0.9539
10513TIP3    H131482   7.706   5.813   6.153  0.1674 -0.9236  0.0482
10513TIP3    H231483   7.559   5.842   6.173  0.1961 -0.9937  0.3652
10514TIP3   OH231484   5.614   5.703   2.931  0.2293  0.3793  0.1620
10514TIP3    H131485   5.603   5.741   2.843  0.9030  0.4589  0.1118
10514TIP3    H231486   5.568   5.765   2.988 -1.6965 -0.5400 -0.3010
10515TIP3   OH231487   7.304   1.742   0.882  0.1491 -0.1480 -0.2166
10515TIP3    H131488   7.315   1.648   0.872 -0.2095 -0.2682  0.5026
10515TIP3    H231489   7.228   1.763   0.828  1.5786  0.1177 -2.2635
10516TIP3   OH231490   1.764   2.595   0.274 -0.1724  0.0862  0.1607
10516TIP3    H131491   1.789   2.503   0.282  0.4916  0.3695  1.7046
10516TIP3    H231492   1.796   2.622   0.188  0.9965 -0.7153  0.3334
10517TIP3   OH231493   4.176   3.516   3.783  0.0456 -0.0458 -0.2115
10517TIP3    H131494   4.203   3.563   3.862  1.2525 -0.3430 -0.4221
10517TIP3    H231495   4.153   3.429   3.814  2.4341 -0.8005 -0.3911
10518TIP3   OH231496   7.657   4.020   4.585 -0.1784 -0.1541  0.2808
10518TIP3    H131497   7.674   4.081   4.657  1.8741 -0.5481  0.1881
10518TIP3    H231498   7.664   3.933   4.626  0.8910 -0.3780 -0.3436
10519TIP3   OH231499   7.249   0.940   3.130 -0.8271  0.4541 -0.8194
10519TIP3    H131500   7.184   0.999   3.167  0.4496  2.0667 -1.0535
10519TIP3    H231501   7.333   0.974   3.161  0.0550 -0.2425 -2.3155
10520TIP3   OH231502   1.997   3.777   4.401 -0.0054 -0.0633  0.3807
10520TIP3    H131503   2.074   3.744   4.448  0.3050  0.4275  0.2211
10520TIP3    H231504   1.957   3.839   4.461 -0.4578 -0.5436  0.5853
10521TIP3   OH231505   2.457   4.495   5.795  0.3461 -0.1728  0.2686
10521TIP3    H131506   2.445   4.574   5.849  0.6670  0.5678 -0.7111
10521TIP3    H231507   2.534   4.452   5.833  0.3016  0.0933  0.6726
10522TIP3   OH231508   4.188   4.593   6.617  0.2055  0.3624  0.1348
10522TIP3    H131509   4.269   4.594   6.667 -0.2233 -0.8421  0.8951
10522TIP3    H231510   4.118   4.596   6.683 -0.3860  1.4061 -0.5050
10523TIP3   OH231511   7.435   0.122   0.325  0.3477  0.7174  0.1322
10523TIP3    H131512   7.364   0.062   0.346 -0.7798  2.0498  0.3126
10523TIP3    H231513   7.500   0.069   0.279  0.2939 -1.0351  1.9691
10524TIP3   OH231514   1.641   3.864   3.812 -0.6803 -0.2885 -0.2519
10524TIP3    H131515   1.671   3.877   3.902  2.0301  2.4498 -1.3574
10524TIP3    H231516   1.700   3.796   3.777 -0.8237 -0.3785 -0.3182
10525TIP3   OH231517   6.383   2.463   4.282 -0.0681  0.4037  0.3490
10525TIP3    H131518   6.444   2.452   4.209  0.4967  1.6620  0.6081
10525TIP3    H231519   6.392   2.382   4.333 -0.4229 -0.4690 -0.9100
10526TIP3   OH231520   8.131   4.640   6.279  0.2307 -0.3912  0.0790
10526TIP3    H131521   8.180   4.611   6.356  0.1090 -0.0112  0.3030
10526TIP3    H231522   8.085   4.719   6.308  2.0446  1.1709 -1.0102
10527TIP3   OH231523   3.049   5.850   3.206 -0.2985 -0.5523 -0.4665
10527TIP3    H131524   3.126   5.798   3.181 -0.7328 -0.5971 -1.7989
10527TIP3    H231525   3.025   5.817   3.292  2.0361  0.4500  0.6821
10528TIP3   OH231526   5.227   4.843   6.271  0.2596  0.7377 -0.2163
10528TIP3    H131527   5.149   4.884   6.307 -0.9254 -1.0769 -0.6419
10528TIP3    H231528   5.253   4.778   6.336  0.5088  0.2775 -0.7659
10529TIP3   OH231529   5.481   5.163   2.704 -0.9164 -0.2201  0.1809
10529TIP3    H131530   5.486   5.148   2.609 -0.4475  1.9231 -0.1858
10529TIP3    H231531   5.388   5.176   2.721 -0.9055  0.2874 -0.1416
10530TIP3   OH231532   2.033   5.917   1.749 -0.5182 -0.0065  0.2137
10530TIP3    H131533   2.124   5.946   1.758 -0.1453 -1.0897  0.1230
10530TIP3    H231534   2.016   5.865   1.827 -1.3562  0.8979  0.6497
10531TIP3   OH231535   0.918   7.720   2.567  0.9522 -0.1012  0.3457
10531TIP3    H131536   1.007   7.730   2.531  0.1594  0.3697 -1.5815
10531TIP3    H231537   0.924   7.643   2.624  2.0689 -1.5138 -1.5666
10532TIP3   OH231538   1.371   7.073   3.299  0.5965  0.0591 -0.2604
10532TIP3    H131539   1.334   6.986   3.280  1.3133 -0.2428 -0.3236
10532TIP3    H231540   1.300   7.134   3.282  0.8175 -0.2747 -2.8944
10533TIP3   OH231541   6.056   1.808   1.114 -0.2572  0.1000 -0.0127
10533TIP3    H131542   6.028   1.842   1.198  2.3001 -0.9343  1.3601
10533TIP3    H231543   6.150   1.826   1.110 -0.2310 -0.1950 -2.5070
10534TIP3   OH231544   8.262   2.106   3.026 -0.3877  0.0631 -0.5402
10534TIP3    H131545   8.298   2.030   3.071  1.2783  0.5411 -0.9683
10534TIP3    H231546   8.194   2.071   2.969 -4.1536 -0.3661  3.6843
10535TIP3   OH231547   3.250   5.254   5.050 -0.4021 -0.0353 -0.6047
10535TIP3    H131548   3.271   5.288   4.963 -1.4413 -0.0244 -0.8722
10535TIP3    H231549   3.157   5.230   5.044 -0.1312 -1.3285  0.0924
10536TIP3   OH231550   3.281   3.085   0.526 -0.1039 -0.1957 -0.2540
10536TIP3    H131551   3.253   3.177   0.516 -0.2599 -0.2207 -0.0430
10536TIP3    H231552   3.200   3.035   0.514 -0.7230 -0.1683  2.9430
10537TIP3   OH231553   5.530   6.334   5.488 -0.2477 -0.4616  0.0231
10537TIP3    H131554   5.477   6.409   5.458 -0.1577  0.1024  1.2209
10537TIP3    H231555   5.489   6.258   5.446  0.3890  0.3425 -2.2236
10538TIP3   OH231556   2.229   1.613   4.932  0.5129 -0.7124 -0.0687
10538TIP3    H131557   2.318   1.575   4.932 -0.1528 -2.3885 -0.6901
10538TIP3    H231558   2.173   1.541   4.902 -1.3498 -0.3202  2.2176
10539TIP3   OH231559   3.515   0.589   2.362  0.3009 -0.8349  0.1716
10539TIP3    H131560   3.457   0.551   2.296  0.8489 -1.1876 -0.1199
10539TIP3    H231561   3.488   0.548   2.444 -2.2309  1.6335  0.6983
10540TIP3   OH231562   0.864   6.860   2.173  0.6732 -0.2113 -0.4581
10540TIP3    H131563   0.796   6.806   2.133 -0.2474  0.2761  0.4050
10540TIP3    H231564   0.940   6.802   2.179 -0.2919 -1.4502  0.4854
10541TIP3   OH231565   6.219   4.137   5.213 -0.2303  0.5014 -0.2124
10541TIP3    H131566   6.284   4.152   5.145 -0.9197  2.1597 -0.5572
10541TIP3    H231567   6.136   4.168   5.174 -0.5920  1.7341  1.4371
10542TIP3   OH231568   5.538   2.347   5.938  0.0491 -0.2717  0.1819
10542TIP3    H131569   5.502   2.342   5.849 -0.6758  1.2824  0.3451
10542TIP3    H231570   5.560   2.440   5.949  0.1008 -0.4335  1.6470
10543TIP3   OH231571   8.192   7.306   1.110 -0.1337  0.0781  0.0039
10543TIP3    H131572   8.103   7.271   1.108  0.0248 -0.3235 -1.4506
10543TIP3    H231573   8.210   7.321   1.203 -0.5819 -2.7694  0.6305
10544TIP3   OH231574   5.546   7.688   1.183  0.6719  0.4436 -0.0481
10544TIP3    H131575   5.608   7.616   1.196  2.2465  1.6809 -0.3905
10544TIP3    H231576   5.468   7.662   1.231  1.5888 -1.0072  0.7155
10545TIP3   OH231577   5.358   5.785   1.314 -0.0635 -0.5751  0.3552
10545TIP3    H131578   5.315   5.744   1.240  0.1859 -1.5358  0.7219
10545TIP3    H231579   5.309   5.754   1.390 -0.8405  1.0587  0.5639
10546TIP3   OH231580   4.185   5.098   5.721  0.0071  0.3154  0.2789
10546TIP3    H131581   4.278   5.078   5.730 -0.5711 -2.4464  1.0842
10546TIP3    H231582   4.154   5.109   5.811 -0.5116  0.8469  0.0395
10547TIP3   OH231583   1.312   5.381   3.614  0.4797  0.0057 -0.6835
10547TIP3    H131584   1.278   5.360   3.701  1.2027  0.3756 -0.3037
10547TIP3    H231585   1.259   5.328   3.555  0.0366 -0.3211 -0.0145
10548TIP3   OH231586   4.164   5.724   5.373  0.2656 -0.3525  0.6683
10548TIP3    H131587   4.239   5.706   5.316  0.1678 -0.3612  0.5436
10548TIP3    H231588   4.201   5.723   5.461  1.0447  2.7212  0.4749
10549TIP3   OH231589   6.384   2.569   4.574  0.7142  0.2516  0.3853
10549TIP3    H131590   6.382   2.556   4.479  0.3558  1.1715  0.2620
10549TIP3    H231591   6.471   2.537   4.600  0.5701 -0.6009 -0.1535
10550TIP3   OH231592   3.660   3.940   0.339 -0.2215  0.3439 -0.4406
10550TIP3    H131593   3.647   3.879   0.411  0.1933  2.3545  1.4375
10550TIP3    H231594   3.596   4.009   0.354  1.8368  2.3133 -0.2063
10551TIP3   OH231595   0.061   3.373   2.820  0.4596 -0.1615  0.0606
10551TIP3    H131596   0.156   3.368   2.831  0.7801  2.8946 -0.3204
10551TIP3    H231597   0.026   3.356   2.908  1.3054 -1.4786  0.1726
10552TIP3   OH231598   2.319   7.509   5.335 -0.2849 -0.1894  0.8372
10552TIP3    H131599   2.341   7.476   5.248 -3.3942 -1.4809  0.4008
10552TIP3    H231600   2.391   7.567   5.358  1.1803 -0.6672 -2.1198
10553TIP3   OH231601   1.459   0.744   0.998  0.0731  0.0046  0.6726
10553TIP3    H131602   1.436   0.824   1.045  0.7316 -0.2545  1.4474
10553TIP3    H231603   1.375   0.704   0.977 -0.2916  1.2780 -0.4078
10554TIP3   OH231604   5.149   0.052   6.255  0.2450 -0.0797  0.1052
10554TIP3    H131605   5.202   0.130   6.236  0.1159 -0.1247 -0.4692
10554TIP3    H231606   5.126   0.017   6.168  0.2163 -0.7001  0.3576
10555TIP3   OH231607   0.316   4.189   0.311  0.3816 -0.1927 -0.3445
10555TIP3    H131608   0.249   4.256   0.320 -0.6016 -1.1310 -0.4157
10555TIP3    H231609   0.273   4.118   0.263  0.7348 -1.7340  1.4712
10556TIP3   OH231610   4.315   2.651   5.946 -0.0381 -0.0011  0.2263
10556TIP3    H131611   4.356   2.660   6.031  0.0185 -0.5062  0.2573
10556TIP3    H231612   4.230   2.609   5.964 -0.4391  0.7477  0.1326
10557TIP3   OH231613   5.027   3.746   5.059  0.2941  0.1725  0.5173
10557TIP3    H131614   5.111   3.726   5.100  0.4317 -0.5629 -0.1027
10557TIP3    H231615   4.972   3.670   5.076 -0.5832  1.0301  1.7262
10558TIP3   OH231616   6.405   4.552   4.197 -0.2355 -0.5133 -1.0634
10558TIP3    H131617   6.362   4.475   4.160 -0.2580 -0.7609 -0.5264
10558TIP3    H231618   6.498   4.530   4.196 -0.3765 -1.3659  0.9073
10559TIP3   OH231619   3.027   0.149   4.816  0.3911  0.2321 -0.2786
10559TIP3    H131620   3.103   0.175   4.869  0.0080 -0.8098  0.8249
10559TIP3    H231621   3.011   0.058   4.840 -1.8441  0.7175  0.3117
10560TIP3   OH231622   1.841   5.426   4.981  0.7152 -0.3704  0.2241
10560TIP3    H131623   1.779   5.409   4.911 -0.5570  1.3638  0.8593
10560TIP3    H231624   1.854   5.341   5.023 -0.7004 -0.8947 -0.3391
10561TIP3   OH231625   1.771   5.977   3.847  0.2234  0.4373 -1.0079
10561TIP3    H131626   1.807   6.061   3.876 -0.3287 -0.0226  1.2125
10561TIP3    H231627   1.845   5.916   3.851 -0.0178  0.2117  0.2510
10562TIP3   OH231628   4.632   6.321   0.927 -0.0062  0.3329  0.0776
10562TIP3    H131629   4.658   6.280   1.010  0.6479  2.6538  1.0923
10562TIP3    H231630   4.689   6.281   0.862  0.4712 -0.4866  0.9734
10563TIP3   OH231631   5.053   5.555   4.935 -0.4088  0.6484 -0.2686
10563TIP3    H131632   4.975   5.536   4.882  0.1393  0.4100 -1.0193
10563TIP3    H231633   5.053   5.650   4.944 -1.3899  0.5659  0.6986
10564TIP3   OH231634   5.098   6.756   4.847  0.2266  0.6592 -0.0493
10564TIP3    H131635   5.132   6.804   4.922  0.6431 -1.3652  1.1041
10564TIP3    H231636   5.153   6.678   4.841 -1.2852 -0.3751 -1.0132
10565TIP3   OH231637   8.148   2.081   2.221  0.1543 -0.0919 -0.0516
10565TIP3    H131638   8.068   2.123   2.190  0.4183  1.2986  1.0285
10565TIP3    H231639   8.125   2.047   2.308  0.7116  0.3216  0.2676
10566TIP3   OH231640   1.945   5.390   0.603 -0.3752 -0.0783  0.3257
10566TIP3    H131641   2.023   5.360   0.648 -0.8603 -0.1095  1.1645
10566TIP3    H231642   1.880   5.400   0.672 -0.2797  2.8062  0.1243
10567TIP3   OH231643   6.820   4.313   4.614 -0.3082 -0.7538 -0.2969
10567TIP3    H131644   6.754   4.293   4.548 -0.2225 -0.7022 -0.4002
10567TIP3    H231645   6.855   4.399   4.588 -0.7722 -0.3983  0.2227
10568TIP3   OH231646   7.937   1.847   6.140  0.4124 -0.2564 -0.4979
10568TIP3    H131647   7.866   1.845   6.075  0.6999  0.1501 -0.8254
10568TIP3    H231648   7.948   1.939   6.162  0.6670 -0.3437 -0.2502
10569TIP3   OH231649   4.860   5.246   3.905 -0.2859  0.4721  0.0377
10569TIP3    H131650   4.779   5.221   3.860 -0.5576  0.7891  0.3539
10569TIP3    H231651   4.898   5.162   3.932 -0.2111  0.2889 -0.6259
10570TIP3   OH231652   1.194   5.853   4.312  0.6000  0.4411 -0.3620
10570TIP3    H131653   1.260   5.787   4.331  0.1638 -0.4480 -1.7456
10570TIP3    H231654   1.222   5.890   4.228  0.3318  1.3604 -0.0527
10571TIP3   OH231655   6.469   3.233   5.901 -0.3364  0.2400  0.3970
10571TIP3    H131656   6.513   3.247   5.817 -0.8736 -2.6707 -0.4645
10571TIP3    H231657   6.530   3.178   5.951 -0.8286  0.4107  1.1994
10572TIP3   OH231658   1.681   4.475   2.165 -0.6658 -0.3949 -0.1241
10572TIP3    H131659   1.764   4.492   2.121 -1.1359  0.8115 -0.5908
10572TIP3    H231660   1.615   4.499   2.100 -1.3705  0.3559  0.8523
10573TIP3   OH231661   2.672   3.310   4.790  0.2312 -0.1071  0.2092
10573TIP3    H131662   2.588   3.327   4.834 -0.2100 -0.3287 -0.5219
10573TIP3    H231663   2.691   3.219   4.811 -0.9127 -0.7945 -1.5224
10574TIP3   OH231664   1.835   4.725   0.653  0.8827  0.1478 -0.1316
10574TIP3    H131665   1.823   4.819   0.637 -0.4037  0.0328  0.0330
10574TIP3    H231666   1.853   4.688   0.567  0.1019  0.3760 -0.3978
10575TIP3   OH231667   2.207   4.854   5.005  0.3357  0.0708  0.0786
10575TIP3    H131668   2.254   4.921   4.955 -1.4231  0.9320 -0.5021
10575TIP3    H231669   2.178   4.900   5.084 -0.8354  0.0040 -0.2984
10576TIP3   OH231670   3.959   5.946   3.252 -0.0304 -0.0780  0.0722
10576TIP3    H131671   4.005   5.906   3.178 -0.1717  0.1958 -0.1665
10576TIP3    H231672   4.029   5.969   3.313  0.0581 -0.6482  0.1974
10577TIP3   OH231673   2.486   2.283   1.480 -0.2718  0.2365 -0.0452
10577TIP3    H131674   2.482   2.294   1.575 -0.8853 -1.4531  0.1733
10577TIP3    H231675   2.530   2.362   1.448  3.2793 -0.6584  1.9825
10578TIP3   OH231676   8.220   4.468   4.507  0.1980 -0.5228 -0.4112
10578TIP3    H131677   8.251   4.475   4.417 -1.5998  1.2457 -0.9933
10578TIP3    H231678   8.278   4.524   4.558 -0.6249  0.9879 -1.0793
10579TIP3   OH231679   6.306   5.015   3.238  1.3005 -0.0474  0.0164
10579TIP3    H131680   6.344   4.962   3.308  0.7809 -2.7073 -1.5500
10579TIP3    H231681   6.212   5.010   3.252  1.2664  1.1099  0.2499
10580TIP3   OH231682   0.395   4.280   3.831  0.2993 -0.4131 -0.0656
10580TIP3    H131683   0.368   4.194   3.799  0.1873 -1.4685  2.6741
10580TIP3    H231684   0.381   4.277   3.925  1.3969  2.2270  0.2731
10581TIP3   OH231685   5.076   0.061   1.719 -0.0004  0.1352 -0.0834
10581TIP3    H131686   5.101   0.148   1.689 -0.6764 -0.1520 -1.6140
10581TIP3    H231687   5.120   0.001   1.657 -1.8047 -0.4773 -0.8349
10582TIP3   OH231688   7.472   7.471   5.287  0.7340  0.1514 -0.1716
10582TIP3    H131689   7.446   7.509   5.203  0.6718  2.4209  0.8155
10582TIP3    H231690   7.567   7.483   5.290  0.7407  0.0483  0.0770
10583TIP3   OH231691   3.631   2.872   1.441  0.1988 -0.3119 -0.0659
10583TIP3    H131692   3.576   2.946   1.419  0.8356  0.6758  1.4767
10583TIP3    H231693   3.586   2.830   1.515  2.0117  1.2693  2.0983
10584TIP3   OH231694   2.933   0.235   0.350  0.3596  0.0579 -0.8996
10584TIP3    H131695   2.972   0.149   0.332  0.2200  0.1329 -1.6247
10584TIP3    H231696   2.987   0.296   0.299 -1.0982  0.0770 -2.5331
10585TIP3   OH231697   4.927   0.266   5.325 -0.2791  0.5357  0.1901
10585TIP3    H131698   4.853   0.230   5.374  0.4521  0.3734  1.1923
10585TIP3    H231699   5.003   0.251   5.381  0.1974  2.8416  0.2537
10586TIP3   OH231700   8.019   3.915   0.622 -0.5736 -0.2573  0.1754
10586TIP3    H131701   8.027   3.893   0.529 -0.6876  0.8972 -0.1174
10586TIP3    H231702   7.931   3.950   0.631 -1.0799 -1.6660  1.0185
10587TIP3   OH231703   5.208   3.892   5.916 -0.4849  0.1291  0.0186
10587TIP3    H131704   5.269   3.954   5.954 -0.5841 -0.1347  0.6178
10587TIP3    H231705   5.208   3.913   5.822  0.3168  0.3026  0.0485
10588TIP3   OH231706   2.923   6.830   1.898  0.1891  0.1310 -0.3402
10588TIP3    H131707   2.837   6.797   1.925  0.4024  0.6921  1.1317
10588TIP3    H231708   2.904   6.917   1.862  0.2696  0.9592  1.4985
10589TIP3   OH231709   4.014   4.403   1.048 -0.1352 -0.7813  0.0485
10589TIP3    H131710   4.076   4.377   0.981 -0.4654  2.1296 -1.5539
10589TIP3    H231711   4.063   4.396   1.130  0.4106 -3.9893 -0.4107
10590TIP3   OH231712   0.442   6.599   0.260 -0.7524 -0.3478 -0.1652
10590TIP3    H131713   0.493   6.520   0.248 -0.8376 -0.3870 -0.2792
10590TIP3    H231714   0.368   6.589   0.199 -0.3559  0.1646 -0.7523
10591TIP3   OH231715   4.839   1.369   2.662 -0.1537  0.5993  0.2530
10591TIP3    H131716   4.857   1.283   2.699 -2.1864 -0.4329 -0.9723
10591TIP3    H231717   4.918   1.391   2.612  0.0740 -0.9349 -0.1008
10592TIP3   OH231718   5.399   3.138   2.309  0.0331 -0.5302  0.2547
10592TIP3    H131719   5.415   3.043   2.305 -1.7804 -0.9167  0.9494
10592TIP3    H231720   5.380   3.162   2.218 -1.7481 -1.3239  0.3724
10593TIP3   OH231721   3.071   4.784   4.216  0.9128  0.3028  0.0588
10593TIP3    H131722   3.029   4.808   4.299  0.8969 -0.4016  0.2648
10593TIP3    H231723   3.130   4.856   4.196  0.2453  0.8962  0.2188
10594TIP3   OH231724   5.574   7.378   1.818  0.0250  0.0319 -0.2270
10594TIP3    H131725   5.628   7.357   1.894 -0.1654  2.0351  0.5262
10594TIP3    H231726   5.554   7.472   1.828 -2.2976 -0.2876 -1.2852
10595TIP3   OH231727   0.576   1.594   6.634 -0.0082  0.4104 -0.1731
10595TIP3    H131728   0.575   1.610   6.539  2.6621 -1.4468 -0.6298
10595TIP3    H231729   0.507   1.529   6.648 -1.6703  2.0119 -0.4579
10596TIP3   OH231730   4.578   3.655   2.363  0.2135  0.1876 -0.1130
10596TIP3    H131731   4.540   3.686   2.445 -1.2306  0.4629 -0.8715
10596TIP3    H231732   4.646   3.719   2.342 -0.4475  0.9618  0.0783
10597TIP3   OH231733   3.114   3.749   6.740  0.1812  0.3055  0.1718
10597TIP3    H131734   3.132   3.725   6.831 -0.7323 -2.0140 -0.1700
10597TIP3    H231735   3.153   3.835   6.729  0.5007  0.5561  2.6948
10598TIP3   OH231736   7.120   6.154   1.816 -0.2873 -0.0362  0.3880
10598TIP3    H131737   7.046   6.105   1.781  1.2133 -0.4086 -2.6039
10598TIP3    H231738   7.180   6.086   1.849  0.6586 -0.1096 -1.3894
10599TIP3   OH231739   0.763   4.552   4.776  0.1733 -0.1109 -0.4115
10599TIP3    H131740   0.690   4.536   4.716 -3.0810  0.6156  2.9292
10599TIP3    H231741   0.766   4.474   4.831  0.2728  0.8221  0.9558
10600TIP3   OH231742   1.128   1.102   2.795  0.8020  0.3496 -0.1652
10600TIP3    H131743   1.171   1.121   2.878  1.8215  1.7651 -0.9729
10600TIP3    H231744   1.165   1.019   2.767  0.6954  0.0267  0.6204
10601TIP3   OH231745   7.287   5.970   0.443 -0.1033  0.0076  0.9549
10601TIP3    H131746   7.290   5.895   0.502 -1.2416 -0.7080  0.1664
10601TIP3    H231747   7.196   6.000   0.447  0.0933  0.7023  0.4746
10602TIP3   OH231748   7.310   2.183   5.176 -0.2371  0.0116 -0.3717
10602TIP3    H131749   7.288   2.168   5.084 -1.6564 -0.7174  0.0626
10602TIP3    H231750   7.254   2.122   5.224  0.0988  0.7634  1.0142
10603TIP3   OH231751   2.676   7.469   0.422  0.0966  0.2159 -0.3779
10603TIP3    H131752   2.636   7.503   0.342  0.2103 -0.2373 -0.6320
10603TIP3    H231753   2.705   7.381   0.398  2.1637  0.8954 -0.4827
10604TIP3   OH231754   6.089   1.795   6.080 -0.1797  0.1884 -0.1713
10604TIP3    H131755   6.011   1.839   6.115 -1.5827 -0.9496 -1.7336
10604TIP3    H231756   6.088   1.708   6.119  0.0520  0.0057 -0.5632
10605TIP3   OH231757   6.186   7.522   6.399 -0.5733  0.2764  0.1254
10605TIP3    H131758   6.114   7.585   6.401 -0.5126  0.4151 -1.1353
10605TIP3    H231759   6.217   7.524   6.308 -0.8713 -1.9166 -0.0757
10606TIP3   OH231760   4.231   1.775   1.150  0.2636  0.7184 -0.1511
10606TIP3    H131761   4.308   1.743   1.103  1.4309  0.5065  1.7660
10606TIP3    H231762   4.206   1.856   1.106  1.0867  0.3646 -1.2993
10607TIP3   OH231763   5.146   5.981   4.177 -0.3367  0.0619  0.3913
10607TIP3    H131764   5.138   6.066   4.220  0.6056  2.1397 -3.1805
10607TIP3    H231765   5.075   5.979   4.114  1.8974  0.1045 -2.3232
10608TIP3   OH231766   2.821   6.847   0.367  0.7853  0.1390  0.7410
10608TIP3    H131767   2.786   6.892   0.444  1.8496  1.3651  0.5552
10608TIP3    H231768   2.913   6.829   0.390  1.2650  0.9915 -0.4161
10609TIP3   OH231769   1.136   2.005   0.843  0.1922 -0.2060 -0.1602
10609TIP3    H131770   1.111   2.097   0.848  0.1719 -0.1787 -0.7233
10609TIP3    H231771   1.212   1.998   0.901  0.1592  0.1498 -0.0701
10610TIP3   OH231772   2.554   6.663   6.140  0.0579  0.2989 -0.2434
10610TIP3    H131773   2.591   6.574   6.144 -1.0966 -0.1725  0.2038
10610TIP3    H231774   2.521   6.671   6.050  1.0924  0.6754 -0.6063
10611TIP3   OH231775   6.062   2.470   0.476  0.4752 -0.1361  0.0852
10611TIP3    H131776   6.138   2.424   0.514  1.1217  0.6778 -0.1937
10611TIP3    H231777   6.064   2.557   0.517  0.1074  0.1343 -0.4589
10612TIP3   OH231778   7.976   2.463   4.171  0.1772 -0.2025  0.0675
10612TIP3    H131779   8.026   2.397   4.123  0.5733  0.4589 -0.4439
10612TIP3    H231780   8.024   2.545   4.156 -1.7492  0.7195 -1.5192
10613TIP3   OH231781   3.786   6.160   3.943  0.1660 -0.5268 -0.7258
10613TIP3    H131782   3.707   6.187   3.896  0.1327 -0.3977 -0.5990
10613TIP3    H231783   3.787   6.065   3.938 -0.1907 -0.5496 -0.4240
10614TIP3   OH231784   1.222   1.011   5.225  0.7077 -0.3224 -0.3793
10614TIP3    H131785   1.247   1.081   5.164 -0.2050 -0.4103 -0.8706
10614TIP3    H231786   1.233   1.050   5.312 -1.6586  1.1519 -0.6382
10615TIP3   OH231787   2.238   1.415   3.825  0.2104  0.1295  0.2782
10615TIP3    H131788   2.212   1.444   3.913  0.7485 -1.0901  0.8640
10615TIP3    H231789   2.190   1.473   3.766  0.4576  1.5150  1.3716
10616TIP3   OH231790   4.486   7.251   2.885  0.4037  0.2737  0.0414
10616TIP3    H131791   4.446   7.337   2.898  0.8212  0.7177 -1.4311
10616TIP3    H231792   4.579   7.269   2.875  0.6130 -0.4513  0.5639
10617TIP3   OH231793   5.891   5.143   4.238  0.2054 -0.0060 -0.4101
10617TIP3    H131794   5.897   5.204   4.311  2.2243 -0.4649 -0.1249
10617TIP3    H231795   5.823   5.180   4.181 -0.6368  0.9375  1.1357
10618TIP3   OH231796   4.538   4.791   4.212  0.4487  0.3744 -0.1592
10618TIP3    H131797   4.485   4.837   4.146 -0.3190  0.0289  0.1983
10618TIP3    H231798   4.624   4.831   4.205  0.3328  0.4814 -1.2451
10619TIP3   OH231799   7.008   3.514   5.869  0.1024  0.6626 -0.4710
10619TIP3    H131800   6.930   3.569   5.877  0.2317  0.9375 -1.0853
10619TIP3    H231801   7.065   3.561   5.809 -0.4955 -0.9446 -2.3857
10620TIP3   OH231802   2.572   7.072   3.503  0.0301  0.4674 -0.1713
10620TIP3    H131803   2.599   7.020   3.428 -0.2193 -0.1528  0.1601
10620TIP3    H231804   2.638   7.141   3.510 -0.6960  1.3822 -1.7896
10621TIP3   OH231805   5.232   6.646   2.563  0.1874 -0.8403 -0.2242
10621TIP3    H131806   5.203   6.604   2.482 -0.3049 -0.5477 -0.2074
10621TIP3    H231807   5.219   6.579   2.630 -2.0871 -0.2242  0.0635
10622TIP3   OH231808   0.330   4.162   2.803 -0.0532  0.1791 -0.3294
10622TIP3    H131809   0.259   4.225   2.815  0.3633  0.1744  3.1952
10622TIP3    H231810   0.308   4.089   2.861  1.7325 -0.8161 -0.8269
10623TIP3   OH231811   5.345   5.193   6.446 -0.3150  0.2781  0.2362
10623TIP3    H131812   5.380   5.129   6.385  1.8442  0.9194  0.6958
10623TIP3    H231813   5.276   5.238   6.397 -2.8606 -3.1566  0.3293
10624TIP3   OH231814   1.965   7.673   1.794  0.0188  0.4917 -0.5005
10624TIP3    H131815   1.968   7.728   1.716 -0.4808 -0.9814 -1.6036
10624TIP3    H231816   1.902   7.718   1.851  0.5833  1.7258 -0.8119
10625TIP3   OH231817   4.962   4.597   5.542 -0.0575  0.2418  0.3913
10625TIP3    H131818   4.982   4.505   5.526 -0.2582  0.2758 -0.0950
10625TIP3    H231819   4.869   4.604   5.524 -0.6237  0.0165  2.9615
10626TIP3   OH231820   6.653   2.009   1.577  0.8752  0.5943 -0.4009
10626TIP3    H131821   6.703   2.064   1.637  1.0907  0.1346 -0.1587
10626TIP3    H231822   6.680   1.920   1.598 -0.9806  0.2190  0.6201
10627TIP3   OH231823   4.715   6.116   3.742 -0.2834  0.4124  0.4448
10627TIP3    H131824   4.645   6.115   3.677  0.6805  0.8741 -0.6266
10627TIP3    H231825   4.793   6.086   3.695  0.5482  1.2348  1.2470
10628TIP3   OH231826   0.395   0.429   1.238  0.2405 -0.5285  0.1163
10628TIP3    H131827   0.426   0.503   1.186 -0.6542 -0.8917 -0.9607
10628TIP3    H231828   0.302   0.422   1.216 -0.0990 -0.8696  1.5645
10629TIP3   OH231829   5.583   4.104   4.479  0.0450  0.8029 -0.5907
10629TIP3    H131830   5.617   4.044   4.412 -0.1428  0.7180 -0.6102
10629TIP3    H231831   5.637   4.182   4.470  0.8660  0.3187  0.0146
10630TIP3   OH231832   7.492   3.197   3.031  0.6110 -0.2562 -0.0001
10630TIP3    H131833   7.555   3.247   3.082  0.0427  0.7098 -0.2077
10630TIP3    H231834   7.463   3.258   2.962 -0.9486 -0.4658  0.4268
10631TIP3   OH231835   3.824   0.229   2.495  0.3835  0.2575 -0.5236
10631TIP3    H131836   3.751   0.217   2.434  0.1964 -0.1998 -0.2193
10631TIP3    H231837   3.834   0.143   2.538 -0.8889  1.0982  1.6367
10632TIP3   OH231838   0.987   0.229   6.195 -0.2577  0.5701  0.2812
10632TIP3    H131839   0.918   0.178   6.153  1.3210 -1.5190  0.0496
10632TIP3    H231840   0.986   0.200   6.286  1.2753 -0.6476 -0.0619
10633TIP3   OH231841   3.337   3.231   4.756 -0.0924  0.2804  0.2949
10633TIP3    H131842   3.375   3.311   4.792  0.3471  0.6023 -0.8428
10633TIP3    H231843   3.247   3.256   4.733  0.6003  1.0356 -1.8150
10634TIP3   OH231844   5.305   6.595   2.026 -0.2923 -0.1260 -0.1737
10634TIP3    H131845   5.218   6.555   2.030 -0.0157 -1.2086 -2.7475
10634TIP3    H231846   5.358   6.530   1.979  1.9855  0.4343  1.4886
10635TIP3   OH231847   6.225   7.604   4.067 -0.3423 -0.2931  0.2456
10635TIP3    H131848   6.268   7.608   4.152  0.7987 -0.3133 -0.3127
10635TIP3    H231849   6.265   7.529   4.024  0.1683  0.5906 -0.8682
10636TIP3   OH231850   4.643   1.716   3.709  0.1492  0.5128  0.0671
10636TIP3    H131851   4.584   1.643   3.723  1.8231 -1.0159 -0.5148
10636TIP3    H231852   4.706   1.685   3.644  1.1907  2.3048  0.1357
10637TIP3   OH231853   8.077   0.044   4.910 -0.1291 -0.4108 -0.6348
10637TIP3    H131854   8.023   0.122   4.896 -1.2655 -1.0717 -0.0740
10637TIP3    H231855   8.015  -0.029   4.904  0.5876 -1.1525  0.6222
10638TIP3   OH231856   4.788   0.981   6.754 -0.4951  0.5568  0.1168
10638TIP3    H131857   4.825   1.068   6.739  0.3203  0.2730  0.4005
10638TIP3    H231858   4.787   0.941   6.667  1.6563 -0.0979  0.3283
10639TIP3   OH231859   6.988   2.084   1.364 -0.1790  0.2603  0.0747
10639TIP3    H131860   6.980   2.166   1.315  1.1601  1.4191  1.6744
10639TIP3    H231861   7.072   2.047   1.336  0.6595  0.9938  1.4668
10640TIP3   OH231862   6.318   3.760   1.543  0.1329  0.2584 -0.2033
10640TIP3    H131863   6.382   3.695   1.513 -0.5062 -0.8848  0.8011
10640TIP3    H231864   6.236   3.734   1.501 -0.5285 -0.7177  1.6016
10641TIP3   OH231865   1.132   6.703   6.049 -0.1659  0.1373 -0.4150
10641TIP3    H131866   1.166   6.779   6.097  1.9238  0.2251 -1.8753
10641TIP3    H231867   1.037   6.714   6.052 -0.0728  1.1396  2.0008
10642TIP3   OH231868   5.487   0.800   2.606 -0.0228  0.2788 -0.6156
10642TIP3    H131869   5.394   0.822   2.608  0.1767  1.1001  0.5362
10642TIP3    H231870   5.527   0.873   2.558 -0.1895 -1.1193 -3.0562
10643TIP3   OH231871   3.866   4.001   2.927  0.1970  0.3675  0.1517
10643TIP3    H131872   3.894   4.060   2.996  2.4132  1.9236 -1.9320
10643TIP3    H231873   3.945   3.985   2.875 -0.9940 -2.0918 -1.0866
10644TIP3   OH231874   1.287   0.513   4.696 -0.2738 -0.1364 -0.4737
10644TIP3    H131875   1.286   0.570   4.773  0.7474 -0.7168 -0.0057
10644TIP3    H231876   1.200   0.523   4.658 -0.8766  0.0142  0.8677
10645TIP3   OH231877   3.472   7.608   0.516  0.4436  0.0084  0.5477
10645TIP3    H131878   3.459   7.700   0.491 -0.6874  0.0494  1.2349
10645TIP3    H231879   3.402   7.561   0.470 -0.8448 -0.0869  2.5023
10646TIP3   OH231880   0.228   0.635   5.467 -0.5761  0.8335  0.1082
10646TIP3    H131881   0.173   0.709   5.443 -1.0008  0.6644  0.5622
10646TIP3    H231882   0.178   0.558   5.440 -1.6424  0.5672  2.5992
10647TIP3   OH231883   5.474   0.990   1.776 -0.1116 -0.0534 -0.0850
10647TIP3    H131884   5.443   1.038   1.853  0.2880  0.6833 -0.3671
10647TIP3    H231885   5.570   0.997   1.781 -0.0057 -1.4710  0.2661
10648TIP3   OH231886   5.614   1.323   4.613  0.6092 -0.2929 -0.1735
10648TIP3    H131887   5.643   1.233   4.599  2.0963  0.1834 -0.2887
10648TIP3    H231888   5.688   1.377   4.585 -0.5791  1.0070 -0.9673
10649TIP3   OH231889   0.590   0.229   3.402 -0.9840 -0.4879 -0.1636
10649TIP3    H131890   0.616   0.155   3.347 -2.4520 -2.5204  1.7174
10649TIP3    H231891   0.673   0.265   3.434 -0.2439 -1.5927 -0.7687
10650TIP3   OH231892   3.209   3.486   0.160  0.1326 -0.3766  0.2271
10650TIP3    H131893   3.136   3.548   0.170  0.3845  0.3606 -1.9656
10650TIP3    H231894   3.287   3.541   0.159  0.5108 -0.9178 -0.0701
10651TIP3   OH231895   0.975   7.047   3.347 -0.5870  0.3066 -0.0424
10651TIP3    H131896   0.994   6.971   3.294 -2.0344  0.0619 -0.2679
10651TIP3    H231897   0.949   7.115   3.284  0.0195  0.7773  0.2021
10652TIP3   OH231898   5.155   6.024   0.340  0.0185 -0.4895 -0.5271
10652TIP3    H131899   5.208   6.046   0.416  1.3592 -0.6986 -1.3707
10652TIP3    H231900   5.212   5.969   0.286 -1.0490 -0.6996 -1.4878
10653TIP3   OH231901   6.621   4.466   2.530 -0.0777 -0.2969 -0.3749
10653TIP3    H131902   6.683   4.407   2.489 -0.1630 -0.5834 -0.0952
10653TIP3    H231903   6.590   4.522   2.459 -0.6798 -1.1786 -0.8281
10654TIP3   OH231904   1.923   1.985   0.565 -0.6267 -0.1953  0.8032
10654TIP3    H131905   1.967   1.934   0.497  1.3130  0.3912  1.5336
10654TIP3    H231906   1.961   2.073   0.556  1.8860 -0.7160  4.3372
10655TIP3   OH231907   7.923   2.852   5.065 -0.3452 -0.3874 -0.2235
10655TIP3    H131908   7.837   2.858   5.024  0.1781 -0.0782 -1.3176
10655TIP3    H231909   7.905   2.833   5.157 -1.8613  5.5703  1.1104
10656TIP3   OH231910   1.794   2.565   1.566 -0.0943  0.4150  0.1637
10656TIP3    H131911   1.868   2.623   1.584 -0.5509  1.1217 -0.1917
10656TIP3    H231912   1.825   2.478   1.592  0.8696  0.6949 -0.0074
10657TIP3   OH231913   1.182   5.388   5.929 -0.3105 -0.3072  0.1439
10657TIP3    H131914   1.103   5.412   5.880  1.0490  0.5876 -1.7538
10657TIP3    H231915   1.227   5.325   5.873  0.9871  0.2284  0.5473
10658TIP3   OH231916   6.768   4.385   5.668  0.6218 -0.3699 -0.9259
10658TIP3    H131917   6.855   4.406   5.633  1.2527  1.8460  1.5463
10658TIP3    H231918   6.787   4.335   5.748 -0.1956  1.4693  0.4935
10659TIP3   OH231919   1.339   4.391   6.668 -0.2030 -0.1480 -0.3008
10659TIP3    H131920   1.258   4.343   6.685 -0.0843 -0.1769  0.2026
10659TIP3    H231921   1.335   4.466   6.728  0.3947 -0.4454  0.1317
10660TIP3   OH231922   0.351   7.482   5.460 -0.7848  0.3311  0.2558
10660TIP3    H131923   0.350   7.400   5.411 -0.2381 -0.5395  1.6402
10660TIP3    H231924   0.304   7.462   5.541  0.7036  0.8911  1.3051
10661TIP3   OH231925   2.971   7.586   2.286 -0.1025 -0.0463 -0.0640
10661TIP3    H131926   3.035   7.652   2.312  0.7511 -0.7020 -0.4590
10661TIP3    H231927   2.949   7.609   2.195  0.7496 -0.7111 -0.4544
10662TIP3   OH231928   3.721   4.774   4.156  0.3373  0.0923  0.1262
10662TIP3    H131929   3.725   4.678   4.150  0.3195  0.0521  0.6689
10662TIP3    H231930   3.812   4.802   4.149  0.3487  0.0319  0.0267
10663TIP3   OH231931   1.701   2.252   5.098 -0.0776  0.7456  0.0920
10663TIP3    H131932   1.685   2.196   5.174 -0.2694  1.8722  0.9084
10663TIP3    H231933   1.789   2.288   5.112  0.3741  0.0472 -0.8335
10664TIP3   OH231934   4.779   4.287   2.681  0.6162 -0.5876  0.2909
10664TIP3    H131935   4.840   4.312   2.612  0.2341 -0.0249  0.1415
10664TIP3    H231936   4.748   4.371   2.716 -1.0872 -0.8164 -0.5565
10665TIP3   OH231937   4.099   2.112   6.386  0.4004 -0.2492  0.6214
10665TIP3    H131938   4.143   2.038   6.345 -0.6240 -1.0231  0.8855
10665TIP3    H231939   4.158   2.186   6.371  1.2362 -1.0225 -0.0219
10666TIP3   OH231940   4.830   2.997   3.952 -0.0701  0.0495  0.2465
10666TIP3    H131941   4.911   2.954   3.980 -0.1985  0.4674  1.3006
10666TIP3    H231942   4.792   2.938   3.887  1.2572  0.0125 -0.5411
10667TIP3   OH231943   2.879   5.004   4.579  0.0403 -0.3670  0.0674
10667TIP3    H131944   2.916   5.002   4.491  0.9109  2.4254  0.2751
10667TIP3    H231945   2.952   4.978   4.636  0.9380  2.1957  0.2305
10668TIP3   OH231946   6.215   1.009   2.319 -0.2028 -0.0653  0.5746
10668TIP3    H131947   6.219   1.078   2.385 -1.9991 -0.0933  0.7600
10668TIP3    H231948   6.150   1.039   2.256 -1.1148 -1.6123  0.7172
10669TIP3   OH231949   1.718   2.318   2.859 -0.1376 -0.8657 -0.0811
10669TIP3    H131950   1.768   2.392   2.894  0.4000 -1.6154  0.7741
10669TIP3    H231951   1.759   2.299   2.775 -2.0800  1.6062 -1.7524
10670TIP3   OH231952   2.686   7.131   5.812 -0.0193  0.5756 -0.1435
10670TIP3    H131953   2.677   7.054   5.869 -0.8129  1.3859  0.8752
10670TIP3    H231954   2.620   7.118   5.743 -0.1674  0.3486  0.0394
10671TIP3   OH231955   6.914   4.984   3.302  0.0091 -0.7946 -0.1940
10671TIP3    H131956   6.932   4.892   3.287 -1.6561 -1.3700  0.9665
10671TIP3    H231957   6.833   5.001   3.253 -1.7157 -0.9715  2.3683
10672TIP3   OH231958   7.149   7.606   0.827 -1.0834  0.0293 -0.3453
10672TIP3    H131959   7.193   7.674   0.877 -1.6022  0.0920  0.0339
10672TIP3    H231960   7.220   7.551   0.792 -0.6487  0.9015 -0.8601
10673TIP3   OH231961   3.122   6.348   5.082 -0.1001  0.4497  0.3807
10673TIP3    H131962   3.102   6.433   5.044 -1.4507 -0.1638 -0.3691
10673TIP3    H231963   3.083   6.352   5.170 -3.3697 -0.5443 -0.8786
10674TIP3   OH231964   1.660   0.675   0.853 -0.0735  0.4720 -0.4968
10674TIP3    H131965   1.584   0.687   0.910 -0.4123  0.8002 -1.0130
10674TIP3    H231966   1.721   0.624   0.906 -1.8030 -2.3974 -1.0622
10675TIP3   OH231967   6.944   1.027   3.952  0.0193 -0.0438 -0.0039
10675TIP3    H131968   7.010   0.984   3.898  0.9078  2.5401 -1.1513
10675TIP3    H231969   6.861   1.013   3.906  0.3599 -0.1335 -0.5852
10676TIP3   OH231970   3.653   0.117   0.951  0.7460 -0.0939 -0.1441
10676TIP3    H131971   3.598   0.146   0.878  1.6893 -1.2166 -1.3586
10676TIP3    H231972   3.616   0.159   1.028  0.8101  2.6272 -1.4917
10677TIP3   OH231973   3.851   1.315   5.038  0.0088 -0.2056 -0.9002
10677TIP3    H131974   3.783   1.257   5.072 -0.6351  1.5774  1.0770
10677TIP3    H231975   3.911   1.327   5.111  0.0776  1.6489 -1.2194
10678TIP3   OH231976   5.540   1.418   0.965 -0.2185 -0.2436 -0.3831
10678TIP3    H131977   5.591   1.378   0.894  0.3765 -0.6579  0.2475
10678TIP3    H231978   5.604   1.429   1.036 -0.6686  0.6892 -0.1088
10679TIP3   OH231979   7.669   6.813   1.896  0.3481  0.2661 -0.2440
10679TIP3    H131980   7.746   6.832   1.949  0.8375 -0.0208 -0.8354
10679TIP3    H231981   7.682   6.866   1.817  0.0400  0.0647 -0.4310
10680TIP3   OH231982   1.638   4.258   5.452 -0.5929  0.0577  0.9190
10680TIP3    H131983   1.716   4.227   5.499  0.6010  1.2178 -0.2157
10680TIP3    H231984   1.591   4.178   5.429  0.3448 -0.6850  1.4829
10681TIP3   OH231985   6.967   1.854   0.090 -0.1921 -0.7397  0.1161
10681TIP3    H131986   6.940   1.933   0.043  0.8991  0.9494  2.1131
10681TIP3    H231987   6.962   1.784   0.025 -0.1386  1.1554 -2.0668
10682TIP3   OH231988   1.886   4.004   4.487 -0.5194 -0.0344 -0.5793
10682TIP3    H131989   1.812   4.062   4.503 -0.6804 -0.7387  1.6959
10682TIP3    H231990   1.918   4.027   4.400 -1.9092  1.9315 -0.6164
10683TIP3   OH231991   7.734   4.967   6.306 -0.1999 -0.1253 -0.3416
10683TIP3    H131992   7.724   4.948   6.400 -2.1209  0.9143 -0.2751
10683TIP3    H231993   7.653   4.935   6.267  0.7549 -0.9148 -1.7507
10684TIP3   OH231994   8.127   5.762   0.475 -0.6904 -0.0692  0.1247
10684TIP3    H131995   8.079   5.802   0.402 -1.6023  0.7119  1.1230
10684TIP3    H231996   8.165   5.835   0.523  0.7360 -0.6312 -0.0989
10685TIP3   OH231997   1.709   1.780   2.294  0.6609 -0.7787 -0.3187
10685TIP3    H131998   1.771   1.771   2.367 -0.3042  0.0137  0.6458
10685TIP3    H231999   1.720   1.700   2.243  0.1185 -2.2455  1.7089
10686TIP3   OH232000   4.543   4.772   1.398  0.3762  0.6656 -0.0284
10686TIP3    H132001   4.608   4.801   1.335  0.4266  0.9472  0.1518
10686TIP3    H232002   4.477   4.727   1.345  0.2241  1.2352 -0.3261
10687TIP3   OH232003   7.521   3.010   1.693  0.1315 -0.6553 -0.2734
10687TIP3    H132004   7.456   3.075   1.665  0.2741 -0.9660 -1.3885
10687TIP3    H232005   7.591   3.061   1.733 -2.0425 -0.4729  3.7365
10688TIP3   OH232006   7.671   6.888   4.486 -0.1883  0.7324 -0.1737
10688TIP3    H132007   7.590   6.885   4.538 -1.2702  1.0699 -1.7574
10688TIP3    H232008   7.741   6.887   4.551 -1.4759  2.1654  1.3424
10689TIP3   OH232009   8.289   2.706   4.240 -0.1495  0.0493 -0.4006
10689TIP3    H132010   8.340   2.782   4.268  1.1084 -1.6118  2.3129
10689TIP3    H232011   8.199   2.727   4.266 -0.6320  2.0821 -3.2111
10690TIP3   OH232012   7.261   6.408   4.021  0.6244  0.0427 -0.6887
10690TIP3    H132013   7.283   6.383   3.932 -1.1362 -0.4162 -1.0300
10690TIP3    H232014   7.201   6.482   4.012 -0.1901 -0.4983  0.0630
10691TIP3   OH232015   5.838   7.798   3.010  0.2288 -0.3051 -0.5549
10691TIP3    H132016   5.775   7.726   3.005  0.5895 -0.6327 -0.5244
10691TIP3    H232017   5.785   7.877   3.016 -0.1751 -0.6128  0.0529
10692TIP3   OH232018   2.380   1.147   0.353 -0.3091  0.4035  0.0003
10692TIP3    H132019   2.334   1.063   0.352  1.1299 -0.4080 -0.4816
10692TIP3    H232020   2.436   1.143   0.430  0.9571  0.2326 -0.9008
10693TIP3   OH232021   4.391   5.241   0.853 -0.1000  0.0691 -0.3119
10693TIP3    H132022   4.395   5.296   0.775 -1.2331  0.6604  0.0273
10693TIP3    H232023   4.481   5.210   0.865 -0.0355 -0.6769 -2.2924
10694TIP3   OH232024   2.445   7.275   0.155  0.3475 -0.1209 -0.3115
10694TIP3    H132025   2.377   7.329   0.196  2.2299  2.1239  0.1166
10694TIP3    H232026   2.467   7.209   0.221 -0.0633  0.3586  0.3208
10695TIP3   OH232027   2.194   0.040   2.851 -0.1485 -0.1894 -0.2667
10695TIP3    H132028   2.152   0.114   2.808 -0.2769 -0.0508  0.0929
10695TIP3    H232029   2.260   0.011   2.788  0.2037  0.5083 -0.2370
10696TIP3   OH232030   2.068   1.258   1.131  0.5238 -0.1913 -0.0506
10696TIP3    H132031   1.973   1.256   1.144  0.5554  0.9019  0.4096
10696TIP3    H232032   2.103   1.294   1.213  1.5247 -2.6118  0.7016
10697TIP3   OH232033   5.835   7.569   4.502  0.1832  0.2263 -0.4320
10697TIP3    H132034   5.875   7.489   4.537  1.0650  1.0921  0.5647
10697TIP3    H232035   5.752   7.538   4.464  1.3079 -1.4410 -1.6787
10698TIP3   OH232036   0.709   2.831   0.717 -0.0663 -0.0674 -0.0371
10698TIP3    H132037   0.683   2.850   0.627 -0.0225 -1.2320 -0.3073
10698TIP3    H232038   0.628   2.804   0.760  0.1818 -1.0485 -0.1594
10699TIP3   OH232039   5.901   1.583   0.761 -0.6618 -0.0603  0.3392
10699TIP3    H132040   5.996   1.576   0.754 -0.8124 -1.7150 -0.5947
10699TIP3    H232041   5.884   1.586   0.855  0.2906  0.1257  0.5209
10700TIP3   OH232042   1.139   6.976   2.101 -0.4058 -0.5710  0.4598
10700TIP3    H132043   1.099   6.889   2.102  0.5781 -1.0441  0.2674
10700TIP3    H232044   1.216   6.966   2.046 -0.9348  0.7376 -0.5572
10701TIP3   OH232045   1.194   6.234   5.222 -0.2297  0.0542 -0.0324
10701TIP3    H132046   1.146   6.260   5.144  1.5185  0.4655 -1.0192
10701TIP3    H232047   1.160   6.147   5.243 -1.3003  0.2786 -0.7479
10702TIP3   OH232048   5.318   3.568   0.450  0.8015  0.7378  0.2676
10702TIP3    H132049   5.260   3.639   0.478  1.8911  1.5312  0.5573
10702TIP3    H232050   5.264   3.516   0.389 -0.8428  0.3169  1.9886
10703TIP3   OH232051   4.426   4.404   0.521 -0.4888 -0.5379 -0.4258
10703TIP3    H132052   4.431   4.499   0.535  0.8266 -0.6471  0.0771
10703TIP3    H232053   4.407   4.394   0.428 -1.7956  0.2158 -0.2586
10704TIP3   OH232054   1.860   0.769   1.398  0.1724 -0.5396 -0.5064
10704TIP3    H132055   1.784   0.811   1.358 -0.2832 -1.2357 -0.3924
10704TIP3    H232056   1.898   0.836   1.454  0.2488  0.1391 -1.3474
10705TIP3   OH232057   4.325   4.694   3.769  0.0174 -0.3923 -0.4662
10705TIP3    H132058   4.244   4.745   3.770  0.7646  0.8268  0.7094
10705TIP3    H232059   4.311   4.628   3.701 -2.6456 -1.3465  0.8704
10706TIP3   OH232060   6.363   2.940   6.067 -0.2764 -0.3198  0.3727
10706TIP3    H132061   6.329   2.857   6.100 -1.4917 -0.5191 -1.2740
10706TIP3    H232062   6.346   3.003   6.137  0.6630 -1.4183  1.6399
10707TIP3   OH232063   7.773   2.831   1.972 -0.0129 -0.6983 -0.4553
10707TIP3    H132064   7.697   2.802   1.921 -0.4549  1.0618 -0.8558
10707TIP3    H232065   7.749   2.917   2.005  0.4616 -1.5339  2.3888
10708TIP3   OH232066   1.569   0.260   0.513 -0.1415 -0.0967  0.2452
10708TIP3    H132067   1.569   0.187   0.450  1.2338  0.0362  0.0571
10708TIP3    H232068   1.542   0.220   0.595 -2.0539 -0.2598 -0.4175
10709TIP3   OH232069   4.192   4.251   3.702 -0.1211  0.4577 -0.2945
10709TIP3    H132070   4.134   4.208   3.765  0.2221  1.9667  1.1161
10709TIP3    H232071   4.146   4.243   3.618 -1.8824  0.6974  0.6004
10710TIP3   OH232072   2.281   6.577   0.942 -0.0910  0.2351 -0.0723
10710TIP3    H132073   2.338   6.535   0.877 -0.8247 -0.1069 -0.5127
10710TIP3    H232074   2.227   6.505   0.976  0.1255  0.4563  0.7417
10711TIP3   OH232075   5.015   4.978   6.356  0.9522 -0.5946  0.3386
10711TIP3    H132076   4.938   4.941   6.312  0.3561 -1.4014  1.9673
10711TIP3    H232077   4.986   5.063   6.388  0.3887 -1.2884  1.7659
10712TIP3   OH232078   8.023   1.219   4.477 -0.4219  0.5888 -0.0285
10712TIP3    H132079   8.067   1.179   4.401  1.2487  1.8091  0.2489
10712TIP3    H232080   8.020   1.312   4.457 -0.3012  0.8805  1.2284
10713TIP3   OH232081   5.750   7.185   4.948 -0.0863  0.0023  0.5678
10713TIP3    H132082   5.706   7.264   4.982 -1.9810 -1.1855  1.0475
10713TIP3    H232083   5.740   7.191   4.853 -0.5246  0.1853  0.6217
10714TIP3   OH232084   1.028   1.907   2.628  0.2039 -0.4254 -0.1421
10714TIP3    H132085   1.019   1.813   2.617  1.7552 -0.7273  0.8209
10714TIP3    H232086   1.118   1.926   2.603  0.6844  0.3956  1.9617
10715TIP3   OH232087   5.203   4.875   4.260 -0.1371  0.0732  0.0511
10715TIP3    H132088   5.116   4.896   4.292  0.4870 -0.0299  1.9747
10715TIP3    H232089   5.257   4.871   4.339  1.6114  0.1291 -1.0845
10716TIP3   OH232090   4.871   7.301   5.480 -0.1210  0.1495  0.5536
10716TIP3    H132091   4.866   7.397   5.480  0.7998  0.2133 -0.3920
10716TIP3    H232092   4.861   7.277   5.572 -0.1383  1.1741  0.8300
10717TIP3   OH232093   1.081   4.707   3.424 -1.2535  0.0136  0.1494
10717TIP3    H132094   1.168   4.699   3.463 -0.7804 -1.2850 -1.0686
10717TIP3    H232095   1.035   4.628   3.453 -1.1927 -0.5131 -1.1468
10718TIP3   OH232096   4.113   3.881   1.255 -0.3207  0.2174  0.2037
10718TIP3    H132097   4.150   3.927   1.331  0.7052  0.1577 -0.2386
10718TIP3    H232098   4.060   3.810   1.293  1.9049 -1.1722  0.9158
10719TIP3   OH232099   0.870   1.598   6.365 -0.1587  0.8651 -0.0457
10719TIP3    H132100   0.883   1.537   6.439 -0.1839 -1.3301 -1.7482
10719TIP3    H232101   0.922   1.675   6.388  0.0451  0.1620  2.1291
10720TIP3   OH232102   2.589   3.593   0.262 -0.4170  0.2000  0.3760
10720TIP3    H132103   2.607   3.580   0.356 -0.0379 -2.1285  0.0495
10720TIP3    H232104   2.495   3.608   0.257 -0.8427 -1.9260  1.0047
10721TIP3   OH232105   0.066   0.645   5.943 -0.1264 -0.0108  0.2098
10721TIP3    H132106   0.110   0.675   6.022  1.4055 -1.8268  0.1149
10721TIP3    H232107   0.137   0.620   5.884 -1.1928  1.8340 -2.0401
10722TIP3   OH232108   7.129   1.891   4.741 -1.0651 -0.4864  0.0197
10722TIP3    H132109   7.196   1.852   4.684  0.1962 -0.0639  1.1491
10722TIP3    H232110   7.046   1.857   4.708 -0.3461 -0.6639 -1.7307
10723TIP3   OH232111   1.479   4.285   1.283 -0.7054 -0.5646  0.5460
10723TIP3    H132112   1.412   4.333   1.234  0.1488  0.7537  0.6150
10723TIP3    H232113   1.556   4.341   1.279  0.3211 -1.9066  0.7247
10724TIP3   OH232114   5.159   4.051   0.210  0.3190 -0.4698 -0.0891
10724TIP3    H132115   5.115   3.968   0.229 -0.1777 -0.5396 -1.4156
10724TIP3    H232116   5.248   4.026   0.186  0.8644 -0.4021  1.7692
10725TIP3   OH232117   6.203   6.324   0.327 -0.0433  0.1558 -0.2347
10725TIP3    H132118   6.222   6.370   0.246 -0.3637  1.8273  0.5924
10725TIP3    H232119   6.173   6.237   0.300  2.1063 -0.1768 -1.7919
10726TIP3   OH232120   0.406   4.861   6.644 -0.4992  0.1687  0.2572
10726TIP3    H132121   0.459   4.800   6.592 -3.0555 -1.8403 -0.1702
10726TIP3    H232122   0.372   4.923   6.579  1.7138  1.9058  0.6269
10727TIP3   OH232123   2.161   0.740   4.065 -0.2944 -0.4667 -0.4063
10727TIP3    H132124   2.105   0.704   4.134  1.3084 -0.9907  0.6650
10727TIP3    H232125   2.179   0.830   4.093 -0.0743 -0.5092 -0.4076
10728TIP3   OH232126   5.453   5.850   4.807  0.2817 -0.2942  0.3198
10728TIP3    H132127   5.434   5.924   4.749  1.1658  1.4372  2.1264
10728TIP3    H232128   5.547   5.857   4.825 -0.0758 -0.3188  2.4704
10729TIP3   OH232129   6.386   0.139   4.651  0.5854 -0.0496  0.0196
10729TIP3    H132130   6.298   0.139   4.613  0.1772 -2.3957  0.7849
10729TIP3    H232131   6.415   0.048   4.643  2.5538  0.4772  0.6902
10730TIP3   OH232132   5.806   0.558   6.239 -0.0964  0.4183 -0.3192
10730TIP3    H132133   5.896   0.588   6.232  0.1129  0.3291  1.5026
10730TIP3    H232134   5.782   0.574   6.330 -0.6423 -3.0399  0.2706
10731TIP3   OH232135   2.002   6.765   0.809  0.1063  0.2271 -0.8298
10731TIP3    H132136   1.925   6.822   0.801 -0.0787 -0.0630 -1.1457
10731TIP3    H232137   1.966   6.676   0.805  0.0622 -0.0105  2.3117
10732TIP3   OH232138   3.498   4.512   3.432  0.7792  0.0784 -0.2170
10732TIP3    H132139   3.517   4.424   3.399 -1.2681  0.1375 -1.7871
10732TIP3    H232140   3.517   4.570   3.359 -0.6298  0.5916 -0.2091
10733TIP3   OH232141   0.061   3.466   4.261  0.2085  0.0441  0.1463
10733TIP3    H132142   0.023   3.552   4.242 -0.7329 -0.3211  0.3214
10733TIP3    H232143   0.063   3.461   4.356  0.8382  0.1208  0.1367
10734TIP3   OH232144   2.669   2.402   0.112  0.3112 -0.0065 -0.2577
10734TIP3    H132145   2.745   2.394   0.054  0.6099  2.7647 -0.3751
10734TIP3    H232146   2.706   2.393   0.200  0.5725  0.1772 -0.3490
10735TIP3   OH232147   2.737   5.731   4.939  0.1869 -0.1437 -0.3743
10735TIP3    H132148   2.790   5.664   4.981  0.4255  0.4950  0.3574
10735TIP3    H232149   2.777   5.814   4.964 -0.2053  0.2917 -1.1270
10736TIP3   OH232150   1.900   2.340   5.260 -0.1123  0.1991  1.0604
10736TIP3    H132151   1.968   2.291   5.307 -0.1472  1.2732  2.2938
10736TIP3    H232152   1.944   2.421   5.234 -0.5020  0.2275  0.4865
10737TIP3   OH232153   5.800   2.992   3.935 -0.3579 -0.1085  0.0573
10737TIP3    H132154   5.742   3.040   3.875 -1.5696 -3.9661 -2.2231
10737TIP3    H232155   5.740   2.949   3.996  0.6337  0.6047  1.5774
10738TIP3   OH232156   4.678   7.233   1.973  0.5721 -0.3368 -0.3533
10738TIP3    H132157   4.721   7.197   1.896  0.8074  1.6362 -1.1878
10738TIP3    H232158   4.602   7.280   1.939  0.8968  0.9033  0.5531
10739TIP3   OH232159   6.394   3.645   6.768  0.1742 -0.0025  0.3062
10739TIP3    H132160   6.310   3.620   6.805  0.2917 -1.1942 -0.1945
10739TIP3    H232161   6.427   3.566   6.726  2.8446 -0.4753  2.8900
10740TIP3   OH232162   0.279   6.815   3.018 -0.1302  0.1676 -0.3269
10740TIP3    H132163   0.260   6.909   3.018 -2.0402 -0.1529 -1.5843
10740TIP3    H232164   0.234   6.782   2.940  3.7340 -1.2086 -2.2473
10741TIP3   OH232165   5.503   5.445   4.056  0.1954  0.2985  0.4100
10741TIP3    H132166   5.549   5.529   4.053 -2.5230  1.9326 -3.3506
10741TIP3    H232167   5.442   5.454   4.129 -0.3394  1.8300 -0.1868
10742TIP3   OH232168   2.873   5.655   4.016  0.0872  0.3964 -0.0576
10742TIP3    H132169   2.888   5.568   3.979  1.9887  1.6096 -2.5051
10742TIP3    H232170   2.958   5.680   4.052 -0.7617  0.7879  1.7392
10743TIP3   OH232171   0.174   1.069   3.299 -0.5195  0.0617 -0.0102
10743TIP3    H132172   0.104   1.081   3.363 -1.2701 -3.6739  0.1007
10743TIP3    H232173   0.145   1.117   3.222 -1.2814  1.7605  1.2758
10744TIP3   OH232174   4.028   2.305   4.158 -0.3948  0.0865  0.4132
10744TIP3    H132175   4.104   2.345   4.116  0.1180 -0.5438  0.7021
10744TIP3    H232176   3.958   2.310   4.093 -0.0302  0.4534  0.0469
10745TIP3   OH232177   5.858   5.841   3.117 -0.0134 -0.6993 -0.5574
10745TIP3    H132178   5.880   5.805   3.031  1.3634 -1.1049 -0.0686
10745TIP3    H232179   5.763   5.853   3.115 -0.0876 -1.3312 -1.8859
10746TIP3   OH232180   2.746   6.298   4.915 -0.5924 -0.1063 -0.4642
10746TIP3    H132181   2.707   6.317   5.001 -1.3050 -0.5236 -0.6879
10746TIP3    H232182   2.689   6.231   4.877 -1.2352  1.2148 -1.9509
10747TIP3   OH232183   6.074   1.186   5.256 -0.2987 -0.0045  0.3467
10747TIP3    H132184   6.004   1.138   5.301  0.3464 -1.1509  0.1542
10747TIP3    H232185   6.097   1.130   5.181  1.8572 -0.3867  1.2434
10748TIP3   OH232186   1.623   2.920   3.953  0.3085  0.0659  0.1413
10748TIP3    H132187   1.604   2.826   3.945 -0.8215  0.4295 -2.2758
10748TIP3    H232188   1.558   2.952   4.016  0.2538 -0.6348  0.4485
10749TIP3   OH232189   2.074   0.525   2.577  0.4785  0.0286  0.0544
10749TIP3    H132190   2.058   0.575   2.498  0.0641  0.3658  0.3511
10749TIP3    H232191   2.113   0.443   2.546  1.4774  0.6660 -0.4059
10750TIP3   OH232192   0.320   2.041   0.889 -0.1262 -0.3821  0.0271
10750TIP3    H132193   0.249   2.105   0.895  1.8450  2.0374 -0.8719
10750TIP3    H232194   0.307   1.999   0.804  0.1826  0.9578 -0.7091
10751TIP3   OH232195   2.215   4.699   1.068 -0.1416 -0.4369  0.0975
10751TIP3    H132196   2.169   4.704   1.152  0.0773 -2.1535  0.3554
10751TIP3    H232197   2.154   4.738   1.005 -0.1021  1.3536  1.0868
10752TIP3   OH232198   4.054   2.345   5.304 -0.0317 -0.1901 -0.3022
10752TIP3    H132199   3.986   2.343   5.237 -1.1029  0.2757  0.7361
10752TIP3    H232200   4.095   2.431   5.294 -1.4192  0.6549  0.7655
10753TIP3   OH232201   3.683   1.270   0.235 -0.2449  0.4271 -0.3780
10753TIP3    H132202   3.651   1.241   0.149 -1.9227  1.9086 -0.3109
10753TIP3    H232203   3.696   1.189   0.284  0.8960 -0.4683 -2.0381
10754TIP3   OH232204   5.714   0.003   2.905 -0.1237  0.1287 -0.4357
10754TIP3    H132205   5.803   0.032   2.923 -0.1974  0.4589 -0.6029
10754TIP3    H232206   5.687   0.052   2.828 -0.9011  0.9871  0.3512
10755TIP3   OH232207   0.912   6.217   5.682 -0.2065 -0.5984 -0.2254
10755TIP3    H132208   0.870   6.244   5.764 -3.4069  4.4697 -2.9699
10755TIP3    H232209   0.884   6.127   5.670 -2.2465 -0.5350  2.7951
10756TIP3   OH232210   0.198   6.665   4.831  0.3213 -0.2487  0.2282
10756TIP3    H132211   0.150   6.666   4.748  2.4443 -0.8091 -1.0798
10756TIP3    H232212   0.271   6.726   4.818  0.2733  0.2548  1.9903
10757TIP3   OH232213   2.180   2.345   6.283 -0.1863  0.1491 -0.3964
10757TIP3    H132214   2.245   2.277   6.302 -0.5685 -0.0051  0.4215
10757TIP3    H232215   2.162   2.337   6.190  0.0549 -0.6253 -0.3811
10758TIP3   OH232216   1.815   6.355   5.816 -0.7116  0.5301 -0.3293
10758TIP3    H132217   1.724   6.364   5.844 -0.6202 -0.2317  0.2595
10758TIP3    H232218   1.822   6.263   5.789  0.2185  0.1973  0.9535
10759TIP3   OH232219   5.831   7.448   1.660 -0.6470  0.0518  0.0435
10759TIP3    H132220   5.821   7.360   1.695 -1.0861  0.0243 -0.1547
10759TIP3    H232221   5.858   7.436   1.569 -1.0171  0.1240 -0.0743
10760TIP3   OH232222   8.239   0.600   3.258  0.5768  0.2754  0.9753
10760TIP3    H132223   8.223   0.595   3.164  1.4462  0.9109  0.7760
10760TIP3    H232224   8.299   0.674   3.268  1.5010 -0.5635  1.8899
10761TIP3   OH232225   4.884   6.951   6.407  0.2810 -0.1035  0.3282
10761TIP3    H132226   4.794   6.982   6.394  0.4523  0.0804 -0.4431
10761TIP3    H232227   4.915   6.998   6.484  1.1782  3.1653 -1.8380
10762TIP3   OH232228   3.585   2.706   5.822  0.1756  0.0027 -0.7098
10762TIP3    H132229   3.546   2.715   5.735 -1.7822  0.0044  0.1274
10762TIP3    H232230   3.603   2.796   5.850  1.9263 -0.0380 -1.5353
10763TIP3   OH232231   1.792   2.646   3.340 -0.8157  0.4693 -0.2097
10763TIP3    H132232   1.753   2.577   3.396  1.1010 -1.2234 -0.8449
10763TIP3    H232233   1.849   2.695   3.399 -1.2502  0.7615 -0.0226
10764TIP3   OH232234   3.262   5.031   6.269  0.1621  0.7355  0.5312
10764TIP3    H132235   3.170   5.003   6.269 -0.4816  2.6847  0.1565
10764TIP3    H232236   3.281   5.049   6.177  1.0368  0.0476  0.5661
10765TIP3   OH232237   1.489   5.394   1.523 -0.3738 -0.0178  0.0178
10765TIP3    H132238   1.445   5.309   1.536 -0.4733  0.2578  1.7322
10765TIP3    H232239   1.505   5.426   1.612  1.5377  0.8209 -0.5808
10766TIP3   OH232240   6.771   1.876   0.268 -0.1754 -0.4309  0.1714
10766TIP3    H132241   6.848   1.847   0.219 -0.1394 -0.5112  0.2759
10766TIP3    H232242   6.758   1.809   0.334 -1.0273 -1.0405 -0.5777
10767TIP3   OH232243   4.818   5.415   0.282  0.1584  0.1017 -0.0059
10767TIP3    H132244   4.810   5.335   0.333 -0.5177 -0.7969 -1.4407
10767TIP3    H232245   4.729   5.449   0.276  0.3848  0.7551  0.2739
10768TIP3   OH232246   1.016   5.883   0.507 -0.2889 -0.2409  0.4386
10768TIP3    H132247   1.077   5.894   0.580 -0.5014  2.0461  0.3548
10768TIP3    H232248   0.940   5.936   0.531 -0.8400 -0.3402 -0.9562
10769TIP3   OH232249   8.217   6.565   2.987 -0.1803 -0.0666 -0.2736
10769TIP3    H132250   8.202   6.514   2.907 -0.9787 -2.4993  1.3082
10769TIP3    H232251   8.289   6.521   3.031  0.2568  1.2459  0.3857
10770TIP3   OH232252   1.831   1.842   5.589  0.3906  0.1527 -0.1274
10770TIP3    H132253   1.825   1.899   5.512 -0.9765  0.5664  0.2483
10770TIP3    H232254   1.741   1.812   5.603  0.5230  0.4742  1.5858
10771TIP3   OH232255   1.804   1.076   1.555 -0.2442  0.0448 -0.1446
10771TIP3    H132256   1.889   1.036   1.573 -0.7108 -1.1096 -0.4371
10771TIP3    H232257   1.741   1.015   1.592 -0.9359  1.4130  1.0359
10772TIP3   OH232258   4.771   4.390   3.062 -0.1006 -0.1107  0.1041
10772TIP3    H132259   4.704   4.456   3.076 -0.4964 -0.8291  1.9024
10772TIP3    H232260   4.838   4.434   3.010 -0.8542  1.3560  0.3300
10773TIP3   OH232261   5.087   4.242   1.375  0.3337 -0.5791 -0.4392
10773TIP3    H132262   5.010   4.185   1.388  1.9965 -2.2668  4.4610
10773TIP3    H232263   5.156   4.183   1.347  0.8112  0.1140 -0.7456
10774TIP3   OH232264   0.510   2.336   1.739  0.0266 -0.5108 -0.1591
10774TIP3    H132265   0.436   2.354   1.798 -0.1996 -1.2030 -0.2211
10774TIP3    H232266   0.580   2.307   1.797 -0.7098 -2.8247 -0.3210
10775TIP3   OH232267   5.514   0.222   4.278 -0.4178 -0.1311  0.5381
10775TIP3    H132268   5.508   0.193   4.187  1.5190 -0.0972  0.3454
10775TIP3    H232269   5.490   0.146   4.329  0.7131 -0.8868 -0.0103
10776TIP3   OH232270   2.667   7.343   3.746  0.3558  0.4097  0.4791
10776TIP3    H132271   2.740   7.336   3.684  0.9088 -0.5150  1.2102
10776TIP3    H232272   2.665   7.436   3.768  1.3983  0.4394  0.5383
10777TIP3   OH232273   4.060   5.016   1.987  0.1311  0.6069  0.3854
10777TIP3    H132274   3.997   5.084   2.012 -0.7203 -1.3377  4.5376
10777TIP3    H232275   4.138   5.036   2.039 -0.2719 -1.6198  2.0005
10778TIP3   OH232276   6.535   7.073   3.068 -0.3563 -0.1731 -0.0350
10778TIP3    H132277   6.624   7.067   3.033 -0.4395  0.6409 -0.4059
10778TIP3    H232278   6.503   6.983   3.068  0.4692 -0.4730  0.1070
10779TIP3   OH232279   7.175   5.470   5.813  0.3566 -0.7260 -0.4166
10779TIP3    H132280   7.195   5.407   5.882  1.9483 -1.5566 -1.5715
10779TIP3    H232281   7.184   5.421   5.731 -1.7615  0.1486 -1.2757
10780TIP3   OH232282   5.986   5.490   0.636  0.5297  0.1830  0.2440
10780TIP3    H132283   5.959   5.441   0.558  0.9531  1.4979 -0.7671
10780TIP3    H232284   5.912   5.548   0.655 -0.0900 -0.9934  1.6098
10781TIP3   OH232285   2.314   5.982   0.559 -0.1637 -0.0329 -0.3539
10781TIP3    H132286   2.249   6.041   0.597  1.0694  0.9066  0.3673
10781TIP3    H232287   2.290   5.975   0.467 -0.8427  0.9023 -0.2607
10782TIP3   OH232288   3.886   3.395   1.461 -0.3628  0.7714  0.6595
10782TIP3    H132289   3.909   3.483   1.429 -0.6790 -0.1290 -2.4069
10782TIP3    H232290   3.792   3.388   1.445  0.0959 -1.0246 -1.9713
10783TIP3   OH232291   4.508   6.016   4.443 -0.2043 -0.2782 -0.0481
10783TIP3    H132292   4.596   6.009   4.406  0.6679 -1.2520  2.0444
10783TIP3    H232293   4.468   5.931   4.426 -1.6396  0.8183 -2.8647
10784TIP3   OH232294   8.238   4.371   5.591 -0.0945 -0.0854 -0.0082
10784TIP3    H132295   8.218   4.324   5.510 -1.0807 -0.7196  0.5930
10784TIP3    H232296   8.332   4.357   5.604 -0.2711 -1.4518 -0.1208
10785TIP3   OH232297   0.916   6.494   6.232  0.1857 -0.0768 -0.4764
10785TIP3    H132298   0.859   6.547   6.176 -0.8026 -0.6259 -0.0296
10785TIP3    H232299   0.990   6.471   6.176 -0.0379  0.6273 -1.0878
10786TIP3   OH232300   8.226   7.747   0.189 -0.6791 -0.0431 -0.1032
10786TIP3    H132301   8.163   7.768   0.258 -0.6331 -2.1324  0.6382
10786TIP3    H232302   8.306   7.721   0.236  1.1503  3.3698 -1.0073
10787TIP3   OH232303   7.491   7.218   1.524  0.5347  0.1686  0.4195
10787TIP3    H132304   7.476   7.309   1.549  0.5409 -0.0720  1.3409
10787TIP3    H232305   7.586   7.208   1.525  0.5330  0.1453  0.3455
10788TIP3   OH232306   3.148   4.407   3.454 -0.3521  0.2077  0.0070
10788TIP3    H132307   3.095   4.328   3.465 -0.4146 -0.1131 -2.1616
10788TIP3    H232308   3.238   4.375   3.445 -0.5163  0.2082 -2.1370
10789TIP3   OH232309   1.486   5.636   3.855  0.4396  0.5096  0.1487
10789TIP3    H132310   1.463   5.546   3.879 -1.7382  1.3053  1.2775
10789TIP3    H232311   1.411   5.688   3.883  2.4500  2.9599  1.3533
10790TIP3   OH232312   0.049   0.651   1.255 -0.1208  0.5792 -0.9486
10790TIP3    H132313  -0.007   0.600   1.313  1.6450  0.6971  0.9480
10790TIP3    H232314   0.095   0.585   1.203  1.3745  0.1997  0.7633
10791TIP3   OH232315   3.690   4.243   4.197 -0.1955 -0.5422  0.0139
10791TIP3    H132316   3.638   4.191   4.259  2.9532 -0.4093  3.0976
10791TIP3    H232317   3.734   4.178   4.143  0.7735 -0.9769  1.2785
10792TIP3   OH232318   7.683   2.543   1.474 -0.4496 -1.0999 -0.0361
10792TIP3    H132319   7.711   2.478   1.409 -1.8325 -0.8913 -0.8675
10792TIP3    H232320   7.629   2.493   1.535  0.9743 -1.3299  1.0954
10793TIP3   OH232321   5.218   7.069   4.535  0.5113  0.6584  0.2879
10793TIP3    H132322   5.125   7.069   4.514  0.0930 -0.6172  1.9016
10793TIP3    H232323   5.247   7.159   4.521 -1.0182  1.1273  0.0289
10794TIP3   OH232324   2.008   5.057   4.523  0.0723  0.1370  0.4640
10794TIP3    H132325   2.068   4.991   4.487  1.2694  2.2804 -1.7485
10794TIP3    H232326   2.047   5.082   4.606  1.2283  0.1116 -0.0527
10795TIP3   OH232327   7.202   6.489   0.893  0.0886  0.2977  0.2491
10795TIP3    H132328   7.132   6.485   0.958 -0.1845 -0.0472 -0.0646
10795TIP3    H232329   7.269   6.429   0.927 -0.0490  0.1255  0.2197
10796TIP3   OH232330   7.941   2.785   0.950 -0.3962  0.1395  0.2783
10796TIP3    H132331   8.034   2.798   0.967 -0.3957 -0.1686  0.5349
10796TIP3    H232332   7.937   2.756   0.858 -0.1847 -0.3830  0.4269
10797TIP3   OH232333   3.462   7.675   2.269 -0.2487  0.1673  0.5499
10797TIP3    H132334   3.406   7.635   2.202 -1.0744  0.6364  0.9429
10797TIP3    H232335   3.451   7.619   2.346  0.7059 -0.3764  0.3094
10798TIP3   OH232336   4.115   4.854   4.786  0.3379 -0.1790 -0.5261
10798TIP3    H132337   4.203   4.832   4.816 -0.2612  0.7899  2.2836
10798TIP3    H232338   4.068   4.771   4.786  0.4715 -0.2770  1.0139
10799TIP3   OH232339   6.838   0.127   6.019  0.6053  0.0667 -0.1462
10799TIP3    H132340   6.882   0.080   5.948 -0.9005 -2.5035  0.5089
10799TIP3    H232341   6.761   0.166   5.978  1.0778  0.7712 -0.3912
10800TIP3   OH232342   0.579   0.334   2.453  0.4850  0.4145  0.4113
10800TIP3    H132343   0.623   0.264   2.404  0.5021 -0.3314  1.4443
10800TIP3    H232344   0.599   0.414   2.404  3.0765  0.1445  0.8516
10801TIP3   OH232345   2.416   7.128   4.365  0.0662  0.0496  0.3805
10801TIP3    H132346   2.389   7.200   4.308  0.2876  0.4672  0.7969
10801TIP3    H232347   2.505   7.107   4.336  0.4228  0.6869  0.9734
10802TIP3   OH232348   1.664   7.188   4.367  0.1763 -0.0074  0.3474
10802TIP3    H132349   1.577   7.163   4.337  0.5662  0.7124 -1.5312
10802TIP3    H232350   1.716   7.108   4.362  0.5423  0.2960 -2.2736
10803TIP3   OH232351   4.329   3.157   0.136  0.5168 -0.4051  0.0095
10803TIP3    H132352   4.349   3.099   0.063 -0.4732 -0.7800  0.0173
10803TIP3    H232353   4.400   3.142   0.198  2.1962  1.0207 -1.4678
10804TIP3   OH232354   3.134   1.721   5.758  0.0937 -0.6436 -0.7873
10804TIP3    H132355   3.224   1.749   5.739  0.2062 -1.6687 -1.8540
10804TIP3    H232356   3.080   1.795   5.731  0.5803 -0.2481 -0.6966
10805TIP3   OH232357   3.262   1.260   4.228 -0.4511 -0.5107 -0.1795
10805TIP3    H132358   3.287   1.310   4.305 -0.8268 -0.6434  0.0316
10805TIP3    H232359   3.170   1.236   4.243 -0.6781 -0.1291 -0.8872
10806TIP3   OH232360   0.471   6.309   5.535 -0.2157  0.3321 -0.0111
10806TIP3    H132361   0.391   6.281   5.492  0.3567  1.0749 -1.6545
10806TIP3    H232362   0.541   6.285   5.474  0.8555 -0.3947  1.4207
10807TIP3   OH232363   0.853   4.690   3.134  0.5165 -0.0612  0.5186
10807TIP3    H132364   0.896   4.702   3.219 -0.1739  1.3512  0.6906
10807TIP3    H232365   0.821   4.600   3.137  0.8744 -0.1763  1.5752
10808TIP3   OH232366   4.217   0.395   5.385 -0.7523  0.0505  0.1466
10808TIP3    H132367   4.133   0.356   5.362 -0.7999 -0.1613  0.6655
10808TIP3    H232368   4.269   0.322   5.420 -0.0903  0.0262 -0.8467
10809TIP3   OH232369   7.679   3.889   3.205  0.2298 -0.3551  0.1149
10809TIP3    H132370   7.606   3.932   3.250 -2.1670 -2.3723 -1.5941
10809TIP3    H232371   7.706   3.952   3.139 -0.7235  0.0098  0.0465
10810TIP3   OH232372   6.421   3.891   1.247  0.2447 -0.1034 -0.0708
10810TIP3    H132373   6.497   3.834   1.260  1.3708  0.9141 -1.8183
10810TIP3    H232374   6.358   3.836   1.201 -0.0412 -0.8890  1.1942
10811TIP3   OH232375   6.357   2.001   3.782  0.4294 -0.0642  0.2452
10811TIP3    H132376   6.267   2.009   3.750  0.2260  1.3417  1.0868
10811TIP3    H232377   6.409   2.053   3.721  0.1656  1.8656  1.5540
10812TIP3   OH232378   1.798   2.071   3.054  0.7186  0.2382 -0.0479
10812TIP3    H132379   1.796   1.977   3.074  0.7364  0.1082 -0.6395
10812TIP3    H232380   1.795   2.075   2.958  2.0578  0.7914 -0.0905
10813TIP3   OH232381   7.851   0.718   1.457  0.0726 -0.4896 -0.2153
10813TIP3    H132382   7.901   0.732   1.537  0.9899  0.1648 -0.8794
10813TIP3    H232383   7.873   0.792   1.401 -0.1672 -1.1784 -1.2613
10814TIP3   OH232384   0.184   4.524   0.865 -0.0675  0.8441 -0.2250
10814TIP3    H132385   0.090   4.515   0.847  0.1072 -1.2940 -0.3742
10814TIP3    H232386   0.220   4.557   0.783 -0.7948  2.7757  0.1842
10815TIP3   OH232387   0.246   7.421   2.617 -0.2398 -0.0081 -0.3647
10815TIP3    H132388   0.313   7.484   2.592 -0.3691  0.1245 -0.3822
10815TIP3    H232389   0.218   7.448   2.704  0.4677 -0.6884  0.0806
10816TIP3   OH232390   2.663   5.421   1.373  0.0828 -0.5123  0.5964
10816TIP3    H132391   2.693   5.331   1.388 -1.7754 -0.8956  2.4872
10816TIP3    H232392   2.624   5.418   1.286 -0.0189 -1.5835  0.6553
10817TIP3   OH232393   4.783   0.710   5.731  0.0604 -0.2922 -0.1421
10817TIP3    H132394   4.795   0.624   5.689  2.4141 -0.1409  0.0823
10817TIP3    H232395   4.807   0.695   5.823  3.4274  1.0820 -0.6252
10818TIP3   OH232396   3.787   7.506   6.463 -0.6154  0.1628  0.2944
10818TIP3    H132397   3.804   7.416   6.436 -0.6835  0.7160 -1.7606
10818TIP3    H232398   3.697   7.505   6.497 -1.1317 -0.3034 -1.0331
10819TIP3   OH232399   7.229   2.412   2.557 -0.0490 -0.3943 -0.1531
10819TIP3    H132400   7.209   2.506   2.547 -0.7831 -0.6023 -0.7274
10819TIP3    H232401   7.304   2.410   2.616  0.5880  0.6086 -0.8840
10820TIP3   OH232402   0.250   1.771   6.721  0.2980  0.2188 -0.4833
10820TIP3    H132403   0.298   1.715   6.660 -0.1083 -0.4506 -0.1990
10820TIP3    H232404   0.216   1.842   6.666  1.2306  0.4733 -0.7610
10821TIP3   OH232405   2.645   3.987   3.084 -0.3435  0.1752  0.1225
10821TIP3    H132406   2.734   3.951   3.078  0.3875  2.0325 -2.8039
10821TIP3    H232407   2.657   4.071   3.128 -0.6021  0.5144 -0.4516
10822TIP3   OH232408   3.260   3.745   1.434  0.2772  0.5515 -0.4794
10822TIP3    H132409   3.184   3.786   1.391 -0.6441  0.1755  0.7333
10822TIP3    H232410   3.225   3.665   1.472  1.8066 -0.8396 -1.8462
10823TIP3   OH232411   7.626   3.702   1.815 -0.4440  0.4984  0.3601
10823TIP3    H132412   7.708   3.728   1.857  0.5803  1.6436 -2.1695
10823TIP3    H232413   7.564   3.771   1.840  0.6846  2.2930 -1.4316
10824TIP3   OH232414   0.446   2.781   0.504 -0.4756  0.2174 -0.0730
10824TIP3    H132415   0.387   2.854   0.522 -2.8317 -0.8527 -2.7895
10824TIP3    H232416   0.497   2.810   0.428 -1.0620 -0.7438 -0.8426
10825TIP3   OH232417   2.018   7.560   6.656  0.1405 -0.1433 -0.1586
10825TIP3    H132418   1.927   7.585   6.637  0.0268  0.8724  1.4223
10825TIP3    H232419   2.071   7.618   6.601 -0.1683 -0.2332 -0.5528
10826TIP3   OH232420   3.617   2.827   2.596 -0.4949 -0.2003 -0.0767
10826TIP3    H132421   3.691   2.859   2.545  0.0650  0.3202  1.0366
10826TIP3    H232422   3.543   2.880   2.566  0.0962  1.0441  0.5813
10827TIP3   OH232423   5.529   0.839   0.373 -0.2234 -0.0595 -0.6669
10827TIP3    H132424   5.573   0.805   0.451 -0.0431  1.8355  0.1024
10827TIP3    H232425   5.466   0.771   0.350  1.0066 -1.4810  0.0025
10828TIP3   OH232426   4.705   6.209   1.607  0.3018 -0.0293  0.4769
10828TIP3    H132427   4.610   6.203   1.603  0.4446 -2.8084 -0.6465
10828TIP3    H232428   4.732   6.128   1.650  2.2448 -0.3320 -1.1751
10829TIP3   OH232429   1.335   4.243   2.764  0.1973  0.2517 -0.2100
10829TIP3    H132430   1.287   4.243   2.681 -0.4693  0.2290  0.1725
10829TIP3    H232431   1.425   4.266   2.739 -0.2712  1.5519 -0.7721
10830TIP3   OH232432   3.608   2.432   1.563  0.0538  0.0405  0.5296
10830TIP3    H132433   3.544   2.372   1.526 -0.3312  0.8686 -0.1905
10830TIP3    H232434   3.660   2.461   1.488  0.4138  0.3849  0.9071
10831TIP3   OH232435   2.946   7.291   6.681 -0.0878 -0.4888  0.1970
10831TIP3    H132436   2.935   7.215   6.624 -0.0686 -0.1566 -0.2489
10831TIP3    H232437   2.862   7.336   6.678  0.7534  1.0783 -1.8161
10832TIP3   OH232438   2.600   4.331   1.316  0.4355  0.5015  0.5373
10832TIP3    H132439   2.642   4.417   1.326 -0.0568  0.8756 -0.4650
10832TIP3    H232440   2.632   4.298   1.233  0.9809 -0.5104  1.1373
10833TIP3   OH232441   5.056   0.859   2.800  0.3111 -0.1627 -0.4197
10833TIP3    H132442   5.145   0.893   2.810 -0.1526  1.0998 -0.3117
10833TIP3    H232443   5.028   0.839   2.889  0.4117 -0.3547 -0.4310
10834TIP3   OH232444   5.449   4.015   0.930 -0.7538  0.2845 -0.5709
10834TIP3    H132445   5.360   4.050   0.939 -0.5767  0.2949  1.6891
10834TIP3    H232446   5.447   3.932   0.978 -0.1358 -0.9523 -2.5590
10835TIP3   OH232447   5.061   3.451   6.393  0.6149  0.2900  0.2902
10835TIP3    H132448   5.081   3.407   6.311 -0.4895 -1.6257  0.9879
10835TIP3    H232449   5.135   3.430   6.451  0.2313 -0.4056  0.5301
10836TIP3   OH232450   4.636   6.688   5.402 -0.2061 -0.3237  0.0598
10836TIP3    H132451   4.541   6.696   5.395 -0.4519 -1.4406  1.7241
10836TIP3    H232452   4.652   6.594   5.395  0.6392 -0.2741  1.2202
10837TIP3   OH232453   7.702   5.012   5.958 -0.0947  0.0987 -0.4708
10837TIP3    H132454   7.724   4.951   5.887  1.1159  0.3847 -0.3601
10837TIP3    H232455   7.642   4.962   6.014 -0.6359 -0.3169 -1.4002
10838TIP3   OH232456   1.195   1.052   4.044  0.1616  0.0173  0.3996
10838TIP3    H132457   1.168   1.139   4.074  1.3450 -0.6104  3.6558
10838TIP3    H232458   1.141   0.991   4.095  0.4036 -1.1870 -0.7277
10839TIP3   OH232459   2.474   6.814   0.715 -0.1947  0.1082  0.3031
10839TIP3    H132460   2.521   6.737   0.684 -0.7380 -0.2123  0.2645
10839TIP3    H232461   2.383   6.800   0.686 -0.0847  1.2966 -0.7100
10840TIP3   OH232462   5.442   1.849   1.361 -0.2566  0.1644 -0.2015
10840TIP3    H132463   5.478   1.828   1.275  3.5692  0.4253  1.1315
10840TIP3    H232464   5.437   1.945   1.362 -2.4343  0.1145 -0.7895
10841TIP3   OH232465   4.725   3.686   1.644  0.0964  0.5402 -0.5821
10841TIP3    H132466   4.777   3.622   1.693  0.1964  0.4700 -0.7811
10841TIP3    H232467   4.729   3.765   1.698 -0.2780  0.2936 -0.1866
10842TIP3   OH232468   3.712   1.079   5.177  0.4662 -0.0034  0.7080
10842TIP3    H132469   3.774   1.035   5.118 -0.6446  0.5600 -0.9515
10842TIP3    H232470   3.726   1.037   5.262  1.2480 -1.7367 -0.2210
10843TIP3   OH232471   6.112   5.487   3.253  0.0251 -0.0456 -0.4281
10843TIP3    H132472   6.126   5.539   3.174  0.8841 -0.4432 -0.5408
10843TIP3    H232473   6.143   5.400   3.231  1.1765  0.0694  0.6453
10844TIP3   OH232474   5.661   6.098   4.878 -0.2155 -0.0181  0.3992
10844TIP3    H132475   5.577   6.090   4.923 -0.5206  0.2025 -0.1370
10844TIP3    H232476   5.671   6.191   4.861  0.7927  0.1562  1.7033
10845TIP3   OH232477   7.558   5.746   2.976  0.3018  0.3743  0.3736
10845TIP3    H132478   7.645   5.740   3.015  1.1430 -0.8937 -1.5334
10845TIP3    H232479   7.571   5.799   2.897 -1.3170  2.7606  1.5752
10846TIP3   OH232480   0.118   1.965   6.559  0.3524  0.1463 -0.1142
10846TIP3    H132481   0.109   2.001   6.471  1.3533  1.4423  0.2845
10846TIP3    H232482   0.073   2.028   6.615  0.3972 -0.2650  0.3887
10847TIP3   OH232483   7.554   2.725   5.591 -0.4066  0.3518  0.2272
10847TIP3    H132484   7.587   2.662   5.526 -1.5013 -0.7799  0.7314
10847TIP3    H232485   7.503   2.788   5.540 -0.6902 -0.1322 -0.0959
10848TIP3   OH232486   5.432   5.080   1.778 -0.2723  0.0565 -0.0693
10848TIP3    H132487   5.441   4.993   1.738 -0.7053  0.8164 -1.9475
10848TIP3    H232488   5.504   5.131   1.742 -0.0672  0.5099  0.9523
10849TIP3   OH232489   0.850   0.235   3.164  0.1623 -0.1000  0.5052
10849TIP3    H132490   0.782   0.279   3.112  1.5679  0.2917 -1.0956
10849TIP3    H232491   0.816   0.146   3.176 -1.8194  0.7841  2.0841
10850TIP3   OH232492   2.371   0.845   3.416 -0.7522  0.1618  0.1548
10850TIP3    H132493   2.420   0.896   3.350  0.9566  0.5884  1.6749
10850TIP3    H232494   2.332   0.912   3.473 -0.0121 -0.1886  1.0968
10851TIP3   OH232495   1.989   5.331   2.015  0.5566  0.3384  0.3442
10851TIP3    H132496   1.949   5.384   2.084  0.4837  0.2440  0.3740
10851TIP3    H232497   2.068   5.379   1.991  2.3433 -1.2010  2.7054
10852TIP3   OH232498   5.448   5.728   3.459 -0.0286  0.1062  0.3538
10852TIP3    H132499   5.522   5.677   3.491  0.5156  0.0617 -0.9101
10852TIP3    H232500   5.443   5.707   3.365 -2.0326 -0.3625  0.5359
10853TIP3   OH232501   5.869   0.817   5.830  0.3831  0.0440  0.5499
10853TIP3    H132502   5.786   0.781   5.800  0.4811  0.7279 -0.5952
10853TIP3    H232503   5.933   0.749   5.810  0.8636  1.3908 -3.3225
10854TIP3   OH232504   2.354   6.808   1.592  0.3417 -0.0279 -0.6743
10854TIP3    H132505   2.397   6.776   1.513 -0.9874 -0.8834 -1.0989
10854TIP3    H232506   2.312   6.890   1.565  0.8496  0.2862 -0.5276
10855TIP3   OH232507   7.652   5.643   6.517 -0.1032 -0.1815  0.1037
10855TIP3    H132508   7.699   5.628   6.599 -1.8221  0.2916  1.2183
10855TIP3    H232509   7.690   5.724   6.483  2.3401 -1.6231 -0.9106
10856TIP3   OH232510   1.622   6.543   6.592 -0.7975 -0.5672  0.0854
10856TIP3    H132511   1.649   6.451   6.595 -0.8776 -0.5754  0.9533
10856TIP3    H232512   1.591   6.561   6.681  0.5090  0.6803  0.3118
10857TIP3   OH232513   7.845   2.123   0.501  0.1276 -0.0100 -0.3171
10857TIP3    H132514   7.879   2.076   0.425 -0.2651  0.6053 -0.8905
10857TIP3    H232515   7.875   2.073   0.577 -0.9652 -1.6445 -0.9202
10858TIP3   OH232516   0.108   3.266   3.453 -0.2820  0.4263  0.1027
10858TIP3    H132517   0.135   3.175   3.441  1.0496  0.7296  0.5597
10858TIP3    H232518   0.146   3.312   3.379  0.0571  0.7904  0.4972
10859TIP3   OH232519   5.880   6.796   1.763  1.1037 -0.4648  0.2333
10859TIP3    H132520   5.922   6.840   1.836  0.2515  0.9540 -0.0957
10859TIP3    H232521   5.832   6.865   1.717 -0.3112 -1.7297 -0.2865
10860TIP3   OH232522   6.281   3.147   2.318  0.2973  0.5900 -0.0986
10860TIP3    H132523   6.194   3.106   2.321  1.4105 -2.0288 -1.0189
10860TIP3    H232524   6.290   3.179   2.229  0.7322 -0.3190 -0.3972
10861TIP3   OH232525   7.508   5.776   1.902  0.1258  0.4073 -0.1445
10861TIP3    H132526   7.507   5.698   1.958 -1.5086 -0.5375 -1.4131
10861TIP3    H232527   7.447   5.755   1.831 -0.3874  2.8826 -0.4985
10862TIP3   OH232528   0.423   0.711   1.200 -0.1643 -0.5638 -0.8163
10862TIP3    H132529   0.382   0.701   1.286  1.7575 -1.4225  0.0577
10862TIP3    H232530   0.464   0.797   1.204  1.5413 -1.3661 -0.0931
10863TIP3   OH232531   3.208   6.939   1.544 -0.3694  0.1881 -0.1030
10863TIP3    H132532   3.140   6.964   1.606 -1.3733 -1.2864 -0.5545
10863TIP3    H232533   3.260   6.872   1.591  0.3583  0.7977 -0.0139
10864TIP3   OH232534   0.735   2.230   6.733 -0.0617 -0.3619 -0.3301
10864TIP3    H132535   0.651   2.220   6.777 -1.6288  0.7775 -2.8235
10864TIP3    H232536   0.773   2.309   6.771 -0.8915  0.0264 -0.2867
10865TIP3   OH232537   2.486   1.449   0.542 -0.2717  0.2431  0.8336
10865TIP3    H132538   2.412   1.388   0.547  0.0363 -0.0876  1.5134
10865TIP3    H232539   2.535   1.421   0.465 -0.0782 -0.4479  1.1958
10866TIP3   OH232540   6.584   1.097   4.637 -0.2966 -0.5730 -0.4602
10866TIP3    H132541   6.607   1.004   4.629 -1.5028 -0.8378 -1.0465
10866TIP3    H232542   6.558   1.108   4.728  2.4452 -0.1614  0.3652
10867TIP3   OH232543   6.904   3.974   0.873 -0.5915  0.2314  0.0083
10867TIP3    H132544   6.860   3.912   0.931  0.0588  0.4456  0.7472
10867TIP3    H232545   6.846   3.981   0.798 -1.0819 -0.6338  0.2880
10868TIP3   OH232546   4.340   5.792   6.108  0.1633  0.0933  0.6505
10868TIP3    H132547   4.366   5.704   6.135  1.7287  0.6180  0.9599
10868TIP3    H232548   4.267   5.814   6.165  0.0709 -0.8234  0.9040
10869TIP3   OH232549   3.180   1.854   2.128  0.2765  0.7479  0.1235
10869TIP3    H132550   3.257   1.855   2.185 -1.3054  0.2050  2.3724
10869TIP3    H232551   3.173   1.945   2.097  3.1149  0.3520 -2.1117
10870TIP3   OH232552   0.924   3.521   1.579 -0.3934  0.0240 -0.0542
10870TIP3    H132553   0.947   3.494   1.668  0.0175 -1.4954 -0.5895
10870TIP3    H232554   0.990   3.480   1.524 -0.9225  0.5546 -1.1046
10871TIP3   OH232555   6.069   6.684   4.501  0.1496 -0.0996  0.4170
10871TIP3    H132556   6.159   6.664   4.477 -0.0860 -0.5169 -0.1611
10871TIP3    H232557   6.027   6.598   4.512 -0.5657  0.0575 -0.8741
10872TIP3   OH232558   6.124   6.903   5.821  0.2859 -0.5826  0.8222
10872TIP3    H132559   6.035   6.871   5.803  0.6380 -1.3567  0.4127
10872TIP3    H232560   6.137   6.974   5.758 -0.7031  0.8021  2.0940
10873TIP3   OH232561   4.022   1.112   6.324  0.2411  0.4048  0.2557
10873TIP3    H132562   4.058   1.023   6.331 -0.8585 -0.0275  0.5813
10873TIP3    H232563   3.929   1.099   6.309  0.4870  1.4673 -2.9318
10874TIP3   OH232564   2.683   6.979   0.154 -0.3081  0.4017 -0.1147
10874TIP3    H132565   2.702   6.923   0.229 -0.9718  0.4166  0.0683
10874TIP3    H232566   2.589   6.968   0.138 -0.1242  0.1538 -1.1423
10875TIP3   OH232567   5.711   7.469   1.142 -0.1450  0.1795  1.0714
10875TIP3    H132568   5.698   7.440   1.051 -0.5961 -0.0633  1.2131
10875TIP3    H232569   5.771   7.544   1.134  3.0097 -2.1894  0.8713
10876TIP3   OH232570   6.793   7.465   5.005  0.4789  0.1502 -0.3075
10876TIP3    H132571   6.712   7.513   4.990 -0.3165 -0.7234  0.9565
10876TIP3    H232572   6.840   7.518   5.070 -0.7402 -1.0430  1.6638
10877TIP3   OH232573   4.359   4.414   2.290 -0.2033 -0.7417 -0.4328
10877TIP3    H132574   4.314   4.496   2.269  1.2379 -0.0878 -1.0368
10877TIP3    H232575   4.356   4.364   2.209  1.1309 -0.2176 -0.8257
10878TIP3   OH232576   0.847   1.201   2.041 -0.4536  0.3414  0.5509
10878TIP3    H132577   0.934   1.191   2.004 -1.2891 -1.7241 -1.0539
10878TIP3    H232578   0.854   1.167   2.130 -0.0906 -2.2735 -0.3785
10879TIP3   OH232579   1.133   4.177   2.431  0.0229  0.3660  0.3799
10879TIP3    H132580   1.148   4.261   2.473 -0.3278  0.0367  1.1706
10879TIP3    H232581   1.191   4.178   2.354 -1.4587  2.1480 -0.7953
10880TIP3   OH232582   3.020   1.423   5.186 -0.3667  0.0282 -0.1482
10880TIP3    H132583   3.079   1.382   5.124  0.3676  1.1860 -0.2449
10880TIP3    H232584   2.947   1.362   5.194 -0.1404 -0.4678 -1.6092
10881TIP3   OH232585   4.140   0.539   1.962 -0.5185 -0.3817 -0.3146
10881TIP3    H132586   4.061   0.512   2.009 -1.1031  0.0610 -1.0173
10881TIP3    H232587   4.208   0.543   2.029 -0.6745 -2.4043  0.0412
10882TIP3   OH232588   7.086   0.147   4.175 -0.4863 -0.1159 -0.1885
10882TIP3    H132589   7.008   0.161   4.229 -0.5973 -0.9448 -0.1191
10882TIP3    H232590   7.147   0.214   4.204 -1.3200  0.8281 -0.5448
10883TIP3   OH232591   6.522   5.651   3.528  0.0083  0.0030 -0.1755
10883TIP3    H132592   6.434   5.658   3.490 -0.7402 -2.3128  0.9363
10883TIP3    H232593   6.527   5.725   3.589 -1.5929 -0.3428  0.4516
10884TIP3   OH232594   3.723   4.261   6.714  0.1889 -0.1197  0.0559
10884TIP3    H132595   3.813   4.238   6.738  0.5222 -0.3164 -1.3101
10884TIP3    H232596   3.681   4.281   6.798  1.8031  1.1012  0.6327
10885TIP3   OH232597   0.520   1.290   6.397 -0.1168 -0.3150  0.5110
10885TIP3    H132598   0.552   1.379   6.383 -0.1232 -0.3467  0.2922
10885TIP3    H232599   0.436   1.287   6.350 -0.1887 -0.3901  0.6435
10886TIP3   OH232600   0.738   2.783   3.200  0.3304  0.0214 -0.3958
10886TIP3    H132601   0.693   2.743   3.125 -2.0071 -1.1149  1.4576
10886TIP3    H232602   0.671   2.837   3.242  1.1455 -0.4258  1.5944
10887TIP3   OH232603   3.244   3.888   3.844 -0.0068 -0.5382 -0.2992
10887TIP3    H132604   3.211   3.799   3.848 -0.5237 -0.3316  0.1831
10887TIP3    H232605   3.281   3.897   3.756 -0.2799 -1.1066 -0.4731
10888TIP3   OH232606   5.597   1.713   2.293 -0.9216  0.0533  0.4078
10888TIP3    H132607   5.572   1.640   2.236  0.2348  0.3679 -0.5209
10888TIP3    H232608   5.638   1.671   2.369 -1.0644 -0.2937  0.2963
10889TIP3   OH232609   5.050   3.435   1.185  0.4206  0.0420 -0.1075
10889TIP3    H132610   4.985   3.492   1.225  1.4867  0.7810  0.6117
10889TIP3    H232611   5.022   3.428   1.093  0.1452  1.5426 -0.1647
10890TIP3   OH232612   8.215   2.203   5.480 -0.0899  0.4459  0.4048
10890TIP3    H132613   8.228   2.109   5.491 -0.4178  0.2434 -0.7398
10890TIP3    H232614   8.186   2.234   5.566  0.4441 -0.4164  0.9094
10891TIP3   OH232615   4.634   5.547   3.686  0.3669  0.2994  0.9615
10891TIP3    H132616   4.653   5.457   3.659 -0.3701  0.2210  0.6978
10891TIP3    H232617   4.707   5.598   3.652  1.3895 -0.3550  2.0716
10892TIP3   OH232618   4.664   0.147   5.961 -0.4055  0.2774  0.5797
10892TIP3    H132619   4.757   0.162   5.980 -0.0009 -0.1417 -0.8957
10892TIP3    H232620   4.661   0.140   5.865 -1.7764 -0.9103  0.6840
10893TIP3   OH232621   3.667   4.289   6.452  0.2903 -0.0643 -0.0459
10893TIP3    H132622   3.603   4.360   6.446  1.1845  0.7893  0.3858
10893TIP3    H232623   3.684   4.279   6.545  1.8859  0.7246 -0.2261
10894TIP3   OH232624   6.756   6.158   3.186  0.2126 -0.4093 -0.3617
10894TIP3    H132625   6.832   6.158   3.128 -0.3315 -0.7404 -1.1064
10894TIP3    H232626   6.780   6.098   3.257  0.1312 -1.6694 -1.3422
10895TIP3   OH232627   0.578   4.153   6.633 -0.1726 -0.0925 -0.0066
10895TIP3    H132628   0.503   4.174   6.689  0.5548 -0.6821  1.2349
10895TIP3    H232629   0.594   4.060   6.649  0.8539  0.0450 -0.2060
10896TIP3   OH232630   1.225   2.256   6.680  0.2010 -0.4790  0.3288
10896TIP3    H132631   1.236   2.328   6.619 -1.6892 -0.4979 -0.1020
10896TIP3    H232632   1.304   2.203   6.670  0.9240  0.7116 -0.4551
10897TIP3   OH232633   2.966   3.189   2.470  0.5619  0.4298 -0.3077
10897TIP3    H132634   3.000   3.129   2.403  0.1830  1.0244 -1.0454
10897TIP3    H232635   2.888   3.228   2.430 -0.2137  0.1005  0.8388
10898TIP3   OH232636   4.186   7.516   2.421  0.3291 -0.3404 -0.1174
10898TIP3    H132637   4.158   7.440   2.471  1.6923 -0.7114  0.1222
10898TIP3    H232638   4.172   7.491   2.329 -0.8197 -0.2084  0.0095
10899TIP3   OH232639   3.206   3.071   1.908  0.1119 -0.1107 -0.2293
10899TIP3    H132640   3.171   2.988   1.942 -0.6882 -0.2798 -1.4327
10899TIP3    H232641   3.195   3.132   1.981 -4.5848  0.3835 -1.0178
10900TIP3   OH232642   4.303   4.127   3.146  0.9485 -0.1522  0.5942
10900TIP3    H132643   4.291   4.207   3.197 -0.4068 -0.3455  0.6263
10900TIP3    H232644   4.397   4.112   3.146  1.4209  2.3830 -0.8760
10901TIP3   OH232645   2.283   3.095   5.035  0.4997  0.0777 -0.5706
10901TIP3    H132646   2.217   3.033   5.005  0.8773 -0.0910 -1.0746
10901TIP3    H232647   2.365   3.062   4.998  0.8999  0.1710  0.2100
10902TIP3   OH232648   1.776   5.508   4.057  0.4472 -0.5631 -0.2175
10902TIP3    H132649   1.832   5.557   4.118 -0.2979  1.3698 -1.0136
10902TIP3    H232650   1.740   5.437   4.110  0.8756  0.2602  1.2307
10903TIP3   OH232651   3.847   5.375   3.100 -0.0757  0.1948  0.0200
10903TIP3    H132652   3.869   5.334   3.184 -0.6362  1.5372  0.8433
10903TIP3    H232653   3.892   5.459   3.102 -0.2215  0.3079 -0.9734
10904TIP3   OH232654   4.776   2.260   2.611  0.7032  0.6018 -0.4424
10904TIP3    H132655   4.685   2.235   2.625  0.8272  0.4912  0.1967
10904TIP3    H232656   4.799   2.220   2.527  1.1090 -2.1052  0.8489
10905TIP3   OH232657   3.473   4.112   6.327  0.3342 -0.1740  0.1930
10905TIP3    H132658   3.497   4.189   6.379 -1.3083 -0.4384  1.4195
10905TIP3    H232659   3.512   4.128   6.241 -0.4371  2.2995  0.2300
10906TIP3   OH232660   1.926   2.694   4.729 -0.6404 -0.6528 -0.2779
10906TIP3    H132661   1.847   2.748   4.728  0.7389  1.5341 -0.9662
10906TIP3    H232662   1.941   2.674   4.821 -1.1489  0.3015  0.0302
10907TIP3   OH232663   6.344   5.263   5.966 -0.1020 -0.2687  0.3179
10907TIP3    H132664   6.363   5.227   5.880 -0.9729 -0.4707  0.2051
10907TIP3    H232665   6.344   5.187   6.025 -1.8536 -0.4799  0.0933
10908TIP3   OH232666   2.693   7.328   0.028  0.2175  0.2074  0.8412
10908TIP3    H132667   2.703   7.423   0.033  0.7545  0.0968  2.4866
10908TIP3    H232668   2.622   7.309   0.090 -0.1060 -0.4414  0.2775
10909TIP3   OH232669   5.366   0.272   2.100  0.3447 -0.1015 -0.2470
10909TIP3    H132670   5.435   0.260   2.035  0.7434 -0.6030  0.2645
10909TIP3    H232671   5.286   0.285   2.048  0.7736  0.2209 -0.8379
10910TIP3   OH232672   5.367   4.345   1.694  0.4200  0.5915 -0.1350
10910TIP3    H132673   5.411   4.276   1.645 -0.5776 -0.3710  0.2948
10910TIP3    H232674   5.439   4.395   1.734  1.1912  0.5548 -1.4127
10911TIP3   OH232675   6.465   0.690   5.796 -0.7617 -0.2637  0.4482
10911TIP3    H132676   6.414   0.628   5.744  0.0752 -0.0944 -0.6052
10911TIP3    H232677   6.527   0.635   5.844 -0.6390 -0.3166  0.2297
10912TIP3   OH232678   4.464   6.923   3.069 -0.6366 -0.1518 -0.1519
10912TIP3    H132679   4.506   6.951   3.150 -0.3578  0.8296 -0.6274
10912TIP3    H232680   4.536   6.918   3.005 -1.0617  0.4620 -0.6906
10913TIP3   OH232681   2.295   3.620   4.278  0.3825 -0.6511  0.0373
10913TIP3    H132682   2.255   3.550   4.330 -1.5007 -0.4260 -1.0265
10913TIP3    H232683   2.326   3.683   4.343  0.4111 -1.5873  0.9584
10914TIP3   OH232684   1.984   2.299   0.179  0.0365 -0.9311  0.1330
10914TIP3    H132685   1.901   2.254   0.197 -0.4692  0.4324  1.4824
10914TIP3    H232686   1.963   2.360   0.108  0.1438 -1.2426 -0.1704
10915TIP3   OH232687   5.427   6.772   3.945 -0.3244  0.0207 -0.4023
10915TIP3    H132688   5.407   6.865   3.954 -0.2708  0.1750 -1.7801
10915TIP3    H232689   5.439   6.742   4.036 -1.0612  1.1812  0.1066
10916TIP3   OH232690   0.597   0.994   5.515  0.4536  0.7241 -0.1352
10916TIP3    H132691   0.561   1.018   5.600 -0.9938 -0.7070 -0.2826
10916TIP3    H232692   0.608   1.077   5.469 -1.3058  1.3515  0.4784
10917TIP3   OH232693   6.717   2.584   4.707  0.3809 -0.1638  0.4338
10917TIP3    H132694   6.633   2.621   4.734  0.2635  0.3044 -0.5318
10917TIP3    H232695   6.743   2.527   4.780 -0.7984 -0.3570  0.7238
10918TIP3   OH232696   2.300   6.673   6.294 -0.2923 -0.0722 -0.0443
10918TIP3    H132697   2.376   6.671   6.235  2.6436  1.8615  3.2775
10918TIP3    H232698   2.268   6.763   6.290 -2.0409 -0.6853 -0.8401
10919TIP3   OH232699   1.533   0.395   6.579 -0.1608 -0.2319  0.1683
10919TIP3    H132700   1.530   0.351   6.664 -0.8376 -0.4768  0.0255
10919TIP3    H232701   1.626   0.406   6.561  0.0097  1.1322  1.6009
10920TIP3   OH232702   0.605   2.776   6.682  0.2857  0.1788  0.5402
10920TIP3    H132703   0.656   2.857   6.684 -1.0683  1.0669  0.8779
10920TIP3    H232704   0.546   2.783   6.758  0.6000 -1.4495  0.9748
10921TIP3   OH232705   4.741   0.116   3.751 -0.4404 -0.1139  0.5764
10921TIP3    H132706   4.758   0.119   3.657  0.3172 -0.2394  0.7003
10921TIP3    H232707   4.821   0.078   3.788 -0.9993 -0.7023  1.2022
10922TIP3   OH232708   0.203   6.667   3.249  0.4203  0.0117 -0.2634
10922TIP3    H132709   0.223   6.723   3.174  1.3776  2.5490  1.7557
10922TIP3    H232710   0.288   6.645   3.287 -0.0972  0.5609  1.2836
10923TIP3   OH232711   5.301   3.993   6.562 -0.3970 -0.0048 -0.8266
10923TIP3    H132712   5.272   3.907   6.531  1.3048  0.3568 -3.7862
10923TIP3    H232713   5.237   4.054   6.526 -0.7422  0.1153 -0.0248
10924TIP3   OH232714   1.065   5.559   2.163  0.1855 -0.2136 -0.4708
10924TIP3    H132715   1.074   5.628   2.228  0.7251  0.7800 -1.5632
10924TIP3    H232716   1.140   5.572   2.104 -0.1297 -1.2603 -1.1333
10925TIP3   OH232717   6.202   2.572   5.472 -0.6034  0.2000 -0.7693
10925TIP3    H132718   6.107   2.583   5.475 -0.5088  0.9485  1.0476
10925TIP3    H232719   6.216   2.489   5.427 -2.1504 -0.2530 -0.4598
10926TIP3   OH232720   6.748   2.628   5.889  0.7727 -0.4443 -0.9051
10926TIP3    H132721   6.692   2.702   5.914 -0.7627 -2.1762  1.1134
10926TIP3    H232722   6.836   2.655   5.918  0.3201  0.7224 -0.5364
10927TIP3   OH232723   1.026   3.205   4.113 -0.0599 -0.0848  0.3868
10927TIP3    H132724   1.046   3.158   4.194  0.7816 -0.2233  0.1063
10927TIP3    H232725   0.974   3.281   4.142  0.9661  0.3420  1.1651
10928TIP3   OH232726   7.558   0.848   0.433 -0.1835  0.0982  0.4188
10928TIP3    H132727   7.548   0.825   0.341 -0.5048 -1.0787  0.7219
10928TIP3    H232728   7.646   0.817   0.456  0.7097  2.2064  0.0304
10929TIP3   OH232729   0.252   1.283   5.443  0.0556 -0.3264  0.1489
10929TIP3    H132730   0.281   1.268   5.533 -0.4498 -0.6201  0.2656
10929TIP3    H232731   0.183   1.348   5.451  0.2132 -0.1326 -0.0588
10930TIP3   OH232732   5.819   6.245   3.235  0.0174 -0.2731 -0.4804
10930TIP3    H132733   5.793   6.333   3.210  0.1688 -0.2154 -0.4334
10930TIP3    H232734   5.914   6.248   3.240  0.1078 -0.7045 -1.5069
10931TIP3   OH232735   5.932   3.292   0.086  0.1398  0.0200  0.3256
10931TIP3    H132736   5.891   3.218   0.130  0.2624  0.5837  1.4196
10931TIP3    H232737   6.002   3.319   0.145 -0.2165  1.3134  0.1865
10932TIP3   OH232738   4.542   3.129   0.301 -0.3761  0.6396  0.2018
10932TIP3    H132739   4.566   3.211   0.342  0.4392 -0.3425  1.7562
10932TIP3    H232740   4.519   3.071   0.373 -2.3915 -0.0904 -0.9218
10933TIP3   OH232741   6.546   2.797   4.086  0.8144 -0.4281 -0.0191
10933TIP3    H132742   6.493   2.785   4.165  1.7813 -0.6139  0.6118
10933TIP3    H232743   6.494   2.755   4.016 -0.3262  0.2660  0.3842
10934TIP3   OH232744   3.669   0.646   3.227  0.0074 -0.0601 -0.8886
10934TIP3    H132745   3.698   0.698   3.151  1.9692  0.1089 -0.0890
10934TIP3    H232746   3.655   0.711   3.296  3.0122 -0.4822  0.2874
10935TIP3   OH232747   6.555   0.561   3.302 -0.1248 -0.7068 -0.5038
10935TIP3    H132748   6.556   0.567   3.398 -0.2041  1.5907 -0.5966
10935TIP3    H232749   6.538   0.650   3.273 -1.7597 -1.6491 -2.6602
10936TIP3   OH232750   6.665   0.840   2.209 -0.2670 -0.6361 -0.2003
10936TIP3    H132751   6.601   0.887   2.261 -1.7308  0.0783 -2.4844
10936TIP3    H232752   6.683   0.760   2.259 -2.2335 -0.4197  0.9606
10937TIP3   OH232753   1.451   6.522   3.501 -0.0774  0.4314 -0.4599
10937TIP3    H132754   1.472   6.436   3.536  1.5354  0.7477 -0.5411
10937TIP3    H232755   1.375   6.552   3.552 -2.1346 -1.9269 -1.9551
10938TIP3   OH232756   3.208   0.600   2.919 -0.4536 -0.8325 -0.3257
10938TIP3    H132757   3.221   0.613   2.825  1.4496  0.3228  0.0463
10938TIP3    H232758   3.160   0.678   2.948  0.9126 -0.0706 -0.0103
10939TIP3   OH232759   0.955   7.363   5.494 -0.3201 -0.2645 -0.0381
10939TIP3    H132760   0.950   7.269   5.506 -1.0214 -0.1641  0.5252
10939TIP3    H232761   0.990   7.396   5.576 -0.3934 -0.0089 -0.1079
10940TIP3   OH232762   0.993   5.699   5.330 -0.3646 -0.2171  0.0562
10940TIP3    H132763   0.950   5.773   5.288 -0.7861 -0.4020  0.1500
10940TIP3    H232764   1.083   5.727   5.344 -1.0111  1.0721  1.9725
10941TIP3   OH232765   0.032   7.323   3.913  0.8165  0.1798 -0.5375
10941TIP3    H132766   0.047   7.342   3.821  0.1481 -1.7660 -1.0866
10941TIP3    H232767   0.022   7.228   3.917 -1.8596  0.4219  1.1316
10942TIP3   OH232768   1.529   2.858   6.509  0.0093  0.2348 -0.0153
10942TIP3    H132769   1.557   2.780   6.461 -0.1372 -1.5227  2.5353
10942TIP3    H232770   1.442   2.878   6.475 -0.6356 -1.7418  0.3082
10943TIP3   OH232771   3.717   6.850   2.130 -0.1696 -0.4937 -0.0941
10943TIP3    H132772   3.703   6.942   2.109 -0.1993 -0.5504 -0.3367
10943TIP3    H232773   3.808   6.834   2.105 -0.8417 -1.1309 -2.3905
10944TIP3   OH232774   4.949   4.880   5.891 -0.0725 -0.0934  0.0607
10944TIP3    H132775   4.874   4.925   5.929 -1.1965 -0.5625 -1.4727
10944TIP3    H232776   4.931   4.879   5.797  1.6484 -0.6196 -0.2984
10945TIP3   OH232777   6.136   0.978   5.934  0.0060 -0.6680  0.1969
10945TIP3    H132778   6.102   0.991   5.845  0.4495 -0.7841  0.0079
10945TIP3    H232779   6.171   1.064   5.959  0.0516 -0.6821  0.1827
10946TIP3   OH232780   2.761   3.083   1.832  0.2980  0.5768  0.2763
10946TIP3    H132781   2.794   2.995   1.850  0.6787  0.7228  0.3032
10946TIP3    H232782   2.815   3.115   1.761  0.0115  0.7056  0.1155
10947TIP3   OH232783   4.714   3.225   3.424 -0.1708 -0.3901  0.0037
10947TIP3    H132784   4.755   3.146   3.392  0.6872 -0.0547  0.2488
10947TIP3    H232785   4.785   3.289   3.429 -0.6375  0.0878  0.8080
10948TIP3   OH232786   7.964   0.506   3.124 -0.0500 -0.3948  0.0687
10948TIP3    H132787   7.945   0.599   3.121 -4.4485 -1.0834 -0.2990
10948TIP3    H232788   7.929   0.471   3.042 -0.2520 -2.6093  1.0111
10949TIP3   OH232789  -0.005   1.279   5.924 -0.1453 -0.1546  0.1151
10949TIP3    H132790  -0.021   1.359   5.874 -0.1999 -0.0996  0.2214
10949TIP3    H232791   0.069   1.301   5.981  1.5441 -0.9475 -1.6418
10950TIP3   OH232792   7.415   6.514   3.723  0.2894 -0.4914  0.2611
10950TIP3    H132793   7.478   6.513   3.651 -0.1401 -0.9376 -0.1152
10950TIP3    H232794   7.354   6.443   3.703 -0.5767  0.1923  0.3930
10951TIP3   OH232795   4.200   0.421   0.369  0.0345 -0.6504 -0.1330
10951TIP3    H132796   4.227   0.424   0.278 -1.1147 -0.8981 -0.4957
10951TIP3    H232797   4.111   0.385   0.367 -0.6140  0.7984  0.9475
10952TIP3   OH232798   7.531   7.751   4.435  0.1405  0.2137 -0.0363
10952TIP3    H132799   7.566   7.696   4.505  0.6173  2.1547  1.3214
10952TIP3    H232800   7.456   7.795   4.475 -0.5961  0.1138 -1.2747
10953TIP3   OH232801   4.827   0.319   4.490  0.2486  0.5851 -0.0368
10953TIP3    H132802   4.776   0.245   4.521  3.1867 -1.0710  1.2345
10953TIP3    H232803   4.789   0.395   4.535 -0.4615 -0.7111  1.6627
10954TIP3   OH232804   5.955   2.262   5.504 -0.2155 -0.3961 -0.0627
10954TIP3    H132805   6.025   2.283   5.566 -0.3435 -1.7951  0.5860
10954TIP3    H232806   5.874   2.278   5.552 -0.3229 -2.7299  0.6393
10955TIP3   OH232807   2.767   5.124   2.344 -0.1504  0.1738 -0.0370
10955TIP3    H132808   2.853   5.113   2.302 -0.5800 -0.3826 -0.7870
10955TIP3    H232809   2.765   5.217   2.368  0.0407  0.5585 -1.4166
10956TIP3   OH232810   4.585   6.868   6.047  0.0561 -0.2456  0.0725
10956TIP3    H132811   4.564   6.816   5.969 -0.1930  0.2988 -0.2341
10956TIP3    H232812   4.603   6.956   6.012  0.4448 -0.1244  0.5815
10957TIP3   OH232813   7.235   1.260   0.385 -0.5514  0.0767 -0.0578
10957TIP3    H132814   7.232   1.256   0.290  0.0525 -0.8382 -0.0551
10957TIP3    H232815   7.329   1.263   0.406 -0.4422 -3.4268  0.5746
10958TIP3   OH232816   2.392   7.272   2.958 -0.4998  0.2424 -0.1142
10958TIP3    H132817   2.312   7.264   2.908 -0.2712  1.8614 -0.7697
10958TIP3    H232818   2.461   7.239   2.900 -0.3727  1.1869 -0.5219
10959TIP3   OH232819   0.517   4.721   5.844 -0.1390 -0.1952  0.5967
10959TIP3    H132820   0.493   4.810   5.818 -1.9823 -1.1617 -1.3366
10959TIP3    H232821   0.439   4.687   5.889 -0.7131 -1.8201 -1.4732
10960TIP3   OH232822   2.331   0.019   1.670 -0.0875 -0.1711  0.0493
10960TIP3    H132823   2.274   0.023   1.746  1.8298 -0.9762  1.6167
10960TIP3    H232824   2.280  -0.027   1.604 -1.3639 -0.5444  1.2494
10961TIP3   OH232825   2.630   4.481   4.413  0.8295  0.0129  0.3764
10961TIP3    H132826   2.617   4.458   4.505  0.0609 -1.2323 -0.0143
10961TIP3    H232827   2.634   4.576   4.412  0.8256  0.0471  1.6910
10962TIP3   OH232828   3.260   5.265   0.237  0.1701 -0.1582  0.8472
10962TIP3    H132829   3.237   5.310   0.319  1.9782 -0.5505  1.6331
10962TIP3    H232830   3.198   5.193   0.231  1.2479 -1.3643  3.0103
10963TIP3   OH232831   6.991   5.403   4.438  0.5179  0.8485  0.1359
10963TIP3    H132832   6.931   5.460   4.392  1.8762  1.3731 -1.0504
10963TIP3    H232833   7.070   5.403   4.385  0.6967 -1.8842  0.2560
10964TIP3   OH232834   4.799   7.769   3.918  0.2259 -0.1702 -0.4602
10964TIP3    H132835   4.787   7.830   3.845 -0.8795  0.6568  0.3682
10964TIP3    H232836   4.829   7.688   3.876  0.9661  0.6896 -1.6697
10965TIP3   OH232837   4.863   5.109   1.892 -0.2137 -0.2089  0.4442
10965TIP3    H132838   4.876   5.039   1.828  1.9889 -0.6838  1.2998
10965TIP3    H232839   4.940   5.165   1.882  0.2352 -0.3187  2.6279
10966TIP3   OH232840   4.004   3.762   2.891 -0.1904 -0.0766  0.3701
10966TIP3    H132841   4.070   3.826   2.914 -1.7737  2.6341 -1.9355
10966TIP3    H232842   3.942   3.763   2.964 -0.3891  1.4023  0.2115
10967TIP3   OH232843   6.447   7.301   5.197 -1.0287  0.8248 -0.6597
10967TIP3    H132844   6.433   7.395   5.199  3.1396  1.5850  0.9096
10967TIP3    H232845   6.482   7.279   5.283  2.5001 -1.2221 -2.4107
10968TIP3   OH232846   1.627   4.496   6.678 -0.3921  0.0847  0.0678
10968TIP3    H132847   1.538   4.532   6.690 -0.8088 -0.9074  0.0294
10968TIP3    H232848   1.628   4.465   6.588 -0.1414 -0.2901  0.1987
10969TIP3   OH232849   6.639   6.185   5.213  0.2813  0.2709 -0.3504
10969TIP3    H132850   6.587   6.112   5.180  0.3725 -0.1415  0.3908
10969TIP3    H232851   6.724   6.146   5.235  0.0968  0.4461  0.7274
10970TIP3   OH232852   6.292   3.233   2.076 -0.6538 -0.0557  0.3758
10970TIP3    H132853   6.336   3.305   2.121  0.4698 -0.3599 -0.2099
10970TIP3    H232854   6.311   3.247   1.983 -1.1743 -0.6182  0.1766
10971TIP3   OH232855   3.538   1.324   0.812  0.4937  0.2631  0.6068
10971TIP3    H132856   3.621   1.364   0.836  0.7475  0.0800  0.0591
10971TIP3    H232857   3.477   1.351   0.880  1.0899  0.0876  1.2198
10972TIP3   OH232858   1.847   4.787   3.676 -0.0611 -0.4584  0.1729
10972TIP3    H132859   1.784   4.722   3.707 -0.9452  0.7128  0.9244
10972TIP3    H232860   1.795   4.866   3.661  1.2485  0.6014  0.9881
10973TIP3   OH232861   4.558   1.076   4.206 -0.1328  0.7640  0.3421
10973TIP3    H132862   4.618   1.089   4.132 -1.0289  1.0815 -0.3437
10973TIP3    H232863   4.608   1.023   4.269  0.1557 -0.7717 -1.1162
10974TIP3   OH232864   1.515   1.468   3.486 -0.3574  0.0302  0.4841
10974TIP3    H132865   1.433   1.509   3.511  0.1022  0.9595  0.5100
10974TIP3    H232866   1.572   1.541   3.460  0.7097 -0.5203  1.1942
10975TIP3   OH232867   0.174   3.038   2.161  0.2069 -0.0430 -0.2853
10975TIP3    H132868   0.175   3.134   2.166  0.0284 -0.0989  2.0683
10975TIP3    H232869   0.089   3.016   2.123 -0.6505  0.7411  1.0802
10976TIP3   OH232870   3.292   1.673   3.460 -0.2207  0.0986  0.0005
10976TIP3    H132871   3.211   1.706   3.421  0.6533  1.9643 -0.3692
10976TIP3    H232872   3.270   1.585   3.490 -2.0242  0.0853 -1.1890
10977TIP3   OH232873   0.226   2.825   0.308 -0.4204  0.1715  0.1966
10977TIP3    H132874   0.290   2.872   0.254 -0.7091 -1.9025 -2.0803
10977TIP3    H232875   0.170   2.894   0.343  0.9145  1.7526 -0.6098
10978TIP3   OH232876   2.131   3.042   0.864 -0.0415  0.0675 -0.3790
10978TIP3    H132877   2.087   3.032   0.948 -1.5539 -0.5733 -1.2087
10978TIP3    H232878   2.186   3.119   0.875 -0.2427  0.0192  1.1760
10979TIP3   OH232879   3.312   3.115   3.450  0.1239  0.0083  0.2807
10979TIP3    H132880   3.361   3.035   3.434  0.2507  0.4435 -1.7403
10979TIP3    H232881   3.353   3.180   3.393 -0.8802  1.1494  0.8218
10980TIP3   OH232882   4.339   6.517   4.896  0.1532 -0.5326 -0.3538
10980TIP3    H132883   4.381   6.594   4.856  0.9445 -1.1129 -0.6711
10980TIP3    H232884   4.367   6.519   4.987 -0.6507  0.1042 -0.1052
10981TIP3   OH232885   5.975   4.000   6.017 -0.2902 -0.2413  0.6633
10981TIP3    H132886   6.007   3.911   6.025 -0.7607 -0.5766 -0.8638
10981TIP3    H232887   6.054   4.054   6.013  0.0012 -0.6197  1.1823
10982TIP3   OH232888   0.425   5.224   4.531 -0.0830  0.7524 -0.4442
10982TIP3    H132889   0.484   5.277   4.478  1.3037  0.5184  0.7694
10982TIP3    H232890   0.429   5.137   4.492  1.8726  0.2804  0.6374
10983TIP3   OH232891   0.184   1.830   4.319  0.0063 -0.1977 -0.1371
10983TIP3    H132892   0.131   1.782   4.256 -0.9884 -0.4672  0.8822
10983TIP3    H232893   0.157   1.797   4.404  0.5754  0.9024  0.5004
10984TIP3   OH232894   6.741   4.364   0.908 -0.0504 -0.2291 -0.3030
10984TIP3    H132895   6.708   4.283   0.868 -2.5327  1.0963 -1.1649
10984TIP3    H232896   6.672   4.391   0.968  0.4542  1.5082 -0.4372
10985TIP3   OH232897   5.054   0.703   0.771 -0.1674  0.7041 -0.3293
10985TIP3    H132898   5.007   0.620   0.762  1.2790 -0.4056  1.4615
10985TIP3    H232899   5.046   0.725   0.864  1.9079  0.9818 -0.1659
10986TIP3   OH232900   0.615   1.866   3.589  0.4264  1.0261 -0.0249
10986TIP3    H132901   0.677   1.921   3.541  1.1227  0.2565 -0.0306
10986TIP3    H232902   0.634   1.777   3.560 -0.9387  0.8028 -0.2882
10987TIP3   OH232903   3.699   3.855   4.813 -0.1990  0.2630  0.5773
10987TIP3    H132904   3.783   3.853   4.768 -0.7276  1.0478 -0.4772
10987TIP3    H232905   3.638   3.810   4.753 -1.0975  2.0916  0.0499
10988TIP3   OH232906   6.820   1.289   2.510  0.2524 -0.2480  0.5771
10988TIP3    H132907   6.879   1.240   2.453  2.3338 -0.8149  3.0209
10988TIP3    H232908   6.779   1.354   2.453  1.3383 -1.4698 -1.7358
10989TIP3   OH232909   5.275   2.587   1.850  0.1647 -0.3589  0.0628
10989TIP3    H132910   5.183   2.583   1.873 -0.0483  0.6815 -0.5718
10989TIP3    H232911   5.307   2.668   1.890  0.2594  0.4343 -1.5275
10990TIP3   OH232912   2.879   6.438   4.131 -0.2216 -0.6846 -0.2969
10990TIP3    H132913   2.784   6.432   4.145 -0.2227  0.7325  0.4797
10990TIP3    H232914   2.915   6.454   4.219  0.6469 -0.3455 -0.7067
10991TIP3   OH232915   7.251   6.194   0.138  0.3448 -0.0946 -0.2117
10991TIP3    H132916   7.313   6.246   0.190 -0.7122  1.1943 -0.1972
10991TIP3    H232917   7.175   6.184   0.195 -1.7253  3.1586 -2.1387
10992TIP3   OH232918   7.898   6.445   0.058 -0.4330  0.0641  0.0042
10992TIP3    H132919   7.981   6.409   0.028  0.1923  1.2504  0.2867
10992TIP3    H232920   7.884   6.523   0.005  0.0926  1.5076  1.8586
10993TIP3   OH232921   5.298   5.413   6.276 -0.3772  0.0199  0.3497
10993TIP3    H132922   5.386   5.397   6.240 -0.0852 -0.4965  1.2735
10993TIP3    H232923   5.280   5.504   6.253  0.2645  0.0390 -0.1232
10994TIP3   OH232924   3.056   1.432   3.724 -0.6464  0.0413  0.3374
10994TIP3    H132925   3.055   1.375   3.801 -0.8867  0.8090  0.9215
10994TIP3    H232926   2.967   1.426   3.689 -0.7034  0.1297  0.4628
10995TIP3   OH232927   5.400   2.411   6.760  0.1790 -0.3391  0.8152
10995TIP3    H132928   5.426   2.458   6.680 -1.0427 -0.7973  0.1162
10995TIP3    H232929   5.481   2.399   6.808  0.6691  1.7173  0.6112
10996TIP3   OH232930   2.425   4.239   6.508 -0.0037  0.3736 -0.2754
10996TIP3    H132931   2.457   4.149   6.506 -1.4725 -0.2374  1.2632
10996TIP3    H232932   2.498   4.291   6.476  0.7696 -1.3786 -1.5136
10997TIP3   OH232933   7.948   3.876   5.330  0.2592  0.4284 -0.1834
10997TIP3    H132934   8.041   3.881   5.308  0.3573  1.1246  0.3411
10997TIP3    H232935   7.919   3.792   5.294  0.9121  0.5380 -0.9983
10998TIP3   OH232936   1.970   3.064   4.752  0.5527 -0.2336  0.0550
10998TIP3    H132937   2.011   3.026   4.830  1.3471 -0.5281 -0.4849
10998TIP3    H232938   1.893   3.010   4.737 -1.0320  1.3075  2.0285
10999TIP3   OH232939   3.150   7.609   1.254  0.2820  0.3031  0.3764
10999TIP3    H132940   3.186   7.574   1.172  0.9270 -0.3806  0.9414
10999TIP3    H232941   3.221   7.662   1.291  0.5550 -0.6175  1.2296
11000TIP3   OH232942   0.732   7.710   3.570 -0.9534 -0.3121  0.6423
11000TIP3    H132943   0.754   7.783   3.628 -1.3393 -0.8318  1.4517
11000TIP3    H232944   0.763   7.632   3.616  0.7424 -0.5785 -0.8501
11001TIP3   OH232945   6.561   4.744   2.964 -0.4323  0.0467  0.3492
11001TIP3    H132946   6.513   4.797   2.901 -3.5513 -1.5444  1.1739
11001TIP3    H232947   6.593   4.670   2.913 -1.5573 -0.4133  0.2669
11002TIP3   OH232948   6.980   7.607   0.336  0.0451 -0.8246  0.1626
11002TIP3    H132949   6.940   7.694   0.344  1.6268 -0.0109 -0.3936
11002TIP3    H232950   7.015   7.588   0.423  0.7531 -0.3498 -0.0103
11003TIP3   OH232951   2.269   7.573   0.073  0.1801 -0.0933  0.2532
11003TIP3    H132952   2.285   7.544   0.163  0.3045  2.7509  1.2255
11003TIP3    H232953   2.278   7.493   0.020 -0.1291 -1.8873  2.7557
11004TIP3   OH232954   1.047   0.119   4.333 -0.1920 -0.3086 -0.5038
11004TIP3    H132955   1.041   0.208   4.298  0.3783 -0.2439 -0.4520
11004TIP3    H232956   0.957   0.087   4.333 -0.4217  0.3167 -0.3925
11005TIP3   OH232957   0.826   6.081   4.132 -0.0308 -0.2513 -0.7432
11005TIP3    H132958   0.848   6.067   4.224 -0.5977 -0.5986 -0.6580
11005TIP3    H232959   0.731   6.076   4.128 -0.3274  3.2621 -0.7633
11006TIP3   OH232960   6.679   1.624   6.018  0.3350  0.1691 -0.6999
11006TIP3    H132961   6.621   1.568   5.966  0.6912 -1.4246  0.5419
11006TIP3    H232962   6.700   1.572   6.095  1.9843  1.4275 -0.2430
11007TIP3   OH232963   5.587   3.426   1.740  0.1763 -0.1008 -0.2613
11007TIP3    H132964   5.595   3.459   1.651  1.3869  1.3433  0.3414
11007TIP3    H232965   5.501   3.459   1.770 -0.1675 -0.4666 -0.8315
11008TIP3   OH232966   7.708   3.217   0.700 -0.2518 -0.5906 -0.2890
11008TIP3    H132967   7.725   3.186   0.789 -0.4473  0.4880  0.1359
11008TIP3    H232968   7.712   3.312   0.706 -0.9437 -0.4761 -1.3024
11009TIP3   OH232969   2.597   5.907   3.048 -0.0375  0.2040  0.0620
11009TIP3    H132970   2.590   5.833   2.988 -1.2138 -0.1513  0.6029
11009TIP3    H232971   2.521   5.961   3.028  0.2516  0.7389  0.3812
11010TIP3   OH232972   7.531   0.430   0.349 -0.2475 -0.7527  0.4188
11010TIP3    H132973   7.499   0.340   0.357 -0.5891 -0.5787  1.0964
11010TIP3    H232974   7.556   0.439   0.257 -2.1145 -0.9152 -0.1496
11011TIP3   OH232975   5.527   3.177   5.921 -0.0896 -0.0855  0.3615
11011TIP3    H132976   5.613   3.219   5.912 -0.1999  0.1361  0.3293
11011TIP3    H232977   5.495   3.168   5.831  1.4276 -3.4379  0.0225
11012TIP3   OH232978   1.594   3.389   4.226 -0.3852  0.4877 -0.3699
11012TIP3    H132979   1.645   3.441   4.289  0.0108  0.2968 -0.5358
11012TIP3    H232980   1.506   3.387   4.264  0.5228 -2.4514  1.9757
11013TIP3   OH232981   2.502   5.450   6.718 -0.3448 -1.0689 -0.4189
11013TIP3    H132982   2.461   5.425   6.801  1.0131 -0.7004  0.3907
11013TIP3    H232983   2.586   5.405   6.719 -0.4365 -1.2995 -1.7538
11014TIP3   OH232984   7.385   3.511   4.922  0.2027  0.2956  0.4296
11014TIP3    H132985   7.450   3.449   4.891 -1.4666 -1.5762  0.5187
11014TIP3    H232986   7.395   3.511   5.017 -0.6258 -0.8314  0.5283
11015TIP3   OH232987   5.004   1.160   4.530  0.3820  0.3548 -0.0916
11015TIP3    H132988   5.070   1.129   4.592 -0.1296 -1.2544 -0.2975
11015TIP3    H232989   4.963   1.235   4.573  1.9832  1.0786  0.2450
11016TIP3   OH232990   1.501   2.869   3.387 -0.7131 -0.0864 -0.0149
11016TIP3    H132991   1.423   2.832   3.347 -0.9697  0.6226 -0.1790
11016TIP3    H232992   1.484   2.963   3.392 -0.0626  0.0215  0.3719
11017TIP3   OH232993   3.321   7.629   6.402 -0.2597  0.1009 -0.0187
11017TIP3    H132994   3.293   7.645   6.312  1.5720  1.2825 -0.4432
11017TIP3    H232995   3.293   7.708   6.449 -1.6622 -0.7306  0.6062
11018TIP3   OH232996   7.985   0.356   0.733  0.0041 -0.2701 -0.8802
11018TIP3    H132997   8.026   0.269   0.736 -0.1085 -0.3497 -1.5864
11018TIP3    H232998   7.892   0.339   0.723 -0.2538 -0.0879  0.9322
11019TIP3   OH232999   0.188   4.899   2.635 -0.3584  0.2388 -0.3952
11019TIP3    H133000   0.190   4.987   2.672  0.0533  0.3614 -0.7026
11019TIP3    H233001   0.265   4.894   2.579  0.6970 -0.9662  1.0793
11020TIP3   OH233002   6.042   7.451   0.484  0.6322  0.0648  0.2650
11020TIP3    H133003   6.037   7.428   0.577  0.3287 -0.1115  0.2092
11020TIP3    H233004   6.105   7.389   0.448 -1.3680 -1.8223 -0.1997
11021TIP3   OH233005   0.186   4.422   2.753  0.1562 -0.3324  0.1459
11021TIP3    H133006   0.236   4.490   2.798  1.0368 -1.2499  0.5861
11021TIP3    H233007   0.209   4.433   2.660 -0.7299  0.7836  0.0285
11022TIP3   OH233008   8.220   6.860   6.478 -0.3515 -0.4830 -0.3044
11022TIP3    H133009   8.146   6.913   6.508 -0.3558 -0.5745 -0.1479
11022TIP3    H233010   8.204   6.774   6.517 -1.1968 -1.0732 -1.8560
11023TIP3   OH233011   6.188   6.434   4.805 -0.1346 -0.0003  0.0372
11023TIP3    H133012   6.163   6.521   4.837  1.9514  0.4825  0.4728
11023TIP3    H233013   6.108   6.382   4.815 -1.5130  1.8851 -0.4382
11024TIP3   OH233014   5.070   4.365   2.250  0.2691 -0.2681  0.0622
11024TIP3    H133015   5.056   4.286   2.302  1.6608 -0.7934 -0.3153
11024TIP3    H233016   5.163   4.385   2.262  0.2283  0.5549 -0.8902
11025TIP3   OH233017   7.224   1.651   0.101 -0.3285  0.3821  0.0377
11025TIP3    H133018   7.296   1.588   0.094  1.2823  2.1612 -0.1882
11025TIP3    H233019   7.188   1.657   0.013  0.0920  0.4324 -0.1312
11026TIP3   OH233020   7.295   3.974   1.248  0.0255  0.2415  0.4135
11026TIP3    H133021   7.308   3.956   1.155 -0.5331  1.0024  0.1697
11026TIP3    H233022   7.308   3.890   1.291  0.7819 -0.0240 -0.2964
11027TIP3   OH233023   3.899   2.090   0.361 -0.5743 -0.3157  0.4074
11027TIP3    H133024   3.891   2.110   0.454  0.4449 -0.7489  0.5985
11027TIP3    H233025   3.843   2.014   0.348 -1.8892  0.6160  0.3418
11028TIP3   OH233026   1.395   7.744   1.457  0.3306 -0.0262  0.1958
11028TIP3    H133027   1.337   7.742   1.380 -0.3192 -0.6347  0.6845
11028TIP3    H233028   1.376   7.827   1.499  0.2684  0.0540  0.0112
11029TIP3   OH233029   4.757   1.592   2.791 -0.1395  0.5668 -0.1033
11029TIP3    H133030   4.688   1.605   2.726 -0.7852 -0.5583  0.3270
11029TIP3    H233031   4.810   1.521   2.755  0.6556  1.2428 -0.3019
11030TIP3   OH233032   1.343   0.780   1.991 -0.4618 -0.5802  0.5666
11030TIP3    H133033   1.367   0.873   1.988 -1.1467 -0.4109 -0.1711
11030TIP3    H233034   1.279   0.770   1.920 -1.5964 -1.2789  1.6536
11031TIP3   OH233035   3.457   4.119   0.363  0.0181 -0.0981  0.1464
11031TIP3    H133036   3.489   4.183   0.426  0.5546 -0.7522  0.5488
11031TIP3    H233037   3.428   4.172   0.288  1.0478  0.5913  0.2085
11032TIP3   OH233038   0.669   6.768   3.712 -0.0164 -0.3650  0.2436
11032TIP3    H133039   0.753   6.769   3.666 -0.1736  1.8185 -0.1371
11032TIP3    H233040   0.604   6.784   3.643 -0.8726 -2.7551  0.4162
11033TIP3   OH233041   7.723   4.044   5.671  0.2426 -0.2979  0.1613
11033TIP3    H133042   7.632   4.064   5.647 -0.4532 -0.5654  2.3598
11033TIP3    H233043   7.742   4.103   5.744  1.6990 -0.5701  0.0275
11034TIP3   OH233044   2.165   7.005   1.556  0.2097 -0.1821 -0.3108
11034TIP3    H133045   2.080   6.989   1.514 -0.4335  0.8353  0.5579
11034TIP3    H233046   2.147   7.072   1.621  1.2053 -1.6487  1.5564
11035TIP3   OH233047   2.317   3.923   3.184  0.0158 -0.0430  0.4861
11035TIP3    H133048   2.268   3.875   3.251  0.5589  0.3886  1.1981
11035TIP3    H233049   2.404   3.934   3.220  0.2301  0.4717 -0.1601
11036TIP3   OH233050   6.915   5.018   1.572 -0.1624 -0.1128  0.1065
11036TIP3    H133051   6.820   5.005   1.570 -0.2239  0.0101  1.2545
11036TIP3    H233052   6.951   4.930   1.581 -0.2210 -0.0946  0.5588
11037TIP3   OH233053   5.873   4.243   0.366  1.0227  0.4628  0.4284
11037TIP3    H133054   5.815   4.307   0.326 -0.5277 -1.0525  0.1668
11037TIP3    H233055   5.879   4.270   0.457  0.6671  1.1713  0.2480
11038TIP3   OH233056   7.293   3.854   4.607 -0.5048 -0.2475  0.0501
11038TIP3    H133057   7.333   3.932   4.569  0.9097 -0.7502  0.4331
11038TIP3    H233058   7.199   3.873   4.609 -0.6029 -0.0057 -3.1343
11039TIP3   OH233059   6.396   1.559   5.900  0.1272 -0.4477 -0.4397
11039TIP3    H133060   6.382   1.644   5.857 -0.7884 -0.5656 -0.3720
11039TIP3    H233061   6.471   1.521   5.853 -0.5198 -0.3433 -1.5826
11040TIP3   OH233062   7.040   2.421   4.471 -0.1645  0.0636 -0.3600
11040TIP3    H133063   7.059   2.339   4.516 -0.9724 -0.6590 -1.2908
11040TIP3    H233064   7.100   2.422   4.397 -0.5808  0.0126 -0.6974
11041TIP3   OH233065   5.090   0.543   1.187 -0.2618 -0.3208  0.0356
11041TIP3    H133066   5.047   0.629   1.186 -0.5816 -0.4679  0.8294
11041TIP3    H233067   5.036   0.489   1.128 -0.0170  0.0307 -0.5230
11042TIP3   OH233068   1.433   4.091   3.103 -0.1323 -0.2569 -0.9670
11042TIP3    H133069   1.432   4.153   3.176 -1.5375  0.3391 -1.4526
11042TIP3    H233070   1.502   4.124   3.045  0.3883 -0.2270 -0.3458
11043TIP3   OH233071   0.756   5.101   3.064  0.1998  0.3920 -0.2234
11043TIP3    H133072   0.783   5.011   3.044  0.1064  0.1863  0.5674
11043TIP3    H233073   0.661   5.101   3.048  0.3148  0.5626 -0.9653
11044TIP3   OH233074   7.888   1.019   1.847 -0.6487 -0.0585  0.1297
11044TIP3    H133075   7.846   1.104   1.859  0.4075  0.7877 -1.6238
11044TIP3    H233076   7.950   1.013   1.920 -0.8838  0.5845  0.3924
11045TIP3   OH233077   2.665   6.997   0.557 -0.0131 -0.3236 -0.0243
11045TIP3    H133078   2.633   6.929   0.616 -0.6136 -0.6214 -0.6743
11045TIP3    H233079   2.708   7.060   0.614 -1.8457  0.1429  0.9063
11046TIP3   OH233080   2.773   7.247   5.113 -0.0324  0.3957 -0.3645
11046TIP3    H133081   2.852   7.261   5.061 -0.1061  0.0867 -0.5611
11046TIP3    H233082   2.707   7.220   5.049  0.2979 -1.5635  0.0852
11047TIP3   OH233083   2.490   3.305   0.751  0.1775  0.0946  0.0323
11047TIP3    H133084   2.472   3.284   0.660  0.5077  0.1752 -0.0542
11047TIP3    H233085   2.416   3.359   0.779  0.6579  1.0831 -0.5490
11048TIP3   OH233086   8.170   4.162   2.808 -0.1720  0.0821 -0.4031
11048TIP3    H133087   8.140   4.229   2.747  0.4970  1.1250  0.3648
11048TIP3    H233088   8.169   4.206   2.893  2.3044 -0.1660 -0.1616
11049TIP3   OH233089   3.659   3.296   3.589  0.6013  0.0065  0.5085
11049TIP3    H133090   3.649   3.244   3.509 -3.5219 -0.1372  0.9216
11049TIP3    H233091   3.746   3.336   3.581  0.8333 -0.8976 -3.4714
11050TIP3   OH233092   1.587   2.032   4.965 -0.3112 -0.1307  0.1703
11050TIP3    H133093   1.493   2.033   4.984 -0.1064 -1.5496  1.4965
11050TIP3    H233094   1.621   2.109   5.012 -0.7999  0.3901 -0.3149
11051TIP3   OH233095   1.584   7.634   2.845 -0.2064 -0.7383 -0.4471
11051TIP3    H133096   1.546   7.667   2.763 -2.0648 -1.1361  0.2084
11051TIP3    H233097   1.631   7.709   2.882 -1.2391  0.0965 -0.7894
11052TIP3   OH233098   4.687   6.071   2.756  0.1541 -0.8059  0.1163
11052TIP3    H133099   4.623   6.001   2.738 -0.6729 -0.4357  1.4898
11052TIP3    H233100   4.690   6.122   2.675 -0.0918 -1.7567 -0.5127
11053TIP3   OH233101   4.920   4.883   2.494 -0.2698 -0.1068 -0.1202
11053TIP3    H133102   4.895   4.963   2.447 -0.6156  0.1784  0.5219
11053TIP3    H233103   5.009   4.864   2.465 -0.7091 -0.3051 -1.3624
11054TIP3   OH233104   5.957   0.035   1.967 -0.6240  0.0034  0.3070
11054TIP3    H133105   5.977   0.086   2.045 -0.2404  0.9691 -0.4028
11054TIP3    H233106   5.968   0.096   1.894 -3.4850 -0.1232 -0.3473
11055TIP3   OH233107   0.064   6.131   4.127 -0.2998 -0.3623  0.0495
11055TIP3    H133108   0.009   6.181   4.067 -0.4424 -0.1629  0.3444
11055TIP3    H233109   0.151   6.135   4.088 -0.6597 -1.5169 -0.9555
11056TIP3   OH233110   3.317   7.347   2.223  0.0280  0.1922  0.4298
11056TIP3    H133111   3.305   7.413   2.155 -0.7454 -1.0503 -0.6814
11056TIP3    H233112   3.236   7.347   2.273  0.0498  0.1071  0.4659
11057TIP3   OH233113   3.908   0.426   2.068  0.0823 -0.1070 -0.5914
11057TIP3    H133114   3.951   0.346   2.099 -0.0394  0.3792  0.8732
11057TIP3    H233115   3.853   0.454   2.141  0.7280  1.7599 -0.7675
11058TIP3   OH233116   1.957   3.998   1.307  0.8702 -0.6656  0.0223
11058TIP3    H133117   2.049   3.994   1.281  1.0826 -1.5524  0.8373
11058TIP3    H233118   1.939   4.091   1.320  2.5580 -0.6250  2.8822
11059TIP3   OH233119   1.236   5.413   3.879 -0.0712  0.0381  0.5830
11059TIP3    H133120   1.223   5.351   3.951 -1.6712  0.5169  0.7375
11059TIP3    H233121   1.199   5.495   3.911  2.4449  1.2714  0.5671
11060TIP3   OH233122   3.662   4.900   0.162  0.3183  0.1324 -0.6204
11060TIP3    H133123   3.602   4.961   0.205 -1.1185  0.0627 -2.3923
11060TIP3    H233124   3.617   4.815   0.165  0.0119  0.1878 -2.4486
11061TIP3   OH233125   6.216   3.446   6.137 -0.1370 -0.1011 -0.3753
11061TIP3    H133126   6.195   3.539   6.129 -0.8190 -0.0792  1.1618
11061TIP3    H233127   6.310   3.443   6.149 -0.1121  0.3976 -0.4225
11062TIP3   OH233128   0.058   6.686   4.581  0.1345  0.5088 -0.2155
11062TIP3    H133129   0.114   6.701   4.504  0.1502  2.0896  0.0570
11062TIP3    H233130  -0.016   6.746   4.568 -0.1261  0.4065  0.7348
11063TIP3   OH233131   0.233   6.431   2.676 -0.1602 -0.2053 -0.2128
11063TIP3    H133132   0.190   6.359   2.722  0.3638 -0.7418 -0.5540
11063TIP3    H233133   0.225   6.409   2.583  0.2083  0.0634 -0.3096
11064TIP3   OH233134   6.661   4.912   0.355  0.1115  0.6651 -0.2709
11064TIP3    H133135   6.591   4.855   0.321 -1.1095  1.1497  1.2913
11064TIP3    H233136   6.736   4.854   0.366 -1.2956 -0.9115  1.9442
11065TIP3   OH233137   7.215   3.956   2.202 -0.0908 -0.0849  0.2758
11065TIP3    H133138   7.221   4.049   2.224  1.1823 -0.3936  1.3888
11065TIP3    H233139   7.158   3.953   2.125  0.7429  1.7154 -0.4788
11066TIP3   OH233140   1.051   1.466   2.894 -0.3539 -0.3236  0.1902
11066TIP3    H133141   1.077   1.503   2.978 -0.6008  0.8456 -0.2236
11066TIP3    H233142   1.083   1.376   2.896 -1.0101 -0.5413  1.8174
11067TIP3   OH233143   1.478   1.825   3.043 -0.2725  0.6668  0.3863
11067TIP3    H133144   1.457   1.828   3.137 -0.2300 -1.1927  0.4995
11067TIP3    H233145   1.397   1.852   3.000 -0.3191  1.4557  0.9482
11068TIP3   OH233146   5.301   0.838   5.189 -0.2172 -1.1984  0.1957
11068TIP3    H133147   5.235   0.884   5.138  0.0784 -0.1304  0.7373
11068TIP3    H233148   5.285   0.745   5.172 -0.9678 -0.9072 -0.7599
11069TIP3   OH233149   8.021   0.579   0.027  0.8414  0.1348  0.0585
11069TIP3    H133150   7.965   0.636   0.079  0.0249 -0.4150 -0.1932
11069TIP3    H233151   8.081   0.539   0.090  1.0136  0.7878  0.3173
11070TIP3   OH233152   0.014   5.182   5.926 -0.1425  0.1378  0.4437
11070TIP3    H133153  -0.036   5.106   5.895 -1.0139  0.2501  1.5018
11070TIP3    H233154   0.101   5.171   5.887 -0.2244 -1.4494  0.6331
11071TIP3   OH233155   6.962   2.854   3.388  0.3776  0.2182 -0.4475
11071TIP3    H133156   6.955   2.847   3.293 -1.4818  0.0417 -0.3370
11071TIP3    H233157   7.014   2.778   3.414  1.2095  0.4617 -1.3329
11072TIP3   OH233158   3.575   3.115   6.721  0.3530 -0.2335 -0.2116
11072TIP3    H133159   3.580   3.149   6.632 -0.7021  0.2500 -0.1113
11072TIP3    H233160   3.666   3.108   6.750  0.6834  0.1657 -1.1123
11073TIP3   OH233161   5.458   0.673   3.120 -0.6520 -0.4558 -0.2172
11073TIP3    H133162   5.451   0.762   3.085 -1.2065 -1.0423 -1.6324
11073TIP3    H233163   5.390   0.669   3.187 -0.4364  0.2681  0.0560
11074TIP3   OH233164   4.174   2.798   1.833  0.3445 -0.5612 -0.2011
11074TIP3    H133165   4.113   2.816   1.904  0.1883  1.6997 -0.8421
11074TIP3    H233166   4.198   2.706   1.845  0.2750 -0.2871  2.7051
11075TIP3   OH233167   3.287   0.626   2.641 -0.2068  0.4307 -0.4864
11075TIP3    H133168   3.204   0.617   2.594  0.1839  0.1006 -1.1301
11075TIP3    H233169   3.339   0.551   2.612  0.8341  1.3814 -1.1793
11076TIP3   OH233170   5.240   0.606   3.311  0.0801 -0.1172 -0.0692
11076TIP3    H133171   5.172   0.670   3.289  0.1640  0.1425  0.4152
11076TIP3    H233172   5.205   0.522   3.281 -0.9971 -0.1771  1.2496
11077TIP3   OH233173   4.662   6.226   6.134 -0.0994  0.3974  0.2394
11077TIP3    H133174   4.701   6.139   6.142  0.0176  0.5246  1.3234
11077TIP3    H233175   4.722   6.283   6.183 -0.6011  0.9408  0.2322
11078TIP3   OH233176   6.811   3.022   4.488  0.1477 -0.1166 -0.2021
11078TIP3    H133177   6.794   2.932   4.459 -1.3628 -0.2131  0.9060
11078TIP3    H233178   6.872   3.056   4.422 -1.4535 -1.0237 -2.2675
11079TIP3   OH233179   1.760   1.508   4.411  0.0148 -0.2639 -0.1552
11079TIP3    H133180   1.815   1.553   4.475 -1.1648 -0.0762  0.7368
11079TIP3    H233181   1.671   1.517   4.443 -0.9019  1.6652 -2.8663
11080TIP3   OH233182   5.864   4.294   1.677 -0.5989 -0.0443 -0.9219
11080TIP3    H133183   5.867   4.199   1.691  1.4278  0.0669 -0.3449
11080TIP3    H233184   5.872   4.305   1.583  0.2713 -0.4240 -0.8937
11081TIP3   OH233185   1.860   0.337   2.063 -0.4029 -0.2768 -0.1538
11081TIP3    H133186   1.811   0.316   2.143 -0.2385  0.2077  0.0780
11081TIP3    H233187   1.794   0.365   2.000 -0.4870 -0.2021 -0.0328
11082TIP3   OH233188   5.424   7.559   0.969 -0.8171  0.0153  0.8179
11082TIP3    H133189   5.427   7.475   1.015  1.6373  0.3185  1.3115
11082TIP3    H233190   5.480   7.617   1.020 -2.1488  1.8843  0.2576
11083TIP3   OH233191   1.036   6.094   3.950 -0.0661 -0.1711  0.3175
11083TIP3    H133192   1.083   6.177   3.959 -1.1888  0.6295 -0.8386
11083TIP3    H233193   0.980   6.090   4.028 -2.3689  1.7922 -1.0986
11084TIP3   OH233194   1.318   0.496   3.326  0.6251 -0.1134  0.3690
11084TIP3    H133195   1.268   0.548   3.263  1.5862 -1.6470 -1.7999
11084TIP3    H233196   1.360   0.428   3.272  1.2421 -1.7191  2.7338
11085TIP3   OH233197   2.338   2.238   6.045 -0.3677  0.1400 -0.1550
11085TIP3    H133198   2.376   2.181   6.112 -0.9203 -0.6792 -0.5237
11085TIP3    H233199   2.346   2.188   5.964 -0.1729  0.9099 -0.6226
11086TIP3   OH233200   6.914   4.328   0.166  0.1639 -0.1216 -0.6439
11086TIP3    H133201   6.998   4.288   0.145 -0.7819 -1.9262 -1.2123
11086TIP3    H233202   6.891   4.292   0.252 -0.2593 -0.0690 -0.7313
11087TIP3   OH233203   5.243   1.247   0.172  0.4635  0.2500  0.3515
11087TIP3    H133204   5.318   1.236   0.114 -0.0417  0.0195 -0.2762
11087TIP3    H233205   5.273   1.217   0.257  1.4699  1.3456  0.4011
11088TIP3   OH233206   1.899   2.753   5.462 -0.2819 -0.2217 -0.5291
11088TIP3    H133207   1.950   2.678   5.432 -0.1513 -0.1262 -0.5470
11088TIP3    H233208   1.814   2.717   5.484  0.0098 -0.5040  0.1695
11089TIP3   OH233209   5.080   1.894   0.065 -0.1842 -0.5095 -0.3412
11089TIP3    H133210   5.034   1.978   0.063  0.4854 -0.1433 -0.7869
11089TIP3    H233211   5.063   1.859   0.152 -1.8913 -0.7191 -0.7221
11090TIP3   OH233212   3.811   7.704   3.272  0.5291  0.2669 -0.0438
11090TIP3    H133213   3.792   7.715   3.366  0.2616  0.8843 -0.1661
11090TIP3    H233214   3.869   7.777   3.251  2.3433 -1.0621  0.1093
11091TIP3   OH233215   5.409   6.852   3.315 -0.0117  0.2355  0.3040
11091TIP3    H133216   5.444   6.786   3.255  0.2093 -0.3343  1.0372
11091TIP3    H233217   5.487   6.893   3.353 -0.1322  1.5318 -0.7651
11092TIP3   OH233218   7.478   6.033   0.287 -0.0510 -0.4954  0.5014
11092TIP3    H133219   7.402   6.039   0.344  1.4416 -0.6446  2.6449
11092TIP3    H233220   7.498   5.939   0.284  0.1498 -0.4438  0.0597
11093TIP3   OH233221   2.692   0.252   6.057  0.4521  0.3268  0.3016
11093TIP3    H133222   2.746   0.260   6.135  0.2017 -0.4869  0.5648
11093TIP3    H233223   2.655   0.164   6.062 -1.3420  1.0487  0.4096
11094TIP3   OH233224   0.896   4.940   0.019 -0.1182  0.1308  0.0755
11094TIP3    H133225   0.899   5.032  -0.008  0.4890 -0.0047 -0.3362
11094TIP3    H233226   0.907   4.943   0.114  0.5302  0.4551  0.0006
11095TIP3   OH233227   5.627   7.797   4.146 -0.3381 -0.5760 -0.3603
11095TIP3    H133228   5.660   7.859   4.081  0.7395 -1.5081 -0.7324
11095TIP3    H233229   5.705   7.754   4.180 -1.0449 -1.5660  0.0620
11096TIP3   OH233230   4.815   5.606   5.555 -0.4520 -0.3087 -0.7487
11096TIP3    H133231   4.863   5.651   5.485  0.3881  0.3829  0.2457
11096TIP3    H233232   4.877   5.600   5.627 -1.7714  0.4384  0.5123
11097TIP3   OH233233   3.946   6.370   3.837  0.3640  0.3168 -0.0918
11097TIP3    H133234   3.927   6.430   3.908  1.5008 -0.0709  0.5733
11097TIP3    H233235   3.909   6.286   3.865 -1.2853  0.6887 -1.0500
11098TIP3   OH233236   0.801   0.347   3.527  0.0616 -0.5591  0.2306
11098TIP3    H133237   0.819   0.287   3.599  0.6830  0.2994  0.8011
11098TIP3    H233238   0.749   0.417   3.565 -0.1212 -0.4027 -0.2896
11099TIP3   OH233239   1.540   5.526   5.037  0.0973  0.3157  0.7138
11099TIP3    H133240   1.563   5.458   4.974 -0.9892 -0.4865  1.1594
11099TIP3    H233241   1.573   5.493   5.121  1.3379  1.2752  0.6262
11100TIP3   OH233242   2.879   7.310   4.841  0.0450 -0.5459 -0.5445
11100TIP3    H133243   2.784   7.304   4.831 -0.1422  0.0389  0.7066
11100TIP3    H233244   2.912   7.226   4.808 -1.1922 -2.2518  2.2312
11101TIP3   OH233245   4.305   0.793   0.695  0.3531 -0.2564  0.5947
11101TIP3    H133246   4.321   0.886   0.684  0.4174 -0.2919  0.3842
11101TIP3    H233247   4.256   0.786   0.778  2.7673 -0.2795  2.1244
11102TIP3   OH233248   4.985   5.544   6.394 -0.3509  0.2982 -0.1320
11102TIP3    H133249   4.899   5.508   6.416 -0.6968  0.1726 -1.5711
11102TIP3    H233250   4.977   5.568   6.301  0.8013  1.3567  0.0193
11103TIP3   OH233251   3.364   3.487   3.570  0.4580  0.0526  0.3161
11103TIP3    H133252   3.431   3.467   3.504  0.5593  1.7824 -0.1529
11103TIP3    H233253   3.414   3.514   3.647  0.3085  0.0589  0.4115
11104TIP3   OH233254   6.693   2.620   0.693 -0.3942 -0.4067  0.1477
11104TIP3    H133255   6.677   2.714   0.691 -0.2763 -0.3640  0.9016
11104TIP3    H233256   6.752   2.604   0.618  0.9357  0.3880  0.9803
11105TIP3   OH233257   6.910   7.081   1.247  0.4848  0.3171 -0.1241
11105TIP3    H133258   6.928   6.998   1.292 -0.4334 -0.3874 -1.0031
11105TIP3    H233259   6.878   7.054   1.160 -0.4449  1.5725 -0.1921
11106TIP3   OH233260   0.241   2.962   0.691  0.7112 -0.7572  0.0552
11106TIP3    H133261   0.236   2.990   0.599  1.3188 -1.8662 -0.3350
11106TIP3    H233262   0.316   3.010   0.726  0.7709 -0.6820 -0.1706
11107TIP3   OH233263   2.418   7.270   3.882 -0.3764 -0.2217 -0.0341
11107TIP3    H133264   2.480   7.265   3.810 -1.2671 -0.1342 -0.8376
11107TIP3    H233265   2.363   7.192   3.872 -0.2900 -0.3930  0.7683
11108TIP3   OH233266   6.510   2.835   0.464 -0.2070  0.1660 -0.6758
11108TIP3    H133267   6.489   2.915   0.416  0.1235 -0.3472 -1.7108
11108TIP3    H233268   6.532   2.865   0.552 -1.6578  1.0494 -0.5832
11109TIP3   OH233269   7.093   4.989   1.318  0.1914 -0.2208 -0.6622
11109TIP3    H133270   7.154   4.998   1.391  1.1994 -1.0717 -1.3697
11109TIP3    H233271   7.017   4.944   1.356  1.1427 -1.6110 -0.3334
11110TIP3   OH233272   5.426   2.596   5.701  0.7972  0.1446 -0.2115
11110TIP3    H133273   5.498   2.630   5.754 -0.5389  0.3354  1.5916
11110TIP3    H233274   5.388   2.673   5.659  0.6090  0.2707  0.1870
11111TIP3   OH233275   2.483   3.203   5.974  0.1141 -0.1308 -0.2833
11111TIP3    H133276   2.525   3.282   5.938 -0.9515  0.3180 -0.5705
11111TIP3    H233277   2.406   3.190   5.920  0.4283 -1.5593 -0.4155
11112TIP3   OH233278   6.971   1.613   0.782 -0.3771  0.4217  0.3909
11112TIP3    H133279   6.941   1.581   0.698  0.1329 -2.2436  1.1236
11112TIP3    H233280   7.053   1.660   0.763  0.2680 -1.0218 -0.5259
11113TIP3   OH233281   6.091   6.162   5.640 -0.1293  0.0145  0.4199
11113TIP3    H133282   6.022   6.157   5.574 -1.3854 -1.6565  1.7690
11113TIP3    H233283   6.164   6.112   5.603 -1.2679 -1.9876  0.7191
11114TIP3   OH233284   6.606   7.611   2.217 -0.1148  0.3153 -0.1080
11114TIP3    H133285   6.638   7.630   2.305  0.0096  1.3005 -0.3499
11114TIP3    H233286   6.558   7.529   2.226  0.6274 -0.0507  0.7027
11115TIP3   OH233287   2.909   0.805   0.110 -0.0236  0.1512  0.3251
11115TIP3    H133288   2.990   0.852   0.126 -0.6751  1.0452  1.1821
11115TIP3    H233289   2.846   0.873   0.086 -0.3935 -0.5866 -0.8454
11116TIP3   OH233290   1.103   1.188   3.446 -0.0521  0.0376  0.0858
11116TIP3    H133291   1.037   1.223   3.386 -0.1296 -0.3565 -0.0582
11116TIP3    H233292   1.066   1.106   3.478  0.2764 -0.0794  0.1672
11117TIP3   OH233293   0.445   6.665   1.939  0.4750 -0.2236 -0.1288
11117TIP3    H133294   0.367   6.708   1.975  0.9184  0.6623 -0.2210
11117TIP3    H233295   0.471   6.603   2.008 -0.1928 -0.3904 -0.0178
11118TIP3   OH233296   8.250   6.174   3.266  0.1860  0.8086 -0.6693
11118TIP3    H133297   8.246   6.122   3.185 -1.9434 -0.6091  0.2605
11118TIP3    H233298   8.335   6.152   3.303 -0.3009 -1.4580 -0.7402
11119TIP3   OH233299   4.387   2.204   5.417 -0.3783 -0.1079 -0.1502
11119TIP3    H133300   4.359   2.294   5.432 -2.3095 -0.6562 -0.2063
11119TIP3    H233301   4.404   2.199   5.323 -0.9295  0.0347 -0.2605
11120TIP3   OH233302   2.970   7.695   1.945  0.1703  0.1347  0.0010
11120TIP3    H133303   3.050   7.747   1.953 -0.4891  1.5510 -1.6933
11120TIP3    H233304   2.996   7.618   1.895  0.7354 -0.0802  0.6207
11121TIP3   OH233305   1.215   6.069   4.759 -0.0066 -0.2526  0.1261
11121TIP3    H133306   1.165   6.007   4.813  1.8332 -1.9624 -0.0216
11121TIP3    H233307   1.280   6.105   4.819 -0.2992  0.6661 -0.0932
11122TIP3   OH233308   3.985   0.105   4.766 -0.4867 -0.0006 -0.3041
11122TIP3    H133309   3.941   0.171   4.712  0.2074  0.5468 -0.2156
11122TIP3    H233310   3.947   0.022   4.738 -0.1367  0.2639 -1.6665
11123TIP3   OH233311   5.391   0.657   6.406 -0.4251  0.0385 -0.0187
11123TIP3    H133312   5.380   0.664   6.311 -0.4648  0.2969  0.0067
11123TIP3    H233313   5.485   0.669   6.420 -0.0387 -2.2084 -0.2395
11124TIP3   OH233314   3.472   0.137   3.065 -0.6580 -0.1438  0.4454
11124TIP3    H133315   3.420   0.070   3.109 -1.4605  0.9838  1.2639
11124TIP3    H233316   3.499   0.197   3.135 -0.3992  0.6740 -0.3331
11125TIP3   OH233317   6.865   0.939   6.739 -0.2833 -0.2194 -0.3835
11125TIP3    H133318   6.928   1.000   6.699 -0.8799  0.1485 -0.7803
11125TIP3    H233319   6.913   0.899   6.811  0.5055 -0.1706 -0.8722
11126TIP3   OH233320   2.927   5.913   0.687  0.2847  0.1786 -0.0717
11126TIP3    H133321   3.001   5.870   0.646 -0.7332  0.6999 -2.6329
11126TIP3    H233322   2.909   5.989   0.633 -3.2568 -0.9381 -0.7808
11127TIP3   OH233323   5.786   1.706   5.747 -0.1800 -0.1568  0.2440
11127TIP3    H133324   5.807   1.629   5.694 -1.8671  0.0025 -0.7224
11127TIP3    H233325   5.695   1.727   5.725  0.0581  1.7955  0.8860
11128TIP3   OH233326   4.188   7.473   5.083  0.0037  0.4929 -0.1900
11128TIP3    H133327   4.158   7.553   5.039 -0.2419  0.8691  0.6489
11128TIP3    H233328   4.283   7.482   5.088 -0.1170  1.2399  0.8682
11129TIP3   OH233329   1.611   1.481   2.216 -0.6805 -0.3584 -0.2178
11129TIP3    H133330   1.564   1.549   2.167  1.1014  0.8511 -0.3187
11129TIP3    H233331   1.662   1.435   2.150  0.4913  0.2346  0.2611
11130TIP3   OH233332   3.422   1.936   3.928  0.0690 -0.2509 -0.2992
11130TIP3    H133333   3.352   1.914   3.867  0.0202 -0.0961 -0.2973
11130TIP3    H233334   3.479   1.996   3.879  0.2320 -0.4210 -0.3219
11131TIP3   OH233335   1.132   6.094   5.955 -0.1667  0.3139  0.8821
11131TIP3    H133336   1.153   6.099   6.048 -1.9549  1.2535  1.2742
11131TIP3    H233337   1.213   6.119   5.910  0.2813  1.3515  2.2223
11132TIP3   OH233338   7.318   6.533   5.893 -0.2489 -0.1100  0.1206
11132TIP3    H133339   7.295   6.601   5.828  0.3663 -0.2545 -0.2530
11132TIP3    H233340   7.349   6.460   5.840  0.6250 -0.0933  0.5905
11133TIP3   OH233341   2.181   5.719   4.642  0.0686  0.1308 -0.6214
11133TIP3    H133342   2.086   5.718   4.656 -0.2499 -0.2446 -2.4295
11133TIP3    H233343   2.190   5.708   4.547  1.9393 -0.2706 -0.4245
11134TIP3   OH233344   0.712   3.072   6.548  0.4918  0.1357  0.3100
11134TIP3    H133345   0.670   3.158   6.546  1.1643  0.4548 -2.0400
11134TIP3    H233346   0.654   3.016   6.498  1.2847 -0.1832 -0.2615
11135TIP3   OH233347   6.106   3.814   5.004  0.0343 -0.1308 -0.4780
11135TIP3    H133348   6.185   3.794   4.953 -0.0372 -0.4762 -0.4522
11135TIP3    H233349   6.049   3.738   4.992 -0.1032 -0.0870 -0.1180
11136TIP3   OH233350   6.199   2.570   0.946  0.3854 -0.2996 -0.1657
11136TIP3    H133351   6.248   2.493   0.917 -0.7377 -0.5579 -1.4797
11136TIP3    H233352   6.161   2.544   1.030  2.7279  0.0475  1.0956
11137TIP3   OH233353   1.342   4.918   2.656  0.4216  0.4029  0.2609
11137TIP3    H133354   1.373   4.985   2.717 -1.0854  0.3101  1.1874
11137TIP3    H233355   1.404   4.921   2.583  2.7338  0.0187  2.0903
11138TIP3   OH233356   1.236   6.852   3.375 -0.8581 -0.0078  0.5076
11138TIP3    H133357   1.188   6.770   3.362  0.2453 -0.9528  2.0220
11138TIP3    H233358   1.231   6.869   3.469 -0.1158  1.0629  0.3768
11139TIP3   OH233359   3.302   7.360   3.230 -0.1556  0.2427 -0.1479
11139TIP3    H133360   3.269   7.272   3.212 -1.9959  0.4792  1.5704
11139TIP3    H233361   3.386   7.365   3.185 -0.0006 -2.3838 -0.2920
11140TIP3   OH233362   5.814   3.298   4.893  0.0613  0.2713 -0.3650
11140TIP3    H133363   5.881   3.253   4.841  0.8928  0.9335  0.0952
11140TIP3    H233364   5.757   3.228   4.924  0.7031 -0.3495 -0.5448
11141TIP3   OH233365   4.622   4.110   0.052 -0.2701 -0.5428  0.0913
11141TIP3    H133366   4.653   4.156   0.130 -1.3419  0.2708  0.0705
11141TIP3    H233367   4.544   4.062   0.083 -1.0455  0.2497 -0.5825
11142TIP3   OH233368   1.589   1.713   5.300  0.2219 -0.6880 -0.5098
11142TIP3    H133369   1.571   1.704   5.394  0.7442 -0.3932 -0.3774
11142TIP3    H233370   1.665   1.658   5.284 -0.5184 -1.5919 -0.9809
11143TIP3   OH233371   2.622   5.249   0.103 -0.4121  0.3573 -0.1999
11143TIP3    H133372   2.660   5.164   0.125 -1.0338 -0.2957 -1.5765
11143TIP3    H233373   2.682   5.313   0.143  1.7336 -0.6333 -1.6515
11144TIP3   OH233374   5.715   2.544   2.719 -0.1776 -0.6532  0.0929
11144TIP3    H133375   5.704   2.529   2.813 -0.5406 -1.9618 -0.1354
11144TIP3    H233376   5.729   2.457   2.682 -0.9330 -0.2730 -1.1716
11145TIP3   OH233377   6.773   6.241   1.038  0.0692 -0.1232  0.3686
11145TIP3    H133378   6.728   6.159   1.018  1.4858 -0.9237  0.3505
11145TIP3    H233379   6.735   6.270   1.121  1.0082 -1.9220  1.4902
11146TIP3   OH233380   3.502   7.592   2.572 -0.2932  0.3109  0.1147
11146TIP3    H133381   3.463   7.522   2.624 -0.1374 -0.3044 -0.5609
11146TIP3    H233382   3.497   7.670   2.627 -0.1353 -0.3160  1.0325
11147TIP3   OH233383   1.498   1.755   3.298 -0.1108  0.4859  1.4182
11147TIP3    H133384   1.569   1.738   3.359 -0.1547  0.5656  1.4910
11147TIP3    H233385   1.505   1.684   3.233  0.5295  0.9527  0.9688
11148TIP3   OH233386   4.155   7.708   3.813  0.2771 -0.6063 -0.2788
11148TIP3    H133387   4.205   7.626   3.813  1.6704  0.1949  0.9546
11148TIP3    H233388   4.111   7.710   3.897  0.0773 -0.1828 -0.3898
11149TIP3   OH233389   5.230   3.342   6.575 -0.0266 -0.0402 -0.1095
11149TIP3    H133390   5.169   3.347   6.648  0.3712 -0.7416  0.2829
11149TIP3    H233391   5.201   3.266   6.524  0.7413 -0.6228  0.2992
11150TIP3   OH233392   2.461   3.328   5.580 -0.3352 -0.3925  0.4969
11150TIP3    H133393   2.459   3.353   5.487  0.6710 -0.8639  0.3359
11150TIP3    H233394   2.442   3.234   5.579  0.3949 -0.5433  0.7064
11151TIP3   OH233395   1.941   5.484   5.714  0.5162  0.1003 -0.7046
11151TIP3    H133396   1.881   5.499   5.788  1.0146 -2.7310  0.3841
11151TIP3    H233397   1.983   5.569   5.700 -0.1484  0.9250  1.7967
11152TIP3   OH233398   7.654   5.207   6.611 -0.0830  0.6569 -0.0766
11152TIP3    H133399   7.678   5.194   6.519 -1.2735 -1.2407 -0.1622
11152TIP3    H233400   7.707   5.143   6.659 -3.2474 -2.1618 -0.0596
11153TIP3   OH233401   5.941   0.151   2.589  0.2697  0.1645 -0.8199
11153TIP3    H133402   5.892   0.169   2.669 -0.5900  1.6419 -1.6515
11153TIP3    H233403   5.990   0.231   2.572  1.1080 -0.4399 -1.3281
11154TIP3   OH233404   1.992   5.690   6.576  0.0180  0.2996 -0.1047
11154TIP3    H133405   2.031   5.723   6.657 -1.3942 -0.7330  1.0569
11154TIP3    H233406   1.975   5.768   6.524  2.0350  0.8882  0.0562
11155TIP3   OH233407   5.438   3.778   1.079  0.1201  0.0717 -0.1021
11155TIP3    H133408   5.371   3.713   1.097  1.5284 -1.1645  0.9078
11155TIP3    H233409   5.517   3.727   1.064  0.8108  1.4778 -1.4861
11156TIP3   OH233410   0.319   7.681   2.138 -0.2044 -0.1668 -0.2818
11156TIP3    H133411   0.308   7.614   2.204  0.6188 -0.7770 -0.7414
11156TIP3    H233412   0.411   7.709   2.147 -0.0611 -0.3102 -1.1972
11157TIP3   OH233413   6.212   3.704   1.210  0.2443 -1.2755 -0.0409
11157TIP3    H133414   6.164   3.667   1.136 -0.5469 -1.7599  0.6983
11157TIP3    H233415   6.258   3.629   1.248  2.5608 -0.6441 -1.4087
11158TIP3   OH233416   7.753   6.059   1.550  0.2578 -0.2643 -0.1829
11158TIP3    H133417   7.690   6.104   1.494 -0.3981 -0.5222  0.3332
11158TIP3    H233418   7.766   5.974   1.508  0.3751 -0.1527 -0.3717
11159TIP3   OH233419   3.284   0.059   4.932  0.3730 -0.0754 -0.8114
11159TIP3    H133420   3.310   0.021   5.016 -0.0239  1.1276 -0.1195
11159TIP3    H233421   3.292   0.153   4.945  2.1744  0.1062 -2.7626
11160TIP3   OH233422   4.370   2.864   5.800 -0.0556 -0.0275  0.0579
11160TIP3    H133423   4.338   2.788   5.849 -1.2596  0.2111 -0.3461
11160TIP3    H233424   4.298   2.888   5.742  1.5658 -0.7658 -2.4457
11161TIP3   OH233425   5.588   4.750   6.091 -0.3461 -0.3237  0.2781
11161TIP3    H133426   5.549   4.837   6.083 -0.7889 -0.5415  0.0375
11161TIP3    H233427   5.670   4.765   6.137 -0.7606  0.1297  0.8881
11162TIP3   OH233428   4.823   5.832   6.069 -0.3650 -0.1116 -0.5192
11162TIP3    H133429   4.836   5.914   6.118  2.1166  0.4538 -1.9406
11162TIP3    H233430   4.733   5.838   6.036 -0.2904  2.0064 -0.5090
11163TIP3   OH233431   3.970   1.937   4.167  0.5542 -0.2444  0.0220
11163TIP3    H133432   3.880   1.906   4.180  1.0049 -1.7545 -0.1853
11163TIP3    H233433   3.971   1.973   4.079  0.1194 -0.0900  0.0787
11164TIP3   OH233434   3.838   0.350   6.609 -0.6712 -0.1505 -0.5209
11164TIP3    H133435   3.810   0.270   6.565  0.5817 -1.1272  0.3651
11164TIP3    H233436   3.849   0.324   6.701 -0.2764  1.0448 -0.2058
11165TIP3   OH233437   1.119   5.601   0.428 -0.5011  0.5580 -0.2640
11165TIP3    H133438   1.122   5.695   0.445 -0.7252  0.1114  2.9559
11165TIP3    H233439   1.044   5.570   0.480  0.9980 -1.6896  0.7179
11166TIP3   OH233440   4.066   5.662   3.644 -0.1806 -0.0416 -0.0689
11166TIP3    H133441   4.006   5.649   3.571 -1.7498  0.0307  1.1367
11166TIP3    H233442   4.032   5.604   3.713  1.7265 -0.7221  0.3469
11167TIP3   OH233443   5.901   5.131   1.690 -0.2924 -1.0703  0.1221
11167TIP3    H133444   5.835   5.086   1.742 -0.5684 -0.4981  0.2699
11167TIP3    H233445   5.924   5.068   1.621 -1.1955 -1.1710 -0.0971
11168TIP3   OH233446   0.416   1.657   5.673  0.1590  0.4615 -0.5046
11168TIP3    H133447   0.467   1.700   5.741  1.3755  0.4396 -1.3605
11168TIP3    H233448   0.325   1.679   5.692  0.6189  1.9549  0.0678
11169TIP3   OH233449   0.014   4.778   1.865 -0.2736 -0.0199  0.0084
11169TIP3    H133450   0.009   4.779   1.770  1.1462  0.2089 -0.0938
11169TIP3    H233451   0.108   4.768   1.884 -0.6575 -1.3772  1.3796
11170TIP3   OH233452   5.736   3.192   5.718  0.4168  0.1039 -0.7928
11170TIP3    H133453   5.795   3.162   5.786  0.2136  0.4856 -0.4388
11170TIP3    H233454   5.730   3.287   5.731 -0.4879  0.0392 -0.6407
11171TIP3   OH233455   2.628   1.557   1.328  0.5228 -0.0171  0.0291
11171TIP3    H133456   2.607   1.650   1.330  0.7967  0.0283  1.5505
11171TIP3    H233457   2.709   1.552   1.277  0.4386  0.5605 -0.1612
11172TIP3   OH233458   7.808   4.100   5.211  0.3334 -0.2135  0.4980
11172TIP3    H133459   7.778   4.162   5.277  3.0158 -0.3907  2.0276
11172TIP3    H233460   7.817   4.017   5.258  2.0713 -0.4028 -0.0742
11173TIP3   OH233461   0.329   7.302   2.020  0.2446 -0.2424  0.2119
11173TIP3    H133462   0.372   7.344   1.945  2.2258 -0.5234  1.1371
11173TIP3    H233463   0.303   7.216   1.987  1.0703 -0.3546 -0.1770
11174TIP3   OH233464   7.256   7.713   4.532 -0.4157  0.3164  0.0971
11174TIP3    H133465   7.236   7.619   4.530 -1.0173  0.4418  0.2001
11174TIP3    H233466   7.221   7.746   4.449 -0.0200  0.4153 -0.0321
11175TIP3   OH233467   6.039   5.959   1.403 -0.5284  0.2930 -0.3723
11175TIP3    H133468   5.981   6.019   1.449  0.3487  0.7395  0.1793
11175TIP3    H233469   5.999   5.947   1.317 -1.4405  0.5680  0.0053
11176TIP3   OH233470   5.934   6.400   4.428 -0.2322 -0.2151 -0.2188
11176TIP3    H133471   5.921   6.359   4.343  0.6492 -1.0697  0.0332
11176TIP3    H233472   5.872   6.356   4.486  1.4469 -2.0355  0.2903
11177TIP3   OH233473   2.411   4.106   1.223  0.1603 -0.3860 -0.5329
11177TIP3    H133474   2.500   4.069   1.221 -0.4844 -2.2043  1.1542
11177TIP3    H233475   2.422   4.192   1.263  0.9720 -1.5096  1.8936
11178TIP3   OH233476   4.725   5.865   4.876 -0.1160 -0.0545  0.0851
11178TIP3    H133477   4.706   5.773   4.894 -1.5480  0.2801  0.3558
11178TIP3    H233478   4.642   5.910   4.889  0.6514  1.3414  0.3100
11179TIP3   OH233479   6.188   7.582   4.621 -0.4445 -0.3455 -0.6578
11179TIP3    H133480   6.169   7.670   4.589 -0.2033 -0.0662 -0.0450
11179TIP3    H233481   6.133   7.572   4.699  0.6047 -0.1813  0.1192
11180TIP3   OH233482   0.912   2.005   5.753  0.0763  0.0042  0.0828
11180TIP3    H133483   0.838   1.944   5.753  0.4047 -0.4207  0.8543
11180TIP3    H233484   0.982   1.957   5.708  0.0442  0.1923 -0.1675
11181TIP3   OH233485   5.698   5.330   1.896 -0.3883  0.2770  0.4934
11181TIP3    H133486   5.755   5.278   1.952  0.9217  0.8969 -0.2257
11181TIP3    H233487   5.712   5.295   1.808  0.6757  1.9140 -0.0428
11182TIP3   OH233488   3.869   2.360   5.092 -0.5031  0.1783  0.8839
11182TIP3    H133489   3.777   2.346   5.070 -0.0279 -2.1939  0.1189
11182TIP3    H233490   3.909   2.391   5.010 -0.2721 -0.6440  0.6825
11183TIP3   OH233491   0.878   1.613   2.375 -0.1079 -0.3205 -0.3013
11183TIP3    H133492   0.812   1.565   2.324  0.3455 -0.4536 -0.7667
11183TIP3    H233493   0.831   1.689   2.409 -0.2340  0.1529 -1.5160
11184TIP3   OH233494   3.317   5.794   3.035 -0.1168  0.2452  0.1962
11184TIP3    H133495   3.401   5.789   3.081 -0.5941  0.4835  1.1067
11184TIP3    H233496   3.327   5.869   2.976 -0.0204  0.8825  1.0059
11185TIP3   OH233497   2.566   5.706   2.883  0.0077 -0.4630  0.5870
11185TIP3    H133498   2.483   5.686   2.926 -0.0221 -1.1830  0.2118
11185TIP3    H233499   2.551   5.682   2.791  0.4902 -0.1809  0.4342
11186TIP3   OH233500   2.978   2.585   3.509  0.2727  0.2101  0.1793
11186TIP3    H133501   2.918   2.575   3.583 -2.0618 -0.2926 -1.6476
11186TIP3    H233502   3.022   2.668   3.525  0.3917 -0.2238  2.4595
11187TIP3   OH233503   8.092   5.946   3.377 -0.2309  0.2382 -0.3618
11187TIP3    H133504   8.160   6.014   3.375 -0.0550  0.1967  1.5965
11187TIP3    H233505   8.106   5.901   3.460 -1.1841 -1.3481 -1.0125
11188TIP3   OH233506   1.519   3.352   5.015 -0.0209 -0.3193 -0.2984
11188TIP3    H133507   1.443   3.368   4.959 -0.0723  2.1206  0.3341
11188TIP3    H233508   1.587   3.411   4.981  0.2016  0.6342  1.6724
11189TIP3   OH233509   5.183   7.074   0.267  0.5265  0.1060 -0.1581
11189TIP3    H133510   5.207   6.990   0.307  0.9623  0.8848  1.2644
11189TIP3    H233511   5.183   7.055   0.173  2.4785 -1.0431  0.0085
11190TIP3   OH233512   0.732   1.791   1.554 -0.3973  0.1068 -0.2266
11190TIP3    H133513   0.695   1.876   1.580 -0.3225  0.8803 -2.4162
11190TIP3    H233514   0.790   1.811   1.480 -2.2111 -2.0419 -2.4355
11191TIP3   OH233515   7.601   3.194   4.513 -0.0241 -0.3229  0.3766
11191TIP3    H133516   7.547   3.134   4.462 -0.5410 -1.2617  1.9713
11191TIP3    H233517   7.541   3.233   4.577  0.8173 -0.0327  1.0221
11192TIP3   OH233518   4.596   6.316   6.672 -0.7116 -0.1962  0.4842
11192TIP3    H133519   4.557   6.293   6.588 -0.5333 -1.8373  0.8169
11192TIP3    H233520   4.535   6.281   6.737  0.7335 -1.8732  1.0090
11193TIP3   OH233521   2.750   0.039   2.347 -0.1589 -0.0994 -0.0008
11193TIP3    H133522   2.815  -0.031   2.358 -2.6069 -2.4834  0.6223
11193TIP3    H233523   2.749   0.056   2.253 -0.9837 -2.6178 -0.5438
11194TIP3   OH233524   7.986   6.433   0.738  0.1293 -0.1051  0.1752
11194TIP3    H133525   7.932   6.410   0.663  0.5384  0.5618 -0.3315
11194TIP3    H233526   7.924   6.448   0.809 -0.3839  0.8373 -0.4460
11195TIP3   OH233527   3.693   5.288   1.570  0.1731 -0.2331  0.6752
11195TIP3    H133528   3.701   5.199   1.534 -0.2925  0.4289 -1.2087
11195TIP3    H233529   3.734   5.344   1.504 -0.3858  1.0539  1.3869
11196TIP3   OH233530   3.313   3.676   2.999 -0.3821  0.4274 -0.1930
11196TIP3    H133531   3.323   3.589   2.959 -1.3966 -0.1305  0.6939
11196TIP3    H233532   3.393   3.687   3.052 -0.7572 -0.4930  0.6033
11197TIP3   OH233533   3.583   7.785   6.546  0.2291  0.4763 -0.4960
11197TIP3    H133534   3.596   7.749   6.634  0.0473  2.1016  0.2282
11197TIP3    H233535   3.490   7.774   6.529  0.4544 -0.8773 -0.9896
11198TIP3   OH233536   0.287   6.566   0.025 -0.0227 -0.6212 -0.4617
11198TIP3    H133537   0.372   6.543  -0.013 -0.3320 -2.1494 -0.3033
11198TIP3    H233538   0.229   6.495  -0.004 -0.8219 -0.5503  0.9056
11199TIP3   OH233539   0.827   0.763   6.439 -0.5809 -0.1607  0.2799
11199TIP3    H133540   0.813   0.788   6.530  0.0300 -1.3656  0.7185
11199TIP3    H233541   0.897   0.822   6.409 -0.3191 -0.1992  0.7964
11200TIP3   OH233542   7.443   5.018   4.380 -0.0813 -0.3974  0.2258
11200TIP3    H133543   7.387   4.953   4.422  0.9027 -0.9411  0.7314
11200TIP3    H233544   7.448   5.090   4.443  1.1240 -1.0691  0.9224
11201TIP3   OH233545   5.974   6.036   2.276  0.1952 -0.3168  0.1628
11201TIP3    H133546   6.059   6.076   2.296  0.8495 -1.6409  0.0904
11201TIP3    H233547   5.973   6.027   2.181  0.6634 -1.7480  0.2725
11202TIP3   OH233548   5.128  -0.004   2.175 -0.2396 -0.6046 -0.3684
11202TIP3    H133549   5.145  -0.013   2.269 -0.6325 -2.3367 -0.4242
11202TIP3    H233550   5.075   0.075   2.168 -0.6951 -0.7670  0.9311
11203TIP3   OH233551   6.559   6.295   2.657  0.3147  0.5992 -0.1325
11203TIP3    H133552   6.646   6.301   2.618  0.8004 -0.4768  0.7496
11203TIP3    H233553   6.574   6.256   2.743 -1.1398 -0.3992 -0.3103
11204TIP3   OH233554   6.265   5.543   6.137  0.6347 -0.0725 -0.6350
11204TIP3    H133555   6.247   5.516   6.227 -1.4150  1.2668 -0.5861
11204TIP3    H233556   6.207   5.489   6.083  0.2272  0.6788 -0.9571
11205TIP3   OH233557   0.215   6.130   1.474 -0.5156 -0.1201 -0.5955
11205TIP3    H133558   0.145   6.065   1.488 -2.3727  1.2278 -2.8982
11205TIP3    H233559   0.181   6.210   1.513 -0.7560  0.7992 -2.5849
11206TIP3   OH233560   4.073   0.063   3.542  0.0720  0.0712  0.1591
11206TIP3    H133561   4.088   0.069   3.636  1.4922  2.1550 -0.1336
11206TIP3    H233562   4.149   0.106   3.502 -1.3357  0.8491 -1.8630
11207TIP3   OH233563   3.920   3.855   3.704  0.3166 -0.5759 -0.0981
11207TIP3    H133564   3.972   3.825   3.630  1.2439  0.0807  0.2664
11207TIP3    H233565   3.896   3.775   3.750  3.0232 -0.8393  1.0457
11208TIP3   OH233566   1.666   4.950   1.463  0.4164  0.0207  0.1187
11208TIP3    H133567   1.606   4.980   1.395 -0.4155  0.5602  1.0626
11208TIP3    H233568   1.654   4.855   1.465  0.7235 -0.0414 -0.7304
11209TIP3   OH233569   0.107   3.610   5.189  0.2345 -0.1625  0.3077
11209TIP3    H133570   0.028   3.623   5.243 -0.8049  0.1170 -1.2085
11209TIP3    H233571   0.084   3.649   5.105  1.6621 -0.9608 -0.4729
11210TIP3   OH233572   7.246   6.125   1.048  0.1270  0.1656  0.5742
11210TIP3    H133573   7.312   6.190   1.073  0.3382 -0.3958  1.4854
11210TIP3    H233574   7.267   6.048   1.100 -0.9321 -0.1978  0.4768
11211TIP3   OH233575   2.277   0.091   4.783  0.2146 -0.3290 -0.5271
11211TIP3    H133576   2.190   0.123   4.810  0.5787 -0.0834  0.3960
11211TIP3    H233577   2.259   0.009   4.737 -0.4944 -0.3782 -0.1818
11212TIP3   OH233578   7.404   1.165   2.314 -0.0781  0.0425  0.3331
11212TIP3    H133579   7.348   1.216   2.255 -0.8460  1.4471  2.1632
11212TIP3    H233580   7.489   1.208   2.309  0.4567 -1.1285 -1.2686
11213TIP3   OH233581   0.099   1.134   3.031 -0.1058  0.0993  0.0640
11213TIP3    H133582   0.113   1.113   2.938 -1.5830  0.4553 -0.2741
11213TIP3    H233583   0.133   1.222   3.041 -0.9707  0.5049 -0.4379
11214TIP3   OH233584   1.135   3.095   3.252  0.2214  1.0462  0.4656
11214TIP3    H133585   1.045   3.118   3.272  0.3033  0.8896  1.0541
11214TIP3    H233586   1.147   3.119   3.160  0.0092  2.4027  0.7721
11215TIP3   OH233587   2.341   6.646   5.613 -0.4571  0.4921 -0.1638
11215TIP3    H133588   2.397   6.629   5.537  0.4502  0.7163  0.4364
11215TIP3    H233589   2.262   6.685   5.577  0.3631  1.5115 -0.9288
11216TIP3   OH233590   6.497   1.684   2.947  0.1920  0.0588  0.1138
11216TIP3    H133591   6.419   1.721   2.904  0.7195  0.8370 -0.2094
11216TIP3    H233592   6.482   1.590   2.948 -0.9613  0.2391  0.4790
11217TIP3   OH233593   7.892   4.021   0.149  0.0496 -0.4170  0.3541
11217TIP3    H133594   7.941   4.086   0.098 -0.0660 -0.7422 -0.1727
11217TIP3    H233595   7.815   4.068   0.181 -0.3372 -0.4429 -0.5131
11218TIP3   OH233596   6.126   6.944   1.523 -0.5481  0.3674 -0.4445
11218TIP3    H133597   6.136   7.037   1.541 -0.7550  0.4736 -0.8657
11218TIP3    H233598   6.127   6.938   1.427 -0.0175 -0.1218 -0.4136
11219TIP3   OH233599   7.273   2.468   2.050 -0.3366  0.1978 -0.3236
11219TIP3    H133600   7.355   2.496   2.010  0.0478  1.0262  0.9671
11219TIP3    H233601   7.298   2.441   2.139 -1.3151 -0.5212 -0.2418
11220TIP3   OH233602   4.141   7.209   4.409 -0.5474  0.3486 -0.0303
11220TIP3    H133603   4.191   7.132   4.383  0.2094  0.6042  0.5961
11220TIP3    H233604   4.076   7.221   4.339  0.2656 -0.0015 -0.8710
11221TIP3   OH233605   2.721   0.709   0.723 -0.3033  0.4597 -0.5719
11221TIP3    H133606   2.647   0.761   0.693  0.1086  0.2299 -2.0997
11221TIP3    H233607   2.707   0.623   0.682  0.0165 -0.0474  0.3615
11222TIP3   OH233608   5.548   7.402   2.657  0.2333  0.5120 -0.4184
11222TIP3    H133609   5.489   7.389   2.732 -0.6024 -1.1140 -1.2966
11222TIP3    H233610   5.493   7.442   2.590  1.1554  2.6135  0.0115
11223TIP3   OH233611   1.559   0.645   2.870  0.3825 -0.2143  0.0244
11223TIP3    H133612   1.532   0.735   2.887 -2.1298 -0.4807 -1.8878
11223TIP3    H233613   1.481   0.593   2.889  1.0058 -1.6773 -1.2147
11224TIP3   OH233614   3.874   1.102   0.712 -0.0269 -0.4287 -0.3143
11224TIP3    H133615   3.779   1.086   0.714 -0.2826  0.9513  0.2595
11224TIP3    H233616   3.910   1.029   0.662 -1.6203  0.0498 -2.2898
11225TIP3   OH233617   6.507   4.321   0.591  0.2923  0.1587 -0.0037
11225TIP3    H133618   6.433   4.262   0.575 -1.4482  2.3848 -0.6847
11225TIP3    H233619   6.552   4.284   0.666 -1.6673 -1.1516  0.5942
11226TIP3   OH233620   1.041   1.013   0.861  0.3454 -0.0204  0.0177
11226TIP3    H133621   1.092   1.073   0.915 -1.1284  0.7394  0.6172
11226TIP3    H233622   1.008   0.947   0.923  0.4795 -0.4298 -0.3392
11227TIP3   OH233623   1.036   1.142   5.742  0.3034 -0.3992 -0.8939
11227TIP3    H133624   0.988   1.138   5.659  1.0073 -0.3689 -1.3096
11227TIP3    H233625   1.032   1.052   5.776  0.3922 -0.5096 -1.1769
11228TIP3   OH233626   3.371   4.310   2.690  0.2255  0.1418  0.9699
11228TIP3    H133627   3.360   4.238   2.628  1.6380 -0.2531  1.1515
11228TIP3    H233628   3.445   4.360   2.655 -1.7206  2.5236 -0.0866
11229TIP3   OH233629   0.591   4.696   6.269  0.3059 -0.1329  0.5561
11229TIP3    H133630   0.537   4.620   6.287  0.1992 -0.0875  0.4319
11229TIP3    H233631   0.556   4.731   6.187  0.0650  0.3082  0.8448
11230TIP3   OH233632   4.590   5.010   1.878 -0.1626  0.3106  0.2447
11230TIP3    H133633   4.628   4.922   1.869 -0.2912  0.3873 -1.2331
11230TIP3    H233634   4.665   5.068   1.882 -0.0692  0.1246  1.5374
11231TIP3   OH233635   1.601   4.292   3.720  0.1850 -0.0123  0.0669
11231TIP3    H133636   1.679   4.324   3.674 -0.4600 -0.0991 -1.1395
11231TIP3    H233637   1.622   4.303   3.812  1.8203 -0.4570 -0.2013
11232TIP3   OH233638   7.311   0.625   0.134  0.0703  0.3886  0.2710
11232TIP3    H133639   7.265   0.618   0.051 -0.2973 -0.1487  0.5149
11232TIP3    H233640   7.325   0.535   0.162  1.4688  0.5365  0.1050
11233TIP3   OH233641   7.141   3.833   3.602  0.0233 -0.1706  0.1349
11233TIP3    H133642   7.139   3.739   3.620  0.1346 -0.2969 -0.4834
11233TIP3    H233643   7.073   3.846   3.536 -0.8160  0.3855  1.0841
11234TIP3   OH233644   5.303   0.360   1.296 -0.3850  0.7652  0.3989
11234TIP3    H133645   5.393   0.378   1.322 -0.0289  0.3298 -0.4788
11234TIP3    H233646   5.270   0.443   1.262  0.2210  0.5655 -0.7397
11235TIP3   OH233647   6.353   2.433   0.049  0.4134 -0.1168 -0.1778
11235TIP3    H133648   6.304   2.502   0.002  0.9359  0.3804 -0.0058
11235TIP3    H233649   6.390   2.478   0.124 -0.0314 -0.8118  0.4693
11236TIP3   OH233650   5.476   0.330   6.477 -0.1046 -0.1037  0.9335
11236TIP3    H133651   5.508   0.418   6.494  0.0122  0.1711 -0.5500
11236TIP3    H233652   5.541   0.273   6.518  1.5443  0.4783 -0.7074
11237TIP3   OH233653   4.472   1.481   2.806  0.2546  0.0296 -0.3880
11237TIP3    H133654   4.470   1.538   2.883 -2.1244 -1.7606  1.0394
11237TIP3    H233655   4.517   1.402   2.836  0.2679 -0.2753 -1.1830
11238TIP3   OH233656   3.529   7.352   5.808 -0.3098 -0.1142  0.0695
11238TIP3    H133657   3.545   7.403   5.888 -0.8843 -0.5981  0.5023
11238TIP3    H233658   3.452   7.393   5.768  0.1825  0.3433 -0.4284
11239TIP3   OH233659   5.713   6.521   0.596 -0.2613  0.1947  0.5830
11239TIP3    H133660   5.727   6.433   0.561 -1.1991 -0.1003  0.9119
11239TIP3    H233661   5.776   6.528   0.668  0.2303  0.0299  0.1823
11240TIP3   OH233662   5.462   7.123   4.880  0.1854  0.1214 -0.0315
11240TIP3    H133663   5.419   7.058   4.825  1.0143 -1.2654  0.8952
11240TIP3    H233664   5.535   7.076   4.920  0.5038  1.4930  1.0784
11241TIP3   OH233665   2.535   5.909   1.530  0.0831 -0.4145 -0.2811
11241TIP3    H133666   2.448   5.923   1.493 -0.4308 -0.1052  0.9956
11241TIP3    H233667   2.519   5.865   1.613  0.9146  2.2437  1.4139
11242TIP3   OH233668   4.766   3.814   5.155  0.0375  0.1747 -0.6293
11242TIP3    H133669   4.776   3.862   5.237  0.3806  0.1525 -0.6592
11242TIP3    H233670   4.854   3.783   5.134  0.1265  0.9500 -1.4723
11243TIP3   OH233671   1.819   6.872   6.698  0.3430  0.4125  0.4751
11243TIP3    H133672   1.830   6.943   6.636  0.9673  0.3550  0.5179
11243TIP3    H233673   1.903   6.865   6.743  1.8110 -3.0652 -2.3992
11244TIP3   OH233674   7.008   5.209   2.206  0.3101 -0.8141 -0.0005
11244TIP3    H133675   7.043   5.209   2.117  1.3692  3.1891  0.2055
11244TIP3    H233676   6.942   5.278   2.206 -1.1812 -2.1399  1.8572
11245TIP3   OH233677   5.844   4.834   6.235  0.2025 -0.2922  0.1143
11245TIP3    H133678   5.893   4.779   6.174 -1.2047 -0.6730 -0.7149
11245TIP3    H233679   5.907   4.902   6.261  1.0009 -0.4027 -1.3746
11246TIP3   OH233680   1.653   2.613   0.964  0.2530 -0.0641 -0.2777
11246TIP3    H133681   1.696   2.689   0.925  0.3292  0.9678  1.6711
11246TIP3    H233682   1.571   2.647   0.999  0.6480 -0.6694  1.3191
11247TIP3   OH233683   3.756   0.868   4.636  0.2880 -0.4473 -0.0636
11247TIP3    H133684   3.851   0.872   4.648  0.1629 -0.5001  1.0817
11247TIP3    H233685   3.740   0.779   4.605  0.7616  0.1003 -2.0118
11248TIP3   OH233686   5.989   3.348   4.629 -0.1782  0.0085 -0.3010
11248TIP3    H133687   5.980   3.432   4.585 -1.5437 -0.2621 -0.5855
11248TIP3    H233688   6.073   3.354   4.676  0.9445  0.5926 -2.2915
11249TIP3   OH233689   4.153   4.623   3.342  0.0797 -0.0695  0.0806
11249TIP3    H133690   4.196   4.706   3.366 -1.2231  0.3623  1.0121
11249TIP3    H233691   4.079   4.650   3.287 -1.1335 -0.4915  1.4820
11250TIP3   OH233692   7.329   6.662   4.588 -0.1156 -0.0466  0.2420
11250TIP3    H133693   7.333   6.627   4.499 -1.0135  0.6544 -0.0941
11250TIP3    H233694   7.314   6.756   4.575  2.0436  0.4813  1.1087
11251TIP3   OH233695   3.736   7.575   4.222 -0.4543 -1.1022 -0.2773
11251TIP3    H133696   3.804   7.600   4.159 -0.2949 -0.4410  0.1371
11251TIP3    H233697   3.654   7.596   4.179 -0.3700 -1.2919 -0.5299
11252TIP3   OH233698   0.366   0.704   5.222 -0.0632 -0.0187 -0.0397
11252TIP3    H133699   0.329   0.709   5.310  0.0288 -0.1697  0.0099
11252TIP3    H233700   0.455   0.739   5.232 -0.4917  1.1825 -0.3442
11253TIP3   OH233701   7.580   2.194   0.395 -0.3830 -0.3391  0.5901
11253TIP3    H133702   7.668   2.173   0.425  0.1804  0.5975 -0.3648
11253TIP3    H233703   7.578   2.289   0.391 -2.0911 -0.2230  2.4765
11254TIP3   OH233704   4.200   2.427   1.327  0.0780  0.6084  0.0081
11254TIP3    H133705   4.264   2.361   1.302  0.9479  1.0808  0.9105
11254TIP3    H233706   4.229   2.507   1.281  1.1533  1.2472  1.7130
11255TIP3   OH233707   6.378   6.926   1.825 -0.1351  0.3793  0.8003
11255TIP3    H133708   6.365   6.856   1.761 -0.1759  0.5483  0.6232
11255TIP3    H233709   6.350   6.888   1.908 -0.6376  0.3478  0.6218
11256TIP3   OH233710   5.184   3.971   2.816 -0.2180 -0.8717 -0.4574
11256TIP3    H133711   5.179   4.065   2.835 -0.1703 -0.9848  0.1403
11256TIP3    H233712   5.266   3.961   2.766  0.0842 -0.6727 -0.0098
11257TIP3   OH233713   1.264   4.120   1.915  0.9130 -0.1403  0.2937
11257TIP3    H133714   1.263   4.150   1.824  0.5072 -0.6419  0.1298
11257TIP3    H233715   1.287   4.027   1.910  2.2937  0.1502  0.8080
11258TIP3   OH233716   6.711   7.152   3.661 -0.1636  0.0072 -0.0418
11258TIP3    H133717   6.750   7.218   3.717 -0.9226  0.2559  0.2046
11258TIP3    H233718   6.668   7.201   3.592  0.4074 -0.2841 -0.6132
11259TIP3   OH233719   7.114   1.830   2.182 -0.3217  0.2634  0.1865
11259TIP3    H133720   7.021   1.827   2.160 -0.0270  0.9744 -1.3075
11259TIP3    H233721   7.118   1.811   2.276 -2.0603  1.2772  0.5069
11260TIP3   OH233722   1.557   7.851   5.352  0.5727 -0.2284 -0.3410
11260TIP3    H133723   1.528   7.776   5.403  0.9888  1.0651  1.9668
11260TIP3    H233724   1.552   7.823   5.261 -0.9873 -2.4121  0.3519
11261TIP3   OH233725   7.510   1.513   4.050  0.3434  0.5821  0.0789
11261TIP3    H133726   7.469   1.533   3.967  1.4232  2.1621 -0.1214
11261TIP3    H233727   7.559   1.592   4.073  1.5509 -0.4497  1.3138
11262TIP3   OH233728   0.037   5.625   5.396 -0.1696  0.0279 -0.0530
11262TIP3    H133729   0.009   5.534   5.394  0.0107 -0.0669  1.2484
11262TIP3    H233730   0.075   5.640   5.309 -0.0378 -1.1777 -0.2189
11263TIP3   OH233731   5.788   2.146   3.755  0.7180  0.7111 -0.4371
11263TIP3    H133732   5.743   2.090   3.819  0.8490  2.2825  1.1146
11263TIP3    H233733   5.820   2.086   3.688  0.4537 -1.0010  0.9184
11264TIP3   OH233734   6.443   5.563   0.946 -0.3874  0.4853  0.8161
11264TIP3    H133735   6.370   5.581   0.887  1.0790  1.4646 -0.7999
11264TIP3    H233736   6.475   5.476   0.919 -0.0592  0.6959  0.5113
11265TIP3   OH233737   5.726   4.531   1.156 -0.6287 -0.1110 -0.2274
11265TIP3    H133738   5.718   4.461   1.091  0.7455  0.2605 -0.8264
11265TIP3    H233739   5.655   4.513   1.218 -0.7266 -1.6397 -0.7250
11266TIP3   OH233740   3.070   6.192   4.473 -0.1927  0.0140  0.4803
11266TIP3    H133741   3.028   6.132   4.535 -1.0391 -0.4859 -0.5462
11266TIP3    H233742   3.114   6.135   4.410 -0.4241  0.4779 -0.1115
11267TIP3   OH233743   7.528   7.641   4.162  0.1811 -0.0983  0.3826
11267TIP3    H133744   7.558   7.558   4.199  1.0527  0.7801  1.7483
11267TIP3    H233745   7.516   7.698   4.238 -1.5241  0.6937 -0.4433
11268TIP3   OH233746   3.161   3.410   0.851  0.1842  0.1659 -0.1772
11268TIP3    H133747   3.233   3.468   0.825  1.1743 -0.1701  1.6186
11268TIP3    H233748   3.086   3.440   0.800  1.1388  1.7375 -0.7299
11269TIP3   OH233749   6.932   0.568   2.755 -0.1201 -0.2509 -0.2804
11269TIP3    H133750   6.967   0.609   2.834 -1.5491 -1.3031  0.9475
11269TIP3    H233751   7.010   0.546   2.703  0.8384  0.6119  0.7356
11270TIP3   OH233752   3.412   4.561   2.123 -0.3349 -0.4768  0.5058
11270TIP3    H133753   3.507   4.574   2.129  0.0624 -1.9613 -1.5596
11270TIP3    H233754   3.382   4.630   2.064 -0.3176 -0.7729  0.1446
11271TIP3   OH233755   6.763   4.283   2.885 -0.8223 -0.4632  0.5859
11271TIP3    H133756   6.794   4.209   2.937 -0.9510 -1.1863 -0.3462
11271TIP3    H233757   6.721   4.243   2.809  1.9330  0.5335 -1.6463
11272TIP3   OH233758   1.541   2.096   4.245 -0.6160 -0.0358 -0.3978
11272TIP3    H133759   1.546   2.155   4.170 -1.4716  0.2010 -0.2772
11272TIP3    H233760   1.503   2.149   4.315  0.2876 -0.2170  0.2517
11273TIP3   OH233761   4.614   4.280   1.154  0.1692  0.0035  0.1281
11273TIP3    H133762   4.526   4.268   1.189 -0.0457 -1.4927 -0.8104
11273TIP3    H233763   4.621   4.214   1.085  1.7215  0.6781 -0.4024
11274TIP3   OH233764   7.110   5.839   5.234  0.1257  0.4199 -0.1644
11274TIP3    H133765   7.182   5.871   5.288 -0.5310  0.3403  0.7833
11274TIP3    H233766   7.094   5.909   5.171  1.0393  0.4298 -0.3884
11275TIP3   OH233767   6.540   0.059   0.813 -0.3228  0.4512  0.0065
11275TIP3    H133768   6.561   0.011   0.893 -0.1815  0.8280  0.1980
11275TIP3    H233769   6.621   0.104   0.789  0.0083 -0.6443 -1.0588
11276TIP3   OH233770   2.714   4.628   0.121  0.1361 -0.7709 -0.0980
11276TIP3    H133771   2.791   4.678   0.096 -0.1635 -0.0666  0.3632
11276TIP3    H233772   2.677   4.676   0.195 -1.1863 -0.6703 -0.8094
11277TIP3   OH233773   1.049   4.084   1.206 -0.0971 -0.3198  0.4641
11277TIP3    H133774   0.990   4.037   1.265  2.1614  1.4524  4.5599
11277TIP3    H233775   1.006   4.168   1.190 -0.9278 -0.9798 -0.9454
11278TIP3   OH233776   7.982   3.446   0.623 -0.1331  0.3213 -0.0719
11278TIP3    H133777   8.066   3.490   0.638  1.2097 -2.0637  0.0223
11278TIP3    H233778   7.987   3.368   0.678 -2.5371  0.2067  0.0677
11279TIP3   OH233779   0.550   3.870   3.016 -0.4838 -0.1218 -0.3990
11279TIP3    H133780   0.593   3.954   3.035 -1.0078  0.6028 -2.2280
11279TIP3    H233781   0.505   3.848   3.097  1.4648  0.2168  0.8534
11280TIP3   OH233782   4.684   5.595   1.979 -0.1413  0.2297  0.0448
11280TIP3    H133783   4.597   5.603   2.019 -0.5593 -0.1574 -0.7702
11280TIP3    H233784   4.721   5.516   2.018 -0.3948  0.0615 -0.0547
11281TIP3   OH233785   3.323   1.591   2.164 -0.0482  0.0207  0.2557
11281TIP3    H133786   3.260   1.652   2.125  0.8727  0.2884 -0.8859
11281TIP3    H233787   3.346   1.531   2.093 -0.7022 -1.4938  1.2833
11282TIP3   OH233788   3.966   5.572   3.877  0.4864  0.5266 -0.2619
11282TIP3    H133789   3.875   5.565   3.904 -0.3246  0.8675 -2.6482
11282TIP3    H233790   4.004   5.635   3.938 -0.5422 -0.3914  1.4304
11283TIP3   OH233791   7.230   7.170   3.320 -0.1192 -0.2546 -0.1175
11283TIP3    H133792   7.288   7.223   3.376 -0.7679 -1.2963  1.6379
11283TIP3    H233793   7.161   7.231   3.293 -0.4958  0.0003  1.3222
11284TIP3   OH233794   6.062   0.041   6.542  0.2433 -0.0228 -0.2098
11284TIP3    H133795   6.044   0.062   6.634  0.0422  0.3395 -0.3292
11284TIP3    H233796   6.026   0.115   6.493 -0.4945 -0.6685 -0.6516
11285TIP3   OH233797   3.416   0.833   0.455  0.1111  0.1054 -0.4331
11285TIP3    H133798   3.334   0.783   0.462 -1.3040  2.2395 -0.8091
11285TIP3    H233799   3.471   0.797   0.525 -1.0541 -1.5143 -0.2659
11286TIP3   OH233800   0.378   3.898   4.186  0.8484  0.2954 -0.0941
11286TIP3    H133801   0.442   3.948   4.237  0.9453 -0.5480  0.6312
11286TIP3    H233802   0.400   3.807   4.203 -0.2454 -0.0034 -0.2356
11287TIP3   OH233803   2.476   7.737   0.679 -0.3678  0.2598  0.1026
11287TIP3    H133804   2.490   7.809   0.618 -0.6854 -0.3185 -0.6579
11287TIP3    H233805   2.402   7.765   0.733 -1.9227 -0.3885 -1.6017
11288TIP3   OH233806   5.113   2.211   5.313 -0.2851  0.2014 -0.0576
11288TIP3    H133807   5.090   2.122   5.339  0.3204  0.3393  0.9964
11288TIP3    H233808   5.088   2.265   5.387 -0.3742  0.8781 -0.5720
11289TIP3   OH233809   0.825   7.296   5.059  0.4953  0.0344  0.0510
11289TIP3    H133810   0.871   7.315   5.141 -0.2195  0.5797  0.3358
11289TIP3    H233811   0.746   7.350   5.063 -0.0858 -0.7570 -0.5059
11290TIP3   OH233812   7.173   1.334   2.896 -0.3942  0.1101 -0.5248
11290TIP3    H133813   7.249   1.357   2.843  0.7757 -0.9226  0.6403
11290TIP3    H233814   7.134   1.418   2.920 -0.5049  0.6278 -2.3149
11291TIP3   OH233815   4.063   1.829   0.352 -0.4401  0.3924 -0.2893
11291TIP3    H133816   4.094   1.891   0.287  0.7788  0.7243  0.5687
11291TIP3    H233817   4.093   1.743   0.320 -2.7996  0.0675 -1.8782
11292TIP3   OH233818   7.400   2.612   3.503 -0.1819 -0.3293  0.2598
11292TIP3    H133819   7.380   2.682   3.442 -0.2506 -0.3922  0.2096
11292TIP3    H233820   7.480   2.640   3.547  1.5934 -1.5878 -1.9506
11293TIP3   OH233821   7.847   2.359   5.820 -0.4571  0.2955  0.0763
11293TIP3    H133822   7.769   2.327   5.775 -0.4583 -2.3319  1.7798
11293TIP3    H233823   7.813   2.420   5.886 -0.7524  1.3662 -1.0170
11294TIP3   OH233824   4.237   1.367   0.908 -0.0723  1.0600  0.3372
11294TIP3    H133825   4.270   1.338   0.992 -1.5734  1.6920  1.1798
11294TIP3    H233826   4.198   1.289   0.869  2.5711  0.1979 -0.8538
11295TIP3   OH233827   7.218   5.593   5.215 -0.2075 -0.3890  0.1409
11295TIP3    H133828   7.143   5.648   5.194  0.3331  0.6181  0.7548
11295TIP3    H233829   7.288   5.655   5.236  0.4444 -1.3149  0.7765
11296TIP3   OH233830   3.992   2.615   4.822  0.3346  0.2985  0.4206
11296TIP3    H133831   4.082   2.643   4.806  0.5129 -0.5121 -0.0505
11296TIP3    H233832   3.997   2.520   4.828 -0.9330 -0.1282 -3.0108
11297TIP3   OH233833   4.985   5.585   5.772 -0.1960 -0.4887  0.0389
11297TIP3    H133834   5.040   5.518   5.813  1.3854  0.4578 -0.4672
11297TIP3    H233835   5.016   5.668   5.808 -1.2740  0.0892 -0.3032
11298TIP3   OH233836   7.962   7.570   5.319 -0.3785  0.2167 -0.3018
11298TIP3    H133837   8.015   7.613   5.252 -0.8908 -1.0163 -1.5385
11298TIP3    H233838   7.878   7.554   5.277 -0.4700 -1.2492  0.3913
11299TIP3   OH233839   6.369   5.120   3.861 -0.1160 -0.4319 -0.0054
11299TIP3    H133840   6.294   5.158   3.816 -0.9182 -0.9675  0.8290
11299TIP3    H233841   6.441   5.180   3.845 -0.7117  0.0531 -0.8893
11300TIP3   OH233842   1.656   6.901   4.359 -0.0711  0.1915  0.5149
11300TIP3    H133843   1.605   6.877   4.436 -1.0297  1.6065  0.3729
11300TIP3    H233844   1.739   6.855   4.368 -0.5963 -0.5188  1.8273
11301TIP3   OH233845   3.496   3.568   3.861  0.2490 -0.2877  1.1848
11301TIP3    H133846   3.538   3.487   3.891  0.7695 -0.3940  0.2060
11301TIP3    H233847   3.508   3.630   3.934 -0.1732 -1.0823  1.9555
11302TIP3   OH233848   8.160   7.434   2.728  0.1382  0.6034  0.2656
11302TIP3    H133849   8.120   7.347   2.724 -0.1204  0.7492 -0.3953
11302TIP3    H233850   8.092   7.490   2.765 -0.8385  1.1442 -2.1575
11303TIP3   OH233851   2.723   3.868   6.590  0.0145 -0.4247 -0.2572
11303TIP3    H133852   2.734   3.773   6.600 -1.2147 -0.3901  2.2372
11303TIP3    H233853   2.808   3.898   6.557  1.3169 -2.1270  1.2677
11304TIP3   OH233854   1.865   6.715   3.424  0.3071  0.3151  0.2224
11304TIP3    H133855   1.960   6.723   3.428  0.3897 -0.2824 -0.2752
11304TIP3    H233856   1.843   6.655   3.495  0.4096 -0.2903 -0.2483
11305TIP3   OH233857   2.481   4.444   6.151 -0.2809  0.0532 -0.8228
11305TIP3    H133858   2.518   4.528   6.125 -2.4643  1.3619  0.0925
11305TIP3    H233859   2.466   4.451   6.245 -2.8190 -0.3515 -1.1225
11306TIP3   OH233860   7.550   7.507   0.978 -0.0316  0.8569 -0.0870
11306TIP3    H133861   7.556   7.599   1.004  2.3156  0.0828  2.6347
11306TIP3    H233862   7.509   7.463   1.052 -0.8617 -0.3559 -1.2178
11307TIP3   OH233863   6.994   0.664   1.360 -0.0508 -0.1854  0.2022
11307TIP3    H133864   6.950   0.731   1.412  1.3723 -0.7577  2.2986
11307TIP3    H233865   6.931   0.639   1.293 -1.7732  1.0372  1.3046
11308TIP3   OH233866   5.797   4.899   1.310 -0.4226 -0.1045  0.3197
11308TIP3    H133867   5.849   4.826   1.276  1.5800  1.5295 -0.3104
11308TIP3    H233868   5.710   4.861   1.325  0.5510 -2.6233  0.1247
11309TIP3   OH233869   0.944   1.172   1.466 -0.3636  0.4054  0.0118
11309TIP3    H133870   0.967   1.240   1.530 -0.7639 -1.4944  2.3247
11309TIP3    H233871   1.011   1.104   1.479 -2.1523 -1.3438  0.6402
11310TIP3   OH233872   6.254   6.071   0.942  0.1553  0.4010  0.0915
11310TIP3    H133873   6.233   5.984   0.909 -0.3466  0.8947 -0.9464
11310TIP3    H233874   6.279   6.057   1.033 -0.2346 -0.7814  0.0311
11311TIP3   OH233875   5.340   2.334   0.482  0.3632  0.5118  0.2810
11311TIP3    H133876   5.327   2.361   0.392  0.5934 -0.1878  0.0334
11311TIP3    H233877   5.423   2.288   0.482 -0.0645 -0.2823  0.6642
11312TIP3   OH233878   1.411   3.869   4.519 -0.4197  0.2247 -0.0443
11312TIP3    H133879   1.479   3.860   4.585  1.8860  0.8787 -2.1636
11312TIP3    H233880   1.416   3.788   4.468 -2.2289 -0.3187  0.5526
11313TIP3   OH233881   4.826   7.475   4.854  0.2735  0.0857  0.2194
11313TIP3    H133882   4.756   7.497   4.792 -1.3254  0.5967  2.1131
11313TIP3    H233883   4.898   7.445   4.798 -0.8747  1.0252 -1.9081
11314TIP3   OH233884   5.364   4.396   0.105 -0.6728 -0.7175  0.4566
11314TIP3    H133885   5.423   4.337   0.151  0.3478 -0.4159 -0.4301
11314TIP3    H233886   5.329   4.344   0.033 -0.6829 -0.5775  0.3604
11315TIP3   OH233887   4.474   0.490   5.510  0.0449  0.2363  0.2329
11315TIP3    H133888   4.468   0.400   5.542  1.1343  0.3668  0.8906
11315TIP3    H233889   4.436   0.543   5.580 -2.2053  0.2118 -0.8838
11316TIP3   OH233890   5.226   6.456   6.311 -0.4271 -0.0060  0.1782
11316TIP3    H133891   5.293   6.406   6.358  0.9476  1.2220 -0.3658
11316TIP3    H233892   5.240   6.547   6.338 -1.5608  0.3438 -0.3333
11317TIP3   OH233893   6.816   7.079   2.587 -0.2358  0.1735 -0.3607
11317TIP3    H133894   6.802   7.002   2.642  0.1662 -0.1426 -0.6920
11317TIP3    H233895   6.866   7.139   2.642  1.6394 -0.8114 -0.8974
11318TIP3   OH233896   5.816   6.539   3.239 -0.6367  0.2462  0.7140
11318TIP3    H133897   5.896   6.544   3.186 -0.8967  2.7106  0.4368
11318TIP3    H233898   5.840   6.579   3.322 -0.8411 -1.6482  1.7483
11319TIP3   OH233899   4.583   1.074   5.809  0.6137 -0.4264 -0.4044
11319TIP3    H133900   4.600   1.100   5.719  0.4165 -0.0946 -0.3499
11319TIP3    H233901   4.550   1.154   5.851  0.4590 -0.6444 -0.1058
11320TIP3   OH233902   5.205   3.678   0.791  0.0122  0.8699 -0.3413
11320TIP3    H133903   5.277   3.658   0.851  0.3169 -0.3551 -1.0987
11320TIP3    H233904   5.196   3.773   0.796  0.6959  0.8938  0.8752
11321TIP3   OH233905   1.151   7.177   4.073  0.0064 -0.0152 -0.4128
11321TIP3    H133906   1.060   7.196   4.095 -0.0865  0.8258 -1.4882
11321TIP3    H233907   1.193   7.263   4.066  0.2339 -0.2576 -2.6021
11322TIP3   OH233908   3.161   2.831   4.122  0.3375 -0.4062  0.2790
11322TIP3    H133909   3.245   2.845   4.078  1.4173  0.9325  2.6027
11322TIP3    H233910   3.095   2.864   4.061  1.7923  1.8197 -0.1844
11323TIP3   OH233911   1.347   4.418   3.552  0.3061  0.4881 -0.3101
11323TIP3    H133912   1.416   4.369   3.598 -0.1272  0.3467  0.2000
11323TIP3    H233913   1.388   4.503   3.533  0.4889  0.5650  0.3782
11324TIP3   OH233914   7.621   5.485   0.367  0.7957  0.0668 -0.0501
11324TIP3    H133915   7.703   5.519   0.402  0.5144  1.3375 -0.6003
11324TIP3    H233916   7.600   5.541   0.293 -0.3594 -0.4993 -0.1814
11325TIP3   OH233917   1.147   7.556   1.233 -0.1156 -0.2151  0.2035
11325TIP3    H133918   1.157   7.634   1.177  1.6223 -0.7467 -0.2968
11325TIP3    H233919   1.092   7.585   1.306 -0.8800  1.0107 -0.8203
11326TIP3   OH233920   5.876   1.373   0.581 -0.0371 -0.3210  0.0113
11326TIP3    H133921   5.917   1.379   0.494 -0.9827  1.0467 -0.3731
11326TIP3    H233922   5.880   1.462   0.615 -1.1225 -0.5187  0.6883
11327TIP3   OH233923   4.627   3.992   4.393 -0.4696 -0.1710  0.3432
11327TIP3    H133924   4.696   3.933   4.422 -0.6527  0.1516  1.4922
11327TIP3    H233925   4.673   4.072   4.368 -0.1162 -1.0663 -2.1780
11328TIP3   OH233926   7.145   7.634   1.254  0.4431  0.4257 -0.4066
11328TIP3    H133927   7.093   7.656   1.331 -0.1453 -0.2481 -0.5990
11328TIP3    H233928   7.110   7.690   1.185 -2.2151 -2.0930 -1.3292
11329TIP3   OH233929   6.119   6.314   0.918  0.0977  0.8777 -0.6381
11329TIP3    H133930   6.173   6.237   0.934 -0.2267  0.8417  0.3204
11329TIP3    H233931   6.101   6.311   0.824  1.2712  0.5791 -0.8694
11330TIP3   OH233932   6.384   5.428   0.252  0.5991 -0.2544 -0.1694
11330TIP3    H133933   6.356   5.402   0.164 -2.3160  1.2008  0.2105
11330TIP3    H233934   6.332   5.506   0.272  0.0457 -1.3762  3.4300
11331TIP3   OH233935   4.088   0.083   1.773 -0.5324  0.6223  0.3212
11331TIP3    H133936   4.155   0.085   1.842  0.5060  0.7081 -0.6593
11331TIP3    H233937   4.055  -0.007   1.774 -0.0392  0.4387  0.4834
11332TIP3   OH233938   3.202   3.680   1.798 -0.0783  0.6287 -0.0318
11332TIP3    H133939   3.130   3.632   1.839  0.3597  0.5917  0.7111
11332TIP3    H233940   3.164   3.765   1.775 -0.0842  1.0067  1.3259
11333TIP3   OH233941   6.417   7.774   4.809 -0.4281  0.4130 -0.3632
11333TIP3    H133942   6.349   7.842   4.806 -0.9622 -0.1458 -1.9249
11333TIP3    H233943   6.457   7.776   4.722  2.1314  1.2360  0.7551
11334TIP3   OH233944   1.244   7.121   5.223  0.0945 -0.3817  0.0958
11334TIP3    H133945   1.235   7.042   5.275  1.9128  0.1418  1.3019
11334TIP3    H233946   1.279   7.090   5.139 -0.1665 -0.9592  0.1950
11335TIP3   OH233947   2.322   5.490   3.497  0.5504 -0.1485 -0.0016
11335TIP3    H133948   2.282   5.452   3.419 -0.0721  1.7624 -0.6466
11335TIP3    H233949   2.413   5.505   3.473  0.7759 -1.0851  0.2232
11336TIP3   OH233950   2.637   3.575   5.319 -0.3649 -0.5676 -0.8724
11336TIP3    H133951   2.617   3.592   5.227 -1.3802  1.4909 -0.3276
11336TIP3    H233952   2.553   3.555   5.359 -0.1449 -0.0562 -0.1296
11337TIP3   OH233953   6.660   3.586   6.094 -0.0439  0.2956  0.0914
11337TIP3    H133954   6.740   3.580   6.146 -0.9794  1.0886  1.6921
11337TIP3    H233955   6.689   3.613   6.007  1.4390  0.3429  0.5888
11338TIP3   OH233956   7.228   3.719   2.986  0.0684  0.4988  0.3902
11338TIP3    H133957   7.300   3.745   2.929  0.1241  1.0042  0.6746
11338TIP3    H233958   7.254   3.751   3.073  0.4653 -1.1646  0.9090
11339TIP3   OH233959   2.804   3.323   2.808  0.3985 -0.4301 -0.4018
11339TIP3    H133960   2.886   3.285   2.842 -0.3149 -0.7033  1.0974
11339TIP3    H233961   2.736   3.290   2.866 -0.5124  1.5775 -0.2244
11340TIP3   OH233962   3.112   7.577   5.187 -0.2722 -0.0530  0.4440
11340TIP3    H133963   3.134   7.489   5.158 -0.4570  0.1421 -0.3298
11340TIP3    H233964   3.157   7.588   5.271  0.0811 -0.7330  0.3456
11341TIP3   OH233965   7.383   6.784   1.942 -0.1611  0.9341  0.2275
11341TIP3    H133966   7.356   6.812   1.855  0.6086  0.5075 -0.1544
11341TIP3    H233967   7.479   6.778   1.937 -0.2182 -0.6461  0.6215
11342TIP3   OH233968   3.424   7.791   4.495 -0.7801 -0.2634 -0.0783
11342TIP3    H133969   3.380   7.713   4.462 -0.0730 -0.9434  0.5560
11342TIP3    H233970   3.511   7.761   4.521  0.6589  1.3251 -2.6786
11343TIP3   OH233971   3.875   4.547   2.485 -0.2596 -0.0107 -0.4108
11343TIP3    H133972   3.848   4.632   2.518 -2.6677 -1.5876  2.1060
11343TIP3    H233973   3.955   4.526   2.534 -1.5056 -0.5252  1.5245
11344TIP3   OH233974   2.282   0.419   5.849  0.3462 -0.7291 -0.2823
11344TIP3    H133975   2.315   0.411   5.938 -0.1586  0.2635  0.0122
11344TIP3    H233976   2.354   0.389   5.793  1.3177  0.2778  0.3855
11345TIP3   OH233977   5.192   0.630   2.139 -0.1622  0.4429  0.1330
11345TIP3    H133978   5.227   0.629   2.228 -0.0488  0.9378  0.0987
11345TIP3    H233979   5.266   0.604   2.084 -0.0847  0.6421  0.1399
11346TIP3   OH233980   6.206   1.462   1.094  0.1777 -0.0033 -0.0773
11346TIP3    H133981   6.275   1.473   1.028  0.2574 -2.1047 -0.4228
11346TIP3    H233982   6.237   1.512   1.169  2.2211 -1.0129 -0.1656
11347TIP3   OH233983   8.257   6.825   2.715  0.1951 -0.6934  0.1643
11347TIP3    H133984   8.335   6.771   2.730  1.2373  0.6601 -0.2377
11347TIP3    H233985   8.184   6.763   2.722  1.3213 -2.0928  0.0249
11348TIP3   OH233986   3.416   3.456   0.559 -0.4948 -0.1582  0.2938
11348TIP3    H133987   3.459   3.539   0.536 -1.4168  0.5886  1.1469
11348TIP3    H233988   3.480   3.410   0.614 -0.5093  0.6500  1.0180
11349TIP3   OH233989   2.382   1.600   2.277 -0.2267 -0.1610  0.2539
11349TIP3    H133990   2.330   1.623   2.354 -0.7565 -0.2606 -0.0711
11349TIP3    H233991   2.436   1.527   2.306 -1.1359 -0.8509  0.2502
11350TIP3   OH233992   1.536   0.018   5.481  0.4761  0.5931 -0.0975
11350TIP3    H133993   1.530  -0.058   5.423 -2.4284  0.3689  0.3546
11350TIP3    H233994   1.501   0.091   5.430  0.5373  1.0083  0.4424
11351TIP3   OH233995   0.386   2.047   1.646  0.4286 -0.1867 -0.3376
11351TIP3    H133996   0.378   1.955   1.673 -1.7936 -0.1839 -0.7553
11351TIP3    H233997   0.357   2.097   1.722 -1.1195  0.0119 -1.0131
11352TIP3   OH233998   2.118   5.161   3.489  0.0526 -0.0311  0.0729
11352TIP3    H133999   2.124   5.071   3.458  1.0090 -0.2708  0.9034
11352TIP3    H234000   2.094   5.154   3.581  0.4129  0.5486  0.2173
11353TIP3   OH234001   6.629   2.042   6.552 -0.4111 -0.0054  0.3581
11353TIP3    H134002   6.701   2.041   6.489 -0.7102  1.4832 -0.0506
11353TIP3    H234003   6.661   1.990   6.626 -0.0041 -1.6776 -0.9276
11354TIP3   OH234004   5.011   7.287   5.092 -0.2148 -0.0155 -0.0381
11354TIP3    H134005   5.004   7.230   5.016  0.1752 -0.3322  0.1567
11354TIP3    H234006   5.016   7.375   5.055 -0.7772 -0.1054 -0.3432
11355TIP3   OH234007   5.804   0.298   2.861 -0.0879 -0.1212  0.2113
11355TIP3    H134008   5.882   0.333   2.904  1.7630 -1.3174 -1.9489
11355TIP3    H234009   5.731   0.329   2.915  1.8581  0.8243  2.4932
11356TIP3   OH234010   7.430   1.334   1.485  0.0047  0.2016 -0.5219
11356TIP3    H134011   7.456   1.246   1.514 -3.1283 -0.8336 -0.4346
11356TIP3    H234012   7.502   1.363   1.429  1.3393 -2.2469 -0.2483
11357TIP3   OH234013   6.596   5.109   3.575 -0.3805 -0.4602 -0.2042
11357TIP3    H134014   6.576   5.195   3.539 -1.3958  0.2437  1.8880
11357TIP3    H234015   6.544   5.048   3.523  1.4512 -0.0425 -2.6574
11358TIP3   OH234016   4.273   6.950   0.272 -0.0526 -0.0149 -0.5666
11358TIP3    H134017   4.211   6.998   0.327  0.9194  1.2072 -0.5021
11358TIP3    H234018   4.357   6.994   0.286  0.5623 -0.7794 -1.7044
11359TIP3   OH234019   5.963   1.094   2.524  0.1308 -0.1128  0.3351
11359TIP3    H134020   5.967   1.003   2.555 -2.6205 -0.2233  0.5508
11359TIP3    H234021   5.987   1.146   2.601  1.1293 -0.6139  0.3813
11360TIP3   OH234022   4.720   6.576   0.567 -0.2815  0.0476 -0.3028
11360TIP3    H134023   4.739   6.669   0.580  0.7109 -0.3155  1.0494
11360TIP3    H234024   4.806   6.534   0.568 -0.7371 -0.9153 -0.6764
11361TIP3   OH234025   1.814   3.136   0.760  0.7695  0.3225  0.3517
11361TIP3    H134026   1.876   3.181   0.703  1.3119  1.5316  1.8214
11361TIP3    H234027   1.833   3.043   0.747  1.0211  0.5607 -1.2313
11362TIP3   OH234028   5.144   6.255   5.712 -0.2762  0.4449 -0.5681
11362TIP3    H134029   5.165   6.198   5.787  0.4306  2.7097  1.0633
11362TIP3    H234030   5.191   6.216   5.639 -0.8737 -1.7875  0.1542
11363TIP3   OH234031   7.883   0.071   0.475  0.5934 -0.4980 -0.0312
11363TIP3    H134032   7.861  -0.001   0.534  0.0912  0.7798  1.4134
11363TIP3    H234033   7.973   0.095   0.499  0.7556 -0.6294 -0.4988
11364TIP3   OH234034   6.458   6.157   2.028  0.4037  0.3994 -0.4675
11364TIP3    H134035   6.420   6.239   2.061 -1.4027 -1.2664  1.9695
11364TIP3    H234036   6.552   6.176   2.019 -0.1609  3.1737 -1.7047
11365TIP3   OH234037   3.754   0.338   3.854  0.1010  0.0470  0.3822
11365TIP3    H134038   3.796   0.355   3.770  1.7876  0.1106  1.1930
11365TIP3    H234039   3.691   0.409   3.865  0.1679  0.2753 -0.6297
11366TIP3   OH234040   2.845   3.005   4.510 -0.3287 -0.5192  0.1877
11366TIP3    H134041   2.840   3.099   4.525 -1.6927 -0.7163  1.1101
11366TIP3    H234042   2.936   2.989   4.485 -0.1167  1.0499 -0.1071
11367TIP3   OH234043   6.453   2.011   0.647 -0.0582 -0.3143 -0.0308
11367TIP3    H134044   6.455   2.032   0.741 -1.8944  0.1085 -0.0437
11367TIP3    H234045   6.528   2.057   0.611 -0.1535  0.7407  1.0284
11368TIP3   OH234046   3.970   7.556   5.284  0.1488 -0.1911 -0.1183
11368TIP3    H134047   4.026   7.580   5.358  2.4511 -0.6588 -1.5951
11368TIP3    H234048   3.965   7.636   5.232  0.8371 -0.6033 -0.8259
11369TIP3   OH234049   5.390   4.774   4.795  0.3931 -0.1967 -0.1754
11369TIP3    H134050   5.441   4.700   4.827 -1.4950 -0.7782  1.6964
11369TIP3    H234051   5.434   4.851   4.829  0.2819 -0.6689  1.0773
11370TIP3   OH234052   3.407   7.193   2.446 -0.9268  0.4211  0.5331
11370TIP3    H134053   3.461   7.205   2.524  0.3317 -1.5299  0.0423
11370TIP3    H234054   3.422   7.271   2.393  0.1629  0.6335  1.1373
11371TIP3   OH234055   1.710   6.809   2.933 -0.3016 -0.2673 -0.8649
11371TIP3    H134056   1.692   6.720   2.964 -0.2064 -0.9900 -2.7863
11371TIP3    H234057   1.791   6.834   2.978 -0.2673 -1.1830 -0.3831
11372TIP3   OH234058   2.818   6.418   1.366 -0.6345  0.5890  0.2135
11372TIP3    H134059   2.871   6.487   1.407  0.3762 -1.1819  2.0747
11372TIP3    H234060   2.860   6.336   1.394 -2.8169 -0.8350 -0.4569
11373TIP3   OH234061   3.468   7.166   1.426 -0.3487 -0.0636  0.1991
11373TIP3    H134062   3.466   7.242   1.484 -0.5111  1.9008 -2.2231
11373TIP3    H234063   3.422   7.194   1.347  0.2987 -2.4136 -1.1227
11374TIP3   OH234064   4.342   6.191   4.299  0.0235  0.4977 -0.1847
11374TIP3    H134065   4.399   6.178   4.224 -1.7148 -2.3036 -1.1432
11374TIP3    H234066   4.380   6.137   4.368 -0.0444  0.6990  0.0137
11375TIP3   OH234067   6.044   3.624   3.423 -0.6971  0.0350 -0.3626
11375TIP3    H134068   6.007   3.648   3.338  1.2362  1.4319 -0.8698
11375TIP3    H234069   6.030   3.702   3.478  1.3947  0.6166 -0.5756
11376TIP3   OH234070   3.753   2.663   2.809 -0.0887 -0.4471 -0.4542
11376TIP3    H134071   3.820   2.620   2.756 -0.6613 -0.2527 -1.3515
11376TIP3    H234072   3.685   2.688   2.747 -1.6299 -1.8080  0.6002
11377TIP3   OH234073   6.197   5.736   2.758  0.2277 -0.0129  0.2395
11377TIP3    H134074   6.219   5.704   2.670 -3.3844 -1.1305 -0.4423
11377TIP3    H234075   6.163   5.824   2.743  1.8643  0.7735  0.9267
11378TIP3   OH234076   7.083   2.449   0.019  0.5706  0.2691 -0.3754
11378TIP3    H134077   7.046   2.372  -0.024  0.2359 -0.2430  0.7649
11378TIP3    H234078   7.046   2.446   0.108  0.5663  1.7365 -0.3023
11379TIP3   OH234079   4.293   6.524   0.623  0.5877  0.6258  0.7073
11379TIP3    H134080   4.340   6.465   0.682  1.7937 -1.0472 -1.7226
11379TIP3    H234081   4.347   6.603   0.620 -0.1553  1.2680  2.7114
11380TIP3   OH234082   1.717   3.235   3.081 -0.3058 -0.4961  0.6800
11380TIP3    H134083   1.694   3.146   3.053  0.0686 -0.3417 -0.1540
11380TIP3    H234084   1.813   3.233   3.090 -0.1619  0.1571 -0.5810
11381TIP3   OH234085   5.628   5.613   6.538  1.1568  0.1654  0.1535
11381TIP3    H134086   5.648   5.653   6.454 -0.2558  2.2822  0.7482
11381TIP3    H234087   5.612   5.687   6.597 -0.8005 -1.2589  1.5336
11382TIP3   OH234088   5.798   7.014   0.696 -0.3684  0.6735 -0.0236
11382TIP3    H134089   5.857   7.031   0.769 -1.5437  2.5885  0.5545
11382TIP3    H234090   5.734   6.953   0.731  0.9905 -1.1246 -0.5445
11383TIP3   OH234091   3.056   3.814   5.803  0.1634  0.1867  0.4906
11383TIP3    H134092   3.086   3.818   5.712 -0.5044  1.1174  0.2883
11383TIP3    H234093   3.133   3.786   5.852 -0.0942 -2.7457 -0.6071
11384TIP3   OH234094   4.408   4.370   5.944 -0.5513  0.0196  0.0459
11384TIP3    H134095   4.496   4.334   5.959 -0.2214  1.4749  2.0149
11384TIP3    H234096   4.420   4.436   5.876 -0.1920 -0.0677  0.0232
11385TIP3   OH234097   4.235   3.610   1.571  0.1962  0.7458  0.0752
11385TIP3    H134098   4.170   3.644   1.509  0.5296  0.0159 -0.6913
11385TIP3    H234099   4.271   3.533   1.528  3.6325  2.6752 -0.8236
11386TIP3   OH234100   7.301   0.356   4.879 -0.2796 -0.2551 -0.3069
11386TIP3    H134101   7.271   0.289   4.940 -3.4249 -0.0329 -1.4265
11386TIP3    H234102   7.340   0.423   4.935 -2.2247 -0.4656  1.4283
11387TIP3   OH234103   5.769   1.469   5.573  0.5009  0.6939  0.1881
11387TIP3    H134104   5.804   1.440   5.490  0.3654  2.2583 -0.4513
11387TIP3    H234105   5.818   1.420   5.639  0.2712 -0.9315 -0.7916
11388TIP3   OH234106   1.547   7.005   5.346  0.5203  0.2704  0.3159
11388TIP3    H134107   1.469   6.950   5.342 -0.0472  1.0830 -0.1097
11388TIP3    H234108   1.601   6.965   5.414 -0.2285 -0.3509  0.5634
11389TIP3   OH234109   2.609   0.955   4.208 -0.0323 -0.6766 -0.1716
11389TIP3    H134110   2.664   0.904   4.148 -0.8551 -1.8471  0.0268
11389TIP3    H234111   2.632   1.046   4.190  0.5700 -1.0484 -1.4487
11390TIP3   OH234112   2.163   3.360   0.066  0.1083  0.4162  0.3661
11390TIP3    H134113   2.182   3.318   0.150  1.5628 -1.5584 -0.8591
11390TIP3    H234114   2.152   3.287   0.005 -2.1418  1.7572 -0.9694
11391TIP3   OH234115   2.579   1.363   2.097 -0.3098 -0.0301  0.2229
11391TIP3    H134116   2.616   1.417   2.027  1.6673 -0.8001  0.6109
11391TIP3    H234117   2.518   1.304   2.052  1.8934 -1.4219 -1.1631
11392TIP3   OH234118   3.785   1.841   2.010 -0.2501  0.1332 -0.2908
11392TIP3    H134119   3.773   1.890   1.928  0.9231 -0.8037 -1.0726
11392TIP3    H234120   3.843   1.896   2.062 -0.6516  0.5381 -0.2636
11393TIP3   OH234121   7.667   3.802   2.797 -0.5406 -0.7202  0.4971
11393TIP3    H134122   7.656   3.840   2.709 -1.3098  0.0393  0.9032
11393TIP3    H234123   7.733   3.857   2.839 -2.1993  0.7298  1.3512
11394TIP3   OH234124   0.894   6.553   0.204  0.4503  0.0348  0.4488
11394TIP3    H134125   0.934   6.563   0.290  3.5256  0.7816 -0.9599
11394TIP3    H234126   0.887   6.458   0.192  1.0255 -0.0966  1.0845
11395TIP3   OH234127   5.137   3.183   2.470  0.0736  0.7979  0.6095
11395TIP3    H134128   5.218   3.185   2.419 -0.2329 -2.7550 -0.2524
11395TIP3    H234129   5.160   3.133   2.549 -1.4566 -1.3972 -0.2326
11396TIP3   OH234130   5.476   4.802   5.465 -0.4805 -0.0246  0.4537
11396TIP3    H134131   5.543   4.822   5.399  0.3260  0.3412  1.3514
11396TIP3    H234132   5.445   4.715   5.442 -2.5990  1.3087 -2.3483
11397TIP3   OH234133   7.237   4.612   4.199 -0.3099  0.3495  0.3168
11397TIP3    H134134   7.256   4.613   4.293  1.4554 -0.6316  0.0250
11397TIP3    H234135   7.266   4.525   4.170 -2.0329  0.1259 -0.9316
11398TIP3   OH234136   0.687   4.179   4.182  0.0234  0.1944 -0.4378
11398TIP3    H134137   0.731   4.118   4.242  1.5703  0.5376 -1.1565
11398TIP3    H234138   0.651   4.122   4.113 -1.9080 -0.2133  0.8516
11399TIP3   OH234139   1.799   0.552   2.401  0.0237 -0.3536  0.0065
11399TIP3    H134140   1.728   0.589   2.453 -0.3295 -1.9028  0.6591
11399TIP3    H234141   1.799   0.459   2.422  0.7462 -0.7976 -1.7422
11400TIP3   OH234142   1.278   5.144   1.285 -0.0487 -0.1404 -0.1038
11400TIP3    H134143   1.185   5.149   1.266  0.3653  2.1526 -1.9757
11400TIP3    H234144   1.288   5.188   1.370 -0.7116 -1.0511  0.4650
11401TIP3   OH234145   0.516   1.642   1.371  0.0507 -0.2901 -0.1914
11401TIP3    H134146   0.598   1.678   1.405  0.9384  0.1947 -2.5874
11401TIP3    H234147   0.457   1.717   1.365 -0.8388 -0.7271  2.0209
11402TIP3   OH234148   4.648   1.917   3.391  0.4305 -0.3141 -0.2336
11402TIP3    H134149   4.613   1.924   3.302 -0.3503 -2.6525 -0.1591
11402TIP3    H234150   4.673   1.825   3.400 -1.0562 -0.5280  2.4968
11403TIP3   OH234151   2.796   1.649   1.976  0.2105 -0.2089 -0.2630
11403TIP3    H134152   2.732   1.721   1.976  1.4174  0.9914  2.0536
11403TIP3    H234153   2.881   1.692   1.975  0.9739 -1.6178  0.4621
11404TIP3   OH234154   5.663   6.165   0.986  0.3523  0.0252  0.2288
11404TIP3    H134155   5.621   6.203   0.909  1.4512 -1.2678 -1.0694
11404TIP3    H234156   5.601   6.180   1.057  0.1348  2.9692 -0.4506
11405TIP3   OH234157   2.479   1.502   5.008  0.7168 -0.0111 -0.0145
11405TIP3    H134158   2.423   1.424   5.009 -1.2030  1.2842 -0.4620
11405TIP3    H234159   2.522   1.502   5.093 -0.2644 -0.8697  0.5106
11406TIP3   OH234160   0.999   7.357   0.905 -0.2406  0.0566  0.3775
11406TIP3    H134161   1.090   7.347   0.934  0.5192  1.7881 -1.2191
11406TIP3    H234162   0.974   7.270   0.873  1.4895 -0.0564 -0.8207
11407TIP3   OH234163   5.557   5.425   5.578  0.0017 -0.0341 -0.1680
11407TIP3    H134164   5.586   5.476   5.502 -2.7940 -1.9613 -2.7619
11407TIP3    H234165   5.514   5.490   5.634 -1.2743  0.9956 -2.1684
11408TIP3   OH234166   4.223   3.480   2.875  0.3584 -0.2132 -0.4888
11408TIP3    H134167   4.146   3.531   2.900 -2.0450 -3.6755 -0.0493
11408TIP3    H234168   4.235   3.418   2.947  2.0555 -1.3456 -1.6712
11409TIP3   OH234169   0.784   3.801   4.071  0.5640  0.3255  0.0192
11409TIP3    H134170   0.758   3.871   4.011  1.5168 -0.3509 -1.2213
11409TIP3    H234171   0.867   3.769   4.036  0.8390 -0.5048  1.3619
11410TIP3   OH234172   0.728   0.636   4.361  0.2334 -0.4615  0.3964
11410TIP3    H134173   0.813   0.657   4.399 -0.2341  2.0276  0.2269
11410TIP3    H234174   0.736   0.661   4.269 -1.1865  1.6570  0.7682
11411TIP3   OH234175   7.343   2.212   4.236  0.2150 -0.2719 -0.6427
11411TIP3    H134176   7.311   2.297   4.266  1.4114  0.3372 -1.0119
11411TIP3    H234177   7.362   2.164   4.316 -0.2528 -0.0988 -0.4280
11412TIP3   OH234178   5.499   0.550   4.556  0.1414 -0.2360 -0.3682
11412TIP3    H134179   5.422   0.583   4.511 -1.1627 -1.0347  1.1578
11412TIP3    H234180   5.550   0.628   4.579 -0.8162  0.4011 -0.3674
11413TIP3   OH234181  -0.007   2.810   2.769  0.0503  0.5183  0.1752
11413TIP3    H134182   0.053   2.742   2.736 -0.1286  0.6618 -0.4409
11413TIP3    H234183   0.038   2.892   2.751 -1.0960  0.7454 -1.9492
11414TIP3   OH234184   1.465   7.625   0.847  0.2082 -0.3262 -0.2204
11414TIP3    H134185   1.457   7.720   0.856  1.4924 -0.1588 -0.6214
11414TIP3    H234186   1.540   7.603   0.903 -0.5680 -1.2289  0.5031
11415TIP3   OH234187   0.509   2.482   3.339  0.1734 -0.2377  0.3376
11415TIP3    H134188   0.496   2.387   3.342 -1.7110 -0.1126 -1.5660
11415TIP3    H234189   0.428   2.519   3.376  0.4972  0.6244  0.2142
11416TIP3   OH234190   4.865   1.055   1.477 -0.3235 -0.5223 -0.0193
11416TIP3    H134191   4.896   1.081   1.564 -0.5341  0.4779 -0.2327
11416TIP3    H234192   4.772   1.038   1.489 -0.4215 -0.0629 -0.1128
11417TIP3   OH234193   3.479   4.416   4.718 -0.6138  0.1552  0.2808
11417TIP3    H134194   3.397   4.427   4.766  1.1191 -1.6357  4.1538
11417TIP3    H234195   3.475   4.326   4.685 -0.4757  0.3217 -0.2049
11418TIP3   OH234196   2.695   6.700   2.013  0.0895 -0.2508  0.1383
11418TIP3    H134197   2.699   6.605   2.013 -1.3749 -0.3340  0.5731
11418TIP3    H234198   2.700   6.725   2.105  0.7944  0.1301  0.0106
11419TIP3   OH234199   5.438   2.324   3.777 -0.6809  0.5657  0.0545
11419TIP3    H134200   5.507   2.388   3.758  1.6454 -2.2717 -2.0015
11419TIP3    H234201   5.411   2.291   3.692  0.1534 -2.9944  1.0037
11420TIP3   OH234202   6.803   6.546   1.949 -0.0074 -0.7034  0.1506
11420TIP3    H134203   6.714   6.563   1.979  0.2597  1.4253 -0.0920
11420TIP3    H234204   6.856   6.615   1.989  1.7837 -2.5491  1.1999
11421TIP3   OH234205   3.562   0.912   4.822 -0.0511 -0.5504  0.3675
11421TIP3    H134206   3.637   0.921   4.763  1.4931  0.8748  2.4085
11421TIP3    H234207   3.492   0.875   4.767  1.1921  0.9334 -2.4017
11422TIP3   OH234208   0.258   0.393   2.435 -0.0473  0.2265 -0.1085
11422TIP3    H134209   0.330   0.351   2.388  0.8289  1.5829 -0.0276
11422TIP3    H234210   0.275   0.376   2.527 -1.0320 -1.2875 -0.1827
11423TIP3   OH234211   3.134   4.764   6.426  0.8452  0.1649 -0.1917
11423TIP3    H134212   3.110   4.851   6.395 -0.9715 -0.3663 -0.3738
11423TIP3    H234213   3.121   4.767   6.520 -1.4400 -0.4962 -0.4152
11424TIP3   OH234214   7.669   3.964   3.994  0.3150  0.0907 -0.5069
11424TIP3    H134215   7.721   3.924   3.924 -0.2916 -0.5046 -0.6313
11424TIP3    H234216   7.649   3.891   4.053 -0.3200  0.3229 -0.4264
11425TIP3   OH234217   0.683   6.271   4.537  0.0605  0.0025 -0.4400
11425TIP3    H134218   0.723   6.357   4.546  0.3859 -0.3649  2.1362
11425TIP3    H234219   0.598   6.279   4.581 -0.3098 -0.7559 -0.9934
11426TIP3   OH234220   8.004   3.479   4.336  0.3573 -0.7026  0.2337
11426TIP3    H134221   8.020   3.573   4.329  2.8266 -1.1687 -3.6776
11426TIP3    H234222   7.908   3.472   4.341  0.0925  1.9684  0.6055
11427TIP3   OH234223   1.303   0.462   0.186 -0.2368 -0.0825 -0.0093
11427TIP3    H134224   1.337   0.447   0.274  1.6101  1.2786 -0.4315
11427TIP3    H234225   1.356   0.406   0.129 -1.8726 -1.4769 -0.2326
11428TIP3   OH234226   6.320   3.451   5.256  0.0126 -0.1037 -0.1891
11428TIP3    H134227   6.381   3.478   5.188 -2.2914  2.6845 -1.3568
11428TIP3    H234228   6.371   3.450   5.336  1.9166  0.5479 -1.3347
11429TIP3   OH234229   6.414   3.670   0.250 -0.2290 -0.0534  0.0354
11429TIP3    H134230   6.328   3.643   0.218 -0.5932  0.0109  0.9233
11429TIP3    H234231   6.474   3.650   0.178 -1.2127  1.5121 -1.2969
11430TIP3   OH234232   5.577   7.033   1.822 -0.2497 -0.0484  0.1018
11430TIP3    H134233   5.645   7.097   1.804  0.0680 -1.2293 -3.7719
11430TIP3    H234234   5.614   6.978   1.891  1.3044  1.2526  0.3818
11431TIP3   OH234235   4.899   3.417   2.478  0.3334  0.3952  0.2784
11431TIP3    H134236   4.952   3.338   2.481  0.8615  0.7625  1.8592
11431TIP3    H234237   4.932   3.471   2.551 -0.3014  1.8740 -0.4771
11432TIP3   OH234238   4.181   2.811   4.363  0.0359  0.6298  0.2443
11432TIP3    H134239   4.086   2.821   4.370  0.0350  0.7080  0.1238
11432TIP3    H234240   4.199   2.822   4.269 -0.3724 -3.6958 -0.5701
11433TIP3   OH234241   5.892   6.570   1.418  0.5609  0.3499  0.5814
11433TIP3    H134242   5.925   6.639   1.361 -0.3953  0.6867  0.4178
11433TIP3    H234243   5.832   6.614   1.478 -1.0645 -0.5051 -0.3546
11434TIP3   OH234244   7.859   2.838   2.710 -0.2342  0.7395 -0.0163
11434TIP3    H134245   7.790   2.815   2.772 -0.1027 -1.1016 -0.4873
11434TIP3    H234246   7.837   2.927   2.681 -2.2066  0.3246  0.0913
11435TIP3   OH234247   6.138   4.795   1.317  0.1230 -0.0116 -0.5008
11435TIP3    H134248   6.120   4.790   1.224  1.3549  0.8288 -0.8088
11435TIP3    H234249   6.070   4.741   1.358 -1.7634  1.3111 -1.7055
11436TIP3   OH234250   4.212   1.420   4.841 -0.4379  0.0575 -0.4873
11436TIP3    H134251   4.191   1.327   4.852 -1.4089  0.4855  1.8227
11436TIP3    H234252   4.177   1.462   4.920 -0.5238  2.4847 -1.7400
11437TIP3   OH234253   0.090   2.199   0.872 -0.0874  0.2818 -0.7005
11437TIP3    H134254   0.089   2.264   0.802  0.7516  2.5566  1.2713
11437TIP3    H234255  -0.002   2.183   0.891 -0.4532  3.5183  0.9316
11438TIP3   OH234256   6.866   7.793   5.044 -0.1201  0.0272  0.4357
11438TIP3    H134257   6.910   7.731   5.103 -0.8848 -2.2664 -1.2537
11438TIP3    H234258   6.897   7.768   4.957 -2.9850 -0.2127 -0.5959
11439TIP3   OH234259   4.478   4.579   5.776  0.3969  0.3708 -1.0943
11439TIP3    H134260   4.559   4.625   5.797  1.0186 -0.6598 -1.1655
11439TIP3    H234261   4.426   4.643   5.728  0.5159  1.5402  0.2657
11440TIP3   OH234262   4.445   0.465   5.239  0.3179 -0.6285 -0.5546
11440TIP3    H134263   4.474   0.480   5.329 -1.0976  0.2516 -0.2070
11440TIP3    H234264   4.359   0.423   5.248 -0.0944 -0.0136 -1.4672
11441TIP3   OH234265   6.230   1.129   1.755 -0.6268 -0.1780 -0.2789
11441TIP3    H134266   6.163   1.185   1.796 -0.7902  0.8363 -1.8445
11441TIP3    H234267   6.309   1.183   1.756  0.3271 -1.4997  1.8711
11442TIP3   OH234268   1.753   0.429   0.162  0.6841 -0.7554 -0.4849
11442TIP3    H134269   1.838   0.387   0.167  0.1327 -1.7513  3.2654
11442TIP3    H234270   1.691   0.356   0.151  0.1374 -0.3460 -0.1610
11443TIP3   OH234271   6.134   4.927   4.437 -0.3584 -0.5281  0.4628
11443TIP3    H134272   6.164   5.009   4.399 -1.1782 -0.9277 -1.1650
11443TIP3    H234273   6.175   4.859   4.383  0.0929 -1.1895  1.6121
11444TIP3   OH234274   4.807   7.294   1.412  0.3763  0.2468  0.3232
11444TIP3    H134275   4.714   7.291   1.393  0.4850 -1.8969 -0.2407
11444TIP3    H234276   4.842   7.213   1.372  2.3538  0.6789  1.0445
11445TIP3   OH234277   3.525   2.128   3.752  0.3900 -0.2641 -0.1000
11445TIP3    H134278   3.496   2.182   3.826 -0.9643 -1.1260  0.0263
11445TIP3    H234279   3.453   2.131   3.689  0.9625 -0.6366 -0.7879
11446TIP3   OH234280   1.446   0.856   5.167 -0.4740 -0.0847 -0.4084
11446TIP3    H134281   1.360   0.899   5.167 -0.6744 -0.4390  0.8278
11446TIP3    H234282   1.437   0.786   5.103 -0.5367  0.9261 -1.5502
11447TIP3   OH234283   7.433   5.018   2.177  0.0888 -0.6307  0.1642
11447TIP3    H134284   7.409   5.065   2.257  0.0209 -0.0862 -0.1688
11447TIP3    H234285   7.485   5.081   2.127  0.2960 -1.0347 -0.1312
11448TIP3   OH234286   6.660   0.438   0.286  0.4276 -0.2476  0.4781
11448TIP3    H134287   6.638   0.525   0.319  0.9388 -0.4245  1.3222
11448TIP3    H234288   6.611   0.429   0.204 -0.3963  0.4412  0.8943
11449TIP3   OH234289   4.373   4.482   2.738  0.4687  0.7891  0.1388
11449TIP3    H134290   4.468   4.488   2.727  0.5626  1.6643  1.1852
11449TIP3    H234291   4.347   4.408   2.684  1.5820  1.2805 -1.1458
11450TIP3   OH234292   5.732   5.436   0.159 -0.1341 -0.3198  0.2563
11450TIP3    H134293   5.676   5.502   0.117 -0.0583  0.8559  1.9130
11450TIP3    H234294   5.807   5.486   0.190  2.7401 -2.0498 -3.2008
11451TIP3   OH234295   1.759   7.372   0.674  0.5792  0.4302  0.2285
11451TIP3    H134296   1.752   7.411   0.587  0.5524 -0.9634 -0.4251
11451TIP3    H234297   1.818   7.298   0.663 -0.9259 -0.9573  0.9399
11452TIP3   OH234298   2.585   4.135   6.165  0.1969 -0.0632  0.2485
11452TIP3    H134299   2.645   4.134   6.090  1.2990 -0.2785  1.1014
11452TIP3    H234300   2.576   4.228   6.186  0.6672 -0.0542  0.4376
11453TIP3   OH234301   0.478   1.499   1.642  0.4610  0.1137 -0.1431
11453TIP3    H134302   0.459   1.524   1.551 -3.1698  0.8439  0.6692
11453TIP3    H234303   0.416   1.429   1.661  0.8205  0.2930  1.9197
11454TIP3   OH234304   7.517   1.229   4.424 -0.4080 -0.2274 -0.4148
11454TIP3    H134305   7.546   1.147   4.385 -0.6852 -0.2625 -0.5464
11454TIP3    H234306   7.535   1.218   4.518 -0.0504 -0.2703 -0.4851
11455TIP3   OH234307   3.629   0.636   4.554  0.1051 -0.1859 -0.3215
11455TIP3    H134308   3.572   0.573   4.598 -1.8183  0.8051 -1.2491
11455TIP3    H234309   3.643   0.600   4.467  0.5805 -0.2250 -0.2334
11456TIP3   OH234310   0.716   2.698   3.723  0.0504  0.4116  0.9401
11456TIP3    H134311   0.721   2.670   3.631 -0.3761  0.3018  0.9490
11456TIP3    H234312   0.628   2.673   3.751  1.2512 -2.7311  2.3822
11457TIP3   OH234313   2.511   6.843   6.411  0.2444 -0.2850  0.2880
11457TIP3    H134314   2.438   6.903   6.395 -1.7059 -2.6286 -0.1552
11457TIP3    H234315   2.585   6.882   6.365 -0.9795  1.6314 -0.1670
11458TIP3   OH234316   0.904   4.812   2.893 -0.1418  0.1203  0.0597
11458TIP3    H134317   0.819   4.846   2.864 -0.1172 -0.4539 -0.6980
11458TIP3    H234318   0.884   4.764   2.973 -0.6067 -0.3599 -0.3351
11459TIP3   OH234319   7.196   0.349   2.566  0.1647 -0.2458 -0.5488
11459TIP3    H134320   7.170   0.411   2.498  2.3521 -0.2427 -1.4771
11459TIP3    H234321   7.209   0.403   2.644 -1.4571 -0.1178 -0.3237
11460TIP3   OH234322   6.088   0.265   0.786  0.0131  0.2847  0.3875
11460TIP3    H134323   6.045   0.180   0.779  0.9162 -0.2555  1.1164
11460TIP3    H234324   6.117   0.285   0.697  0.8177 -0.7330  0.4023
11461TIP3   OH234325   4.316   7.321   6.376 -0.3752 -0.4443 -0.3405
11461TIP3    H134326   4.326   7.392   6.440  1.0671  0.1639 -1.2097
11461TIP3    H234327   4.267   7.254   6.424 -0.1941  0.3811  1.0840
11462TIP3   OH234328   1.764   7.129   4.669  0.0461  0.0652  0.0956
11462TIP3    H134329   1.736   7.068   4.737 -0.8196  0.2719 -0.0676
11462TIP3    H234330   1.683   7.166   4.635  0.3844 -0.8784 -1.8380
11463TIP3   OH234331   1.825   3.304   6.632  0.1849 -0.5784  0.0789
11463TIP3    H134332   1.791   3.238   6.693  0.0493 -0.1564  0.4654
11463TIP3    H234333   1.850   3.378   6.688 -1.2316  0.3671 -0.4938
11464TIP3   OH234334   1.241   7.511   3.417  0.3884 -0.2216  0.0270
11464TIP3    H134335   1.253   7.511   3.512 -1.1189  1.0927  0.2610
11464TIP3    H234336   1.325   7.541   3.382  0.3886  1.1137  1.0770
11465TIP3   OH234337   0.456   2.465   2.511  0.2700 -0.4867 -0.5006
11465TIP3    H134338   0.366   2.444   2.486  0.4786  0.0756 -1.8236
11465TIP3    H234339   0.480   2.397   2.574 -1.2298 -0.3621  0.2562
11466TIP3   OH234340   3.117   7.169   2.084  0.2801 -0.4242 -0.3582
11466TIP3    H134341   3.079   7.172   2.171  2.4250 -0.4453  0.6472
11466TIP3    H234342   3.179   7.096   2.087  2.4358  1.2478 -0.9488
11467TIP3   OH234343   5.969   1.974   2.842 -0.4623  0.4122  0.0998
11467TIP3    H134344   5.936   2.023   2.916  0.3549 -1.4560  1.8146
11467TIP3    H234345   6.042   2.027   2.808  0.0656  0.6560  1.5510
11468TIP3   OH234346   3.863   4.074   1.338  0.1373 -0.3838  0.1276
11468TIP3    H134347   3.941   4.031   1.302  2.1146  1.8591  1.4337
11468TIP3    H234348   3.818   4.006   1.388 -0.4276 -2.4934 -2.9428
11469TIP3   OH234349   2.987   6.643   4.495 -0.0708  0.7114 -0.2762
11469TIP3    H134350   3.030   6.580   4.437 -2.3655 -0.5787 -0.6866
11469TIP3    H234351   2.953   6.590   4.567 -0.1552  1.8321  0.5377
11470TIP3   OH234352   6.814   5.359   6.376  0.2636  0.0031 -0.2128
11470TIP3    H134353   6.829   5.347   6.283  1.5929  1.0894 -0.1743
11470TIP3    H234354   6.767   5.442   6.383 -2.0085 -1.2246 -0.0229
11471TIP3   OH234355   1.999   1.923   3.290 -0.4250  0.0172 -0.5794
11471TIP3    H134356   1.948   1.925   3.372  0.4977 -0.7222  0.0388
11471TIP3    H234357   1.940   1.880   3.228 -1.3036  0.9722 -0.4368
11472TIP3   OH234358   1.075   2.551   6.303 -0.0205 -0.5430 -0.2204
11472TIP3    H134359   1.008   2.517   6.363  0.6629 -1.3927  0.0849
11472TIP3    H234360   1.081   2.484   6.235  0.6612 -0.5885 -0.1265
11473TIP3   OH234361   2.581   3.074   0.836 -0.2876  1.1742 -0.7162
11473TIP3    H134362   2.671   3.086   0.805  0.2750  1.1646  0.8376
11473TIP3    H234363   2.542   3.161   0.829  0.3658  1.5509  0.1547
11474TIP3   OH234364   1.142   4.137   3.721  0.3717 -0.1548 -0.6851
11474TIP3    H134365   1.156   4.231   3.730 -0.1626 -0.2330  1.6116
11474TIP3    H234366   1.230   4.100   3.717  0.7680  0.2089  2.3207
11475TIP3   OH234367   0.345   2.685   5.273  0.3126 -0.5151 -0.0168
11475TIP3    H134368   0.373   2.717   5.359 -2.1150 -0.3410  0.7862
11475TIP3    H234369   0.386   2.745   5.211  0.7032  0.4479  1.1302
11476TIP3   OH234370   4.542   5.547   5.463  0.8476  0.3287  0.3981
11476TIP3    H134371   4.489   5.470   5.486  0.7856 -0.8414 -3.1451
11476TIP3    H234372   4.624   5.533   5.510  0.5733 -1.5721  0.4042
11477TIP3   OH234373   8.104   1.635   1.457  0.2035  0.2494 -0.5155
11477TIP3    H134374   8.122   1.635   1.363 -0.0148  1.2905 -0.5706
11477TIP3    H234375   8.101   1.543   1.481  1.2149 -0.0187 -1.3430
11478TIP3   OH234376   0.488   4.524   0.888 -0.1854 -0.1618  0.1772
11478TIP3    H134377   0.398   4.549   0.868 -0.2657  1.0251  1.8336
11478TIP3    H234378   0.541   4.589   0.842 -0.2187 -0.0752  0.2619
11479TIP3   OH234379   2.263   3.981   6.638  0.1516 -0.1316 -0.1415
11479TIP3    H134380   2.278   3.932   6.719 -0.6037 -0.1569 -0.0110
11479TIP3    H234381   2.330   3.949   6.578  0.4937 -0.3712  0.3598
11480TIP3   OH234382   2.871   5.268   4.650 -0.4212  0.3093 -0.1830
11480TIP3    H134383   2.942   5.301   4.595 -0.8935  0.5872 -0.6436
11480TIP3    H234384   2.850   5.182   4.615 -0.8372  0.5580 -0.5555
11481TIP3   OH234385   7.187   6.819   5.342  0.1456  0.2603  0.1601
11481TIP3    H134386   7.137   6.901   5.336 -0.8447 -0.3971 -1.0091
11481TIP3    H234387   7.124   6.756   5.378  0.4858 -0.2996 -0.2187
11482TIP3   OH234388   0.948   2.864   0.170  0.2286 -0.2450 -0.0915
11482TIP3    H134389   1.032   2.906   0.151 -0.2571  0.3130 -1.0251
11482TIP3    H234390   0.960   2.827   0.258  1.5472 -0.4381 -0.3266
11483TIP3   OH234391   4.779   4.835   6.275  0.1362  0.3241 -0.6142
11483TIP3    H134392   4.811   4.759   6.226  0.9502  0.7862 -0.8110
11483TIP3    H234393   4.687   4.844   6.248 -0.0727 -0.7895 -0.3258
11484TIP3   OH234394   4.269   4.614   2.958  0.6757 -0.0185 -0.0832
11484TIP3    H134395   4.308   4.579   2.878 -0.4863 -1.5568 -0.0100
11484TIP3    H234396   4.192   4.559   2.974 -0.9616  2.2447  0.3480
11485TIP3   OH234397   1.277   1.862   3.435  0.2209  0.1672  0.1146
11485TIP3    H134398   1.239   1.876   3.348 -0.1405 -0.4009  0.1740
11485TIP3    H234399   1.362   1.821   3.419  0.7915  1.3571 -0.0166
11486TIP3   OH234400   6.004   6.765   0.134  0.3389 -0.0066  0.6324
11486TIP3    H134401   5.911   6.746   0.121  0.4814 -0.4275  0.1575
11486TIP3    H234402   6.037   6.689   0.182  0.6556 -0.3787 -0.1594
11487TIP3   OH234403   6.839   3.060   0.451  0.2934  0.1620 -0.3370
11487TIP3    H134404   6.891   3.139   0.435 -0.1748  0.3535 -0.9437
11487TIP3    H234405   6.763   3.070   0.394 -2.0022  1.3756  2.6966
11488TIP3   OH234406   8.026   3.584   0.959  0.0889  0.3402 -0.8124
11488TIP3    H134407   7.951   3.640   0.977 -0.4590 -0.5446 -0.3031
11488TIP3    H234408   8.014   3.555   0.869 -1.1919 -1.3030 -0.1406
11489TIP3   OH234409   7.912   2.637   6.228 -0.0113  0.1355  0.1599
11489TIP3    H134410   7.893   2.592   6.146  0.6280 -0.1021  0.1323
11489TIP3    H234411   7.826   2.659   6.264 -0.5146 -3.3893  1.4626
11490TIP3   OH234412   5.094   4.385   2.594 -0.5288 -0.1939  0.6790
11490TIP3    H134413   5.037   4.450   2.552 -0.6288 -0.9174 -0.3458
11490TIP3    H234414   5.182   4.411   2.569 -0.3287  1.1143  2.5291
11491TIP3   OH234415   7.071   5.315   2.783 -0.0841 -0.0323 -0.3676
11491TIP3    H134416   7.152   5.327   2.833 -0.9198 -2.4176  1.8256
11491TIP3    H234417   7.003   5.356   2.838 -1.0692 -2.9561  0.7810
11492TIP3   OH234418   5.699   4.985   1.832 -0.5732  0.1082  0.3702
11492TIP3    H134419   5.717   4.911   1.889 -0.7497  0.4660  0.8964
11492TIP3    H234420   5.643   4.950   1.763 -1.5406 -0.0235  1.2002
11493TIP3   OH234421   7.093   6.712   0.058  0.4805  0.3400 -0.5264
11493TIP3    H134422   7.043   6.645   0.104  1.2269  0.0031 -0.1798
11493TIP3    H234423   7.041   6.733  -0.020 -0.8032  0.9077  0.4410
11494TIP3   OH234424   2.036   3.347   4.087  0.4016 -0.2447 -0.3673
11494TIP3    H134425   1.946   3.364   4.059  0.7917  1.8088 -0.5891
11494TIP3    H234426   2.063   3.429   4.129  2.0766 -0.9070 -0.0896
11495TIP3   OH234427   7.572   6.308   3.946 -0.1695 -0.0357 -0.2135
11495TIP3    H134428   7.645   6.339   3.893  0.1351  0.7029  0.6255
11495TIP3    H234429   7.580   6.354   4.029 -3.2683  2.4037 -1.0634
11496TIP3   OH234430   0.347   4.050   5.199  0.3882 -0.3410  0.4155
11496TIP3    H134431   0.400   4.027   5.123  0.3183 -1.5620  0.7076
11496TIP3    H234432   0.346   3.970   5.252  0.4970  0.5101  1.7356
11497TIP3   OH234433   4.309   3.410   1.146  0.2407 -0.5107  0.6236
11497TIP3    H134434   4.261   3.431   1.066 -1.5945  0.4633  1.9021
11497TIP3    H234435   4.398   3.441   1.130 -0.5148  1.3043 -0.4135
11498TIP3   OH234436   3.284   7.145   3.625  0.4166  1.3513 -0.1790
11498TIP3    H134437   3.350   7.124   3.559 -0.3814  1.6371 -1.0978
11498TIP3    H234438   3.273   7.063   3.674 -0.5840  0.4160 -1.8632
11499TIP3   OH234439   6.429   2.670   3.875 -0.7420 -0.6150 -0.1527
11499TIP3    H134440   6.354   2.682   3.817 -1.1893 -1.6465  0.1898
11499TIP3    H234441   6.407   2.593   3.927  0.2562 -0.5195  0.4359
11500TIP3   OH234442   2.346   3.710   3.524  0.3604  0.2826  0.6052
11500TIP3    H134443   2.422   3.669   3.565  0.3007  0.5312  0.9664
11500TIP3    H234444   2.285   3.724   3.596 -0.1899 -0.2750  0.2564
11501TIP3   OH234445   0.435   0.821   1.897 -0.0283 -0.1946  0.0151
11501TIP3    H134446   0.447   0.739   1.850 -0.1824 -0.2466  0.0657
11501TIP3    H234447   0.502   0.879   1.861 -0.7551  0.0642 -0.9500
11502TIP3   OH234448   6.329   3.846   3.501 -0.7787 -0.4834  0.1424
11502TIP3    H134449   6.235   3.849   3.514 -0.7657  0.0996  0.1484
11502TIP3    H234450   6.354   3.937   3.485  0.2471 -0.0097  3.5750
11503TIP3   OH234451   4.229   0.690   0.456  0.1208 -0.4573  0.4489
11503TIP3    H134452   4.205   0.710   0.546 -0.0165 -1.0359  0.5506
11503TIP3    H234453   4.201   0.599   0.444 -1.2978  0.0896 -0.6727
11504TIP3   OH234454   0.009   6.850   0.946 -0.0833 -0.2084  0.2190
11504TIP3    H134455  -0.012   6.864   0.853 -1.0613  0.6471  0.5473
11504TIP3    H234456   0.103   6.863   0.952 -0.1526  0.6850 -0.4916
11505TIP3   OH234457   2.465   1.579   5.669 -0.1475  0.3268 -0.1461
11505TIP3    H134458   2.376   1.566   5.701  0.1646  0.6201  0.8881
11505TIP3    H234459   2.506   1.492   5.676  0.6305  0.8258  2.6053
11506TIP3   OH234460   7.714   0.283   0.686 -0.2962  0.3105  0.2472
11506TIP3    H134461   7.658   0.235   0.625  2.0393 -0.6946 -1.2267
11506TIP3    H234462   7.664   0.285   0.768 -2.4260 -0.5603 -0.9438
11507TIP3   OH234463   7.484   5.731   3.997  0.0815 -0.2128 -0.5027
11507TIP3    H134464   7.493   5.729   4.093 -0.1738  1.1451 -0.4249
11507TIP3    H234465   7.558   5.679   3.965  0.2929 -0.5074  0.4291
11508TIP3   OH234466   1.308   0.558   0.619  0.6402 -0.1353 -0.2533
11508TIP3    H134467   1.234   0.499   0.606  0.1234  0.4334  0.0722
11508TIP3    H234468   1.351   0.562   0.533  0.1883 -0.3295 -0.4893
11509TIP3   OH234469   3.500   2.736   4.500 -0.7257  0.1757 -0.2304
11509TIP3    H134470   3.458   2.653   4.522 -0.3023 -0.0273 -0.1837
11509TIP3    H234471   3.434   2.802   4.519 -1.2342 -0.1853 -0.7133
11510TIP3   OH234472   3.121   5.570   4.788 -0.2222  0.1974  0.5963
11510TIP3    H134473   3.200   5.591   4.837 -1.7049  1.4088  2.6515
11510TIP3    H234474   3.106   5.646   4.733  1.4335 -1.1575 -1.8721
11511TIP3   OH234475   3.243   6.296   2.834 -0.0714  0.2280 -0.0590
11511TIP3    H134476   3.287   6.316   2.751  0.8087 -1.6211 -0.0938
11511TIP3    H234477   3.307   6.320   2.901  0.7481 -1.6970 -0.0835
11512TIP3   OH234478   5.577   6.957   5.448 -0.6246 -0.2332  0.2588
11512TIP3    H134479   5.568   7.029   5.511  0.3849 -0.0429  0.2010
11512TIP3    H234480   5.630   6.892   5.493  1.8486  0.7465 -1.0307
11513TIP3   OH234481   8.139   6.602   2.657 -0.3077 -0.0544 -0.4623
11513TIP3    H134482   8.187   6.523   2.630 -1.3066 -0.4605 -1.1153
11513TIP3    H234483   8.092   6.629   2.578 -0.8174  0.5781  0.0510
11514TIP3   OH234484   5.180   4.626   4.037 -1.0130  0.4061  0.3648
11514TIP3    H134485   5.209   4.688   3.970  1.0393 -1.1250 -0.2665
11514TIP3    H234486   5.229   4.650   4.115 -0.2645 -0.3265  0.1383
11515TIP3   OH234487   0.154   0.418   1.114  0.3447 -0.3608  0.0951
11515TIP3    H134488   0.209   0.460   1.048 -0.7278  1.0688  0.0582
11515TIP3    H234489   0.088   0.371   1.063 -1.0889  1.5538  0.0560
11516TIP3   OH234490   1.626   7.274   4.924  0.0888 -0.6152 -0.3779
11516TIP3    H134491   1.552   7.252   4.867 -2.3907  0.4343  2.1974
11516TIP3    H234492   1.636   7.197   4.981 -0.4901  0.0316  0.6426
11517TIP3   OH234493   6.549   5.970   5.813 -0.0751 -0.0441 -0.1870
11517TIP3    H134494   6.591   6.056   5.820 -0.0931 -0.0290 -0.2641
11517TIP3    H234495   6.488   5.968   5.887 -2.1816  1.1894 -1.7670
11518TIP3   OH234496   7.060   7.508   2.480  0.5650 -0.0437 -0.2346
11518TIP3    H134497   7.089   7.533   2.568  0.2969 -0.6552  0.0339
11518TIP3    H234498   7.124   7.443   2.451 -0.5648 -1.5274  0.4309
11519TIP3   OH234499   6.046   5.200   3.740  0.4285 -0.6061  0.0273
11519TIP3    H134500   6.013   5.255   3.811  0.9962 -0.3026  0.0673
11519TIP3    H234501   6.069   5.117   3.782  0.0609 -0.6926  0.0602
11520TIP3   OH234502   7.594   2.488   0.475 -0.3217 -0.2445 -0.7977
11520TIP3    H134503   7.508   2.531   0.469 -1.4687 -2.5387 -3.1053
11520TIP3    H234504   7.653   2.547   0.429 -0.0463  2.3451  2.4949
11521TIP3   OH234505   1.738   7.343   1.746 -0.3183 -0.5943  0.5831
11521TIP3    H134506   1.801   7.358   1.817 -0.2996 -3.1991  1.2015
11521TIP3    H234507   1.654   7.372   1.782  0.1882  1.4051  0.3192
11522TIP3   OH234508   3.279   0.283   6.364  0.3260 -0.1485 -0.5866
11522TIP3    H134509   3.361   0.265   6.411  1.1272  0.6400 -1.6037
11522TIP3    H234510   3.245   0.363   6.404  0.3215 -0.1936 -0.4998
11523TIP3   OH234511   3.587   2.012   5.814  0.2591  0.0511  0.0122
11523TIP3    H134512   3.519   2.073   5.787 -1.2449 -1.6779 -0.2670
11523TIP3    H234513   3.593   2.022   5.909 -0.4030  0.2170  0.0379
11524TIP3   OH234514   8.233   4.517   1.297 -0.1265 -0.0979  0.4596
11524TIP3    H134515   8.216   4.496   1.389 -1.2754  0.3483  0.3624
11524TIP3    H234516   8.271   4.605   1.298 -1.1474  0.3638  0.4596
11525TIP3   OH234517   3.511   6.361   1.940 -0.1883  0.1361  0.4209
11525TIP3    H134518   3.492   6.337   1.849  0.6809  0.2953  0.1887
11525TIP3    H234519   3.535   6.454   1.935 -1.7951  0.6293  1.0600
11526TIP3   OH234520   7.479   6.073   4.793 -0.4982 -0.3499  0.2212
11526TIP3    H134521   7.511   6.130   4.723  2.9958 -0.7154  1.3628
11526TIP3    H234522   7.508   6.115   4.874  1.1271 -2.9966  1.1461
11527TIP3   OH234523   7.400   7.574   0.116  0.1473 -0.1357 -0.4515
11527TIP3    H134524   7.317   7.610   0.085 -0.3125 -0.5779  0.2178
11527TIP3    H234525   7.466   7.635   0.085 -0.3965  0.0611 -1.2649
11528TIP3   OH234526   7.189   5.233   2.431 -0.4103  0.4442  0.5143
11528TIP3    H134527   7.271   5.261   2.390  0.6181 -1.6927  0.9796
11528TIP3    H234528   7.125   5.238   2.360  0.6445 -0.0428 -0.5228
11529TIP3   OH234529   6.695   3.468   0.248  0.0186  0.2895  0.4384
11529TIP3    H134530   6.639   3.425   0.183  2.0051 -0.2514 -1.0074
11529TIP3    H234531   6.643   3.467   0.329 -3.4660  2.8339 -1.4511
11530TIP3   OH234532   5.804   3.673   4.071 -0.1799 -1.0194 -0.4302
11530TIP3    H134533   5.817   3.717   4.155 -0.7488  1.1400 -1.4108
11530TIP3    H234534   5.890   3.638   4.048  0.4094 -0.0111  0.1741
11531TIP3   OH234535   0.246   0.603   3.949  0.3677  0.5951  0.8516
11531TIP3    H134536   0.305   0.558   3.888 -0.1057  0.2198  0.6572
11531TIP3    H234537   0.206   0.532   3.999 -0.7903  0.7439  0.1724
11532TIP3   OH234538   4.625   3.565   1.416 -0.2170  0.0174 -0.1532
11532TIP3    H134539   4.658   3.612   1.492 -1.3322  0.6723 -0.0614
11532TIP3    H234540   4.545   3.522   1.447 -0.6459  0.2347 -0.9384
11533TIP3   OH234541   5.013   0.549   5.108  0.3960 -0.3209 -0.4566
11533TIP3    H134542   5.054   0.467   5.078 -1.0420 -0.6339 -1.6960
11533TIP3    H234543   4.919   0.532   5.101  0.0531  1.8387 -1.9312
11534TIP3   OH234544   4.793   2.851   5.607  0.3820  0.4795  0.5276
11534TIP3    H134545   4.803   2.885   5.696  0.4557 -1.9668  1.5426
11534TIP3    H234546   4.859   2.899   5.555  1.4422  0.8311  2.1358
11535TIP3   OH234547   3.451   0.208   2.801  0.0521  0.1257 -0.1331
11535TIP3    H134548   3.441   0.168   2.888  1.3130 -2.0138 -0.9129
11535TIP3    H234549   3.532   0.260   2.808  1.5007 -1.9365 -0.6102
11536TIP3   OH234550   0.599   7.327   4.186  0.0852 -0.3776 -0.6327
11536TIP3    H134551   0.570   7.300   4.099 -0.4669 -0.8588 -0.3065
11536TIP3    H234552   0.654   7.254   4.216 -0.7108 -0.7650 -0.0958
11537TIP3   OH234553   3.447   1.350   3.836 -0.3385  0.4007  0.2023
11537TIP3    H134554   3.394   1.408   3.890  1.3090  0.1154  2.2473
11537TIP3    H234555   3.488   1.408   3.771 -2.1652  0.7781 -0.6814
11538TIP3   OH234556   1.335   5.153   4.325  0.0568 -0.0808  0.1007
11538TIP3    H134557   1.278   5.147   4.402  1.2489  0.1000  1.0171
11538TIP3    H234558   1.334   5.064   4.289 -1.3629  0.0786 -0.3389
11539TIP3   OH234559   6.843   5.109   0.446  0.0544 -0.3350 -0.2151
11539TIP3    H134560   6.926   5.062   0.435 -0.2427 -0.8559 -0.2993
11539TIP3    H234561   6.784   5.069   0.381 -0.5773 -0.7484  0.5858
11540TIP3   OH234562   4.357   0.949   5.954  0.2035 -0.0378  0.3868
11540TIP3    H134563   4.425   0.997   5.907 -0.9689  0.2019 -1.1373
11540TIP3    H234564   4.283   0.947   5.894 -1.8420  1.3355  2.6735
11541TIP3   OH234565   6.440   7.056   0.375 -0.3833 -0.2009 -0.1099
11541TIP3    H134566   6.495   7.024   0.446  0.0293  1.2431  0.2575
11541TIP3    H234567   6.365   6.997   0.373 -0.4358 -0.2326  1.5747
11542TIP3   OH234568   2.492   1.502   3.779  0.6211  0.3214  0.2953
11542TIP3    H134569   2.461   1.573   3.835 -1.6542 -0.3451 -0.0061
11542TIP3    H234570   2.427   1.433   3.789 -0.2711  0.3632 -3.4936
11543TIP3   OH234571   4.879   1.642   4.686 -0.5757  0.2313  0.3805
11543TIP3    H134572   4.822   1.659   4.761  0.8787  1.1572  1.3370
11543TIP3    H234573   4.961   1.611   4.725 -0.2800 -0.7050 -0.9283
11544TIP3   OH234574   1.036   0.293   3.347 -0.3956  0.6063 -0.0054
11544TIP3    H134575   0.985   0.344   3.410  0.5730  1.9895 -0.2945
11544TIP3    H234576   0.981   0.287   3.269  0.0161  2.5156 -0.4953
11545TIP3   OH234577   1.201   6.412   3.394  0.6690 -0.2203  0.0017
11545TIP3    H134578   1.269   6.461   3.346  0.1049  1.0070  0.4115
11545TIP3    H234579   1.169   6.348   3.330  1.8408 -0.4599 -0.3660
11546TIP3   OH234580   3.180   7.182   5.515  0.0341 -0.4360 -0.3092
11546TIP3    H134581   3.237   7.251   5.481 -0.0213  0.9376  2.1769
11546TIP3    H234582   3.119   7.227   5.573 -1.6775 -2.2808 -0.5724
11547TIP3   OH234583   5.577   2.884   0.413 -0.2258 -0.0440  0.0269
11547TIP3    H134584   5.521   2.808   0.427  0.7140 -0.6983  0.2805
11547TIP3    H234585   5.633   2.889   0.490 -1.4554  1.9897  0.8865
11548TIP3   OH234586   3.707   0.490   1.338 -0.1146  0.6485 -0.2864
11548TIP3    H134587   3.707   0.479   1.243  1.0400 -0.4374 -0.1755
11548TIP3    H234588   3.795   0.524   1.358 -0.1702  0.3691  0.4480
11549TIP3   OH234589   1.188   7.802   3.137  0.5545  0.4955 -0.1331
11549TIP3    H134590   1.183   7.793   3.042 -0.1685 -1.8313  0.0727
11549TIP3    H234591   1.100   7.828   3.164  0.6110  0.5993 -0.0432
11550TIP3   OH234592   1.360   7.618   1.689 -0.1951 -0.7364  0.1254
11550TIP3    H134593   1.390   7.665   1.612  0.1957 -1.7609 -0.3690
11550TIP3    H234594   1.268   7.598   1.671 -0.1077 -0.9633 -0.0761
11551TIP3   OH234595   5.066   6.432   2.058 -0.0804  0.4063  0.3393
11551TIP3    H134596   5.065   6.431   1.963  1.9578  1.6023  0.2663
11551TIP3    H234597   5.008   6.504   2.082 -0.4821  0.1957  0.0207
11552TIP3   OH234598   5.607   6.136   1.557  0.4883 -0.2613 -0.2095
11552TIP3    H134599   5.694   6.104   1.582 -0.3153 -2.4065  0.0071
11552TIP3    H234600   5.575   6.182   1.634  1.2093  0.1086 -0.1168
11553TIP3   OH234601   6.263   6.264   1.784 -0.2870 -0.1107  0.6568
11553TIP3    H134602   6.325   6.334   1.807  0.7850 -0.7050 -0.2957
11553TIP3    H234603   6.299   6.186   1.827 -0.7340 -0.3399  0.6149
11554TIP3   OH234604   2.963   5.476   0.825 -0.2020 -0.0146  0.4191
11554TIP3    H134605   2.968   5.394   0.875  0.6797  0.9981  2.1068
11554TIP3    H234606   2.887   5.522   0.861  1.6037  1.6266  2.4173
11555TIP3   OH234607   7.384   2.193   1.245 -0.0857  0.3720  0.3697
11555TIP3    H134608   7.411   2.282   1.265 -0.4912  0.3502  1.0245
11555TIP3    H234609   7.438   2.168   1.169 -0.9250  1.6383 -0.6808
11556TIP3   OH234610   5.829   7.528   5.773 -0.3397 -0.5359  0.1173
11556TIP3    H134611   5.905   7.536   5.831 -0.1471 -1.1903 -0.0365
11556TIP3    H234612   5.849   7.586   5.699 -0.4396  0.0521  0.5379
11557TIP3   OH234613   0.346   2.823   4.597  0.1907  0.5248  0.2595
11557TIP3    H134614   0.414   2.879   4.634  0.5898 -1.1804  2.3098
11557TIP3    H234615   0.378   2.800   4.510  1.0611  1.6812  0.2637
11558TIP3   OH234616   4.415   2.995   3.755 -0.4278  0.1571 -0.5096
11558TIP3    H134617   4.453   2.913   3.785 -0.7584 -0.2618 -1.2332
11558TIP3    H234618   4.375   2.975   3.671 -2.5415  0.5036  0.3566
11559TIP3   OH234619   2.534   1.025   0.927 -1.0531  0.5786 -0.5987
11559TIP3    H134620   2.613   1.034   0.875  0.0592 -0.4304  0.8173
11559TIP3    H234621   2.539   1.096   0.991 -2.1423  1.4990 -1.5024
11560TIP3   OH234622   7.575   2.254   4.664  0.2353 -0.0766 -0.3813
11560TIP3    H134623   7.665   2.232   4.639  1.0502  1.5027  0.9427
11560TIP3    H234624   7.536   2.171   4.689  1.9297 -0.5693  0.7935
11561TIP3   OH234625   5.245   7.194   2.231 -0.4148  0.1655 -0.4886
11561TIP3    H134626   5.238   7.283   2.197  0.3004 -0.7898 -3.4394
11561TIP3    H234627   5.157   7.157   2.221 -0.3995  0.1315 -0.4991
11562TIP3   OH234628   0.331   4.420   1.470  0.2686 -0.6009 -0.3609
11562TIP3    H134629   0.364   4.332   1.451 -0.4281 -0.6615 -1.3620
11562TIP3    H234630   0.372   4.475   1.404 -1.8742 -0.7442 -1.8936
11563TIP3   OH234631   3.906   7.122   3.583 -0.2896 -0.1034 -0.0064
11563TIP3    H134632   3.861   7.180   3.645 -2.3117  1.5108 -2.7409
11563TIP3    H234633   3.864   7.037   3.594  0.1699 -0.1526  1.5572
11564TIP3   OH234634   1.579   7.677   0.505  0.0268 -0.2540  0.1199
11564TIP3    H134635   1.624   7.636   0.431  0.1015 -0.9631  0.5451
11564TIP3    H234636   1.526   7.607   0.543 -1.7388  0.6458 -0.5776
11565TIP3   OH234637   6.036   1.219   1.152  0.3830  0.3403 -0.0279
11565TIP3    H134638   6.089   1.289   1.113  1.6913 -0.6267 -0.0566
11565TIP3    H234639   6.068   1.212   1.242 -0.6960  0.6812  0.3988
11566TIP3   OH234640   7.113   2.363   3.222 -0.5377  0.6052  0.3553
11566TIP3    H134641   7.136   2.278   3.186 -3.2747  0.0154 -0.2571
11566TIP3    H234642   7.031   2.348   3.269 -0.3248  2.6324  1.5045
11567TIP3   OH234643   2.150   6.122   4.752  0.2116  0.1588 -0.5125
11567TIP3    H134644   2.168   6.147   4.842  1.0904 -1.2030 -0.2796
11567TIP3    H234645   2.072   6.067   4.757  0.0691  0.3430 -0.6436
11568TIP3   OH234646   1.859   6.511   0.772 -0.0833  0.5472  0.6126
11568TIP3    H134647   1.776   6.467   0.759  0.1045  0.2937  0.2658
11568TIP3    H234648   1.912   6.486   0.696 -0.0314  1.4985  0.3242
11569TIP3   OH234649   3.779   6.554   2.619 -0.1246  0.4039  0.2379
11569TIP3    H134650   3.696   6.601   2.620 -1.0956 -1.2084  0.9857
11569TIP3    H234651   3.782   6.511   2.534  0.0176  0.5789  0.1540
11570TIP3   OH234652   2.291   3.221   0.328 -0.2681  0.2322 -0.8683
11570TIP3    H134653   2.358   3.188   0.268  0.6995  0.2160  0.1931
11570TIP3    H234654   2.226   3.151   0.332  0.4417 -0.4261 -0.6927
11571TIP3   OH234655   7.686   4.764   3.790 -0.4062  0.0130  0.1732
11571TIP3    H134656   7.650   4.719   3.867  0.8882 -0.6157  0.4294
11571TIP3    H234657   7.617   4.756   3.725 -0.9324 -0.7678  0.7963
11572TIP3   OH234658   6.762   4.766   4.689  0.0828 -0.4621  0.3488
11572TIP3    H134659   6.767   4.805   4.602  1.6130 -0.3329  0.4773
11572TIP3    H234660   6.822   4.817   4.742  1.0992 -2.1118  0.8566
11573TIP3   OH234661   3.421   7.043   0.789 -0.2263 -0.2271 -0.2565
11573TIP3    H134662   3.445   7.087   0.871  1.0823  0.2550 -0.8700
11573TIP3    H234663   3.457   7.098   0.721  0.2090 -1.5177 -1.1067
11574TIP3   OH234664   3.859   5.971   4.303  0.0692  0.2849  0.1831
11574TIP3    H134665   3.910   5.967   4.384 -2.7928  1.7098  2.2295
11574TIP3    H234666   3.885   6.054   4.263  0.3667  0.3182  0.4353
11575TIP3   OH234667   2.875   6.911   1.598  0.3728  0.1640  0.0191
11575TIP3    H134668   2.811   6.848   1.565  0.2529  0.5912 -0.5835
11575TIP3    H234669   2.835   6.947   1.677  0.1974 -0.1102  0.0569
11576TIP3   OH234670   2.619   3.847   1.966  0.0516 -0.0642  0.0923
11576TIP3    H134671   2.609   3.757   1.935  1.7793  0.0792 -1.0359
11576TIP3    H234672   2.672   3.889   1.899  0.5736  1.3811  1.3643
11577TIP3   OH234673   6.763   6.854   5.239 -0.2065  0.3263 -0.1086
11577TIP3    H134674   6.741   6.801   5.315  1.6831 -0.0424  0.2273
11577TIP3    H234675   6.801   6.792   5.177  1.3093  1.1251 -0.0174
11578TIP3   OH234676   7.476   5.525   6.039  0.4453 -0.1078  0.0720
11578TIP3    H134677   7.536   5.506   6.111  1.7224  0.5499 -0.7854
11578TIP3    H234678   7.432   5.606   6.066  1.2654  0.4008 -0.0731
11579TIP3   OH234679   3.281   6.577   1.043  1.0042 -0.4029 -0.2947
11579TIP3    H134680   3.264   6.599   0.951 -0.9391 -0.2371  0.0492
11579TIP3    H234681   3.194   6.578   1.084  1.9261  0.9167  1.8454
11580TIP3   OH234682   5.695   2.916   5.670 -0.2012 -0.6145  0.0015
11580TIP3    H134683   5.622   2.915   5.733 -0.3705  0.5659 -0.1404
11580TIP3    H234684   5.702   3.008   5.644  2.2773 -0.4241  1.0729
11581TIP3   OH234685   3.332   6.518   6.323  0.6328  0.0788  0.9813
11581TIP3    H134686   3.391   6.453   6.360  0.4041 -1.4335 -1.1186
11581TIP3    H234687   3.271   6.538   6.394  0.5396 -2.2498  1.6376
11582TIP3   OH234688   3.669   6.958   0.265 -0.0219  0.5232 -0.4621
11582TIP3    H134689   3.653   6.865   0.250  1.8726  0.0885 -0.0440
11582TIP3    H234690   3.698   6.991   0.180  0.8677  0.3473 -0.2379
11583TIP3   OH234691   6.971   6.076   5.841  0.1537 -0.1471 -0.0680
11583TIP3    H134692   7.053   6.045   5.878 -0.0494  0.1271  0.6286
11583TIP3    H234693   6.986   6.170   5.826  0.8183 -0.5397 -2.2977
11584TIP3   OH234694   4.747   4.471   1.460 -0.1206  0.0168  0.4918
11584TIP3    H134695   4.784   4.532   1.397 -0.6442  0.8721  0.9880
11584TIP3    H234696   4.690   4.525   1.515 -2.1562 -1.2439 -0.2766
11585TIP3   OH234697   5.982   6.203   0.635 -0.2225  0.0689  0.0474
11585TIP3    H134698   5.945   6.265   0.573 -0.4388 -0.0937  0.0137
11585TIP3    H234699   6.077   6.215   0.626 -0.2664  1.3158  0.9853
11586TIP3   OH234700   4.466   6.729   0.248  0.4853  0.1113 -0.0097
11586TIP3    H134701   4.415   6.721   0.167 -0.0824 -1.9521  0.4783
11586TIP3    H234702   4.408   6.776   0.308  1.4631  2.9785 -1.1481
11587TIP3   OH234703   3.770   0.345   5.526 -0.1300 -0.2194  0.5192
11587TIP3    H134704   3.789   0.394   5.606  0.4038 -1.4766  1.2066
11587TIP3    H234705   3.688   0.382   5.493  0.9188  1.9756  0.2560
11588TIP3   OH234706   8.282   1.846   5.841  0.4449  0.2650 -0.1627
11588TIP3    H134707   8.218   1.801   5.896  0.4484 -0.5185 -0.7802
11588TIP3    H234708   8.325   1.908   5.900  1.6790 -1.7454  1.1961
11589TIP3   OH234709   6.245   5.217   6.313  0.1800  0.3625  0.2526
11589TIP3    H134710   6.188   5.294   6.318  0.1974  0.4456 -0.7409
11589TIP3    H234711   6.198   5.157   6.255  1.3321  0.6220 -0.9711
11590TIP3   OH234712   3.619   2.204   0.897  0.1479 -0.3352  0.9906
11590TIP3    H134713   3.699   2.153   0.907  1.6001  1.2482 -1.3612
11590TIP3    H234714   3.648   2.295   0.912 -1.1200  0.2963 -0.2497
11591TIP3   OH234715   4.536   2.140   2.660 -0.7118  0.0915  0.4910
11591TIP3    H134716   4.533   2.044   2.657 -1.9181  0.1069  0.6107
11591TIP3    H234717   4.456   2.165   2.707 -0.6581  1.1710  0.0411
11592TIP3   OH234718   8.273   7.104   3.665 -0.3578 -0.6059  0.4932
11592TIP3    H134719   8.322   7.172   3.617 -0.2858 -0.1463  1.2150
11592TIP3    H234720   8.272   7.030   3.604 -1.4699  0.4098 -0.8116
11593TIP3   OH234721   0.638   0.557   1.545 -0.6103  0.3490 -0.2670
11593TIP3    H134722   0.620   0.646   1.516  0.9733  1.5142  2.0006
11593TIP3    H234723   0.577   0.542   1.616  0.2478  0.3076  0.4790
11594TIP3   OH234724   2.315   3.772   5.065 -0.3101 -0.4832 -0.1247
11594TIP3    H134725   2.386   3.821   5.023  0.8691 -0.6448  1.5535
11594TIP3    H234726   2.245   3.837   5.078  0.3355  0.1986  0.0245
11595TIP3   OH234727   7.843   1.564   0.226  0.2665  0.4126 -0.1686
11595TIP3    H134728   7.822   1.609   0.308  2.4766  0.9354  0.2018
11595TIP3    H234729   7.863   1.474   0.253 -0.8467  0.0784 -0.4250
11596TIP3   OH234730   2.228   4.700   2.803 -0.3662 -0.5360  0.2777
11596TIP3    H134731   2.306   4.649   2.781 -0.4708 -0.9054  0.7458
11596TIP3    H234732   2.223   4.698   2.898 -0.4890  0.1901  0.2941
11597TIP3   OH234733   6.830   3.647   4.421 -0.4088  0.0190 -0.8558
11597TIP3    H134734   6.790   3.562   4.402 -1.3291  0.5692 -1.5037
11597TIP3    H234735   6.852   3.683   4.335 -1.3949  1.0561 -0.6980
11598TIP3   OH234736   1.624   4.340   0.220  0.0363 -0.3151 -0.0179
11598TIP3    H134737   1.718   4.322   0.217  0.4055  1.1760  1.3507
11598TIP3    H234738   1.615   4.423   0.172 -0.7944 -1.1122 -1.2934
11599TIP3   OH234739   1.926   1.619   2.015  0.0039  0.7060 -0.5206
11599TIP3    H134740   1.881   1.627   1.931  0.2720  2.8221 -0.5100
11599TIP3    H234741   1.904   1.531   2.046  0.0564 -0.1906 -2.8662
11600TIP3   OH234742   3.728   7.118   5.090 -0.1777 -0.2569  0.3736
11600TIP3    H134743   3.801   7.057   5.090 -1.0128 -1.2894  0.2424
11600TIP3    H234744   3.651   7.064   5.074 -0.7006  1.1545 -2.8527
11601TIP3   OH234745   2.577   5.634   5.734 -0.3106  0.5403 -0.0846
11601TIP3    H134746   2.547   5.554   5.692 -0.6335  0.8209 -0.4052
11601TIP3    H234747   2.587   5.696   5.662 -1.4481  1.2074  0.2894
11602TIP3   OH234748   1.575   6.804   0.462 -0.2204 -0.0125  0.3039
11602TIP3    H134749   1.570   6.736   0.394 -1.3278  0.7722 -0.4316
11602TIP3    H234750   1.540   6.761   0.540  0.9602 -0.8937  0.3688
11603TIP3   OH234751   6.171   5.371   1.747 -0.1135  0.3397 -0.1204
11603TIP3    H134752   6.200   5.292   1.792  0.9926  0.2656 -0.9267
11603TIP3    H234753   6.220   5.372   1.665 -0.6035  1.5162 -0.4282
11604TIP3   OH234754   7.552   4.323   1.134 -0.2628  0.2600 -0.1773
11604TIP3    H134755   7.531   4.403   1.086 -1.7221 -0.3550 -0.6589
11604TIP3    H234756   7.503   4.255   1.087  0.5114 -0.8174  0.5400
11605TIP3   OH234757   0.705   6.982   2.768 -0.3756  0.0722  0.2649
11605TIP3    H134758   0.738   6.897   2.796 -1.7317 -0.9213 -1.0352
11605TIP3    H234759   0.774   7.015   2.710 -1.7529 -2.3239 -3.0352
11606TIP3   OH234760   0.453   3.911   2.621 -0.1178 -0.4839 -0.5496
11606TIP3    H134761   0.359   3.899   2.607 -0.4767  0.5481  0.7740
11606TIP3    H234762   0.470   4.002   2.594  0.0913 -0.0329  1.0102
11607TIP3   OH234763   0.721   4.272   4.517  0.2839 -0.4276  0.1668
11607TIP3    H134764   0.799   4.320   4.545 -0.6115  0.0416  1.9764
11607TIP3    H234765   0.648   4.328   4.541 -0.6867 -1.5717 -0.0237
11608TIP3   OH234766   2.450   5.844   4.857 -0.7201  0.1415 -0.5040
11608TIP3    H134767   2.446   5.829   4.763 -2.7006  0.5343 -0.5280
11608TIP3    H234768   2.538   5.815   4.882 -0.7840 -1.7381 -2.1546
11609TIP3   OH234769   6.752   7.147   2.924  0.2211  0.2184  0.2176
11609TIP3    H134770   6.677   7.188   2.879  1.2701  0.4361 -1.4035
11609TIP3    H234771   6.829   7.181   2.878  1.4062  0.7272  2.4436
11610TIP3   OH234772   2.978   0.939   0.843  0.4403  0.2126  0.2123
11610TIP3    H134773   2.978   0.965   0.935  0.1522  0.8334  0.0398
11610TIP3    H234774   3.043   0.869   0.838 -1.5662 -1.8611  1.4291
11611TIP3   OH234775   1.658   5.615   0.164  0.3320  0.2232  0.3987
11611TIP3    H134776   1.602   5.598   0.240 -0.2695  0.7845  0.0887
11611TIP3    H234777   1.693   5.529   0.140 -0.8455 -0.2305  0.2468
11612TIP3   OH234778   5.018   7.001   2.156 -0.0992 -0.8245  0.4687
11612TIP3    H134779   5.039   7.037   2.070 -1.4268 -0.8009  0.1221
11612TIP3    H234780   5.070   6.921   2.163  1.1536 -0.0355  0.2885
11613TIP3   OH234781   1.198   1.847   1.715 -0.6393 -0.3083 -0.9500
11613TIP3    H134782   1.185   1.942   1.704 -0.8509 -0.1193  0.6516
11613TIP3    H234783   1.110   1.811   1.708 -0.5144 -0.4490 -1.9366
11614TIP3   OH234784   4.428   7.740   3.181  0.1097  0.9080 -0.3591
11614TIP3    H134785   4.485   7.816   3.165 -0.1580  1.3165  0.5553
11614TIP3    H234786   4.339   7.776   3.178 -0.0443  0.5147 -0.5060
11615TIP3   OH234787   5.731   3.903   4.899  0.5316 -0.0047  0.1343
11615TIP3    H134788   5.720   3.900   4.994  1.2912  0.3673  0.2414
11615TIP3    H234789   5.723   3.995   4.877  0.7786 -0.0410 -0.1110
11616TIP3   OH234790   7.226   0.913   6.024 -0.7332 -0.0579 -0.0937
11616TIP3    H134791   7.194   0.850   6.087  0.3143  0.0339  0.5531
11616TIP3    H234792   7.312   0.939   6.057 -1.0958  1.6386 -0.3874
11617TIP3   OH234793   7.930   3.726   4.408 -0.1310  0.2809  0.1810
11617TIP3    H134794   7.969   3.809   4.436 -0.3945  0.4455  0.0620
11617TIP3    H234795   7.856   3.713   4.467  1.3559 -1.1163  1.8308
11618TIP3   OH234796   0.816   5.546   2.410  0.6165  0.3938 -0.1989
11618TIP3    H134797   0.733   5.555   2.365  0.6063 -0.2472 -0.3051
11618TIP3    H234798   0.881   5.540   2.340  0.4926 -1.7789 -0.1812
11619TIP3   OH234799   7.793   5.227   1.610 -0.5915  0.3172  0.2478
11619TIP3    H134800   7.843   5.146   1.599  0.6962  0.9908  0.9133
11619TIP3    H234801   7.847   5.281   1.668 -0.9445  2.0655 -0.9901
11620TIP3   OH234802   0.616   4.144   4.917  0.1705 -0.7575 -0.6823
11620TIP3    H134803   0.693   4.150   4.860 -1.0637  0.1374 -2.3693
11620TIP3    H234804   0.651   4.125   5.004  2.4820  1.6767 -0.9574
11621TIP3   OH234805   3.534   7.437   6.430  0.6047 -0.4073  0.0270
11621TIP3    H134806   3.536   7.403   6.341 -0.8069 -0.2531 -0.0883
11621TIP3    H234807   3.461   7.499   6.431 -0.0807 -1.1596  1.5350
11622TIP3   OH234808   3.584   0.666   0.690  0.1896 -0.1300 -0.0469
11622TIP3    H134809   3.633   0.583   0.687 -1.4613 -1.1787  0.6880
11622TIP3    H234810   3.624   0.714   0.763  0.2104 -0.9299  0.4833
11623TIP3   OH234811   3.687   2.124   5.609 -0.3279 -0.0751  0.7204
11623TIP3    H134812   3.767   2.080   5.580  1.1137  1.8712  1.5694
11623TIP3    H234813   3.643   2.060   5.666 -0.7359 -2.1164 -1.6842
11624TIP3   OH234814   3.154   2.631   2.951  0.5250 -0.8709  0.0463
11624TIP3    H134815   3.161   2.554   2.894 -2.0324 -1.8458  0.8623
11624TIP3    H234816   3.065   2.625   2.987  0.6567  1.8865  1.0318
11625TIP3   OH234817   0.337   6.754   3.811  0.6025 -0.2522 -0.2870
11625TIP3    H134818   0.406   6.793   3.757  1.0775  0.0856  0.5598
11625TIP3    H234819   0.281   6.708   3.748  0.6846  0.8184 -1.1648
11626TIP3   OH234820   3.829   3.180   0.834  1.0979  0.1507 -0.0741
11626TIP3    H134821   3.843   3.246   0.766 -2.6719 -0.0697 -1.2624
11626TIP3    H234822   3.767   3.220   0.895 -1.7011 -2.2483 -1.0891
11627TIP3   OH234823   7.602   6.584   1.488 -0.2599  0.0806  0.6131
11627TIP3    H134824   7.511   6.607   1.509 -0.2763 -1.0457  1.9745
11627TIP3    H234825   7.648   6.593   1.572  0.5796 -0.7041  0.2502
11628TIP3   OH234826   1.866   6.881   3.966  0.0390 -0.5054  0.4316
11628TIP3    H134827   1.882   6.953   4.027  0.4170 -1.2018  1.1744
11628TIP3    H234828   1.953   6.855   3.937 -0.1941  1.2429 -2.1687
11629TIP3   OH234829   1.361   3.528   3.694 -0.0835 -0.3008 -0.2936
11629TIP3    H134830   1.414   3.450   3.681  0.6636 -0.0292  0.8743
11629TIP3    H234831   1.305   3.534   3.617 -0.0944 -1.9317 -0.4366
11630TIP3   OH234832   5.461   3.121   0.488  0.1618  0.2491 -0.1557
11630TIP3    H134833   5.497   3.037   0.460 -1.8618 -0.6849 -0.1648
11630TIP3    H234834   5.502   3.186   0.431  0.8592 -0.8779 -0.9576
11631TIP3   OH234835   7.686   6.920   1.604 -0.6755 -0.3348  0.1214
11631TIP3    H134836   7.715   7.010   1.587 -0.5286 -0.4729 -0.3750
11631TIP3    H234837   7.716   6.871   1.527 -1.0983 -0.7302  0.2090
11632TIP3   OH234838   4.494   3.118   5.383  0.1933  0.6539  0.3969
11632TIP3    H134839   4.489   3.024   5.400 -0.6994  0.7946  1.0158
11632TIP3    H234840   4.521   3.124   5.292 -1.3116 -0.2393 -0.1482
11633TIP3   OH234841   0.228   2.631   5.631 -0.3004 -0.4023  0.0814
11633TIP3    H134842   0.176   2.550   5.626  0.3767 -0.8789  0.5912
11633TIP3    H234843   0.218   2.661   5.721  1.9096 -1.6223  0.8148
11634TIP3   OH234844   7.698   2.590   5.904  0.3128  0.0218  0.2230
11634TIP3    H134845   7.737   2.648   5.839  1.4701  0.2502  1.0958
11634TIP3    H234846   7.604   2.611   5.902  0.3346  0.1137 -1.2520
11635TIP3   OH234847   4.800   3.420   6.263 -0.2584 -0.2185  0.2202
11635TIP3    H134848   4.880   3.427   6.315 -1.3543 -1.3058  2.1647
11635TIP3    H234849   4.792   3.505   6.219  0.4977  0.9556  2.2110
11636TIP3   OH234850   1.760   2.736   5.796 -0.4897  0.0536 -0.1711
11636TIP3    H134851   1.733   2.687   5.719  0.3430 -0.2024 -0.3142
11636TIP3    H234852   1.854   2.716   5.805  0.2667  2.7524 -1.0947
11637TIP3   OH234853   6.869   7.284   4.448  0.1639  0.5979 -0.7818
11637TIP3    H134854   6.854   7.238   4.366 -0.9127  1.0892 -0.8686
11637TIP3    H234855   6.789   7.333   4.464 -1.2989 -2.4569  2.5477
11638TIP3   OH234856   2.146   4.449   2.325  0.1331  0.1660  0.1904
11638TIP3    H134857   2.123   4.367   2.282 -0.3005 -0.2229  1.1596
11638TIP3    H234858   2.178   4.424   2.411  2.2741  0.8418 -0.3415
11639TIP3   OH234859   7.408   6.386   1.060  0.0185 -0.0772  0.0015
11639TIP3    H134860   7.428   6.466   1.012 -0.0662 -1.3983 -2.3717
11639TIP3    H234861   7.491   6.360   1.099  0.3502  0.4414 -0.3461
11640TIP3   OH234862   2.284   7.787   5.997 -0.3229 -0.2335 -0.2310
11640TIP3    H134863   2.346   7.834   5.941  0.1260 -0.4932  0.0389
11640TIP3    H234864   2.199   7.827   5.979 -0.3107 -0.8139 -1.6555
11641TIP3   OH234865   3.044   3.096   5.070  0.5790  0.2282 -0.3014
11641TIP3    H134866   3.053   3.080   4.976 -1.2889 -2.6478 -0.1137
11641TIP3    H234867   2.962   3.054   5.094  2.2114 -1.4971  3.0764
11642TIP3   OH234868   2.760   6.049   6.143 -0.0736  0.6183  0.0519
11642TIP3    H134869   2.705   6.012   6.074 -0.5593  0.1781  0.6633
11642TIP3    H234870   2.827   5.982   6.159 -0.4193  0.3753  0.5311
11643TIP3   OH234871   1.512   7.280   0.759  0.3292 -0.2517  0.3442
11643TIP3    H134872   1.600   7.274   0.722  0.3996 -2.2781  0.7051
11643TIP3    H234873   1.523   7.331   0.840  1.4354 -1.5049  1.0262
11644TIP3   OH234874   6.118   2.776   5.023  0.4626  0.0409 -0.4007
11644TIP3    H134875   6.063   2.761   5.100  0.1229  1.0118 -0.4453
11644TIP3    H234876   6.115   2.871   5.008 -0.5163 -0.2302 -2.3548
11645TIP3   OH234877   2.405   2.320   2.781 -0.0818 -0.4066 -0.1497
11645TIP3    H134878   2.348   2.303   2.857 -0.4357 -0.6088 -0.4605
11645TIP3    H234879   2.349   2.366   2.719  0.5021  0.7142  0.1330
11646TIP3   OH234880   7.389   5.808   6.174 -0.0155  0.1220  0.1856
11646TIP3    H134881   7.358   5.892   6.208 -1.6373 -0.4167  0.1162
11646TIP3    H234882   7.353   5.804   6.085  2.8536  0.8163 -1.1277
11647TIP3   OH234883   8.296   0.552   6.565 -0.3096  0.1604  0.1429
11647TIP3    H134884   8.326   0.606   6.492 -0.0950 -0.5112 -0.2811
11647TIP3    H234885   8.201   0.565   6.567 -0.5629 -1.0429 -1.3254
11648TIP3   OH234886   2.862   0.351   5.026  0.4762 -0.3391  0.3392
11648TIP3    H134887   2.948   0.313   5.044  0.8078  0.6761  0.9923
11648TIP3    H234888   2.817   0.285   4.973  0.5174 -2.2503  2.5505
11649TIP3   OH234889   0.724   1.053   0.875 -0.4013 -0.1425 -0.7219
11649TIP3    H134890   0.787   1.058   0.947 -1.6714  2.6590  0.3729
11649TIP3    H234891   0.669   0.978   0.896 -1.1870  1.0069  1.7474
11650TIP3   OH234892   3.551   0.215   1.179  0.0685  0.4622  0.1264
11650TIP3    H134893   3.515   0.153   1.242 -1.2135  1.0225 -0.0250
11650TIP3    H234894   3.488   0.287   1.177  0.1544  0.5316 -1.7020
11651TIP3   OH234895   6.152   0.692   4.611 -0.4926 -0.0474 -0.3832
11651TIP3    H134896   6.111   0.640   4.541  2.0099 -1.8466 -0.6405
11651TIP3    H234897   6.201   0.760   4.564 -1.5799  0.9155 -0.1644
11652TIP3   OH234898   4.356   5.448   3.500 -0.2083  0.1139 -0.4183
11652TIP3    H134899   4.277   5.455   3.447 -0.0007 -2.0869 -1.1320
11652TIP3    H234900   4.368   5.535   3.537 -3.1907  0.4379  0.0539
11653TIP3   OH234901   7.812   4.481   5.301  0.0495  0.4257  0.2663
11653TIP3    H134902   7.750   4.541   5.345  0.0190  0.3988  0.2598
11653TIP3    H234903   7.897   4.506   5.336 -0.2468 -1.6716  2.8200
11654TIP3   OH234904   5.128   2.402   5.832  0.8726 -0.0666 -0.1438
11654TIP3    H134905   5.069   2.349   5.778 -0.8976  0.8915  0.7532
11654TIP3    H234906   5.153   2.344   5.903 -1.0124  0.1929  0.8045
11655TIP3   OH234907   0.807   5.882   0.816 -0.0708 -0.1595  0.1402
11655TIP3    H134908   0.803   5.790   0.790  1.0265 -0.0130 -0.6341
11655TIP3    H234909   0.886   5.888   0.870  0.6984  0.5851 -1.0149
11656TIP3   OH234910   0.428   2.770   5.532  0.7462 -0.2349 -0.0247
11656TIP3    H134911   0.363   2.706   5.561 -0.6667  0.8999 -0.5698
11656TIP3    H234912   0.454   2.816   5.612 -0.5018  0.5167 -0.0305
11657TIP3   OH234913   6.191   1.839   0.165 -0.6007 -0.1296  0.5602
11657TIP3    H134914   6.135   1.830   0.242  0.0352  0.2910  1.0848
11657TIP3    H234915   6.135   1.878   0.099 -0.7517  0.9247  1.2839
11658TIP3   OH234916   2.992   5.408   1.826 -0.0742 -0.0407 -0.6449
11658TIP3    H134917   2.912   5.388   1.777 -1.7872  3.2119  0.4987
11658TIP3    H234918   3.011   5.499   1.803  1.4972  0.2342  1.5077
11659TIP3   OH234919   4.932   6.903   4.654  0.7352  0.6352  0.4326
11659TIP3    H134920   4.885   6.981   4.683 -1.0159 -0.5706  0.9632
11659TIP3    H234921   4.991   6.882   4.727  1.3850  1.5691  0.1924
11660TIP3   OH234922   6.096   7.188   1.847  0.2193 -0.0565  0.2474
11660TIP3    H134923   6.107   7.280   1.869  1.1245 -0.4804  1.7164
11660TIP3    H234924   6.134   7.180   1.760  0.5166  0.8904  0.2747
11661TIP3   OH234925   0.512   4.490   4.609 -0.1375  0.1035 -0.2885
11661TIP3    H134926   0.518   4.522   4.519  0.9690  2.4909  0.5771
11661TIP3    H234927   0.474   4.562   4.658 -2.1144 -1.6745  0.9770
11662TIP3   OH234928   1.169   7.441   4.072  0.5478  0.5149  0.4161
11662TIP3    H134929   1.156   7.488   3.990  0.1919  0.1706  0.2668
11662TIP3    H234930   1.106   7.480   4.132 -1.7000 -1.4934 -0.4508
11663TIP3   OH234931   0.531   5.924   4.537 -0.0626  0.2587 -0.4540
11663TIP3    H134932   0.542   5.966   4.622  2.3477 -1.8645  0.4155
11663TIP3    H234933   0.447   5.880   4.543 -1.0181  2.0246 -0.1178
11664TIP3   OH234934   1.317   4.340   4.571  0.1933 -0.3819  0.0611
11664TIP3    H134935   1.345   4.412   4.628  0.9411  0.2990 -1.1212
11664TIP3    H234936   1.393   4.323   4.515 -0.3782 -1.3149 -0.4555
11665TIP3   OH234937   4.422   6.694   3.778  0.1809  0.1432  0.4772
11665TIP3    H134938   4.474   6.754   3.726  0.7146 -0.5972  0.1381
11665TIP3    H234939   4.345   6.745   3.804 -0.0081  0.5782 -0.8698
11666TIP3   OH234940   5.165   4.922   2.196 -0.0469 -0.4021 -0.0857
11666TIP3    H134941   5.080   4.938   2.155  0.9106  1.3961 -1.4985
11666TIP3    H234942   5.151   4.941   2.289 -1.1681 -0.0553 -0.3145
11667TIP3   OH234943   7.604   7.523   1.313  0.1625  0.0884  0.0535
11667TIP3    H134944   7.509   7.513   1.318  0.3034 -0.8568  1.6779
11667TIP3    H234945   7.630   7.473   1.236 -0.6036 -0.0752 -0.1075
11668TIP3   OH234946   5.897   3.329   1.116  0.5540 -0.4754 -0.9064
11668TIP3    H134947   5.807   3.332   1.149  0.3395 -1.3314 -1.3736
11668TIP3    H234948   5.946   3.387   1.175 -0.1962 -0.4230 -0.3119
11669TIP3   OH234949   1.569   1.534   4.764 -0.0019 -0.2619 -0.1410
11669TIP3    H134950   1.647   1.480   4.772  0.3519  0.0464 -1.4347
11669TIP3    H234951   1.532   1.512   4.679 -0.3048  0.9284 -0.3357
11670TIP3   OH234952   4.749   3.753   2.080  0.6777 -0.0996 -0.0264
11670TIP3    H134953   4.769   3.680   2.021 -1.5315 -2.2595  1.6859
11670TIP3    H234954   4.668   3.790   2.045  0.8711  0.4400  0.0874
11671TIP3   OH234955   6.218   1.268   5.979 -0.3859  0.4073  0.5836
11671TIP3    H134956   6.169   1.350   5.975  0.7826  1.1175  0.1316
11671TIP3    H234957   6.288   1.286   6.043  1.1778  0.5310 -1.0772
11672TIP3   OH234958   4.989   4.719   0.507  0.0020  0.0636 -0.3965
11672TIP3    H134959   5.033   4.674   0.435  1.5204 -0.0487  0.5613
11672TIP3    H234960   4.897   4.720   0.481  0.4535 -0.2640 -2.1748
11673TIP3   OH234961   5.856   5.218   2.965 -0.5234  0.0238 -0.2441
11673TIP3    H134962   5.819   5.306   2.973 -0.6784 -0.0866  0.3733
11673TIP3    H234963   5.935   5.229   2.912  1.2469  1.1096  2.4100
11674TIP3   OH234964   2.069   4.159   6.562  0.7084  0.0004  0.1420
11674TIP3    H134965   2.029   4.165   6.649  0.9290 -0.2894  0.2643
11674TIP3    H234966   2.141   4.097   6.572  1.5950  0.9907  0.0665
11675TIP3   OH234967   5.758   6.399   2.563 -0.1535  0.2332 -0.2382
11675TIP3    H134968   5.704   6.456   2.617 -0.8235 -0.2731 -0.3729
11675TIP3    H234969   5.714   6.397   2.478  0.6139  0.6102 -0.6566
11676TIP3   OH234970   7.330   6.417   3.271  0.1451  0.4254  0.1186
11676TIP3    H134971   7.265   6.347   3.267  0.3090  0.3137 -0.8660
11676TIP3    H234972   7.310   6.464   3.352 -0.0985 -0.6279  0.6874
11677TIP3   OH234973   6.104   7.286   5.952  0.1045  0.2011  0.3133
11677TIP3    H134974   6.138   7.252   5.869 -2.4640  0.0301 -0.7706
11677TIP3    H234975   6.141   7.228   6.018  0.5371 -1.0114 -0.9317
11678TIP3   OH234976   1.900   7.185   0.295 -0.0057  0.3540  0.3280
11678TIP3    H134977   1.885   7.138   0.377  0.1239 -0.5009 -0.1277
11678TIP3    H234978   1.828   7.160   0.238 -1.0548  2.2725  0.7156
11679TIP3   OH234979   7.092   1.401   6.172 -0.0872  0.7049  0.0072
11679TIP3    H134980   7.068   1.491   6.152 -1.0446  0.7856  1.4022
11679TIP3    H234981   7.011   1.351   6.159 -0.1409  0.4113  1.3272
11680TIP3   OH234982   5.051   6.201   1.663 -0.6623 -0.1226 -0.4422
11680TIP3    H134983   4.975   6.144   1.648 -0.8156 -0.2551  0.7551
11680TIP3    H234984   5.085   6.219   1.576 -0.5824 -2.0861 -0.8601
11681TIP3   OH234985   6.202   1.289   0.769 -0.1536  0.0837  0.2486
11681TIP3    H134986   6.127   1.341   0.797 -0.3824 -0.0933 -0.0392
11681TIP3    H234987   6.278   1.340   0.796 -0.3771  0.8010 -0.4579
11682TIP3   OH234988   3.661   5.376   4.495  0.0188 -0.1544  0.3263
11682TIP3    H134989   3.611   5.295   4.483  0.0044 -0.1648  0.4572
11682TIP3    H234990   3.742   5.349   4.538 -0.0838 -0.0695  0.5727
11683TIP3   OH234991   2.675   3.118   4.050 -0.6637  0.0938  0.4812
11683TIP3    H134992   2.671   3.024   4.035 -2.7191  0.0219  1.2314
11683TIP3    H234993   2.649   3.157   3.967  1.6741  0.1081 -0.3259
11684TIP3   OH234994   4.482   6.928   2.459  0.0908 -0.6218  0.6569
11684TIP3    H134995   4.495   7.014   2.418  1.3506 -0.2992  1.6742
11684TIP3    H234996   4.406   6.940   2.517  0.7337  0.0521  1.3836
11685TIP3   OH234997   0.229   2.113   4.632 -0.1461 -0.4455 -0.4667
11685TIP3    H134998   0.206   2.046   4.697 -0.1588 -1.2135 -1.2312
11685TIP3    H234999   0.154   2.172   4.631 -0.3913 -0.7486 -0.1835
11686TIP3   OH235000   4.264   5.081   4.659  0.5333  0.2440 -0.1494
11686TIP3    H135001   4.341   5.025   4.649 -0.0143 -0.3266 -1.3852
11686TIP3    H235002   4.195   5.022   4.690 -1.1126 -0.8384 -4.9364
11687TIP3   OH235003   5.951   3.261   2.498  0.0141  0.2179  0.4614
11687TIP3    H135004   5.923   3.179   2.458 -2.0364  0.6279  0.9552
11687TIP3    H235005   5.884   3.280   2.564  0.9425  1.8269  1.0002
11688TIP3   OH235006   0.964   4.957   6.362 -0.3084 -0.5227  0.0845
11688TIP3    H135007   0.987   5.019   6.430  0.9218  0.6449 -1.3412
11688TIP3    H235008   0.935   5.011   6.289  0.4478 -1.6239 -1.0671
11689TIP3   OH235009   2.605   5.287   6.007  0.5111 -0.4661 -0.3721
11689TIP3    H135010   2.592   5.309   6.099  1.4523 -0.1359 -0.3020
11689TIP3    H235011   2.698   5.262   6.002  1.5854  3.2693 -1.9283
11690TIP3   OH235012   4.272   1.175   6.712 -0.1999  0.9093 -0.2373
11690TIP3    H135013   4.246   1.223   6.633 -0.1724 -0.6466 -1.2444
11690TIP3    H235014   4.367   1.189   6.718  0.3717 -1.3376 -2.2743
11691TIP3   OH235015   3.643   4.193   2.585  0.5050  0.3555  0.2094
11691TIP3    H135016   3.651   4.098   2.577 -1.6677  0.2102 -1.0818
11691TIP3    H235017   3.629   4.223   2.495 -3.7882  1.2344  0.9315
11692TIP3   OH235018   1.097   1.973   1.227 -0.2011 -0.7321  0.0289
11692TIP3    H135019   1.174   1.921   1.206  1.9941  2.1224  0.4636
11692TIP3    H235020   1.056   1.991   1.142  0.7595 -0.6128 -0.4189
11693TIP3   OH235021   0.932   6.594   1.817  0.3232  0.2313 -0.2149
11693TIP3    H135022   0.839   6.614   1.807 -0.0007 -1.2553 -0.4954
11693TIP3    H235023   0.933   6.502   1.846  1.6534  0.6542  1.2256
11694TIP3   OH235024   4.681   0.600   2.298  0.4999  0.2483  0.1311
11694TIP3    H135025   4.718   0.525   2.252 -2.0915 -2.0156  1.4318
11694TIP3    H235026   4.619   0.638   2.236  0.0814 -0.1834  0.2804
11695TIP3   OH235027   3.903   4.831   6.459 -0.9258  0.1115 -0.5691
11695TIP3    H135028   3.852   4.750   6.459  1.7976 -1.7192 -1.2004
11695TIP3    H235029   3.891   4.867   6.371 -1.1537 -0.2556 -0.6907
11696TIP3   OH235030   2.764   4.534   3.204  0.0727 -0.0976 -0.7626
11696TIP3    H135031   2.847   4.502   3.170  0.4109  0.1288 -0.1571
11696TIP3    H235032   2.757   4.497   3.292 -0.8453 -0.7626 -1.0910
11697TIP3   OH235033   2.270   2.269   3.853 -0.3799  0.3766 -0.0996
11697TIP3    H135034   2.287   2.226   3.937  1.0261 -0.6758 -0.8764
11697TIP3    H235035   2.336   2.339   3.848  0.5576 -0.5263 -0.9446
11698TIP3   OH235036   4.775   0.388   0.070  0.3684  1.0329 -0.5073
11698TIP3    H135037   4.713   0.461   0.066 -0.4820  0.2763 -3.2716
11698TIP3    H235038   4.761   0.350   0.157 -2.4110  1.4883 -0.6401
11699TIP3   OH235039   0.740   5.704   3.111 -0.3227  0.1563  0.3838
11699TIP3    H135040   0.707   5.770   3.051 -1.1578  0.4437  1.1252
11699TIP3    H235041   0.721   5.621   3.068  0.2054  0.3745 -0.2889
11700TIP3   OH235042   5.966   1.125   1.646 -0.2834  0.3594  0.1120
11700TIP3    H135043   6.059   1.103   1.650 -0.7706 -2.1827 -0.2795
11700TIP3    H235044   5.935   1.085   1.565 -1.4643  2.4416 -0.5360
11701TIP3   OH235045   1.578   0.452   4.070 -0.0846  0.2370 -0.2001
11701TIP3    H135046   1.586   0.356   4.075  0.2892  0.2866  0.2172
11701TIP3    H235047   1.542   0.468   3.983  0.7008 -0.2393 -0.6227
11702TIP3   OH235048   4.865   6.023   6.250 -0.0691 -0.4255 -0.2628
11702TIP3    H135049   4.949   6.064   6.230  0.1341 -1.0962 -0.8216
11702TIP3    H235050   4.852   6.039   6.343  0.3279  0.3153 -0.3257
11703TIP3   OH235051   7.344   3.010   6.314  0.0389 -0.9806  0.0456
11703TIP3    H135052   7.373   2.930   6.269  0.5107 -0.6048 -0.3190
11703TIP3    H235053   7.384   3.081   6.265 -1.1404 -0.4723 -0.1919
11704TIP3   OH235054   7.869   2.554   5.305 -0.2578  0.4302 -0.2621
11704TIP3    H135055   7.930   2.529   5.375  0.8400  2.3069 -0.4506
11704TIP3    H235056   7.880   2.487   5.238 -1.0448 -1.1906  1.1623
11705TIP3   OH235057   7.177   1.437   3.246  0.3697 -0.1353 -0.3841
11705TIP3    H135058   7.097   1.425   3.194  1.1395 -2.1338 -1.2226
11705TIP3    H235059   7.148   1.484   3.324 -1.2032  1.1289 -1.6551
11706TIP3   OH235060   3.404   0.556   1.901  0.6770 -0.0750  0.0417
11706TIP3    H135061   3.375   0.606   1.825  0.1137  0.2018  0.4365
11706TIP3    H235062   3.445   0.477   1.863 -0.2866 -0.3170 -0.5324
11707TIP3   OH235063   5.897   0.983   4.036  0.0048  0.3477  0.1660
11707TIP3    H135064   5.977   0.995   3.986 -1.0504  0.8221 -1.4958
11707TIP3    H235065   5.839   1.053   4.005 -0.5282  1.0219  2.4744
11708TIP3   OH235066   3.920   2.819   4.261 -0.6460  0.2031 -0.2646
11708TIP3    H135067   3.824   2.825   4.265 -0.6095  0.7144 -0.0931
11708TIP3    H235068   3.940   2.823   4.167 -0.6837  1.9759 -0.2131
11709TIP3   OH235069   1.690   7.301   5.193 -0.4727 -0.5160 -0.3079
11709TIP3    H135070   1.634   7.304   5.115 -1.7373 -0.2120  0.5827
11709TIP3    H235071   1.765   7.248   5.166 -1.0810 -0.7771 -1.5947
11710TIP3   OH235072   5.339   1.646   0.918 -0.4547 -0.4774  0.1942
11710TIP3    H135073   5.318   1.601   0.836 -0.5602  1.6571 -1.0135
11710TIP3    H235074   5.423   1.609   0.945 -0.2729 -0.9997 -1.0186
11711TIP3   OH235075   5.356   1.128   4.762  0.2340  0.2228 -0.3249
11711TIP3    H135076   5.440   1.096   4.728 -0.3947 -0.3125 -1.4273
11711TIP3    H235077   5.323   1.186   4.693 -0.9494 -0.6723 -0.5512
11712TIP3   OH235078   1.725   4.677   1.137  0.7576 -0.2300  0.5105
11712TIP3    H135079   1.751   4.632   1.056  0.7818 -1.5364  1.2123
11712TIP3    H235080   1.790   4.746   1.148  0.5552  0.1868 -0.7616
11713TIP3   OH235081   5.075   1.603   5.096  0.4996  0.1092 -0.0378
11713TIP3    H135082   5.155   1.552   5.101  0.3395 -0.1861 -0.4269
11713TIP3    H235083   5.016   1.551   5.041  0.3102  0.6725 -0.3771
11714TIP3   OH235084   6.172   4.461   2.063  0.2369  0.0174 -0.1085
11714TIP3    H135085   6.111   4.388   2.068  1.6178 -1.1886 -0.1336
11714TIP3    H235086   6.129   4.524   2.006 -2.0482  0.3314  1.8062
11715TIP3   OH235087   3.238   4.179   4.534  0.4753 -0.2373  0.4317
11715TIP3    H135088   3.289   4.156   4.612 -0.8508  1.3717  1.8638
11715TIP3    H235089   3.150   4.146   4.552 -0.6711  2.8205  1.1423
11716TIP3   OH235090   6.522   7.623   1.186 -0.2003 -0.3779 -0.3040
11716TIP3    H135091   6.616   7.633   1.171 -0.1891 -0.0414 -0.0441
11716TIP3    H235092   6.481   7.649   1.103 -0.1086  0.6544 -0.0496
11717TIP3   OH235093   4.625   3.526   3.724 -0.2139 -0.0968 -0.0761
11717TIP3    H135094   4.716   3.551   3.740 -0.4494 -0.5335  2.3292
11717TIP3    H235095   4.585   3.523   3.811 -2.5177 -0.0329 -1.0559
11718TIP3   OH235096   0.710   5.856   1.640 -0.6159 -0.0970 -0.3205
11718TIP3    H135097   0.708   5.931   1.699  0.1916 -0.6684  0.4415
11718TIP3    H235098   0.798   5.856   1.603 -0.4236 -0.9814  0.1043
11719TIP3   OH235099   5.994   5.730   2.371 -0.0817  0.2272  1.0145
11719TIP3    H135100   5.913   5.690   2.341  0.7484 -0.6500 -0.1125
11719TIP3    H235101   5.974   5.824   2.377 -1.4506 -0.0836  1.7444
11720TIP3   OH235102   5.181   6.011   3.677 -0.2258 -0.2161  0.2121
11720TIP3    H135103   5.104   5.985   3.627  0.9524 -2.0315 -0.7532
11720TIP3    H235104   5.159   6.098   3.711 -1.9234  0.1554 -1.6378
11721TIP3   OH235105   5.589   1.688   3.135  0.5610  0.1876  0.8187
11721TIP3    H135106   5.564   1.764   3.187 -0.3010  0.1993  0.4044
11721TIP3    H235107   5.538   1.696   3.055  1.7966  0.1361 -0.0149
11722TIP3   OH235108   5.963   4.559   3.153  0.0592 -0.1561 -0.2901
11722TIP3    H135109   5.950   4.484   3.095 -1.0625 -0.7124  0.6268
11722TIP3    H235110   6.024   4.615   3.106  1.6776 -2.0606 -0.6237
11723TIP3   OH235111   3.997   2.566   4.047 -0.1649 -0.2755  0.1301
11723TIP3    H135112   4.082   2.523   4.056 -0.1764 -0.7333 -1.6064
11723TIP3    H235113   4.014   2.642   3.991 -1.1630 -1.3418 -1.7102
11724TIP3   OH235114   1.651   4.940   4.164  0.0054  0.4095  0.4737
11724TIP3    H135115   1.603   4.909   4.087 -0.8710  1.0237  0.7568
11724TIP3    H235116   1.736   4.897   4.158 -0.6685 -0.9358  0.0985
11725TIP3   OH235117   2.521   1.035   3.766 -0.4168  0.0914  0.3150
11725TIP3    H135118   2.566   0.951   3.776 -0.4006 -0.2068 -1.7744
11725TIP3    H235119   2.439   1.024   3.815  0.6553 -0.2263  2.1177
11726TIP3   OH235120   0.229   4.158   2.352  0.3370 -0.1638 -0.1631
11726TIP3    H135121   0.250   4.074   2.310  0.5434 -0.8981  1.3404
11726TIP3    H235122   0.301   4.216   2.328 -0.0232 -0.2605 -1.5759
11727TIP3   OH235123   2.595   4.788   6.279 -0.0608  0.2834 -0.0206
11727TIP3    H135124   2.665   4.816   6.337 -0.9633  1.7695  0.4046
11727TIP3    H235125   2.541   4.729   6.332  0.2868 -0.0405 -0.0254
11728TIP3   OH235126   6.440   2.389   5.981  0.1517 -0.2498 -0.3651
11728TIP3    H135127   6.360   2.339   5.971  1.6601 -2.5307 -2.0344
11728TIP3    H235128   6.468   2.372   6.071  0.2732 -1.9177 -0.6876
11729TIP3   OH235129   1.089   4.880   6.663 -0.6390 -0.0644  0.3072
11729TIP3    H135130   1.071   4.974   6.657 -1.3985 -0.2255 -0.1975
11729TIP3    H235131   1.071   4.857   6.754  2.4531  0.8096  1.2386
11730TIP3   OH235132   5.322   3.454   6.254 -0.4408  0.3289 -0.3502
11730TIP3    H135133   5.268   3.478   6.179  1.0505  1.4999 -1.1168
11730TIP3    H235134   5.364   3.372   6.227  1.3713  1.5709 -1.5926
11731TIP3   OH235135   5.066   1.512   1.440  0.4121 -0.1041  0.4682
11731TIP3    H135136   4.984   1.554   1.463  0.1585  0.0145 -0.6033
11731TIP3    H235137   5.066   1.508   1.345  2.1446  0.8888  0.3713
11732TIP3   OH235138   2.619   0.325   1.842 -0.6436  0.3184 -0.2845
11732TIP3    H135139   2.709   0.309   1.868 -0.6356  0.3375 -0.3001
11732TIP3    H235140   2.608   0.276   1.761 -0.9759 -0.5845  0.2887
11733TIP3   OH235141   0.509   6.444   2.810 -0.0525  0.4605 -0.7995
11733TIP3    H135142   0.515   6.523   2.757 -0.4671 -0.7062 -2.7089
11733TIP3    H235143   0.419   6.413   2.797  0.1372 -0.3836 -0.2006
11734TIP3   OH235144   1.242   3.078   1.171  0.0558 -0.3513  0.5020
11734TIP3    H135145   1.240   2.989   1.134 -0.1539 -0.4733  0.8000
11734TIP3    H235146   1.332   3.108   1.158  0.4924 -1.1239  1.6053
11735TIP3   OH235147   4.148   5.236   5.962  0.7855 -0.2084 -1.0661
11735TIP3    H135148   4.222   5.199   6.011 -0.0463 -1.2355 -0.5580
11735TIP3    H235149   4.118   5.309   6.015  1.5473  0.3398 -1.3703
11736TIP3   OH235150   1.501   2.116   3.728  0.0851 -0.6042 -0.8218
11736TIP3    H135151   1.596   2.127   3.736  0.0796 -0.9507 -0.1914
11736TIP3    H235152   1.479   2.050   3.795 -0.6888 -0.0407 -0.5109
11737TIP3   OH235153   5.085   1.204   1.096  0.1912  0.7755  0.7232
11737TIP3    H135154   5.061   1.231   1.008 -0.1833  0.4757  0.7273
11737TIP3    H235155   5.177   1.179   1.090 -0.1207 -0.2893  0.1648
11738TIP3   OH235156   2.266   1.192   0.960  0.7193  0.0531  0.4800
11738TIP3    H135157   2.203   1.210   1.031 -0.3556  0.4031 -0.5206
11738TIP3    H235158   2.340   1.250   0.979  0.4624  0.1155  1.3386
11739TIP3   OH235159   1.162   7.745   6.521  0.1596  0.6715  0.1999
11739TIP3    H135160   1.075   7.739   6.559 -0.6062  0.7342 -1.4229
11739TIP3    H235161   1.179   7.658   6.485  0.2857  0.9544 -0.4478
11740TIP3   OH235162   1.531   2.283   1.531 -0.0490 -0.5234  0.0204
11740TIP3    H135163   1.597   2.248   1.471 -2.0748 -2.3169 -1.2954
11740TIP3    H235164   1.529   2.221   1.603 -0.9680 -1.0495 -0.4412
11741TIP3   OH235165   1.645   6.568   3.305 -0.0708 -0.1909 -0.5853
11741TIP3    H135166   1.704   6.642   3.317  0.7347 -0.4368 -2.6806
11741TIP3    H235167   1.593   6.566   3.386  0.5995  1.9745 -0.0290
11742TIP3   OH235168   6.474   2.580   0.386  0.2532  0.5294 -0.6749
11742TIP3    H135169   6.496   2.673   0.394 -0.9387  0.7538  0.4101
11742TIP3    H235170   6.464   2.550   0.476  0.8605 -0.7332 -1.0066
11743TIP3   OH235171   0.807   6.268   2.175  0.6535 -0.3333  0.1369
11743TIP3    H135172   0.765   6.300   2.096  0.6543  2.7988  1.2700
11743TIP3    H235173   0.750   6.297   2.246  0.7412 -2.8910  1.3624
11744TIP3   OH235174   4.918   4.615   4.562 -0.2757 -0.2625 -0.2886
11744TIP3    H135175   4.987   4.672   4.595  0.1185 -0.4347 -0.7958
11744TIP3    H235176   4.933   4.531   4.605 -0.3240 -0.2268 -0.2033
11745TIP3   OH235177   4.668   2.246   2.111 -0.0281 -0.3240 -0.1910
11745TIP3    H135178   4.652   2.273   2.201  0.4635 -1.8917  0.3906
11745TIP3    H235179   4.762   2.255   2.099 -0.0585 -0.3528 -0.4759
11746TIP3   OH235180   1.226   4.355   1.140  0.3758  0.0627  0.3085
11746TIP3    H135181   1.140   4.342   1.180 -0.8370 -1.9532 -2.6538
11746TIP3    H235182   1.231   4.450   1.126 -1.7752  0.1506 -0.2208
11747TIP3   OH235183   7.298   6.056   4.360 -0.2368 -0.1271  0.1011
11747TIP3    H135184   7.267   6.033   4.448 -0.9273 -0.6478 -0.2646
11747TIP3    H235185   7.389   6.028   4.358  0.0183  0.6057  0.9078
11748TIP3   OH235186   4.818   2.232   4.483  0.1094 -0.0153 -0.4377
11748TIP3    H135187   4.848   2.313   4.442  1.0760 -0.5073 -0.7173
11748TIP3    H235188   4.781   2.260   4.567  4.4253  0.3703  1.5855
11749TIP3   OH235189   2.788   7.178   0.720 -0.3821  0.1449  0.1152
11749TIP3    H135190   2.827   7.265   0.733 -0.4011  0.0358  1.0155
11749TIP3    H235191   2.814   7.129   0.798  1.9299 -1.5367 -1.5710
11750TIP3   OH235192   0.502   0.295   0.094  0.0603  0.0602  0.2970
11750TIP3    H135193   0.555   0.217   0.111 -0.7787 -0.7655 -0.7164
11750TIP3    H235194   0.559   0.368   0.117  1.8875 -0.7612 -1.3046
11751TIP3   OH235195   6.570   4.806   0.988 -0.0832  0.6302 -0.7211
11751TIP3    H135196   6.663   4.825   0.982  0.4029 -0.0957  2.5223
11751TIP3    H235197   6.553   4.743   0.918  2.4018 -0.9088 -0.0509
11752TIP3   OH235198   6.528   4.594   0.564  0.1653  0.3087 -0.0897
11752TIP3    H135199   6.441   4.632   0.555  0.3937  0.7466 -0.4933
11752TIP3    H235200   6.513   4.505   0.596 -0.5106 -0.1640 -1.6525
11753TIP3   OH235201   7.735   7.396   4.025  0.0878  0.9558  0.7128
11753TIP3    H135202   7.734   7.300   4.020 -1.5328  0.9759  0.0379
11753TIP3    H235203   7.817   7.421   3.983 -1.4035 -0.0080 -3.2513
11754TIP3   OH235204   6.633   4.085   0.737 -0.1583  0.5868  0.2847
11754TIP3    H135205   6.698   4.080   0.667  1.4083  0.8991  1.6583
11754TIP3    H235206   6.585   4.002   0.731  0.6641  0.1530 -0.4658
11755TIP3   OH235207   0.193   5.854   3.167  0.1401  0.6203 -0.6281
11755TIP3    H135208   0.131   5.782   3.183 -0.7893  1.1089 -1.8584
11755TIP3    H235209   0.262   5.814   3.113 -1.5342  1.0783 -3.3069
11756TIP3   OH235210   4.124   2.707   5.679  0.2746  0.2705 -0.5675
11756TIP3    H135211   4.156   2.774   5.619  2.9093  1.0150  1.4982
11756TIP3    H235212   4.096   2.756   5.757  2.6305 -0.9330  1.1543
11757TIP3   OH235213   6.677   7.141   5.189 -0.0700 -0.3152 -0.2183
11757TIP3    H135214   6.732   7.116   5.264  1.9244  0.7976 -1.2307
11757TIP3    H235215   6.622   7.212   5.223  0.8754  0.2410  0.2139
11758TIP3   OH235216   3.927   3.933   0.086 -0.2242 -0.6117  0.2979
11758TIP3    H135217   3.841   3.958   0.051 -0.9406  0.2251  2.4712
11758TIP3    H235218   3.988   3.957   0.017 -1.6304 -0.0277 -0.8087
11759TIP3   OH235219   7.531   2.742   1.777 -0.0078  0.3361 -0.0573
11759TIP3    H135220   7.499   2.832   1.763  1.0039  1.2374  2.8097
11759TIP3    H235221   7.607   2.735   1.720  1.9235  2.5767  2.0370
11760TIP3   OH235222   8.164   1.088   4.262 -0.6109 -0.1930  0.1600
11760TIP3    H135223   8.255   1.112   4.244 -0.3257 -0.8964  0.5776
11760TIP3    H235224   8.166   0.992   4.270 -0.4177 -0.0662  4.9093
11761TIP3   OH235225   5.542   6.537   2.712  0.2479 -0.3290  0.3329
11761TIP3    H135226   5.512   6.489   2.789  1.1114 -0.7606  0.4120
11761TIP3    H235227   5.502   6.623   2.720 -1.0119 -0.8968  0.3929
11762TIP3   OH235228   5.790   2.851   4.979 -0.1088 -0.4307  0.0132
11762TIP3    H135229   5.828   2.766   4.955 -1.2384 -0.9193 -0.1473
11762TIP3    H235230   5.811   2.862   5.072  0.2466 -0.7819 -0.0244
11763TIP3   OH235231   3.277   2.485   3.772 -0.3048 -0.2479  0.4915
11763TIP3    H135232   3.302   2.407   3.820  4.5944  0.4121 -0.4430
11763TIP3    H235233   3.289   2.462   3.680 -0.4766  1.0968  0.1055
11764TIP3   OH235234   6.998   0.692   2.037  0.3900  0.1040  0.1369
11764TIP3    H135235   7.050   0.735   2.105 -0.0001  1.6843 -0.5082
11764TIP3    H235236   7.057   0.683   1.963  0.2605  0.2226  0.0182
11765TIP3   OH235237   0.854   6.080   4.405  0.4041  0.1018  0.1894
11765TIP3    H135238   0.915   6.022   4.449 -0.6228 -1.6156 -0.5568
11765TIP3    H235239   0.804   6.121   4.476 -0.0493 -1.3014  0.7122
11766TIP3   OH235240   6.618   3.990   5.547 -0.0416  0.2234 -0.3353
11766TIP3    H135241   6.681   3.942   5.494 -0.7593 -2.5548  1.1384
11766TIP3    H235242   6.540   3.996   5.492  0.4381  0.8459 -0.9730
11767TIP3   OH235243   6.493   3.332   0.108  0.0029  0.2730 -0.1996
11767TIP3    H135244   6.406   3.308   0.076  0.5026 -0.4020 -1.1100
11767TIP3    H235245   6.552   3.271   0.063  0.8068 -0.3185  1.5902
11768TIP3   OH235246   1.934   3.907   1.586 -0.5253  0.3547  0.1942
11768TIP3    H135247   1.877   3.967   1.539  0.1935  1.3760  0.5898
11768TIP3    H235248   1.976   3.961   1.653 -0.3515 -0.7283  0.9895
11769TIP3   OH235249   6.740   1.048   3.499  0.1342  0.2053 -0.4179
11769TIP3    H135250   6.816   1.105   3.493 -0.0649  0.9895  2.6655
11769TIP3    H235251   6.665   1.106   3.487 -0.0289 -0.0541 -0.6670
11770TIP3   OH235252   4.248   4.415   5.532  0.2146  0.1063  0.2622
11770TIP3    H135253   4.247   4.321   5.516  1.6675  0.2428 -0.8878
11770TIP3    H235254   4.341   4.438   5.536 -0.0907  1.6088 -0.3835
11771TIP3   OH235255   4.425   1.050   0.848  0.6410 -1.0900  0.1494
11771TIP3    H135256   4.421   1.010   0.935 -0.0530  3.2274  2.3675
11771TIP3    H235257   4.333   1.061   0.823  0.8141 -0.9304 -0.4271
11772TIP3   OH235258   6.660   6.209   5.899 -0.2686 -0.0857  0.2867
11772TIP3    H135259   6.650   6.259   5.980 -0.3879  0.1170  0.1494
11772TIP3    H235260   6.753   6.215   5.877 -0.4633  1.0239 -0.3223
11773TIP3   OH235261   5.042   2.053   4.084  0.3463 -0.2685  0.0161
11773TIP3    H135262   5.043   2.123   4.019  0.3312  0.3960  0.7202
11773TIP3    H235263   5.117   2.071   4.140 -1.4752  1.1472  2.2142
11774TIP3   OH235264   5.801   4.027   3.421  0.4334 -0.2391 -0.7971
11774TIP3    H135265   5.707   4.045   3.424  0.4374 -0.3079  1.1734
11774TIP3    H235266   5.809   3.955   3.359 -0.5172  1.1978 -2.6967
11775TIP3   OH235267   0.625   1.951   2.783 -0.5892 -0.1924 -0.1793
11775TIP3    H135268   0.582   1.992   2.857 -0.9853 -1.1782  0.1560
11775TIP3    H235269   0.613   1.857   2.797 -0.1237 -0.4158 -1.1623
11776TIP3   OH235270   1.478   0.468   3.781 -0.1621 -0.2029  0.3474
11776TIP3    H135271   1.554   0.490   3.728  0.1817 -1.0836  0.4595
11776TIP3    H235272   1.404   0.475   3.720  0.1476 -0.5348 -0.0707
11777TIP3   OH235273   5.055   5.739   3.855 -0.3418  0.6004  0.1914
11777TIP3    H135274   5.039   5.652   3.891 -1.2145  0.9744  0.7330
11777TIP3    H235275   4.989   5.749   3.786  1.1686 -0.0225 -1.4360
11778TIP3   OH235276   7.109   0.860   3.820 -0.2256  0.5197 -0.0360
11778TIP3    H135277   7.204   0.864   3.807 -0.3200  1.1843 -0.5475
11778TIP3    H235278   7.083   0.775   3.785  0.0674  0.6707 -0.6178
11779TIP3   OH235279   0.751   2.213   0.589  0.1152  0.4027  0.2826
11779TIP3    H135280   0.656   2.223   0.597 -0.0366 -1.3008  0.9624
11779TIP3    H235281   0.787   2.290   0.631 -0.9518  1.8310 -1.2670
11780TIP3   OH235282   3.116   4.040   1.145 -0.0886 -0.8129 -0.1509
11780TIP3    H135283   3.043   4.101   1.151 -0.9107 -1.8605  1.1323
11780TIP3    H235284   3.111   4.004   1.057 -0.6525 -0.3192 -0.3214
11781TIP3   OH235285   4.138   5.364   1.934 -0.4470  0.0135 -0.0995
11781TIP3    H135286   4.161   5.456   1.918  0.6797 -0.2897 -0.2940
11781TIP3    H235287   4.083   5.340   1.859 -1.5972  0.7925  0.4527
11782TIP3   OH235288   1.999   4.887   2.831 -0.2255  0.3302  0.9496
11782TIP3    H135289   2.073   4.827   2.823 -0.4363  0.1425  0.3186
11782TIP3    H235290   2.037   4.974   2.814 -0.0136  0.3209  1.3684
11783TIP3   OH235291   2.268   2.067   2.379  0.5070  0.3152 -0.6993
11783TIP3    H135292   2.346   2.011   2.383 -0.5237 -1.1536  1.5703
11783TIP3    H235293   2.197   2.010   2.410 -0.9320  2.4045  0.0778
11784TIP3   OH235294   8.306   6.922   6.211 -0.1375 -0.0222 -0.4617
11784TIP3    H135295   8.262   6.969   6.140 -0.6102 -0.2795 -0.3357
11784TIP3    H235296   8.237   6.899   6.273  0.0621 -1.0719 -0.6151
11785TIP3   OH235297   6.475   0.705   2.590 -0.2121 -0.2428 -0.2788
11785TIP3    H135298   6.517   0.781   2.551  1.2145 -0.0117  1.5661
11785TIP3    H235299   6.548   0.645   2.609 -1.0215 -0.9486  0.6718
11786TIP3   OH235300   6.911   5.251   2.552 -0.0742  0.6575 -0.6309
11786TIP3    H135301   6.830   5.242   2.603  0.1650 -1.3356 -0.5407
11786TIP3    H235302   6.979   5.264   2.618  0.0863 -0.8680 -0.4504
11787TIP3   OH235303   1.427   6.592   6.397 -0.4781  0.3671  0.5931
11787TIP3    H135304   1.353   6.651   6.411 -1.3522 -0.4509 -0.4203
11787TIP3    H235305   1.497   6.628   6.452 -2.2380 -0.0592  3.3129
11788TIP3   OH235306   4.102   1.324   5.232 -0.0527 -0.3929  0.1725
11788TIP3    H135307   4.125   1.387   5.163 -1.2924 -0.5755 -0.4250
11788TIP3    H235308   4.146   1.357   5.310 -0.1268  0.8431 -0.2892
11789TIP3   OH235309   8.026   4.153   1.600  0.3254 -0.2938  0.1621
11789TIP3    H135310   7.949   4.113   1.560  0.1767 -0.9610  1.0798
11789TIP3    H235311   8.099   4.129   1.542 -0.0949  0.0394 -0.5182
11790TIP3   OH235312   1.474   2.692   2.856 -0.2616 -0.0027 -0.3195
11790TIP3    H135313   1.437   2.603   2.856 -1.5222  0.4900 -1.6164
11790TIP3    H235314   1.549   2.686   2.915 -0.2107 -1.9784 -0.4997
11791TIP3   OH235315   7.135   5.366   4.721  0.3603  0.3971  0.6238
11791TIP3    H135316   7.187   5.407   4.652  1.0456  2.2026  2.1235
11791TIP3    H235317   7.063   5.427   4.736 -1.6345 -1.4870 -0.5750
11792TIP3   OH235318   1.679   1.053   1.815  0.2864 -0.3602  0.0948
11792TIP3    H135319   1.745   1.087   1.875 -0.3069 -1.6661  1.5505
11792TIP3    H235320   1.723   0.986   1.764  0.4488 -0.1767 -0.0092
11793TIP3   OH235321   0.810   2.684   5.071 -0.0344 -0.2408 -0.4368
11793TIP3    H135322   0.855   2.764   5.099  1.2234 -0.7041 -1.0544
11793TIP3    H235323   0.829   2.620   5.139  0.1447 -0.4008 -0.6340
11794TIP3   OH235324   1.693   1.109   4.240 -0.3198 -0.3299 -0.0345
11794TIP3    H135325   1.611   1.090   4.194 -0.6917 -0.3136  0.6114
11794TIP3    H235326   1.748   1.031   4.225 -0.3210 -0.1959 -0.7494
11795TIP3   OH235327   1.303   5.996   5.534  0.9204 -0.3624 -0.3903
11795TIP3    H135328   1.274   5.925   5.590 -0.5520  0.2661 -0.3222
11795TIP3    H235329   1.242   6.067   5.552  0.0828 -0.2924 -3.1143
11796TIP3   OH235330   5.854   0.543   5.707  0.9114 -0.5159 -0.1696
11796TIP3    H135331   5.853   0.591   5.624  0.5132  1.3801  0.8845
11796TIP3    H235332   5.775   0.570   5.752  0.9853 -1.7287  0.7353
11797TIP3   OH235333   6.414   4.461   6.102 -0.2327 -0.1304  0.0191
11797TIP3    H135334   6.475   4.533   6.089 -0.0040 -0.1083  1.1146
11797TIP3    H235335   6.337   4.502   6.143 -0.2674 -0.4410  0.2663
11798TIP3   OH235336   4.922   4.009   1.041 -0.0146 -0.0019 -0.0522
11798TIP3    H135337   4.936   4.077   0.975 -1.3426 -0.2740 -0.6431
11798TIP3    H235338   4.935   4.053   1.125  1.3693  0.4271 -0.4700
11799TIP3   OH235339   2.708   5.995   1.099 -0.4438  0.0500  0.2096
11799TIP3    H135340   2.738   5.920   1.049 -1.6515 -2.1909  2.6231
11799TIP3    H235341   2.743   5.981   1.187 -1.5825  1.7698  1.0047
11800TIP3   OH235342   0.314   1.289   1.666  0.1894 -0.4458  0.2682
11800TIP3    H135343   0.284   1.248   1.747 -2.9050  0.3581 -0.3057
11800TIP3    H235344   0.282   1.230   1.597  0.9671 -0.0867 -0.4095
11801TIP3   OH235345   6.344   3.438   3.849 -0.4081  0.3464 -0.1039
11801TIP3    H135346   6.340   3.405   3.939  1.7031 -0.3650 -0.2122
11801TIP3    H235347   6.425   3.401   3.814 -2.0297 -0.8642 -2.9067
11802TIP3   OH235348   6.913   2.801   3.092 -0.2761 -0.4994  0.6595
11802TIP3    H135349   6.871   2.885   3.076 -0.1970 -0.4640  0.6380
11802TIP3    H235350   6.994   2.804   3.040  0.2926 -0.1387  1.5516
11803TIP3   OH235351   0.774   3.122   0.848  0.2495  0.1933  0.0243
11803TIP3    H135352   0.726   3.167   0.778 -1.2108 -0.3541  0.6424
11803TIP3    H235353   0.759   3.029   0.831 -1.8386  0.0371  2.1285
11804TIP3   OH235354   7.967   7.099   1.749  0.0164 -0.0982 -0.2795
11804TIP3    H135355   7.975   7.194   1.749 -1.9649  0.1130 -0.2799
11804TIP3    H235356   7.978   7.074   1.657 -2.3525  0.4954 -0.7968
11805TIP3   OH235357   8.316   3.444   4.802  0.2823 -0.5403 -0.2866
11805TIP3    H135358   8.316   3.352   4.829 -0.9289 -0.1814  1.0562
11805TIP3    H235359   8.224   3.465   4.787  0.5576  0.4136 -0.7373
11806TIP3   OH235360   2.109   7.186   1.761  0.1115 -0.3689  0.4663
11806TIP3    H135361   2.042   7.217   1.823 -0.3710 -1.2123  0.3858
11806TIP3    H235362   2.144   7.266   1.722  0.0678  0.1521  1.4604
11807TIP3   OH235363   4.237   5.503   5.135 -0.2182  0.0968  0.3532
11807TIP3    H135364   4.190   5.488   5.052 -0.3668  0.6347  0.3379
11807TIP3    H235365   4.294   5.427   5.143 -0.2116  0.0275 -0.2381
11808TIP3   OH235366   4.352   6.213   2.646  0.1524 -0.4619  0.3643
11808TIP3    H135367   4.320   6.255   2.566  1.8505  0.8440  0.3091
11808TIP3    H235368   4.365   6.285   2.707  3.3705 -0.7455  0.1975
11809TIP3   OH235369   1.372   0.720   2.424  0.3905  0.0088 -0.2838
11809TIP3    H135370   1.311   0.758   2.487 -0.2346  0.2937 -1.0538
11809TIP3    H235371   1.330   0.731   2.339  1.9512  1.1443 -0.9630
11810TIP3   OH235372   2.588   6.847   1.739  0.5210 -0.0753 -0.1487
11810TIP3    H135373   2.588   6.935   1.776  1.2353 -0.6027  1.1757
11810TIP3    H235374   2.508   6.842   1.687 -0.0962  0.9873  0.6709
11811TIP3   OH235375   5.339   4.476   2.669  0.3365  0.0249 -0.1742
11811TIP3    H135376   5.381   4.421   2.603  1.7622  3.0310 -1.9638
11811TIP3    H235377   5.376   4.446   2.752 -0.2322 -2.7433 -0.8320
11812TIP3   OH235378   0.341   7.019   3.946 -0.4679  0.1568  0.0657
11812TIP3    H135379   0.305   7.017   4.035 -1.6151  0.4656 -0.3708
11812TIP3    H235380   0.313   6.936   3.907 -1.1923  0.6356 -0.4563
11813TIP3   OH235381   3.512   5.244   3.900 -0.4658  0.8784  0.4128
11813TIP3    H135382   3.512   5.235   3.996 -1.1293 -0.1722  0.3288
11813TIP3    H235383   3.556   5.165   3.869  0.0834  1.3983 -0.1465
11814TIP3   OH235384   0.908   7.440   4.799  0.3367 -0.2080 -0.6306
11814TIP3    H135385   0.900   7.388   4.879  1.5826  0.2013 -0.2181
11814TIP3    H235386   0.840   7.405   4.741 -0.0230 -1.0826  0.2820
11815TIP3   OH235387   7.698   7.514   2.583  0.1026  0.2675 -0.0662
11815TIP3    H135388   7.726   7.603   2.606  1.0402 -0.2362  0.8022
11815TIP3    H235389   7.699   7.466   2.665  1.1662 -0.9529 -0.7521
11816TIP3   OH235390   4.277   2.667   1.207 -0.5327 -0.4153  0.7992
11816TIP3    H135391   4.233   2.753   1.207 -0.4941 -0.3798  1.7381
11816TIP3    H235392   4.328   2.666   1.126 -1.5735 -0.0979  0.1195
11817TIP3   OH235393   2.190   3.504   2.017 -0.7668 -0.5758 -0.1219
11817TIP3    H135394   2.175   3.432   2.078  1.8072 -0.7033  0.4710
11817TIP3    H235395   2.187   3.583   2.072 -2.0902 -0.3081 -0.5238
11818TIP3   OH235396   0.078   4.766   5.435  0.4400 -0.2964 -0.0548
11818TIP3    H135397   0.100   4.858   5.420 -0.1051  0.2393  2.0663
11818TIP3    H235398  -0.016   4.761   5.419  0.0710  0.0260  1.8530
11819TIP3   OH235399   5.489   6.243   1.182 -0.3482 -0.2857  0.1457
11819TIP3    H135400   5.459   6.171   1.239 -0.4679  0.0012  0.4469
11819TIP3    H235401   5.517   6.311   1.243  1.4561 -0.7461 -0.1072
11820TIP3   OH235402   7.600   0.140   4.282 -0.5892 -0.1664 -0.7536
11820TIP3    H135403   7.589   0.228   4.318  0.9127 -0.2740  0.0361
11820TIP3    H235404   7.658   0.151   4.207  2.6379 -0.8323  1.4524
11821TIP3   OH235405   1.181   4.675   2.358 -1.1453  0.3919 -0.4959
11821TIP3    H135406   1.207   4.685   2.450  2.5333  1.8945 -1.5168
11821TIP3    H235407   1.085   4.669   2.361 -1.1785  0.1576  3.4027
11822TIP3   OH235408   5.512   3.450   3.101 -0.3223  0.5506  0.2055
11822TIP3    H135409   5.447   3.416   3.040  0.3276  1.4368 -1.0190
11822TIP3    H235410   5.504   3.394   3.178 -0.5691 -1.1562 -1.0082
11823TIP3   OH235411   7.648   1.557   5.851  0.4330  0.0275 -0.3437
11823TIP3    H135412   7.576   1.605   5.893 -0.5424 -1.4004 -0.3270
11823TIP3    H235413   7.666   1.484   5.910  1.1892 -0.2279 -0.8812
11824TIP3   OH235414   3.214   3.406   6.181 -0.1461 -0.0677 -0.1731
11824TIP3    H135415   3.235   3.497   6.203  2.0735  0.0009 -2.2231
11824TIP3    H235416   3.165   3.411   6.099  0.2135 -0.7286 -0.4398
11825TIP3   OH235417   6.534   5.260   4.846 -0.2414  0.3751  0.4079
11825TIP3    H135418   6.627   5.273   4.827 -0.3228  0.5419  0.1188
11825TIP3    H235419   6.489   5.315   4.782 -0.5259  0.6661  0.8546
11826TIP3   OH235420   3.868   0.420   4.094 -0.6670 -0.3753 -0.1831
11826TIP3    H135421   3.821   0.390   4.015 -0.1640 -1.8640  0.0486
11826TIP3    H235422   3.955   0.382   4.085 -0.0716  0.8469  0.2930
11827TIP3   OH235423   4.962   2.737   4.976  0.0795 -0.4389 -0.0345
11827TIP3    H135424   4.876   2.765   4.945 -0.5777 -2.8496 -0.6144
11827TIP3    H235425   4.997   2.685   4.904  1.2715 -0.9201  0.8727
11828TIP3   OH235426   5.281   4.742   2.693  0.2256 -0.3585 -0.2587
11828TIP3    H135427   5.364   4.784   2.716  1.2085 -1.2502 -1.9665
11828TIP3    H235428   5.304   4.651   2.674 -0.9108 -0.3575 -1.8915
11829TIP3   OH235429   2.184   2.864   6.031 -0.1752 -0.2171  0.4078
11829TIP3    H135430   2.235   2.852   6.111  0.3074  1.9585  0.4658
11829TIP3    H235431   2.118   2.930   6.055 -1.0475 -0.7167 -0.5549
11830TIP3   OH235432   4.093   3.703   5.672  0.1897  0.0545  0.0872
11830TIP3    H135433   4.080   3.664   5.759  0.5525  0.5221  0.3534
11830TIP3    H235434   4.006   3.736   5.648 -0.1277 -0.9024 -0.1441
11831TIP3   OH235435   2.563   4.273   1.806 -0.3318  0.1028 -0.4963
11831TIP3    H135436   2.555   4.353   1.858 -3.5903 -0.0801 -0.5448
11831TIP3    H235437   2.544   4.301   1.716  1.6315 -0.2485 -1.0797
11832TIP3   OH235438   5.190   6.986   0.856  0.2188 -1.2214  0.0923
11832TIP3    H135439   5.245   6.984   0.934  1.9467  1.3478 -0.9381
11832TIP3    H235440   5.127   7.057   0.874 -0.4257 -1.7122 -0.2082
11833TIP3   OH235441   6.427   5.253   4.291  0.6206 -0.4012 -0.1313
11833TIP3    H135442   6.469   5.169   4.275 -1.5755 -1.5583 -0.1518
11833TIP3    H235443   6.334   5.232   4.299  0.1010  1.9355  0.6060
11834TIP3   OH235444   2.731   5.146   3.019 -0.3565  0.1903  0.0406
11834TIP3    H135445   2.782   5.223   3.046 -1.3180  0.3603  1.5133
11834TIP3    H235446   2.768   5.121   2.934  0.6011  1.7067 -0.0309
11835TIP3   OH235447   1.392   1.724   4.147 -0.2283 -0.5725 -0.4998
11835TIP3    H135448   1.460   1.769   4.197  1.8553 -2.0068 -1.8619
11835TIP3    H235449   1.427   1.636   4.132 -1.4818 -0.7525 -2.9653
11836TIP3   OH235450   1.956   4.426   6.092  0.1300  0.3956  0.2690
11836TIP3    H135451   2.004   4.497   6.049  0.0553 -0.1108 -0.6842
11836TIP3    H235452   1.890   4.471   6.145  1.0563  1.0720  0.8895
11837TIP3   OH235453   3.174   1.419   1.790  0.2316 -0.6298 -0.3786
11837TIP3    H135454   3.222   1.411   1.873  0.9171  0.4714 -0.6460
11837TIP3    H235455   3.098   1.472   1.811  0.7664  0.2401 -0.5729
11838TIP3   OH235456   3.205   7.183   0.863  0.0105 -0.0807 -0.1453
11838TIP3    H135457   3.228   7.091   0.878  1.8814  0.0370 -1.8696
11838TIP3    H235458   3.131   7.199   0.922  1.5481 -1.8058  2.4617
11839TIP3   OH235459   6.103   4.687   6.616 -0.1797 -0.1045  0.3450
11839TIP3    H135460   6.074   4.650   6.533  0.0521  1.0064 -0.2561
11839TIP3    H235461   6.196   4.662   6.623 -0.0128  0.3816 -0.0778
11840TIP3   OH235462   4.541   3.476   3.058  0.2584  0.2849  0.0063
11840TIP3    H135463   4.589   3.494   2.977 -0.7771 -0.2927 -0.7590
11840TIP3    H235464   4.581   3.397   3.092  0.1774  0.0746 -0.3764
11841TIP3   OH235465   0.975   6.091   6.736 -0.1184 -0.2547  0.1837
11841TIP3    H135466   1.019   6.118   6.655 -0.2396 -0.4876  0.0393
11841TIP3    H235467   0.951   6.173   6.779  0.2711 -0.1249  0.1619
11842TIP3   OH235468   4.630   5.013   4.997  0.3504 -0.2615  0.1479
11842TIP3    H135469   4.624   5.075   4.923  2.5534 -0.5302 -0.3158
11842TIP3    H235470   4.557   5.037   5.053  0.0437  1.5672 -0.9305
11843TIP3   OH235471   2.767   1.078   2.691  0.2301 -0.0875 -0.3488
11843TIP3    H135472   2.855   1.070   2.652  0.0067 -0.0918 -0.8610
11843TIP3    H235473   2.771   1.025   2.770  0.1906 -1.4334 -1.2232
11844TIP3   OH235474   7.216   0.642   1.876 -0.2247  0.0748  0.0455
11844TIP3    H135475   7.240   0.593   1.797  0.6724  0.7354 -0.1063
11844TIP3    H235476   7.218   0.734   1.849 -2.0199  0.2241  0.2868
11845TIP3   OH235477   7.491   4.412   4.076 -0.0262 -0.2037 -0.1545
11845TIP3    H135478   7.417   4.355   4.098 -1.8363  0.9940 -2.6917
11845TIP3    H235479   7.543   4.361   4.015  0.6268 -0.5920  0.7020
11846TIP3   OH235480   8.032   7.093   5.227  0.2319  0.1473  0.5803
11846TIP3    H135481   8.122   7.105   5.198 -0.3518  0.5304 -1.2190
11846TIP3    H235482   7.986   7.172   5.197 -1.4816 -1.6702 -2.0446
11847TIP3   OH235483   7.089   2.420   6.302 -0.3393  0.1670 -0.3052
11847TIP3    H135484   7.085   2.330   6.334  0.4845  0.1897 -0.1002
11847TIP3    H235485   7.058   2.415   6.212  1.6674 -0.7207 -1.0245
11848TIP3   OH235486   1.379   5.144   0.557  1.2250  0.0599  0.2093
11848TIP3    H135487   1.364   5.176   0.468  2.4039 -0.9439 -0.3813
11848TIP3    H235488   1.291   5.133   0.594  0.7430  1.1410 -0.5759
11849TIP3   OH235489   6.401   7.776   0.936 -0.0391 -0.2252 -0.0407
11849TIP3    H135490   6.447   7.772   0.852  1.0932 -2.2600  0.6088
11849TIP3    H235491   6.325   7.719   0.924 -0.4809  0.3473 -0.0056
11850TIP3   OH235492   1.441   0.922   3.419  0.1970 -0.2318  0.6321
11850TIP3    H135493   1.531   0.917   3.386 -0.4120  0.8325 -1.3491
11850TIP3    H235494   1.429   1.013   3.443 -0.3420 -0.3783  0.9360
11851TIP3   OH235495   3.266   3.874   2.846 -0.1927 -0.3188 -0.7278
11851TIP3    H135496   3.268   3.790   2.892 -0.9945  1.2757  2.5200
11851TIP3    H235497   3.173   3.893   2.834 -0.0192  0.1023 -1.5217
11852TIP3   OH235498   6.179   5.525   0.854  0.4823  0.0542  0.2367
11852TIP3    H135499   6.115   5.509   0.785 -2.6648  1.5401  2.5393
11852TIP3    H235500   6.174   5.447   0.910  1.0344 -0.0010  0.2155
11853TIP3   OH235501   0.217   3.924   6.704 -0.1659 -0.1484 -0.5803
11853TIP3    H135502   0.223   3.980   6.782  0.3840 -1.9419  0.7402
11853TIP3    H235503   0.150   3.966   6.650 -0.2918  1.3812  0.6686
11854TIP3   OH235504   4.930   3.597   5.671  0.4322  0.4124 -0.6386
11854TIP3    H135505   4.972   3.534   5.613 -0.7239 -0.4230 -0.5893
11854TIP3    H235506   4.950   3.682   5.633  1.0811 -0.0312 -1.3163
11855TIP3   OH235507   5.103   0.026   3.131 -0.6210  0.7242 -0.3463
11855TIP3    H135508   5.179   0.056   3.180  0.2229 -0.6384 -0.7633
11855TIP3    H235509   5.060  -0.037   3.189 -1.4843  1.5064 -0.0984
11856TIP3   OH235510   0.062   2.431   5.775  0.3515 -0.1277 -0.0621
11856TIP3    H135511  -0.010   2.404   5.718 -1.0599  1.7413  0.7402
11856TIP3    H235512   0.065   2.365   5.844  0.5641 -1.1489 -1.0232
11857TIP3   OH235513   3.429   0.204   2.271  0.0905 -0.3823  0.7161
11857TIP3    H135514   3.458   0.186   2.361  0.9035 -0.7320  0.3874
11857TIP3    H235515   3.509   0.204   2.219 -0.0005  2.6325  0.4065
11858TIP3   OH235516   6.960   1.213   2.028 -0.3289  0.2605  0.1526
11858TIP3    H135517   7.020   1.216   1.953 -0.0082  1.4592  0.4400
11858TIP3    H235518   6.906   1.136   2.012 -1.3945  1.4097 -2.1663
11859TIP3   OH235519   6.703   2.234   0.550  0.2373  0.0177  0.9336
11859TIP3    H135520   6.780   2.195   0.591  1.3050  1.4453  0.3589
11859TIP3    H235521   6.708   2.207   0.459 -2.6199 -3.9123  1.6746
11860TIP3   OH235522   0.449   6.054   1.622 -0.1240  0.5356  0.1283
11860TIP3    H135523   0.533   6.049   1.576 -0.4656 -0.2138 -0.4421
11860TIP3    H235524   0.391   6.097   1.559 -0.0128  1.6700  0.7746
11861TIP3   OH235525   5.327   1.451   3.829 -0.7241  0.2589 -0.3144
11861TIP3    H135526   5.259   1.401   3.784 -1.8874  1.1882  0.3565
11861TIP3    H235527   5.281   1.527   3.865  0.4578  0.3381  1.1097
11862TIP3   OH235528   1.637   5.244   1.086 -0.4844  0.3183 -0.6675
11862TIP3    H135529   1.657   5.177   1.022  2.3181 -0.6380  1.0502
11862TIP3    H235530   1.619   5.196   1.167 -0.7473  1.5595  0.0435
11863TIP3   OH235531   2.906   1.872   0.010  0.3884 -0.5009 -0.0399
11863TIP3    H135532   2.989   1.901   0.047 -0.1080  0.1031  0.6315
11863TIP3    H235533   2.859   1.834   0.084 -0.3142  0.0350 -0.1978
11864TIP3   OH235534   2.412   6.914   5.405 -0.0762  0.0486 -0.0660
11864TIP3    H135535   2.464   6.851   5.353  2.4360  1.4629  0.5497
11864TIP3    H235536   2.438   6.999   5.372 -0.5792  0.8889  1.5920
11865TIP3   OH235537   7.571   5.572   1.378 -0.4083  0.3477  0.2462
11865TIP3    H135538   7.515   5.498   1.403 -0.3645  0.0498 -0.5367
11865TIP3    H235539   7.547   5.640   1.441  0.2065 -0.6101  1.5832
11866TIP3   OH235540   3.429   3.215   4.246 -0.6262 -0.0520  0.1437
11866TIP3    H135541   3.355   3.275   4.243 -1.0461 -0.6009 -0.7735
11866TIP3    H235542   3.415   3.162   4.325 -0.5482  0.6497  0.6445
11867TIP3   OH235543   0.086   3.501   3.263  0.0196 -0.0249 -0.0259
11867TIP3    H135544   0.164   3.461   3.224  1.0822  0.9448  1.0130
11867TIP3    H235545   0.061   3.570   3.202 -0.0957 -0.4085 -0.4167
11868TIP3   OH235546   3.316   5.164   6.049 -0.6180 -0.3997  0.0855
11868TIP3    H135547   3.412   5.174   6.051 -0.5147 -0.6584 -1.6915
11868TIP3    H235548   3.284   5.248   6.017 -0.6967 -1.2962 -2.4070
11869TIP3   OH235549   4.353   6.704   5.380 -0.0503  0.4432  0.2250
11869TIP3    H135550   4.266   6.736   5.404 -0.6168  0.7625 -1.9875
11869TIP3    H235551   4.395   6.779   5.339  1.0020  0.0645  0.5857
11870TIP3   OH235552   2.938   7.497   1.399  0.6751 -0.2582  0.2408
11870TIP3    H135553   2.928   7.417   1.348  0.5493 -0.5638  0.7333
11870TIP3    H235554   2.989   7.556   1.344  2.1796 -1.2659  0.5198
11871TIP3   OH235555   1.901   3.785   0.179  0.1133  0.2139  0.6955
11871TIP3    H135556   1.926   3.725   0.108 -0.8998  0.2985  0.2445
11871TIP3    H235557   1.839   3.735   0.232  0.3535  0.3848  1.1462
11872TIP3   OH235558   6.885   5.990   2.486 -0.1274  0.0227 -0.7847
11872TIP3    H135559   6.921   5.915   2.534 -2.0970 -0.1223  0.5897
11872TIP3    H235560   6.955   6.055   2.487  0.6041 -0.7429  0.5404
11873TIP3   OH235561   1.286   2.157   4.039  0.4856 -0.2607  0.3803
11873TIP3    H135562   1.244   2.234   4.000  0.4634 -0.2322  0.4605
11873TIP3    H235563   1.239   2.143   4.121 -0.3846 -1.1392 -0.2418
11874TIP3   OH235564   3.678   0.145   5.705 -0.0449  0.1825  0.0820
11874TIP3    H135565   3.729   0.216   5.665  0.8398 -0.2767  0.3553
11874TIP3    H235566   3.616   0.119   5.637 -1.3920  2.1577  0.4636
11875TIP3   OH235567   5.413   3.709   1.697 -0.2087 -0.1548 -0.0737
11875TIP3    H135568   5.387   3.633   1.645  0.5819 -0.1590 -0.4710
11875TIP3    H235569   5.508   3.699   1.709 -0.1993  0.4407  0.4100
11876TIP3   OH235570   2.342   3.648   4.814 -0.5529 -0.1395 -0.3102
11876TIP3    H135571   2.310   3.693   4.892  0.0926 -1.2132  0.5983
11876TIP3    H235572   2.409   3.708   4.779 -0.2029 -0.0504  0.4800
11877TIP3   OH235573   6.006   0.688   4.029 -0.1754 -0.0050  0.7015
11877TIP3    H135574   6.093   0.647   4.033  0.2630  0.8936  0.5259
11877TIP3    H235575   6.023   0.781   4.015 -1.2086 -0.1402 -1.9903
11878TIP3   OH235576   7.151   7.434   4.204 -0.0152 -0.3526 -0.5056
11878TIP3    H135577   7.203   7.460   4.128  0.7578 -1.0637 -0.2358
11878TIP3    H235578   7.117   7.516   4.239  2.0448  0.3016  0.1048
11879TIP3   OH235579   6.270   2.737   1.383  0.4306 -0.5845  0.6195
11879TIP3    H135580   6.235   2.776   1.463 -0.3543  2.3853 -1.0034
11879TIP3    H235581   6.362   2.761   1.382  0.4014 -0.4731  0.5690
11880TIP3   OH235582   0.537   7.570   2.299 -0.2421 -0.4879 -0.6360
11880TIP3    H135583   0.494   7.602   2.378 -1.4078  1.5728 -2.0022
11880TIP3    H235584   0.609   7.515   2.331 -0.3023  0.7392  1.8420
11881TIP3   OH235585   2.685   6.407   5.733  0.2480 -0.6021 -0.4114
11881TIP3    H135586   2.745   6.338   5.761 -0.4428 -1.0007  0.1230
11881TIP3    H235587   2.623   6.362   5.676 -0.5099 -0.5442  0.3480
11882TIP3   OH235588   6.372   4.373   0.160  0.0055 -0.0669  0.0863
11882TIP3    H135589   6.279   4.370   0.184 -0.5083  0.8662 -1.6351
11882TIP3    H235590   6.405   4.452   0.203 -0.3336  0.3330 -0.3812
11883TIP3   OH235591   5.556   0.616   5.449  0.0510 -0.4190  0.0879
11883TIP3    H135592   5.463   0.606   5.428 -0.6919  1.2253  2.2325
11883TIP3    H235593   5.593   0.528   5.440 -2.0225 -1.4025  0.5675
11884TIP3   OH235594   5.281   4.802   1.686  0.1301  0.1971  0.8098
11884TIP3    H135595   5.256   4.814   1.778  1.7963 -2.1707  1.6786
11884TIP3    H235596   5.238   4.720   1.660  0.9824 -0.0173  0.0253
11885TIP3   OH235597   3.553   2.223   2.181 -0.0228 -0.0531  0.0600
11885TIP3    H135598   3.525   2.224   2.273  0.3264  0.3714  0.1667
11885TIP3    H235599   3.521   2.140   2.147 -0.4756 -0.0514  0.4678
11886TIP3   OH235600   3.299   1.144   0.333  0.6809  0.2679 -0.2546
11886TIP3    H135601   3.284   1.113   0.422  1.6625 -1.2914 -0.5905
11886TIP3    H235602   3.395   1.146   0.324  0.6530  2.7405 -0.5221
11887TIP3   OH235603   0.300   6.635   2.385 -0.1154 -0.0958 -0.0266
11887TIP3    H135604   0.390   6.654   2.357 -0.5805 -1.0817 -2.3917
11887TIP3    H235605   0.269   6.718   2.422 -0.1093  2.1924 -4.5169
11888TIP3   OH235606   2.143   5.647   1.159  0.7631 -0.6047 -0.2130
11888TIP3    H135607   2.097   5.615   1.081  0.4343  1.3492 -0.8732
11888TIP3    H235608   2.086   5.714   1.195  2.4630  0.9589 -0.2932
11889TIP3   OH235609   2.123   6.002   4.337  0.1215  0.3834 -0.2382
11889TIP3    H135610   2.029   5.982   4.340  0.2629 -0.2379  0.4899
11889TIP3    H235611   2.128   6.085   4.289 -0.8102  0.5017 -0.1641
11890TIP3   OH235612   5.976   7.298   4.542  0.3497  0.2211 -0.5317
11890TIP3    H135613   5.901   7.295   4.601  0.1433  1.0887 -0.7423
11890TIP3    H235614   6.046   7.253   4.590 -0.1267 -0.0659 -0.0941
11891TIP3   OH235615   2.917   3.647   1.878 -0.2394 -0.0608  0.1157
11891TIP3    H135616   2.907   3.612   1.966  0.0772 -0.6167 -0.0677
11891TIP3    H235617   2.833   3.628   1.836 -0.4510  0.3500  0.3389
11892TIP3   OH235618   5.187   7.519   3.562  0.0069  0.3089 -0.1762
11892TIP3    H135619   5.140   7.447   3.604  0.8468  0.3027  0.8016
11892TIP3    H235620   5.234   7.477   3.489  1.5344 -0.4357  1.1618
11893TIP3   OH235621   0.773   0.893   2.922 -0.3504  0.7941 -0.0237
11893TIP3    H135622   0.682   0.906   2.896 -0.2317 -0.4480 -1.2003
11893TIP3    H235623   0.772   0.812   2.972  0.4750 -1.0213 -2.7084
11894TIP3   OH235624   6.709   0.505   4.726  0.1609 -0.0425  0.1657
11894TIP3    H135625   6.796   0.478   4.755 -0.2818  0.1648  1.7818
11894TIP3    H235626   6.651   0.435   4.755 -0.2907  0.1196 -0.3343
11895TIP3   OH235627   1.290   2.693   5.819  0.4496 -0.0741 -0.4998
11895TIP3    H135628   1.309   2.718   5.729  1.2325  1.4760  0.0543
11895TIP3    H235629   1.307   2.599   5.823  0.0448 -0.2358 -2.0392
11896TIP3   OH235630   6.555   7.507   0.527 -0.5512 -0.7770  0.1935
11896TIP3    H135631   6.546   7.593   0.486 -0.6547 -1.6773 -1.8190
11896TIP3    H235632   6.472   7.492   0.572 -0.0928  0.6319  1.5982
11897TIP3   OH235633   4.652   0.404   3.744  0.0766  0.3300 -0.0569
11897TIP3    H135634   4.679   0.446   3.825  1.2852 -1.5704  0.5775
11897TIP3    H235635   4.654   0.310   3.763 -0.5892 -0.1319 -1.9910
11898TIP3   OH235636   3.782   4.721   2.692 -0.4620  0.1057 -0.1661
11898TIP3    H135637   3.787   4.803   2.641 -1.0048  0.8708  0.9695
11898TIP3    H235638   3.853   4.728   2.755 -0.9598  0.0504  0.4141
11899TIP3   OH235639   3.249   6.296   5.424  0.1056 -0.1002 -0.4298
11899TIP3    H135640   3.279   6.221   5.476 -0.1243  0.2540  0.2343
11899TIP3    H235641   3.329   6.344   5.402  0.2261 -0.3789 -0.5953
11900TIP3   OH235642   5.881   2.890   5.960 -0.0323  1.0678 -0.5139
11900TIP3    H135643   5.805   2.854   5.915 -0.0483  0.5654 -0.0988
11900TIP3    H235644   5.858   2.886   6.053  1.6065 -1.9174 -0.1012
11901TIP3   OH235645   5.062   0.570   3.860  0.1706 -0.0873 -0.2237
11901TIP3    H135646   5.059   0.486   3.813 -0.8388  0.1270 -0.5577
11901TIP3    H235647   4.981   0.572   3.911 -0.9007  1.6214 -1.8678
11902TIP3   OH235648   7.422   1.760   4.982  0.1608  0.1358 -0.0213
11902TIP3    H135649   7.489   1.712   4.933  1.1449 -0.4897  1.8574
11902TIP3    H235650   7.412   1.842   4.934  2.2014  0.1954 -0.4188
11903TIP3   OH235651   8.240   0.896   5.089  0.7845 -0.0145 -0.3392
11903TIP3    H135652   8.333   0.899   5.067  0.3620 -1.4066 -2.6958
11903TIP3    H235653   8.199   0.958   5.028  0.3428  2.5740  2.3888
11904TIP3   OH235654   4.656   3.012   6.358 -0.1656 -0.0868 -0.0804
11904TIP3    H135655   4.665   3.018   6.263  1.8687 -1.3558 -0.0154
11904TIP3    H235656   4.699   3.091   6.392 -0.1982 -0.0234 -0.1872
11905TIP3   OH235657   5.151   4.703   6.615 -0.8708 -0.1391 -0.3782
11905TIP3    H135658   5.231   4.680   6.569 -1.0844 -0.3905 -0.6343
11905TIP3    H235659   5.082   4.689   6.550 -1.1531 -0.2551 -0.0567
11906TIP3   OH235660   1.024   6.647   2.142 -0.8834 -0.6457  0.3953
11906TIP3    H135661   1.081   6.620   2.070 -1.7266  0.3696 -0.6859
11906TIP3    H235662   1.065   6.610   2.221  0.8448 -0.5627 -0.4331
11907TIP3   OH235663   7.017   2.313   5.502 -0.1434  0.3615  0.8722
11907TIP3    H135664   6.978   2.256   5.568 -1.2647  0.7301  0.5370
11907TIP3    H235665   6.982   2.400   5.521 -1.9317  0.1841 -1.2749
11908TIP3   OH235666   5.534   3.054   3.163  0.2928 -0.2680 -0.1031
11908TIP3    H135667   5.584   3.120   3.116  1.5053 -1.8235 -1.1228
11908TIP3    H235668   5.595   3.019   3.228  1.1562 -3.0608 -2.1848
11909TIP3   OH235669   4.663   1.045   2.159 -0.0093  0.1250  0.0279
11909TIP3    H135670   4.604   1.088   2.222 -0.5052  0.7810 -0.8534
11909TIP3    H235671   4.606   1.022   2.085  0.7460  0.3046 -0.6208
11910TIP3   OH235672   1.556   1.139   2.124  0.1956 -0.1654  0.0251
11910TIP3    H135673   1.597   1.116   2.207 -1.0583 -2.2763  0.1094
11910TIP3    H235674   1.622   1.193   2.079  1.1632  0.4330  2.0573
11911TIP3   OH235675   7.087   4.275   6.547 -0.2861  0.6721  0.3414
11911TIP3    H135676   7.135   4.262   6.629 -1.8249  1.4159  1.3973
11911TIP3    H235677   7.002   4.234   6.562 -0.4069  0.3274 -1.1107
11912TIP3   OH235678   6.546   4.582   3.939  0.3925  0.3973  0.8099
11912TIP3    H135679   6.462   4.535   3.937  0.3681  0.4051 -1.8724
11912TIP3    H235680   6.523   4.672   3.961 -0.4352  0.5411 -0.5350
11913TIP3   OH235681   0.960   6.343   0.636  0.8739  0.4496  0.3078
11913TIP3    H135682   1.015   6.272   0.600  2.0450  0.4543  1.9889
11913TIP3    H235683   0.910   6.302   0.706 -1.4332  0.4344 -1.2416
11914TIP3   OH235684   6.056   5.439   4.282  0.2095  0.1103  0.3243
11914TIP3    H135685   5.961   5.448   4.278  0.1918 -0.2788 -0.4690
11914TIP3    H235686   6.086   5.518   4.326 -0.6088 -0.7199  2.4665
11915TIP3   OH235687   5.985   7.698   0.550  0.1738  0.0990  0.0274
11915TIP3    H135688   6.021   7.625   0.499 -0.1236  0.7970 -1.2200
11915TIP3    H235689   5.894   7.674   0.567 -0.0232  0.3276 -0.6848
11916TIP3   OH235690   2.472   1.676   6.258 -0.1642  0.3645 -0.3147
11916TIP3    H135691   2.481   1.759   6.305  1.2999  2.3462 -3.6966
11916TIP3    H235692   2.378   1.668   6.242 -0.5887  0.0878  2.0008
11917TIP3   OH235693   4.668   1.689   3.031  0.1886 -0.5821 -0.1289
11917TIP3    H135694   4.716   1.673   2.950  0.8426 -1.4938  0.4204
11917TIP3    H235695   4.664   1.785   3.038  1.0770 -0.4917 -0.6854
11918TIP3   OH235696   4.197   1.626   4.253  0.0007 -0.0690  0.3242
11918TIP3    H135697   4.274   1.615   4.197 -1.3584  0.4849 -1.8033
11918TIP3    H235698   4.225   1.684   4.323  1.1332  1.3845 -1.2599
11919TIP3   OH235699   6.130   2.813   1.602  0.1992  0.8237  0.4134
11919TIP3    H135700   6.074   2.735   1.603 -0.0889  1.0145 -0.3704
11919TIP3    H235701   6.077   2.881   1.561  0.8980  1.0802 -0.0961
11920TIP3   OH235702   6.117   2.527   4.138  0.1314 -0.1214  0.4149
11920TIP3    H135703   6.161   2.544   4.221  1.7292  1.6454 -0.7221
11920TIP3    H235704   6.122   2.432   4.127  5.0645 -0.0258 -0.2855
11921TIP3   OH235705   6.376   2.090   6.666  0.1058 -0.0787 -0.1704
11921TIP3    H135706   6.463   2.086   6.627 -0.3815 -0.0920 -1.2933
11921TIP3    H235707   6.328   2.018   6.625 -0.0224 -1.0340  1.5343
11922TIP3   OH235708   1.786   1.231   5.259 -0.2588 -0.2487  0.2701
11922TIP3    H135709   1.791   1.311   5.207  2.2159 -0.8340 -0.5313
11922TIP3    H235710   1.729   1.173   5.208  1.9405 -0.7288 -1.8327
11923TIP3   OH235711   4.366   3.124   6.189  0.1390  0.2088 -0.0853
11923TIP3    H135712   4.368   3.056   6.256  2.4891 -0.2794 -0.5494
11923TIP3    H235713   4.435   3.185   6.215 -1.2389  1.8859 -0.2361
11924TIP3   OH235714   7.644   4.288   5.369  0.4546  0.1980  0.2478
11924TIP3    H135715   7.692   4.363   5.334  2.0756 -0.6011  0.6048
11924TIP3    H235716   7.569   4.277   5.311  1.6466  0.4940 -1.4286
11925TIP3   OH235717   3.056   4.650   1.929  0.2866 -0.1731  0.6018
11925TIP3    H135718   2.987   4.665   1.994  0.0818 -0.0094  0.3484
11925TIP3    H235719   3.033   4.566   1.889  0.5681 -0.4103  0.9344
11926TIP3   OH235720   5.061   1.855   5.250  0.4070  0.0752 -0.1802
11926TIP3    H135721   5.064   1.775   5.197 -2.4989  0.6840 -1.4464
11926TIP3    H235722   5.077   1.824   5.340  1.6002 -1.5439 -0.8940
11927TIP3   OH235723   7.756   2.000   3.291 -0.4044  0.4477 -0.4936
11927TIP3    H135724   7.685   2.030   3.347  1.0436 -0.3448  1.8965
11927TIP3    H235725   7.802   2.080   3.265 -1.3279  0.8514 -0.9478
11928TIP3   OH235726   2.503   7.325   1.670 -0.3253  0.2260  0.5096
11928TIP3    H135727   2.556   7.246   1.660  0.9238  0.8926  1.5652
11928TIP3    H235728   2.559   7.396   1.635 -1.1086  0.7591  0.3058
11929TIP3   OH235729   6.050   0.327   6.148 -0.4373 -0.7219  0.0897
11929TIP3    H135730   6.060   0.422   6.156  1.2072 -0.6976 -1.5888
11929TIP3    H235731   6.011   0.313   6.062 -1.7022 -1.5583  0.7634
11930TIP3   OH235732   3.171   0.570   6.409  0.3963  0.1966  0.3934
11930TIP3    H135733   3.236   0.634   6.382  0.8078 -0.3006  0.1926
11930TIP3    H235734   3.139   0.532   6.327 -1.8438  2.0468  0.3075
11931TIP3   OH235735   7.653   3.027   3.727 -0.1791  0.2112  0.0038
11931TIP3    H135736   7.598   3.040   3.803 -0.8171 -0.7973 -0.2631
11931TIP3    H235737   7.725   3.089   3.738 -0.3128  0.1486  1.3655
11932TIP3   OH235738   5.014   5.254   2.150 -0.1404 -0.1589  0.3958
11932TIP3    H135739   5.097   5.256   2.101 -1.4002  0.6126 -1.8531
11932TIP3    H235740   5.025   5.322   2.217  1.0034  0.0467  0.0244
11933TIP3   OH235741   8.199   1.530   3.720 -0.0410  0.3535  0.2078
11933TIP3    H135742   8.239   1.497   3.639  0.4436 -1.4834  1.1489
11933TIP3    H235743   8.112   1.489   3.721 -0.1068  0.5040  0.5272
11934TIP3   OH235744   2.237   6.263   3.929  0.5377  0.6630  0.0502
11934TIP3    H135745   2.209   6.284   3.840  0.2304  1.6189  0.3661
11934TIP3    H235746   2.249   6.168   3.928 -0.2397  0.5581 -0.7925
11935TIP3   OH235747   2.181   5.031   0.540  0.1461  0.1366  0.3031
11935TIP3    H135748   2.256   4.985   0.578  0.2194  0.1923  0.2254
11935TIP3    H235749   2.184   5.118   0.580 -0.9349 -0.4365  1.6936
11936TIP3   OH235750   3.661   1.035   2.946 -0.1027  0.4430 -0.1314
11936TIP3    H135751   3.717   1.033   3.023  0.4718  1.6498 -0.4891
11936TIP3    H235752   3.574   1.010   2.978  0.1498  0.8301  0.8893
11937TIP3   OH235753   1.952   1.075   6.154  0.3349  0.4857 -0.5102
11937TIP3    H135754   1.952   1.045   6.245 -0.4768 -3.6825 -1.6338
11937TIP3    H235755   1.863   1.107   6.140 -0.3263 -1.1791 -0.3765
11938TIP3   OH235756   6.213   4.697   4.297  0.3934  0.3883 -0.9341
11938TIP3    H135757   6.278   4.636   4.261  0.2578  0.4719 -1.3153
11938TIP3    H235758   6.129   4.664   4.265  0.2461  0.2894 -0.4529
11939TIP3   OH235759   2.288   3.151   5.767 -0.3797  0.7111 -0.5581
11939TIP3    H135760   2.285   3.197   5.684 -0.7407  2.6176  0.4630
11939TIP3    H235761   2.203   3.108   5.774 -1.4330  2.7789  0.0061
11940TIP3   OH235762   6.113   6.369   5.819 -0.1544  0.9894  0.2661
11940TIP3    H135763   6.207   6.350   5.822 -0.2879  0.4841  2.3434
11940TIP3    H235764   6.076   6.293   5.773  0.4452  1.2977 -0.7744
11941TIP3   OH235765   1.308   2.087   2.732 -0.2466 -0.1686 -0.2987
11941TIP3    H135766   1.279   2.177   2.746  0.1934 -0.0591 -0.0735
11941TIP3    H235767   1.356   2.065   2.812 -0.5969 -0.7014 -0.2300
11942TIP3   OH235768   3.150   0.702   2.065  0.0598 -0.0137  0.0700
11942TIP3    H135769   3.228   0.686   2.118 -0.2526  1.6332  1.1050
11942TIP3    H235770   3.077   0.687   2.125 -0.5320 -2.6583 -1.1897
11943TIP3   OH235771   4.911   0.552   3.297  0.0963  0.1790  0.5382
11943TIP3    H135772   4.828   0.542   3.343  0.4705  0.4629  1.2805
11943TIP3    H235773   4.972   0.584   3.363  0.4183  1.4979 -0.3643
11944TIP3   OH235774   3.717   2.524   2.459  0.1235 -0.4716 -0.0906
11944TIP3    H135775   3.767   2.571   2.526 -2.0741  0.5135  0.9738
11944TIP3    H235776   3.753   2.436   2.459  0.0641 -0.5733  2.6186
11945TIP3   OH235777   2.627   3.060   6.360  0.3902  0.5697  0.5477
11945TIP3    H135778   2.541   3.033   6.329  0.7109 -0.2545  0.3582
11945TIP3    H235779   2.654   2.990   6.420 -0.2123  2.0877  2.7279
11946TIP3   OH235780   7.743   5.836   5.483  0.3672 -0.4336 -0.0151
11946TIP3    H135781   7.743   5.785   5.564  0.9274 -0.9297 -0.3222
11946TIP3    H235782   7.695   5.782   5.420  1.1443 -0.6864 -0.3980
11947TIP3   OH235783   2.138   6.786   5.506  0.3616 -0.6868 -0.1905
11947TIP3    H135784   2.059   6.819   5.463  0.4361 -0.2633 -0.0045
11947TIP3    H235785   2.206   6.849   5.483 -0.2301  1.3996  3.1208
11948TIP3   OH235786   1.959   2.292   3.131 -0.0164  0.1887 -0.2823
11948TIP3    H135787   1.913   2.317   3.210  0.1917  0.2993 -0.1946
11948TIP3    H235788   1.904   2.224   3.091 -0.6669  0.9039 -0.6163
11949TIP3   OH235789   7.611   5.653   5.306  0.2047  0.3202 -0.5402
11949TIP3    H135790   7.572   5.566   5.297 -0.4378  0.5514 -0.1004
11949TIP3    H235791   7.536   5.713   5.307  0.4384  0.6716  1.5790
11950TIP3   OH235792   3.584   3.166   6.437  0.3202 -0.0141  0.6244
11950TIP3    H135793   3.574   3.257   6.410 -0.0045 -0.4720 -0.9103
11950TIP3    H235794   3.678   3.150   6.431  0.2873 -0.0164  0.0275
11951TIP3   OH235795   0.111   3.270   3.105 -0.1030  0.3562  0.0637
11951TIP3    H135796   0.096   3.178   3.084 -0.3026  0.9003 -2.5881
11951TIP3    H235797   0.038   3.293   3.163 -1.6040 -0.5536 -1.3587
11952TIP3   OH235798   4.609   2.839   3.093  0.0166  0.3256 -0.3707
11952TIP3    H135799   4.572   2.904   3.034  0.1772 -0.8615 -1.8419
11952TIP3    H235800   4.590   2.755   3.051  2.0390 -0.4481  0.1442
11953TIP3   OH235801   8.120   7.535   1.495  0.1921  0.0255 -0.1891
11953TIP3    H135802   8.031   7.527   1.461  1.1346 -0.4430 -2.8701
11953TIP3    H235803   8.155   7.446   1.492  0.3764 -0.0380  2.1615
11954TIP3   OH235804   5.844   5.263   5.278  0.1828 -0.0593  0.4023
11954TIP3    H135805   5.831   5.310   5.360 -0.0880 -0.5718  0.6535
11954TIP3    H235806   5.938   5.243   5.277  0.0769 -0.6132  0.8980
11955TIP3   OH235807   3.349   3.226   5.693 -0.1524  0.0158  0.5418
11955TIP3    H135808   3.312   3.140   5.712  4.1302 -2.0570  0.9336
11955TIP3    H235809   3.329   3.241   5.601  1.2609 -2.8966 -0.3735
11956TIP3   OH235810   3.447   4.133   4.306  0.1340 -0.5015  0.3182
11956TIP3    H135811   3.432   4.074   4.232  1.4813 -1.9793  1.1591
11956TIP3    H235812   3.399   4.092   4.379 -0.4052  0.4357  0.5053
11957TIP3   OH235813   4.305   4.040   4.716  0.0321 -0.2328  0.3458
11957TIP3    H135814   4.227   4.024   4.662 -0.2009 -0.9525  0.8761
11957TIP3    H235815   4.377   3.999   4.668 -0.1746 -0.8677  0.5706
11958TIP3   OH235816   4.448   1.611   0.133 -0.4568  0.2972 -0.1339
11958TIP3    H135817   4.420   1.584   0.046  0.2122  0.2245 -0.3370
11958TIP3    H235818   4.489   1.697   0.119  2.1461 -0.8931 -0.3837
11959TIP3   OH235819   6.269   6.351   2.069  0.0556 -0.3040 -0.1472
11959TIP3    H135820   6.173   6.350   2.073 -0.0270 -1.4014 -1.5302
11959TIP3    H235821   6.291   6.440   2.044 -0.6086 -0.0757  0.0537
11960TIP3   OH235822   5.675   3.441   5.869 -0.0288  0.2117  0.4866
11960TIP3    H135823   5.742   3.506   5.845 -1.5349  1.1034 -1.6452
11960TIP3    H235824   5.593   3.490   5.868 -1.0798 -1.4773 -0.0019
11961TIP3   OH235825   6.076   1.754   5.778 -0.3832 -0.1504  0.1035
11961TIP3    H135826   5.987   1.775   5.749 -0.4592 -0.1316  0.3540
11961TIP3    H235827   6.076   1.770   5.872 -0.0785 -0.0289  0.0844
11962TIP3   OH235828   5.768   4.082   1.283 -0.7048 -0.3652  0.0033
11962TIP3    H135829   5.694   4.124   1.239 -1.6050  0.4822  2.1939
11962TIP3    H235830   5.845   4.113   1.236 -1.5993  0.6957 -0.8062
11963TIP3   OH235831   4.587   0.621   4.250  0.2250  0.1270 -0.3149
11963TIP3    H135832   4.566   0.541   4.298  0.5497  0.2242 -0.0100
11963TIP3    H235833   4.629   0.590   4.169 -1.5285 -0.0920 -1.1743
11964TIP3   OH235834   4.237   0.720   3.733 -0.4606 -0.2716 -0.2681
11964TIP3    H135835   4.156   0.675   3.758 -0.9052  0.4871 -0.2956
11964TIP3    H235836   4.294   0.651   3.699 -2.1694 -0.4740 -3.0156
11965TIP3   OH235837   3.830   1.422   5.349 -0.5013  0.2666  0.3574
11965TIP3    H135838   3.912   1.450   5.391 -0.1538  1.6779 -1.1522
11965TIP3    H235839   3.784   1.504   5.329 -2.4359 -0.5197  1.4074
11966TIP3   OH235840   4.904   0.271   3.266  0.1403  0.0480  0.2879
11966TIP3    H135841   4.809   0.286   3.260  0.0667 -0.1182  0.9178
11966TIP3    H235842   4.942   0.358   3.256 -0.0585  0.0582 -0.3863
11967TIP3   OH235843   4.465   1.152   2.641  0.4705 -0.0762 -0.0917
11967TIP3    H135844   4.372   1.172   2.655 -0.1404 -1.2210 -2.1661
11967TIP3    H235845   4.502   1.234   2.607 -0.2063 -0.1216 -0.9690
11968TIP3   OH235846   7.570   6.201   1.402  0.0111  0.5624  1.0900
11968TIP3    H135847   7.595   6.282   1.358  0.0713  0.3981  0.8172
11968TIP3    H235848   7.477   6.190   1.380  0.2227  0.0901  0.3669
11969TIP3   OH235849   6.230   6.722   1.660  0.4616 -0.7698  0.0025
11969TIP3    H135850   6.208   6.807   1.623  0.5686 -0.1481  1.3004
11969TIP3    H235851   6.178   6.660   1.610 -0.0926  0.1268 -0.5587
11970TIP3   OH235852   7.786   6.906   3.819  0.4617  0.0131  0.1938
11970TIP3    H135853   7.854   6.892   3.754  0.4087 -1.7174  0.4831
11970TIP3    H235854   7.740   6.823   3.825 -0.4219  0.5522  1.4456
11971TIP3   OH235855   4.861   4.048   2.092  0.1058  0.2801 -0.5985
11971TIP3    H135856   4.820   3.970   2.054 -1.9586  1.0855 -0.1427
11971TIP3    H235857   4.815   4.121   2.051  1.0580  1.2589  0.0224
11972TIP3   OH235858   6.256   4.238   0.505  0.2786  0.4288  0.1427
11972TIP3    H135859   6.236   4.251   0.412  0.4181 -1.2068 -0.1485
11972TIP3    H235860   6.227   4.319   0.547 -0.9493  0.7075 -1.1459
11973TIP3   OH235861   4.140   6.146   6.573 -0.3604 -0.4162 -0.0516
11973TIP3    H135862   4.109   6.231   6.604 -0.3585 -0.3886 -0.1260
11973TIP3    H235863   4.070   6.115   6.515 -0.0114 -0.1129 -0.6503
11974TIP3   OH235864   5.965   7.088   0.218 -0.0073  0.8443 -0.3016
11974TIP3    H135865   5.938   7.001   0.187 -0.6426  1.8213 -2.7539
11974TIP3    H235866   6.003   7.129   0.141  0.4092  2.7078  0.8535
11975TIP3   OH235867   7.464   4.482   1.710  0.1159 -0.0541  0.3050
11975TIP3    H135868   7.402   4.473   1.638  1.3005 -0.0514 -0.7609
11975TIP3    H235869   7.506   4.567   1.695  1.4854 -0.7410  0.0579
11976TIP3   OH235870   7.967   6.108   3.150  0.2805  0.2180  0.2741
11976TIP3    H135871   7.964   6.199   3.177  2.0935  0.1736  0.7591
11976TIP3    H235872   8.000   6.060   3.226  1.6440 -0.4663 -0.6768
11977TIP3   OH235873   8.138   3.671   1.930  0.2929  0.3156  0.1228
11977TIP3    H135874   8.173   3.602   1.874  1.4221  0.5230  0.5455
11977TIP3    H235875   8.166   3.752   1.887 -1.4753  0.5512 -0.6635
11978TIP3   OH235876   4.333   6.753   0.896  0.2204 -0.2845  0.5218
11978TIP3    H135877   4.396   6.685   0.918 -0.4615 -1.0788  0.0930
11978TIP3    H235878   4.386   6.829   0.872  1.0158 -1.0291 -0.1245
11979TIP3   OH235879   0.795   1.403   1.834 -0.0729 -0.6787  0.6099
11979TIP3    H135880   0.882   1.444   1.844  0.5200 -1.3349 -1.3943
11979TIP3    H235881   0.782   1.355   1.916  1.5090 -0.6520  0.9214
11980TIP3   OH235882   7.187   4.565   0.799  0.1383  0.4065 -0.3022
11980TIP3    H135883   7.196   4.619   0.878 -0.4923  0.2350 -0.1134
11980TIP3    H235884   7.204   4.626   0.727  0.8645  0.5315 -0.0414
11981TIP3   OH235885   0.685   6.039   1.381  0.3264 -0.1218  0.2262
11981TIP3    H135886   0.769   6.005   1.411  0.2613 -0.0707  0.4663
11981TIP3    H235887   0.650   5.970   1.324 -0.3828 -1.0197  1.6957
11982TIP3   OH235888   0.344   6.474   6.687 -0.1317  0.2240  0.3566
11982TIP3    H135889   0.317   6.536   6.621  0.7518  1.8258  1.4292
11982TIP3    H235890   0.393   6.526   6.751 -2.0006 -0.9764  2.9461
11983TIP3   OH235891   1.334   3.251   5.834 -0.1592  0.4216  0.0282
11983TIP3    H135892   1.363   3.273   5.922 -0.5943 -0.2494  0.3437
11983TIP3    H235893   1.361   3.160   5.821  0.1236  0.5875 -0.6271
11984TIP3   OH235894   1.643   6.519   4.306 -0.3492 -0.3311  0.0473
11984TIP3    H135895   1.704   6.446   4.296  0.2549  0.0661  0.6962
11984TIP3    H235896   1.699   6.597   4.306 -1.1533  0.3699 -3.0146
11985TIP3   OH235897   5.532   5.976   0.224  0.6579  0.2240  0.3731
11985TIP3    H135898   5.451   5.933   0.195  0.0054  1.3524  0.4623
11985TIP3    H235899   5.569   5.915   0.288 -0.4125 -0.0748  0.7383
11986TIP3   OH235900   5.205   3.671   5.578  0.1590 -1.0304  0.4512
11986TIP3    H135901   5.295   3.701   5.589 -0.5053  0.1655  3.4324
11986TIP3    H235902   5.209   3.578   5.600  0.5809 -0.8629  1.1176
11987TIP3   OH235903   6.370   2.913   1.700 -0.5380 -0.1109  0.4975
11987TIP3    H135904   6.386   2.883   1.790 -2.1941  0.2161  0.9314
11987TIP3    H235905   6.292   2.865   1.672 -1.1331  1.1632 -0.0829
11988TIP3   OH235906   4.393   3.139   1.854  0.3587  0.4269  0.0546
11988TIP3    H135907   4.409   3.229   1.826  1.0266  0.2788 -0.0543
11988TIP3    H235908   4.318   3.110   1.802  1.4369  0.2223 -1.4734
11989TIP3   OH235909   0.385   4.553   5.243  0.0228  0.0073 -0.5695
11989TIP3    H135910   0.469   4.597   5.225 -0.2728  0.0350 -1.9830
11989TIP3    H235911   0.392   4.525   5.334  1.5124  0.1550 -0.6138
11990TIP3   OH235912   1.527   5.725   5.812  0.2838  0.3446  0.1428
11990TIP3    H135913   1.466   5.668   5.860  1.3520 -0.8187  0.1762
11990TIP3    H235914   1.531   5.687   5.725 -0.3399  1.4412 -0.3772
11991TIP3   OH235915   1.863   0.286   4.189  0.1515  0.2516 -0.4423
11991TIP3    H135916   1.907   0.274   4.105 -0.8053  1.3405 -1.1314
11991TIP3    H235917   1.823   0.201   4.208 -0.0875  0.1537 -1.3619
11992TIP3   OH235918   2.077   5.699   5.615  0.0624  0.0776 -0.4952
11992TIP3    H135919   1.998   5.744   5.585  0.3952  1.3326  0.4588
11992TIP3    H235920   2.124   5.676   5.535  0.7303  2.9735 -1.0234
11993TIP3   OH235921   4.296   0.421   3.949  0.0075  0.1836 -0.1163
11993TIP3    H135922   4.304   0.516   3.955  1.0278  0.1340 -0.5133
11993TIP3    H235923   4.237   0.407   3.874 -2.7837  0.5201  1.8331
11994TIP3   OH235924   1.588   3.109   5.529  0.0863 -1.1646  0.2279
11994TIP3    H135925   1.596   3.032   5.585  1.0889 -1.1923  0.0662
11994TIP3    H235926   1.599   3.184   5.588  0.1782 -1.1756  0.2256
11995TIP3   OH235927   2.919   3.021   1.208  0.2960  0.0650 -0.4066
11995TIP3    H135928   2.891   2.965   1.136 -0.0545 -0.0287 -0.2006
11995TIP3    H235929   2.888   3.108   1.184 -0.1696 -0.0381 -0.1810
11996TIP3   OH235930   4.017   0.523   3.799 -0.5924  0.0368  0.5150
11996TIP3    H135931   3.931   0.553   3.771 -0.6963 -1.0148 -0.3524
11996TIP3    H235932   4.030   0.564   3.884 -1.1964  1.6060 -0.1092
11997TIP3   OH235933   0.258   5.712   5.252 -0.2061  0.6752 -0.7131
11997TIP3    H135934   0.251   5.793   5.302 -0.7655 -0.2509  0.7864
11997TIP3    H235935   0.351   5.690   5.253 -0.3157  0.1728  0.8082
11998TIP3   OH235936   0.712   4.067   1.033 -0.4731 -0.5180  0.6006
11998TIP3    H135937   0.720   4.082   0.939  0.5376  0.5078  0.8286
11998TIP3    H235938   0.690   4.152   1.070 -0.3911 -0.8023  1.3367
11999TIP3   OH235939   6.136   3.997   1.947 -0.0214  0.3825  0.1652
11999TIP3    H135940   6.159   3.983   2.040 -0.4208  1.6324  0.4590
11999TIP3    H235941   6.173   3.920   1.903  0.1008 -0.2836  1.3664
12000TIP3   OH235942   7.171   2.017   3.680 -0.2320 -0.0302 -0.0899
12000TIP3    H135943   7.167   1.930   3.719  0.1694 -0.0531 -0.0892
12000TIP3    H235944   7.150   2.003   3.588 -0.5689 -0.0670 -0.0087
12001TIP3   OH235945   3.198   5.565   0.293  0.6097  0.7276 -0.0809
12001TIP3    H135946   3.156   5.579   0.378  1.9288  0.6558  0.6012
12001TIP3    H235947   3.132   5.519   0.241  0.9324 -2.4539  2.0581
12002TIP3   OH235948   0.584   0.224   1.234  0.2719 -0.0605 -1.1243
12002TIP3    H135949   0.559   0.314   1.254  0.6867 -0.5045  1.9170
12002TIP3    H235950   0.657   0.232   1.173  1.4891  1.7944  0.4635
12003TIP3   OH235951   4.483   3.810   6.538  0.4771 -0.5179  0.3147
12003TIP3    H135952   4.445   3.893   6.568 -1.8874 -1.8395  1.2975
12003TIP3    H235953   4.512   3.827   6.449 -0.8283  1.1311  0.1558
12004TIP3   OH235954   4.646   3.707   0.708  0.4957 -0.0295  0.2079
12004TIP3    H135955   4.723   3.730   0.759  2.7554 -2.0210 -2.0508
12004TIP3    H235956   4.586   3.669   0.773  2.5177 -0.9328  1.6736
12005TIP3   OH235957   6.649   6.421   4.067 -0.7102  0.4246 -0.2558
12005TIP3    H135958   6.609   6.358   4.127  0.8769 -0.5688 -0.1671
12005TIP3    H235959   6.685   6.489   4.124  0.0450 -0.0764 -0.1162
12006TIP3   OH235960   8.148   7.690   3.590  0.1972 -0.3300 -0.2620
12006TIP3    H135961   8.178   7.600   3.605  3.2618  0.4205 -1.0071
12006TIP3    H235962   8.221   7.731   3.544 -0.9224  2.6717  0.4249
12007TIP3   OH235963   3.066   5.202   3.224  0.0640 -0.2024 -0.3170
12007TIP3    H135964   3.146   5.254   3.231 -0.6033  0.7967  0.2016
12007TIP3    H235965   3.094   5.118   3.188  1.7010 -0.7013  1.9126
12008TIP3   OH235966   7.677   5.846   5.124 -0.1916  0.1369  0.1087
12008TIP3    H135967   7.711   5.796   5.049 -0.1063  0.4158 -0.0431
12008TIP3    H235968   7.668   5.782   5.194 -2.5981 -0.6436 -0.8302
12009TIP3   OH235969   8.132   6.649   6.618  0.0223 -0.2676 -0.1664
12009TIP3    H135970   8.041   6.639   6.589  0.3487 -0.9821 -0.9817
12009TIP3    H235971   8.137   6.599   6.699 -1.5028  3.5917  2.6205
12010TIP3   OH235972   0.285   2.569   4.282 -0.5151  0.6486  0.4295
12010TIP3    H135973   0.218   2.630   4.250  0.1361  0.5680 -1.2078
12010TIP3    H235974   0.240   2.515   4.347 -1.7767  1.2168  0.0576
12011TIP3   OH235975   1.944   0.268   1.648  0.4344 -0.5794 -0.7620
12011TIP3    H135976   2.017   0.299   1.702 -1.2483  0.6970  0.8906
12011TIP3    H235977   1.915   0.346   1.600 -0.9188 -0.6470 -0.0856
12012TIP3   OH235978   6.779   3.644   6.459 -0.0183  0.1823  0.0470
12012TIP3    H135979   6.769   3.656   6.554 -0.0384 -0.5840  0.1519
12012TIP3    H235980   6.690   3.657   6.424 -0.0309  0.3647  0.1451
12013TIP3   OH235981   2.982   1.480   5.642  0.6621  0.0643  0.1568
12013TIP3    H135982   3.032   1.445   5.569  0.3797  2.7210 -1.4143
12013TIP3    H235983   3.028   1.560   5.667 -0.3517  0.2309  1.6020
12014TIP3   OH235984   1.461   5.930   6.242  0.0863 -0.1018 -0.1128
12014TIP3    H135985   1.539   5.943   6.188 -0.0275  2.0605  0.1534
12014TIP3    H235986   1.490   5.949   6.331 -0.7478  0.7683 -0.0171
12015TIP3   OH235987   7.890   3.855   6.347  0.6822 -0.5552  0.3537
12015TIP3    H135988   7.944   3.796   6.399 -0.7349 -2.6492 -0.4280
12015TIP3    H235989   7.938   3.865   6.264  1.6464  0.6575  1.0235
12016TIP3   OH235990   4.096   6.264   4.523  0.4095 -0.2394 -0.8516
12016TIP3    H135991   4.168   6.283   4.582 -1.0664 -0.2686  1.0456
12016TIP3    H235992   4.083   6.169   4.530  2.0926 -0.7959 -3.5788
12017TIP3   OH235993   0.680   2.724   5.810 -0.7474 -0.3006 -0.4687
12017TIP3    H135994   0.748   2.698   5.871  0.1867 -1.4125 -1.9142
12017TIP3    H235995   0.670   2.819   5.824  2.2664  0.2457 -1.2792
12018TIP3   OH235996   6.567   5.967   1.784 -0.0062  0.3950  0.1874
12018TIP3    H135997   6.616   6.039   1.744 -0.6890  0.1799 -1.0881
12018TIP3    H235998   6.532   6.005   1.865 -1.6549  2.0360 -1.1992
12019TIP3   OH235999   1.095   5.039   5.237 -0.5223 -0.5190 -0.3052
12019TIP3    H136000   1.187   5.063   5.227 -0.7566  0.2743 -0.5975
12019TIP3    H236001   1.084   5.024   5.331 -0.2991  0.2342 -0.1559
12020TIP3   OH236002   8.006   6.222   2.114  0.1041  0.0841 -0.6266
12020TIP3    H136003   8.058   6.154   2.072  0.5737  0.9014 -1.4219
12020TIP3    H236004   8.021   6.300   2.060 -0.3759  0.8272  0.2797
12021TIP3   OH236005   1.261   5.749   5.333  0.4577 -0.1147 -0.1108
12021TIP3    H136006   1.312   5.816   5.288 -0.7477 -0.0312 -1.3862
12021TIP3    H236007   1.257   5.779   5.424 -1.6025  2.5493 -0.9700
12022TIP3   OH236008   4.299   1.978   5.155 -0.4652 -0.4714  0.1949
12022TIP3    H136009   4.210   2.001   5.180 -0.5084 -1.9484  1.4810
12022TIP3    H236010   4.298   1.883   5.144  1.0959 -0.6050  0.9010
12023TIP3   OH236011   4.170   0.901   2.561  0.1620  0.1129 -0.0341
12023TIP3    H136012   4.142   0.958   2.489  0.0316 -0.0811 -0.1377
12023TIP3    H236013   4.200   0.961   2.629 -1.0273  0.3450  0.3007
12024TIP3   OH236014   3.038   5.912   5.917 -0.4307  0.0401  0.3218
12024TIP3    H136015   3.127   5.885   5.941 -0.5964 -1.1469 -0.3170
12024TIP3    H236016   2.988   5.902   5.998 -0.3829 -1.1926  0.2226
12025TIP3   OH236017   4.057   4.601   1.394  0.0199  0.0880  0.3394
12025TIP3    H136018   4.140   4.570   1.358 -0.1627  1.1091 -1.0652
12025TIP3    H236019   3.993   4.579   1.326 -0.4498  1.4573  0.3192
12026TIP3   OH236020   7.721   2.104   5.335 -0.0306 -0.8093 -0.1600
12026TIP3    H136021   7.643   2.090   5.388 -0.9907 -2.5734 -1.9308
12026TIP3    H236022   7.701   2.063   5.251  1.0333  2.5720 -2.3054
12027TIP3   OH236023   3.702   0.775   5.565  0.0379  0.7299 -0.0493
12027TIP3    H136024   3.671   0.849   5.616 -0.3212  1.1598 -0.8878
12027TIP3    H236025   3.622   0.731   5.534  0.2446  1.0030 -0.9992
12028TIP3   OH236026   5.514   1.952   5.896  0.4095  0.2794 -0.5822
12028TIP3    H136027   5.526   1.941   5.990  0.9536 -1.6809 -0.8335
12028TIP3    H236028   5.569   2.027   5.873  1.3701 -0.0775  0.4596
12029TIP3   OH236029   0.194   7.458   4.338  0.3562  0.4029 -0.1920
12029TIP3    H136030   0.101   7.467   4.359  0.6367 -0.3303  1.5061
12029TIP3    H236031   0.194   7.423   4.249 -0.9937  0.5898 -0.2947
12030TIP3   OH236032   0.663   5.362   5.051  0.2349  0.0202  0.4413
12030TIP3    H136033   0.716   5.297   5.004 -1.0880 -0.7945  0.0059
12030TIP3    H236034   0.634   5.422   4.983  1.6716  1.2770  0.8821
12031TIP3   OH236035   0.723   4.149   5.202 -0.6251 -0.2856 -0.5148
12031TIP3    H136036   0.721   4.056   5.225 -2.0247 -0.3741 -0.9250
12031TIP3    H236037   0.667   4.191   5.267 -0.2958  0.2289 -0.5551
12032TIP3   OH236038   2.807   6.737   3.724  0.0459  0.2998  1.0075
12032TIP3    H136039   2.811   6.742   3.819  0.6774 -0.5230  1.0364
12032TIP3    H236040   2.864   6.663   3.701 -0.4178  0.2284  0.0195
12033TIP3   OH236041   7.666   4.605   4.486 -0.2304  0.0121 -0.0479
12033TIP3    H136042   7.706   4.635   4.404 -1.7253 -0.8530 -1.1559
12033TIP3    H236043   7.724   4.534   4.516  0.0142 -0.0674 -0.6830
12034TIP3   OH236044   2.259   3.445   3.202 -0.2698 -0.2598 -0.2887
12034TIP3    H136045   2.275   3.410   3.290 -1.1217 -1.1922 -0.4794
12034TIP3    H236046   2.264   3.368   3.145  0.5229  0.3728 -1.1019
12035TIP3   OH236047   2.347   2.906   4.036  0.2846  0.1376 -0.4029
12035TIP3    H136048   2.298   2.987   4.044  1.3697  0.6831  1.1937
12035TIP3    H236049   2.404   2.919   3.961  1.9299  1.7398  1.0297
12036TIP3   OH236050   6.751   4.442   3.201  0.4941  0.6751  0.3706
12036TIP3    H136051   6.797   4.495   3.135  2.0088  0.2921  1.0803
12036TIP3    H236052   6.671   4.492   3.220  1.3215  2.1345  0.1783
12037TIP3   OH236053   1.708   7.414   3.602  0.5227 -0.4523  0.3474
12037TIP3    H136054   1.768   7.346   3.632  0.3241 -0.4079  0.8578
12037TIP3    H236055   1.646   7.368   3.546 -0.9867 -1.1724  2.4613
12038TIP3   OH236056   3.257   5.129   1.676  0.1540  0.1085  0.2760
12038TIP3    H136057   3.223   5.137   1.765 -0.9941 -1.5215  0.0168
12038TIP3    H236058   3.336   5.184   1.676 -1.4213  2.5602  1.4130
12039TIP3   OH236059   4.263   6.929   5.726 -0.2355 -0.1180 -0.9255
12039TIP3    H136060   4.249   6.955   5.635  0.5010  0.5193 -0.8738
12039TIP3    H236061   4.212   6.992   5.777 -0.4565 -0.3280 -0.8848
12040TIP3   OH236062   8.217   4.404   2.918  0.4598  0.2514  0.4798
12040TIP3    H136063   8.311   4.397   2.901  0.7079  0.0521  1.8191
12040TIP3    H236064   8.180   4.435   2.836  1.5984 -0.4025 -0.3073
12041TIP3   OH236065   7.227   2.761   0.062 -0.7182  0.2513  0.0104
12041TIP3    H136066   7.280   2.761   0.141  0.8525 -1.4878 -0.9536
12041TIP3    H236067   7.266   2.829   0.007 -0.6013  0.1717 -0.0055
12042TIP3   OH236068   4.188   7.496   3.219 -0.0808 -0.5746  0.7462
12042TIP3    H136069   4.206   7.559   3.289  0.3446 -1.0848  1.0990
12042TIP3    H236070   4.095   7.507   3.200  0.4051  1.7657 -0.7754
12043TIP3   OH236071   6.033   3.105   4.037 -0.1080 -0.2209 -0.0835
12043TIP3    H136072   6.099   3.076   3.974 -0.3295  1.2194 -1.0100
12043TIP3    H236073   5.950   3.086   3.995 -0.2740 -0.1312  0.2004
12044TIP3   OH236074   2.137   2.933   0.597 -0.2787 -0.0961  0.6761
12044TIP3    H136075   2.146   2.972   0.684 -1.3910  0.3533  0.6073
12044TIP3    H236076   2.210   2.873   0.590  0.2598  0.4291  1.6262
12045TIP3   OH236077   5.309   5.832   0.234 -0.2411  0.4589  0.6780
12045TIP3    H136078   5.316   5.772   0.308 -0.4917  0.5965  0.8143
12045TIP3    H236079   5.304   5.775   0.157  1.0018  0.3249  0.6730
12046TIP3   OH236080   7.781   5.903   3.230 -0.1841  0.1618  0.4151
12046TIP3    H136081   7.764   5.896   3.324 -0.9372 -2.3341  0.1651
12046TIP3    H236082   7.814   5.993   3.218 -1.2713  0.9641  2.8399
12047TIP3   OH236083   0.487   7.180   4.469 -0.5616  0.4154  0.8529
12047TIP3    H136084   0.461   7.210   4.382 -1.3627 -0.7869  0.6539
12047TIP3    H236085   0.422   7.217   4.528  0.4201  1.8734  1.0723
12048TIP3   OH236086   4.179   7.697   2.085 -0.3008 -0.2878  0.1867
12048TIP3    H136087   4.161   7.604   2.099 -0.3595 -0.3913 -0.5441
12048TIP3    H236088   4.208   7.703   1.994  0.6705  0.2758  0.5158
12049TIP3   OH236089   6.928   3.842   5.716 -0.2236 -0.6172  0.0126
12049TIP3    H136090   7.013   3.799   5.714 -1.0204 -2.2696 -0.8652
12049TIP3    H236091   6.912   3.868   5.625 -0.6216 -0.2407  0.1852
12050TIP3   OH236092   7.698   1.733   2.587  0.0143  0.3595  0.1090
12050TIP3    H136093   7.714   1.794   2.659  0.4612 -0.1033  0.4109
12050TIP3    H236094   7.784   1.696   2.568 -0.0300  0.7589 -0.9266
12051TIP3   OH236095   5.684   0.841   0.623  0.0489 -0.2937 -0.3768
12051TIP3    H136096   5.733   0.921   0.645  1.2302 -1.9112  4.0198
12051TIP3    H236097   5.750   0.783   0.585  0.1169 -0.4467 -0.0275
12052TIP3   OH236098   1.524   4.441   5.121  0.1481 -0.0401 -0.4393
12052TIP3    H136099   1.589   4.395   5.175  0.9211  1.6818  0.1399
12052TIP3    H236100   1.573   4.474   5.046 -0.4918 -0.5024 -1.0826
12053TIP3   OH236101   5.627   0.483   2.993 -0.5836 -0.1426  0.3133
12053TIP3    H136102   5.630   0.499   2.899 -1.3214 -0.4010  0.2366
12053TIP3    H236103   5.573   0.555   3.028 -0.6244 -0.2547  0.4834
12054TIP3   OH236104   6.515   6.881   5.343  0.9059  0.6900 -0.4562
12054TIP3    H136105   6.588   6.898   5.283  1.2336  0.4665 -0.1286
12054TIP3    H236106   6.546   6.808   5.397  0.5630  0.8000 -0.1080
12055TIP3   OH236107   1.270   3.468   5.648  0.3950  0.1686 -0.7077
12055TIP3    H136108   1.292   3.386   5.691 -0.1225  0.6246  0.4653
12055TIP3    H236109   1.309   3.461   5.561 -0.8414 -1.8886 -1.1424
12056TIP3   OH236110   2.092   6.332   4.175  0.1808  0.3534  0.4584
12056TIP3    H136111   2.163   6.300   4.119 -0.7296 -1.0319  0.0331
12056TIP3    H236112   2.134   6.395   4.234  1.9219 -0.9928  0.7446
12057TIP3   OH236113   4.457   7.519   2.395  0.2546 -0.0160  0.2278
12057TIP3    H136114   4.362   7.531   2.393  0.1114 -1.0280  0.6501
12057TIP3    H236115   4.487   7.557   2.312 -0.4634  0.6623  0.2611
12058TIP3   OH236116   1.123   5.018   0.677 -0.1218  0.2474  0.1192
12058TIP3    H136117   1.092   5.048   0.762  0.5128 -1.4462  0.9903
12058TIP3    H236118   1.121   4.922   0.683 -0.7769  0.0645 -2.0484
12059TIP3   OH236119   5.875   2.282   2.371  0.3071 -0.5135 -0.7930
12059TIP3    H136120   5.945   2.342   2.343  0.3625  1.3786  2.8179
12059TIP3    H236121   5.794   2.332   2.358 -0.1833 -1.5849 -2.1874
12060TIP3   OH236122   5.385   4.318   4.006  0.2595 -0.1301 -0.2670
12060TIP3    H136123   5.414   4.332   3.916  1.0474 -0.6314 -0.1003
12060TIP3    H236124   5.457   4.351   4.060 -0.0403 -0.1906  0.1712
12061TIP3   OH236125   0.887   3.187   0.003  0.0396 -0.3854 -0.2071
12061TIP3    H136126   0.906   3.181   0.096  1.6635  0.9123 -0.4189
12061TIP3    H236127   0.943   3.120  -0.037 -1.2215 -1.4775 -0.2223
12062TIP3   OH236128   1.729   2.564   5.590 -0.1536 -0.7071  0.3654
12062TIP3    H136129   1.704   2.474   5.609  0.3367 -0.7845  0.6417
12062TIP3    H236130   1.650   2.603   5.552 -0.1120 -1.4912 -0.5600
12063TIP3   OH236131   0.275   0.249   0.894  0.6777 -0.0449 -0.5518
12063TIP3    H136132   0.270   0.154   0.885 -2.1454  0.0940 -1.4375
12063TIP3    H236133   0.277   0.264   0.989  3.5514 -0.9708 -0.3881
12064TIP3   OH236134   0.109   5.847   4.842 -0.1174 -0.4304  0.5559
12064TIP3    H136135   0.029   5.842   4.790  0.8429 -0.5056 -0.9994
12064TIP3    H236136   0.084   5.895   4.921 -1.0339  2.3611 -1.2720
12065TIP3   OH236137   1.501   1.983   2.390  0.3621 -0.1564 -0.8842
12065TIP3    H136138   1.540   1.896   2.384 -0.8877 -0.7569 -0.5396
12065TIP3    H236139   1.555   2.037   2.331 -0.1158 -1.6372 -2.7708
12066TIP3   OH236140   7.693   7.030   4.221  0.2746 -0.4536  0.7043
12066TIP3    H136141   7.724   7.030   4.311 -0.2045  0.1387  0.8782
12066TIP3    H236142   7.602   7.000   4.226  0.5703 -1.4600  0.2870
12067TIP3   OH236143   1.468   3.019   1.464  0.3905  0.0018 -0.0917
12067TIP3    H136144   1.544   3.030   1.407 -0.0272 -2.4007 -1.2351
12067TIP3    H236145   1.494   2.951   1.526 -0.1077  0.6763  0.8836
12068TIP3   OH236146   2.361   7.612   1.372 -0.1746  0.3450  0.2558
12068TIP3    H136147   2.389   7.666   1.298  0.4456  0.4309  0.5431
12068TIP3    H236148   2.443   7.587   1.416 -0.2549 -2.7147 -1.1259
12069TIP3   OH236149   7.185   4.580   4.888  0.2858 -0.5625  0.6247
12069TIP3    H136150   7.224   4.660   4.922 -0.6007  0.3433 -0.3726
12069TIP3    H236151   7.255   4.516   4.888  2.2895  1.3623 -2.4171
12070TIP3   OH236152   4.926   7.039   6.672  0.2368  0.0375  0.1313
12070TIP3    H136153   5.015   7.003   6.672 -0.0766 -0.7944 -1.1586
12070TIP3    H236154   4.874   6.977   6.723  0.3403  0.4018  0.6883
12071TIP3   OH236155   5.323   6.372   0.976  0.1500 -0.5868  0.1166
12071TIP3    H136156   5.230   6.348   0.972  0.3243 -1.1367 -0.9223
12071TIP3    H236157   5.357   6.324   1.051 -0.1645 -1.2689 -0.1706
12072TIP3   OH236158   3.819   2.998   2.268  0.0329  0.3188 -0.5360
12072TIP3    H136159   3.859   2.981   2.183  2.1062 -0.5334  0.5428
12072TIP3    H236160   3.788   2.913   2.299 -1.5067  0.7601 -0.7773
12073TIP3   OH236161   0.777   6.797   2.522 -0.3242 -0.1514 -0.4369
12073TIP3    H136162   0.852   6.761   2.476 -1.0406 -1.3160 -0.7216
12073TIP3    H236163   0.813   6.836   2.601  0.5276 -1.0381 -0.3812
12074TIP3   OH236164   2.917   5.508   4.985 -0.0660 -0.2901 -0.6567
12074TIP3    H136165   2.980   5.442   5.013 -1.6499 -2.1676 -1.2803
12074TIP3    H236166   2.945   5.530   4.896 -0.7149 -1.7407 -1.2526
12075TIP3   OH236167   2.760   5.553   6.560 -0.1477  0.4765  0.1301
12075TIP3    H136168   2.805   5.636   6.541  1.9184 -0.8173 -1.0638
12075TIP3    H236169   2.799   5.491   6.499 -0.7237 -1.6852  1.8475
12076TIP3   OH236170   5.665   6.876   2.014  0.2649  0.4367  0.2524
12076TIP3    H136171   5.571   6.857   2.012  0.5503 -1.0275 -0.9639
12076TIP3    H236172   5.701   6.808   2.071  0.9008 -0.8284 -1.5636
12077TIP3   OH236173   7.158   6.307   6.051  0.0622 -0.3379  0.2451
12077TIP3    H136174   7.191   6.378   6.107  2.4646  0.4153 -1.9316
12077TIP3    H236175   7.152   6.346   5.964 -0.6006 -2.2643 -0.6277
12078TIP3   OH236176   6.694   0.170   3.286 -0.2404 -0.0721  0.2660
12078TIP3    H136177   6.778   0.205   3.314 -0.0145  0.0294 -0.5321
12078TIP3    H236178   6.647   0.154   3.368  1.5124 -2.5754  0.9056
12079TIP3   OH236179   6.581   7.742   5.847 -0.3502  0.7050 -0.5475
12079TIP3    H136180   6.649   7.768   5.784  0.2769  0.2057 -0.1005
12079TIP3    H236181   6.517   7.694   5.794  1.4815 -2.1033 -0.5025
12080TIP3   OH236182   3.295   0.829   6.445  0.3545 -0.0320  0.0322
12080TIP3    H136183   3.350   0.804   6.520  0.5297  0.2364 -0.0065
12080TIP3    H236184   3.229   0.886   6.483 -1.7193 -2.6301  0.6430
12081TIP3   OH236185   4.934   3.432   4.190  0.7351  0.1066  0.0801
12081TIP3    H136186   5.019   3.396   4.215  0.9679 -0.6090 -1.6145
12081TIP3    H236187   4.909   3.487   4.264  2.4913  0.0326  0.7824
12082TIP3   OH236188   3.454   3.452   5.768  0.5153 -0.2380  0.2915
12082TIP3    H136189   3.530   3.457   5.709  1.2634 -0.7028  1.1835
12082TIP3    H236190   3.403   3.378   5.736  0.3975  0.1225 -0.3627
12083TIP3   OH236191   2.688   3.834   4.278  0.2325 -0.7324 -0.2874
12083TIP3    H136192   2.597   3.848   4.305 -0.1388  1.4147 -2.2916
12083TIP3    H236193   2.725   3.777   4.346 -2.1930 -0.5226  1.3432
12084TIP3   OH236194   3.399   6.345   6.768 -1.0054  0.4474  0.4545
12084TIP3    H136195   3.457   6.421   6.764 -0.3977  0.0306  1.0677
12084TIP3    H236196   3.343   6.354   6.691  1.4730 -0.3618 -1.6099
12085TIP3   OH236197   2.677   4.916   2.159  0.4771 -0.1320 -0.0341
12085TIP3    H136198   2.583   4.904   2.168  0.5418  0.2679  1.6904
12085TIP3    H236199   2.697   4.990   2.218  2.1319 -1.5049  1.2337
12086TIP3   OH236200   7.733   3.684   4.581  0.7011  0.3677  0.1891
12086TIP3    H136201   7.638   3.687   4.573  0.3519  1.4546  3.2717
12086TIP3    H236202   7.750   3.616   4.646  2.1955 -0.7985 -1.3199
12087TIP3   OH236203   8.049   5.662   6.715  0.1864  0.4595 -0.4007
12087TIP3    H136204   8.129   5.694   6.758 -0.7214  0.0473  1.7216
12087TIP3    H236205   7.986   5.733   6.727  0.2167  0.8381 -2.1838
12088TIP3   OH236206   6.916   7.325   4.819 -0.1201  0.1403 -0.4103
12088TIP3    H136207   6.994   7.380   4.808  0.2899 -0.0010  1.4686
12088TIP3    H236208   6.858   7.378   4.874 -0.6865 -0.3812 -0.5066
12089TIP3   OH236209   3.245   3.618   5.875 -0.1462 -0.3660 -0.4106
12089TIP3    H136210   3.287   3.551   5.822 -0.1195 -1.2457  0.6796
12089TIP3    H236211   3.284   3.608   5.962  0.8170  1.9284 -0.4942
12090TIP3   OH236212   6.920   0.327   3.061 -0.4137 -0.1995 -0.6376
12090TIP3    H136213   6.840   0.377   3.046  0.5657  1.4218 -0.6488
12090TIP3    H236214   6.943   0.345   3.152  0.1307 -0.3828 -0.7345
12091TIP3   OH236215   7.623   4.868   0.248  0.5124 -0.1561  0.3211
12091TIP3    H136216   7.577   4.931   0.303  0.3960 -1.8426  2.2557
12091TIP3    H236217   7.585   4.880   0.161 -1.4900  0.5512  1.2397
12092TIP3   OH236218   4.466   1.808   4.982  0.1605 -0.0582  0.3599
12092TIP3    H136219   4.477   1.730   5.038 -0.4412  0.4201  1.1693
12092TIP3    H236220   4.456   1.880   5.044  1.0659  0.7288 -0.3865
12093TIP3   OH236221   4.558   1.762   5.859  0.2545  0.0465 -0.3037
12093TIP3    H136222   4.524   1.677   5.885 -3.7137  1.2070 -1.0081
12093TIP3    H236223   4.562   1.758   5.763 -0.8179  0.8274 -0.4128
12094TIP3   OH236224   2.591   2.312   6.141  0.7075 -0.2820  0.0101
12094TIP3    H136225   2.541   2.354   6.211  1.0394  0.3248 -0.1109
12094TIP3    H236226   2.541   2.332   6.062 -0.3050 -1.9546  0.1868
12095TIP3   OH236227   3.793   3.689   5.637  0.2102 -0.1171  0.1223
12095TIP3    H136228   3.745   3.763   5.676  1.0536  1.2561 -1.3329
12095TIP3    H236229   3.821   3.636   5.712 -0.5513  0.9463  1.1945
12096TIP3   OH236230   0.396   5.391   0.970  0.1875 -0.2157 -0.5954
12096TIP3    H136231   0.314   5.370   0.924  0.9949 -1.4156 -1.5577
12096TIP3    H236232   0.427   5.471   0.928 -0.6555  0.4636  0.0308
12097TIP3   OH236233   0.205   7.759   3.605 -0.2256  0.0394 -0.0693
12097TIP3    H136234   0.154   7.796   3.533 -0.1529 -0.5363 -0.4196
12097TIP3    H236235   0.296   7.765   3.575 -0.2943 -1.5149 -0.6473
12098TIP3   OH236236   3.676   5.462   0.095  0.0032 -0.6560  0.1372
12098TIP3    H136237   3.604   5.521   0.119 -0.5087 -1.1715 -0.0997
12098TIP3    H236238   3.705   5.426   0.179 -0.1067 -0.5560  0.2196
12099TIP3   OH236239   1.533   5.586   0.771  0.9741  0.4763  0.0000
12099TIP3    H136240   1.467   5.534   0.724  0.7768 -1.0885  1.8870
12099TIP3    H236241   1.541   5.666   0.719 -0.4375 -0.4302 -1.7523
12100TIP3   OH236242   4.374   0.082   4.149  0.0123  0.1533  0.0335
12100TIP3    H136243   4.447   0.034   4.110 -0.4912 -0.8784  0.3338
12100TIP3    H236244   4.359   0.039   4.233 -0.8260  0.4661  0.0548
12101TIP3   OH236245   5.691   3.052   1.869 -0.3867 -0.6534 -0.4672
12101TIP3    H136246   5.760   2.985   1.865  1.4928  1.0145  1.3786
12101TIP3    H236247   5.679   3.079   1.778  0.9345 -1.4564 -0.9161
12102TIP3   OH236248   1.303   3.626   5.254 -0.4010  0.1763  0.9082
12102TIP3    H136249   1.249   3.698   5.288  1.0493  0.3927  2.9266
12102TIP3    H236250   1.355   3.666   5.185  0.3402  1.0966  1.9614
12103TIP3   OH236251   4.450   2.959   5.125 -0.3378 -0.3280  0.8414
12103TIP3    H136252   4.381   3.006   5.078 -0.9741 -2.4110 -0.4644
12103TIP3    H236253   4.531   2.994   5.088 -0.8130 -1.0989 -1.0279
12104TIP3   OH236254   6.540   2.404   0.685  0.3300 -0.1405 -0.3013
12104TIP3    H136255   6.604   2.475   0.691  1.5741 -1.2187 -0.2585
12104TIP3    H236256   6.584   2.336   0.633 -1.6396 -0.0494 -2.2554
12105TIP3   OH236257   2.107   6.174   6.714  0.1829  0.0065  0.1124
12105TIP3    H136258   2.154   6.110   6.661 -0.0209 -0.2536  0.2433
12105TIP3    H236259   2.173   6.208   6.774  0.3684  0.1598 -0.1742
12106TIP3   OH236260   6.695   7.051   5.623 -0.1357  0.0639 -0.1342
12106TIP3    H136261   6.697   7.108   5.700 -1.2319  0.2242 -0.1985
12106TIP3    H236262   6.612   7.003   5.632  0.7498 -1.5128 -0.0880
12107TIP3   OH236263   6.182   1.418   1.623  0.5380 -0.4212  0.2614
12107TIP3    H136264   6.229   1.501   1.630  0.0538 -0.2436  1.7060
12107TIP3    H236265   6.198   1.374   1.707  0.0039 -1.3684 -0.1175
12108TIP3   OH236266   5.171   5.134   1.687  0.1276 -0.3686 -0.0867
12108TIP3    H136267   5.176   5.228   1.671 -0.2990 -0.1602  0.9315
12108TIP3    H236268   5.261   5.109   1.711  0.3100 -0.2858 -0.6811
12109TIP3   OH236269   7.654   7.002   5.346  0.0820 -0.3595  0.2685
12109TIP3    H136270   7.673   7.008   5.440  1.4288  0.2382 -0.0087
12109TIP3    H236271   7.578   6.946   5.340 -1.6186  1.6027  1.9113
12110TIP3   OH236272   1.336   0.921   0.678 -0.2449  0.2669  0.0656
12110TIP3    H136273   1.381   0.995   0.719 -1.7795  1.4965 -0.3740
12110TIP3    H236274   1.276   0.889   0.746 -0.0874 -0.1202  0.0226
12111TIP3   OH236275   4.572   5.802   5.963  0.2618 -0.3770  0.1879
12111TIP3    H136276   4.598   5.883   5.919  0.5151 -0.8431 -0.5494
12111TIP3    H236277   4.486   5.821   6.000  0.2269  0.1667 -0.1538
12112TIP3   OH236278   6.703   4.385   6.604 -0.3511  0.0012  0.1685
12112TIP3    H136279   6.711   4.290   6.602  2.0356  0.1192 -2.2442
12112TIP3    H236280   6.628   4.404   6.549 -0.3020 -0.4869 -0.0763
12113TIP3   OH236281   5.203   5.815   3.506  0.0478  0.0395 -0.5360
12113TIP3    H136282   5.208   5.863   3.589 -1.5640 -1.7845  0.7235
12113TIP3    H236283   5.288   5.769   3.500 -0.1765 -0.5808  0.6569
12114TIP3   OH236284   6.315   6.134   4.778 -0.0419 -0.3527 -0.0791
12114TIP3    H136285   6.274   6.220   4.779  0.8774  0.0983  0.9265
12114TIP3    H236286   6.397   6.146   4.828 -0.5569 -2.1193  1.2832
12115TIP3   OH236287   4.515   5.033   6.424 -0.3153  0.1377 -0.5810
12115TIP3    H136288   4.573   4.981   6.478  0.6747  0.7910 -0.9861
12115TIP3    H236289   4.458   4.969   6.381 -0.0599 -0.4922  0.0113
12116TIP3   OH236290   0.703   1.843   6.610  0.3581 -0.4859 -0.1620
12116TIP3    H136291   0.645   1.879   6.543  0.0081  0.0927  0.4416
12116TIP3    H236292   0.651   1.774   6.652  0.1720 -0.1205  0.2254
12117TIP3   OH236293   7.460   5.004   0.885  0.3659  0.3686 -0.1289
12117TIP3    H136294   7.497   5.024   0.970  1.4507  0.1992 -0.5442
12117TIP3    H236295   7.381   5.059   0.879 -0.9573 -1.2158  1.8368
12118TIP3   OH236296   1.632   4.958   3.650  0.5479  0.3313  0.5361
12118TIP3    H136297   1.545   4.986   3.679  0.9373  0.7548  1.3203
12118TIP3    H236298   1.646   5.008   3.569 -0.2847 -0.3881 -0.0710
12119TIP3   OH236299   2.474   6.313   5.574 -0.1878 -0.4562 -0.1838
12119TIP3    H136300   2.380   6.322   5.592 -0.0829 -2.4479  1.7829
12119TIP3    H236301   2.496   6.391   5.524 -2.2822  1.5880  1.8181
12120TIP3   OH236302   3.733   7.608   5.894 -0.0170 -0.3210 -0.1050
12120TIP3    H136303   3.688   7.670   5.951  1.4392  0.6733  0.0099
12120TIP3    H236304   3.800   7.568   5.950 -1.1660 -2.3205 -0.0634
12121TIP3   OH236305   1.509   4.184   6.640  0.2251  0.1685 -0.0749
12121TIP3    H136306   1.550   4.243   6.578 -0.9171 -0.9059 -1.9617
12121TIP3    H236307   1.449   4.239   6.690  1.3784  1.1037  0.3040
12122TIP3   OH236308   5.063   3.721   2.165 -0.0283  0.1449 -0.0033
12122TIP3    H136309   5.065   3.745   2.073  1.2031 -2.0927 -0.6374
12122TIP3    H236310   5.137   3.769   2.204 -0.9396  1.6002  0.0231
12123TIP3   OH236311   6.987   6.701   5.553 -0.0902 -0.3149  0.0097
12123TIP3    H136312   7.075   6.693   5.589 -0.1341 -0.7894  0.0263
12123TIP3    H236313   6.946   6.770   5.605  1.2580  2.1552 -2.0114
12124TIP3   OH236314   0.625   4.124   5.941  0.3182  0.0017 -0.4234
12124TIP3    H136315   0.656   4.035   5.921  0.7047  0.0993 -0.2655
12124TIP3    H236316   0.660   4.142   6.028  0.8282  0.5775 -0.7428
12125TIP3   OH236317   5.882   5.098   3.244 -0.1041  0.5526 -0.5755
12125TIP3    H136318   5.853   5.007   3.251  0.4312  0.4485  0.6716
12125TIP3    H236319   5.896   5.112   3.150  0.0198 -0.7169 -0.7648
12126TIP3   OH236320   5.610   1.522   3.790  0.2110  1.0423 -0.2028
12126TIP3    H136321   5.524   1.516   3.831 -0.0592  0.3161 -0.8486
12126TIP3    H236322   5.595   1.498   3.698  0.8667  2.2578 -0.6496
12127TIP3   OH236323   2.267   2.076   0.302 -0.1750  0.0378  0.3026
12127TIP3    H136324   2.357   2.059   0.274 -0.8618 -0.0814 -2.0294
12127TIP3    H236325   2.269   2.164   0.338  1.0690 -0.3652  1.2507
12128TIP3   OH236326   6.671   3.341   6.475 -0.1149 -0.4385  0.3645
12128TIP3    H136327   6.585   3.330   6.515 -1.5387 -0.0100 -2.3909
12128TIP3    H236328   6.678   3.435   6.460  1.1650 -0.3834  1.1117
12129TIP3   OH236329   5.506   1.055   6.490  0.0700 -0.1760 -0.1998
12129TIP3    H136330   5.543   0.971   6.463  1.6222 -0.2024  1.7702
12129TIP3    H236331   5.449   1.034   6.564  0.0188  0.4391 -0.0592
12130TIP3   OH236332   3.417   1.114   1.264 -0.1303 -0.2056  0.5428
12130TIP3    H136333   3.366   1.046   1.308 -0.8100 -0.7950 -1.0851
12130TIP3    H236334   3.501   1.072   1.245  0.2853  0.1538  1.5287
12131TIP3   OH236335   0.510   3.873   6.266 -0.3131  0.6560 -0.0860
12131TIP3    H136336   0.531   3.828   6.348 -0.1666  3.1338  1.3576
12131TIP3    H236337   0.415   3.866   6.258 -0.0947 -2.1298 -1.3743
12132TIP3   OH236338   2.801   6.638   5.400  0.2017  0.1453 -0.2859
12132TIP3    H136339   2.849   6.625   5.482  2.0620 -0.6014 -1.4431
12132TIP3    H236340   2.768   6.728   5.406  0.9202  0.3462  0.9773
12133TIP3   OH236341   3.179   7.828   0.746  0.4572 -0.2066  0.4994
12133TIP3    H136342   3.142   7.828   0.834  0.0174 -0.7250  0.3189
12133TIP3    H236343   3.114   7.784   0.692  1.1856 -0.8354  0.1101
12134TIP3   OH236344   2.652   1.318   0.315  0.2746  0.0580 -0.1308
12134TIP3    H136345   2.671   1.226   0.335 -0.1231 -0.3587 -1.5525
12134TIP3    H236346   2.590   1.315   0.242  0.8690  1.4517 -0.7447
12135TIP3   OH236347   4.220   4.147   5.899 -0.4406  0.0321  0.1187
12135TIP3    H136348   4.261   4.225   5.935 -2.0519  1.2220 -0.5189
12135TIP3    H236349   4.294   4.091   5.874  0.7391  1.1017  1.0856
12136TIP3   OH236350   1.328   7.183   1.694 -0.3784 -0.2840 -0.4400
12136TIP3    H136351   1.356   7.271   1.720 -3.6007  0.2947  1.7952
12136TIP3    H236352   1.409   7.136   1.675  1.7092  2.1779  1.6293
12137TIP3   OH236353   6.860   6.370   3.882  0.6054  0.3559  0.2223
12137TIP3    H136354   6.778   6.397   3.923 -0.6927 -0.5124 -1.6805
12137TIP3    H236355   6.906   6.452   3.863 -0.1219  0.8823  0.7097
12138TIP3   OH236356   2.391   7.570   4.628 -0.6102  0.3254 -0.0320
12138TIP3    H136357   2.360   7.651   4.668  2.0545  1.3528  0.1716
12138TIP3    H236358   2.383   7.585   4.534 -0.8214  0.5280  0.0184
12139TIP3   OH236359   0.861   5.041   5.560 -0.3033 -0.0629 -0.0932
12139TIP3    H136360   0.841   5.111   5.622 -0.5168  1.6239 -1.9594
12139TIP3    H236361   0.956   5.042   5.552 -0.3698  0.8057 -0.9395
12140TIP3   OH236362   6.842   0.908   1.190  0.1635 -0.3115 -0.3625
12140TIP3    H136363   6.837   0.832   1.133  0.5559 -0.8777  0.3311
12140TIP3    H236364   6.831   0.983   1.132 -3.1288 -0.9264 -0.7120
12141TIP3   OH236365   0.746   1.542   4.571  0.0234  0.0968  0.6000
12141TIP3    H136366   0.661   1.528   4.530  0.2057 -2.1700  0.8728
12141TIP3    H236367   0.736   1.624   4.619 -1.6117  0.4917 -0.3279
12142TIP3   OH236368   3.107   7.192   5.250  0.3528 -0.3957 -0.3103
12142TIP3    H136369   3.133   7.102   5.269  0.9233 -0.1089  0.3308
12142TIP3    H236370   3.108   7.235   5.336  2.0766  0.7310 -0.8417
12143TIP3   OH236371   6.907   1.438   1.697  0.2027 -0.7817  0.2629
12143TIP3    H136372   6.864   1.485   1.626  0.0584 -2.3003 -0.7031
12143TIP3    H236373   6.973   1.499   1.730  0.3463 -0.0851 -1.2437
12144TIP3   OH236374   3.795   7.737   3.532  0.0514  0.5189 -0.1618
12144TIP3    H136375   3.751   7.655   3.555 -0.0254  0.5049 -0.3573
12144TIP3    H236376   3.780   7.794   3.608  2.1999 -0.4411  1.0847
12145TIP3   OH236377   0.523   3.155   5.504 -0.1262 -0.5633 -0.1827
12145TIP3    H136378   0.490   3.243   5.525  1.9852 -0.3846  3.0825
12145TIP3    H236379   0.615   3.168   5.483  0.2830 -2.0004  0.6107
12146TIP3   OH236380   8.106   5.851   4.899 -0.4171 -0.2472 -0.2725
12146TIP3    H136381   8.028   5.904   4.884 -0.3896 -0.3486 -0.7754
12146TIP3    H236382   8.130   5.817   4.813 -0.7554 -1.5501  0.1303
12147TIP3   OH236383   3.141   2.557   4.242 -0.0208  0.5345 -0.4533
12147TIP3    H136384   3.157   2.646   4.211  0.4082  1.3157  1.8261
12147TIP3    H236385   3.046   2.549   4.243 -0.0596  0.9030 -0.7846
12148TIP3   OH236386   6.478   6.280   0.357  0.2845  0.0963 -0.4315
12148TIP3    H136387   6.449   6.336   0.429  0.8339  2.5973 -2.0240
12148TIP3    H236388   6.404   6.275   0.298  0.9883  1.1576 -1.4349
12149TIP3   OH236389   1.528   0.225   1.458  0.0771  0.3586  0.1189
12149TIP3    H136390   1.502   0.212   1.549  0.1712  0.1941  0.1229
12149TIP3    H236391   1.604   0.284   1.463 -0.4510  1.0575  0.0897
12150TIP3   OH236392   7.242   5.327   6.046  0.6584 -0.2957  0.5969
12150TIP3    H136393   7.331   5.354   6.071  0.6080 -0.7304  1.2849
12150TIP3    H236394   7.227   5.246   6.096  0.2493 -0.7713 -0.2742
12151TIP3   OH236395   7.515   1.161   3.725  0.2296  0.5241  0.1916
12151TIP3    H136396   7.506   1.255   3.739 -0.7126  0.6395 -1.0301
12151TIP3    H236397   7.610   1.147   3.715  0.4886  1.1391  1.4902
12152TIP3   OH236398   4.475   6.086   5.197  0.0328 -0.0170  0.2001
12152TIP3    H136399   4.511   6.010   5.243  1.9291  0.2655 -0.7263
12152TIP3    H236400   4.479   6.063   5.105 -0.9398  0.5944 -0.0166
12153TIP3   OH236401   1.780   5.028   3.898 -0.0146  0.0318  0.1792
12153TIP3    H136402   1.696   4.983   3.894  0.6739 -1.2511 -0.2649
12153TIP3    H236403   1.758   5.121   3.901 -1.4174 -0.2433 -0.9226
12154TIP3   OH236404   2.832   3.139   0.716  0.1514 -0.4036  0.2657
12154TIP3    H136405   2.914   3.109   0.755 -0.5968 -0.9783  1.4763
12154TIP3    H236406   2.836   3.235   0.722  0.5600 -0.4423  0.7184
12155TIP3   OH236407   7.409   7.499   1.572  0.2853  0.0094 -0.3191
12155TIP3    H136408   7.437   7.584   1.537  1.2758 -0.1924 -0.0489
12155TIP3    H236409   7.314   7.508   1.583  0.1339  0.5477 -1.7486
12156TIP3   OH236410   6.635   5.491   6.611 -0.3276 -0.1597 -0.0944
12156TIP3    H136411   6.681   5.408   6.624  1.2402  0.6069 -0.5031
12156TIP3    H236412   6.569   5.493   6.680  0.9791 -0.8066  1.2241
12157TIP3   OH236413   2.732   6.393   1.780 -0.1525  0.2009 -0.0499
12157TIP3    H136414   2.792   6.409   1.853 -0.2212  0.6671 -0.0902
12157TIP3    H236415   2.736   6.474   1.728 -1.0864  0.3764  0.1434
12158TIP3   OH236416   6.275   5.216   2.706  0.2374 -0.3725  0.1966
12158TIP3    H136417   6.321   5.210   2.790  1.6248 -0.1363 -0.5118
12158TIP3    H236418   6.263   5.125   2.679  1.9977 -0.4350 -0.4801
12159TIP3   OH236419   6.535   0.247   4.419  0.2267 -0.1465  0.0037
12159TIP3    H136420   6.492   0.291   4.493  1.2644 -0.0122  0.5543
12159TIP3    H236421   6.543   0.156   4.447  0.2096 -0.1867 -0.1261
12160TIP3   OH236422   1.297   7.305   3.035  0.1518 -0.6197  0.5310
12160TIP3    H136423   1.280   7.399   3.034 -1.0951 -0.8054 -1.2483
12160TIP3    H236424   1.391   7.296   3.022  0.2436  0.3770  0.4789
12161TIP3   OH236425   7.889   5.263   0.134 -0.7338  0.2840 -0.2691
12161TIP3    H136426   7.845   5.296   0.056 -0.6019 -0.8594 -0.8344
12161TIP3    H236427   7.925   5.178   0.108 -1.4853 -0.5453  1.3023
12162TIP3   OH236428   8.295   2.578   3.510  0.0652 -0.1600  0.2175
12162TIP3    H136429   8.208   2.540   3.516  0.1005 -0.3865 -0.5755
12162TIP3    H236430   8.279   2.671   3.492 -0.0112  0.0678  1.3597
12163TIP3   OH236431   3.714   2.830   6.167  0.0411 -0.5774  0.0542
12163TIP3    H136432   3.766   2.910   6.156  0.9264 -1.1389  0.0728
12163TIP3    H236433   3.630   2.860   6.203  1.2013  0.1172  2.3525
12164TIP3   OH236434   6.464   5.561   1.972  0.1892  0.1620  0.0683
12164TIP3    H136435   6.413   5.485   1.999 -0.0418  0.3128  0.0627
12164TIP3    H236436   6.501   5.595   2.054 -2.0817  1.7625  0.5279
12165TIP3   OH236437   7.070   0.323   0.325  0.1645 -0.1577  0.5058
12165TIP3    H136438   6.994   0.266   0.310 -0.9273  1.4505 -0.4476
12165TIP3    H236439   7.070   0.340   0.419 -0.1900 -0.7947  0.6245
12166TIP3   OH236440   7.669   3.229   4.134  0.7403  0.6414  0.3927
12166TIP3    H136441   7.730   3.293   4.098 -0.0535  1.2229  0.0437
12166TIP3    H236442   7.589   3.279   4.149 -0.2563 -0.4845 -0.8959
12167TIP3   OH236443   6.182   4.441   1.705 -0.4993  0.0322 -0.0531
12167TIP3    H136444   6.163   4.353   1.738 -1.5692  0.8684  1.7258
12167TIP3    H236445   6.151   4.440   1.615 -0.4071 -1.4366 -0.0870
12168TIP3   OH236446   2.438   7.486   0.551  0.0371 -0.6898 -0.4096
12168TIP3    H136447   2.434   7.567   0.602 -1.0544 -2.7637  3.0863
12168TIP3    H236448   2.532   7.469   0.541  0.2709  0.2626 -0.0032
12169TIP3   OH236449   0.368   2.993   0.118  0.0805 -0.2497 -0.0822
12169TIP3    H136450   0.301   3.019   0.055  0.6592 -4.0813 -2.5752
12169TIP3    H236451   0.442   3.051   0.100  0.0169 -0.8394 -2.6484
12170TIP3   OH236452   2.834   5.046   6.141 -0.3287  0.4587 -0.6015
12170TIP3    H136453   2.841   5.135   6.106  0.1438  0.2975 -0.9341
12170TIP3    H236454   2.751   5.014   6.108 -1.0138  1.1468  0.4053
12171TIP3   OH236455   6.882   3.985   4.110 -0.2038  0.5072  0.4734
12171TIP3    H136456   6.878   3.992   4.015  2.8022  0.0901  0.2168
12171TIP3    H236457   6.903   4.073   4.140 -0.9093  0.5887  0.7299
12172TIP3   OH236458   7.362   3.442   2.929 -0.2735  0.3222 -0.2410
12172TIP3    H136459   7.280   3.435   2.979  0.6310 -1.3281  1.1092
12172TIP3    H236460   7.413   3.508   2.976  0.3803 -0.8801  0.7975
12173TIP3   OH236461   6.904   2.083   3.525 -0.0449  0.2954 -0.8603
12173TIP3    H136462   6.910   2.079   3.620 -0.5734 -0.9082 -0.8581
12173TIP3    H236463   6.965   2.015   3.494 -0.4237  0.1743 -1.3544
12174TIP3   OH236464   4.632   3.185   3.958  0.0373  0.3744  0.2942
12174TIP3    H136465   4.638   3.234   4.040 -0.5512  1.2870 -0.1904
12174TIP3    H236466   4.697   3.116   3.967  0.4744  0.8862  1.2453
12175TIP3   OH236467   7.673   7.376   2.048  0.0966 -0.3380 -0.6101
12175TIP3    H136468   7.624   7.429   1.985  0.7218  1.0320  0.0193
12175TIP3    H236469   7.606   7.338   2.105 -0.3023  1.5661  0.2834
12176TIP3   OH236470   7.586   7.684   5.684 -0.3652  0.1863 -0.2308
12176TIP3    H136471   7.537   7.688   5.602  1.1923  0.3070 -1.2024
12176TIP3    H236472   7.529   7.727   5.748 -1.6390  0.0383 -1.2185
12177TIP3   OH236473   0.862   2.883   1.100 -0.3421  0.0228 -0.3357
12177TIP3    H136474   0.894   2.826   1.169  0.0750  0.4563 -0.1657
12177TIP3    H236475   0.789   2.835   1.060 -1.2774  0.2204  1.0824
12178TIP3   OH236476   7.987   5.986   6.652 -0.6806  0.2470  0.0368
12178TIP3    H136477   7.999   5.893   6.634  1.4508  0.0506  1.9420
12178TIP3    H236478   7.898   6.005   6.622 -1.7718 -2.7495  0.9483
12179TIP3   OH236479   3.274   7.687   5.506 -0.5296 -0.2298  0.6341
12179TIP3    H136480   3.344   7.697   5.442 -1.3882  0.9634 -0.1732
12179TIP3    H236481   3.302   7.739   5.581 -0.5286  0.2444  0.3119
12180TIP3   OH236482   7.467   6.839   5.788 -0.1000 -0.0998  0.0318
12180TIP3    H136483   7.391   6.815   5.841 -0.1407 -0.9795 -0.4038
12180TIP3    H236484   7.480   6.764   5.729  0.0875  0.7449 -1.0362
12181TIP3   OH236485   7.558   4.802   1.902  0.0557  0.3842  0.2939
12181TIP3    H136486   7.533   4.793   1.811 -0.9321  0.6867  0.5216
12181TIP3    H236487   7.487   4.761   1.951 -0.0480  1.3317  0.9679
12182TIP3   OH236488   2.591   7.246   1.319  0.8467  0.2025  1.0123
12182TIP3    H136489   2.645   7.302   1.263  0.1261 -1.2766 -1.2600
12182TIP3    H236490   2.501   7.269   1.296  0.4900  0.5328  2.6180
12183TIP3   OH236491   0.096   2.627   0.468  0.1423  0.1982 -0.3858
12183TIP3    H136492   0.075   2.668   0.552  1.4116 -1.1647  0.6495
12183TIP3    H236493   0.164   2.683   0.430 -0.5411  0.9021 -0.6044
12184TIP3   OH236494   2.656   6.088   4.628 -0.2379  0.3715 -0.1330
12184TIP3    H136495   2.661   6.164   4.571  1.9134 -0.4823 -1.1911
12184TIP3    H236496   2.607   6.118   4.704 -0.4011  2.4709 -1.0125
12185TIP3   OH236497   1.333   7.478   5.931  0.2441 -0.3277 -0.0465
12185TIP3    H136498   1.419   7.519   5.927 -0.8969  2.2105 -1.6743
12185TIP3    H236499   1.312   7.458   5.839 -1.1541 -0.2336  0.2215
12186TIP3   OH236500   4.295   7.784   2.876 -0.1918  0.8747 -0.0033
12186TIP3    H136501   4.360   7.855   2.873  1.3225 -0.4780 -0.9720
12186TIP3    H236502   4.292   7.752   2.786 -1.4882  0.2527  0.2507
12187TIP3   OH236503   3.552   4.273   5.744  0.2508 -0.6378  0.0536
12187TIP3    H136504   3.623   4.312   5.794  0.1462 -0.3057 -0.0535
12187TIP3    H236505   3.537   4.335   5.672 -2.1128  0.8414  1.6725
12188TIP3   OH236506   1.022   1.349   4.630 -0.7527  0.0526 -0.3007
12188TIP3    H136507   1.006   1.443   4.634  0.1150  0.2412 -0.9440
12188TIP3    H236508   1.026   1.320   4.721  0.8552  0.9728 -0.0495
12189TIP3   OH236509   6.687   6.797   4.719  0.4386  0.4635  0.0450
12189TIP3    H136510   6.671   6.798   4.813 -0.8651 -0.1282 -0.1529
12189TIP3    H236511   6.703   6.889   4.697  0.9003  0.5924  0.8509
12190TIP3   OH236512   5.682   5.453   6.769  0.0489 -0.1426 -1.1651
12190TIP3    H136513   5.778   5.449   6.771  0.2473  2.6047 -1.2173
12190TIP3    H236514   5.663   5.509   6.693 -1.5273  0.2908 -0.4712
12191TIP3   OH236515   5.935   3.158   5.900  1.0286 -0.1181 -0.3417
12191TIP3    H136516   6.023   3.184   5.928  1.2105 -1.7353  0.7423
12191TIP3    H236517   5.930   3.064   5.921 -0.5537 -0.3244 -1.4487
12192TIP3   OH236518   6.393   0.511   0.937 -0.2395  0.0524  0.2014
12192TIP3    H136519   6.487   0.522   0.947 -0.1606  1.9715 -1.8045
12192TIP3    H236520   6.382   0.469   0.852 -1.1712  1.9486 -0.6905
12193TIP3   OH236521   3.258   2.473   6.142 -0.1682 -0.2958 -0.0111
12193TIP3    H136522   3.331   2.531   6.122  0.0015 -0.2344  0.7694
12193TIP3    H236523   3.237   2.491   6.234 -0.1230 -1.4684  0.2391
12194TIP3   OH236524   1.540   4.730   5.537 -0.0254  0.4974 -0.0704
12194TIP3    H136525   1.545   4.806   5.594 -1.2521 -0.0238  0.7785
12194TIP3    H236526   1.626   4.689   5.544  0.0756  0.8403  0.8709
12195TIP3   OH236527   0.980   4.006   3.124  0.4622 -0.6701 -0.4522
12195TIP3    H136528   0.885   4.002   3.116  0.4670  0.0046 -0.8790
12195TIP3    H236529   1.013   3.950   3.054  0.3792 -1.7012  0.3034
12196TIP3   OH236530   0.154   1.706   0.355 -0.0976 -0.2968  0.5144
12196TIP3    H136531   0.129   1.798   0.369  0.5541  0.0153 -0.2994
12196TIP3    H236532   0.168   1.699   0.261 -1.7597 -1.6574  0.3174
12197TIP3   OH236533   5.641   2.438   2.352  0.7219 -0.5811 -0.0982
12197TIP3    H136534   5.558   2.462   2.312  1.7463  0.3155 -1.8323
12197TIP3    H236535   5.619   2.369   2.414 -1.3585 -0.0635 -0.1930
12198TIP3   OH236536   4.158   3.965   6.705  0.1666  0.0486  0.0008
12198TIP3    H136537   4.122   3.888   6.749  0.3458 -0.5788 -0.9353
12198TIP3    H236538   4.139   3.951   6.613 -0.6426  1.5831 -0.1092
12199TIP3   OH236539   4.786   2.641   2.115 -0.3923 -0.1632 -0.1300
12199TIP3    H136540   4.725   2.638   2.042 -2.0340  0.5863  1.1376
12199TIP3    H236541   4.830   2.725   2.106  1.6162 -1.3029 -1.8631
12200TIP3   OH236542   0.092   7.604   6.091  0.3479 -0.0896  0.3399
12200TIP3    H136543   0.141   7.557   6.159 -1.0796 -2.1380  0.0443
12200TIP3    H236544   0.159   7.653   6.043  1.7047 -0.5348  1.6895
12201TIP3   OH236545   4.237   4.529   4.719 -0.5582  0.1574  0.3477
12201TIP3    H136546   4.329   4.506   4.709 -0.2559  2.0620 -2.5140
12201TIP3    H236547   4.229   4.556   4.811  1.7875  0.0937  0.6350
12202TIP3   OH236548   6.160   4.228   2.480  0.0543  0.1428  0.2958
12202TIP3    H136549   6.097   4.188   2.421  1.3708 -0.1463 -0.9551
12202TIP3    H236550   6.133   4.320   2.485  0.3774  0.3590 -1.4079
12203TIP3   OH236551   0.046   6.908   3.517 -0.3686  0.7690 -0.5416
12203TIP3    H136552   0.071   6.836   3.575 -1.5262  0.5261 -0.3133
12203TIP3    H236553   0.027   6.866   3.434 -1.7302  0.6907 -0.2151
12204TIP3   OH236554   1.362   5.665   6.210  0.1405 -0.2940  0.0106
12204TIP3    H136555   1.379   5.758   6.193  0.3934 -0.4474 -0.6302
12204TIP3    H236556   1.268   5.654   6.194  0.1380 -0.1739 -0.0612
12205TIP3   OH236557   4.711   1.131   5.314 -0.3442 -0.1473 -0.5114
12205TIP3    H136558   4.796   1.145   5.274 -0.3188  0.3652 -0.2820
12205TIP3    H236559   4.659   1.207   5.287 -0.4812 -0.0563  0.0083
12206TIP3   OH236560   3.917   7.478   4.417 -0.1620 -0.1705 -0.7530
12206TIP3    H136561   3.837   7.498   4.368 -0.4897  3.1512  0.8020
12206TIP3    H236562   3.977   7.549   4.394  0.0664  0.9138  2.5665
12207TIP3   OH236563   5.884   6.160   6.243 -0.1337  0.3722 -0.6612
12207TIP3    H136564   5.859   6.236   6.295  0.8180  1.9861 -2.3967
12207TIP3    H236565   5.945   6.195   6.178  0.4592 -1.9284 -1.4562
12208TIP3   OH236566   7.436   0.745   2.546  0.2756  0.2133 -0.5684
12208TIP3    H136567   7.391   0.810   2.492 -0.5874 -1.1726 -1.5588
12208TIP3    H236568   7.401   0.759   2.634  0.3475  1.2931 -0.6936
12209TIP3   OH236569   0.784   4.064   2.907  0.4208  0.0928 -0.2791
12209TIP3    H136570   0.712   4.126   2.906  0.7367  0.4895  0.5653
12209TIP3    H236571   0.861   4.116   2.930  0.6251 -0.6644  0.8393
12210TIP3   OH236572   0.307   2.312   5.884 -0.6053 -0.8836 -0.0081
12210TIP3    H136573   0.336   2.331   5.795 -2.7647 -0.4454 -0.6727
12210TIP3    H236574   0.272   2.395   5.917  0.4009 -0.9641  1.3893
12211TIP3   OH236575   5.712   5.681   5.755 -0.1765 -0.0137  0.0054
12211TIP3    H136576   5.670   5.691   5.840 -0.3027  1.7155 -0.2176
12211TIP3    H236577   5.783   5.619   5.770 -0.4538 -0.0507  1.2597
12212TIP3   OH236578   1.608   1.636   2.701 -0.0441 -0.6742  0.2161
12212TIP3    H136579   1.576   1.723   2.676  1.2211  0.5482  2.5004
12212TIP3    H236580   1.622   1.591   2.618  0.1295  1.6265 -1.0909
12213TIP3   OH236581   3.087   5.184   5.754 -0.6996  0.6077 -0.3983
12213TIP3    H136582   3.143   5.253   5.791  1.5210 -1.3389  0.1533
12213TIP3    H236583   3.147   5.132   5.700 -1.4147 -2.8186  1.8403
12214TIP3   OH236584   4.852   0.757   6.070 -0.3943 -0.4384  0.2291
12214TIP3    H136585   4.759   0.736   6.063  0.1551 -3.1540  0.0350
12214TIP3    H236586   4.861   0.840   6.024 -2.4349 -1.0740 -1.4672
12215TIP3   OH236587   0.979   3.727   4.657 -0.7471 -0.6944 -0.0626
12215TIP3    H136588   0.974   3.723   4.752 -0.4816  0.0883 -0.0124
12215TIP3    H236589   0.923   3.655   4.627  0.6700 -2.1805  0.7053
12216TIP3   OH236590   7.030   2.347   0.530 -0.0637 -0.0521 -0.7443
12216TIP3    H136591   7.045   2.432   0.571  1.8958 -1.7706  2.5502
12216TIP3    H236592   7.111   2.328   0.483  0.3148 -0.8303  0.1656
12217TIP3   OH236593   6.488   0.969   6.252 -0.5690  0.0112  0.7775
12217TIP3    H136594   6.420   0.902   6.255  0.3440 -0.9350  2.5187
12217TIP3    H236595   6.557   0.935   6.310 -0.1000  2.4958  1.8162
12218TIP3   OH236596   6.583   3.590   2.770  0.3094 -0.5502  0.8222
12218TIP3    H136597   6.655   3.621   2.826 -0.8271 -1.0316  2.6294
12218TIP3    H236598   6.612   3.611   2.681  2.3824 -0.1255  1.5273
12219TIP3   OH236599   4.267   3.556   3.525  0.1824 -0.4638 -0.3887
12219TIP3    H136600   4.244   3.521   3.611  0.8833  0.6293  0.2715
12219TIP3    H236601   4.346   3.609   3.541  1.4760 -1.7691 -2.0403
12220TIP3   OH236602   3.418   4.690   0.507 -0.1049 -0.3138 -0.1791
12220TIP3    H136603   3.480   4.691   0.580  0.3969 -0.2667 -0.5964
12220TIP3    H236604   3.333   4.674   0.547  0.4860 -2.9160  0.2092
12221TIP3   OH236605   6.619   4.097   6.526  0.4175 -0.3091 -0.2899
12221TIP3    H136606   6.533   4.078   6.564  0.3083 -1.3558 -1.0241
12221TIP3    H236607   6.611   4.071   6.434  1.0471  1.0559 -0.7540
12222TIP3   OH236608   7.946   0.481   2.868  0.1410  0.6808  0.1080
12222TIP3    H136609   7.932   0.557   2.812 -0.1612  0.7961  0.3381
12222TIP3    H236610   7.909   0.408   2.819  0.6652  0.6394 -0.2271
12223TIP3   OH236611   0.557   3.212   4.546  0.1238 -0.0608  0.1661
12223TIP3    H136612   0.485   3.256   4.590 -0.8406 -0.8303 -0.6118
12223TIP3    H236613   0.557   3.123   4.582  2.8311  0.7642  2.6513
12224TIP3   OH236614   2.663   3.470   3.601  0.0680 -0.3303  0.3706
12224TIP3    H136615   2.755   3.445   3.599  0.0699 -0.3222  0.3672
12224TIP3    H236616   2.642   3.478   3.694  0.4114  0.9598  0.3505
12225TIP3   OH236617   2.033   6.433   0.557 -0.2849 -0.1995 -0.3430
12225TIP3    H136618   2.024   6.438   0.461  0.8670 -1.8235 -0.5858
12225TIP3    H236619   2.026   6.339   0.576  0.5166 -0.0010  1.0568
12226TIP3   OH236620   1.293   4.844   1.357 -0.2203  0.2413 -0.1762
12226TIP3    H136621   1.304   4.929   1.315  0.4631  0.4053  0.3206
12226TIP3    H236622   1.276   4.865   1.449  1.9925 -0.1915  0.3706
12227TIP3   OH236623   5.648   2.497   5.016 -0.2570  0.4374 -0.2585
12227TIP3    H136624   5.577   2.543   5.060  0.5471  0.0974  1.4828
12227TIP3    H236625   5.628   2.505   4.923 -3.3750 -0.8818  0.1645
12228TIP3   OH236626   1.178   6.311   4.089 -0.0436  0.1556 -0.0744
12228TIP3    H136627   1.127   6.375   4.138  0.9283 -0.0982  1.3599
12228TIP3    H236628   1.269   6.337   4.104  0.3474 -1.2446  0.1203
12229TIP3   OH236629   6.539   1.539   0.353  0.2702 -0.0800 -0.1450
12229TIP3    H136630   6.562   1.603   0.420  0.4846  1.2598 -1.4617
12229TIP3    H236631   6.622   1.512   0.316  0.2286 -1.6127  0.7952
12230TIP3   OH236632   8.139   0.907   4.782  0.3125  0.5512 -0.1689
12230TIP3    H136633   8.204   0.861   4.728  0.1786  0.8783 -0.6199
12230TIP3    H236634   8.070   0.843   4.796 -1.4349  1.4498 -3.4726
12231TIP3   OH236635   4.273   6.876   6.530 -0.0904  0.0152  0.6415
12231TIP3    H136636   4.360   6.896   6.565  1.2106  0.0283 -2.2979
12231TIP3    H236637   4.245   6.958   6.489 -1.1763 -0.2036  0.9370
12232TIP3   OH236638   1.352   1.076   2.979 -0.1507  0.2321  0.4238
12232TIP3    H136639   1.412   1.136   3.023 -0.7927  0.2185  1.3483
12232TIP3    H236640   1.364   0.993   3.025  0.2178 -0.1757 -0.3869
12233TIP3   OH236641   5.051   0.972   5.471  0.1378  0.5876 -0.1896
12233TIP3    H136642   5.056   0.907   5.402  1.8956 -0.5708  0.9479
12233TIP3    H236643   4.989   0.936   5.535  1.5493 -0.3139  0.7201
12234TIP3   OH236644   4.261   5.086   3.303  0.0446 -0.5640  0.5602
12234TIP3    H136645   4.315   5.010   3.325  0.5118 -0.7001 -0.9288
12234TIP3    H236646   4.324   5.154   3.278 -0.4217 -0.4089 -0.2481
12235TIP3   OH236647   6.793   2.380   2.388  0.4394  0.6217  0.1141
12235TIP3    H136648   6.844   2.395   2.467  0.4672  0.9886  0.0258
12235TIP3    H236649   6.839   2.309   2.343  0.8747  0.9580  0.0294
12236TIP3   OH236650   7.518   1.552   5.142 -0.1213  0.4112  0.5979
12236TIP3    H136651   7.610   1.567   5.120  0.0330  0.5566  1.3392
12236TIP3    H236652   7.469   1.605   5.079  0.2461 -0.6612 -0.6587
12237TIP3   OH236653   4.863   1.353   4.271 -0.0503 -0.0851 -0.1709
12237TIP3    H136654   4.821   1.336   4.187 -0.1384  0.3419 -0.2138
12237TIP3    H236655   4.908   1.271   4.292 -0.7727 -0.5036 -0.2006
12238TIP3   OH236656   2.316   5.149   2.565  0.5728  0.1211 -0.2360
12238TIP3    H136657   2.411   5.143   2.556  0.5964  0.7130 -0.4431
12238TIP3    H236658   2.288   5.059   2.581  0.9847 -0.3287 -1.8598
12239TIP3   OH236659   1.142   6.440   0.068 -0.5760  0.3749 -0.1243
12239TIP3    H136660   1.171   6.405  -0.016 -1.1660 -0.0914 -0.1382
12239TIP3    H236661   1.133   6.534   0.054 -0.8400  0.2749 -0.6339
12240TIP3   OH236662   2.322   7.135   0.600 -0.2445 -0.1082  0.3114
12240TIP3    H136663   2.247   7.078   0.580  1.1875 -1.7233 -0.8542
12240TIP3    H236664   2.304   7.169   0.687 -1.8209 -1.2867  0.4979
12241TIP3   OH236665   4.590   4.841   2.983  0.2472 -0.0205 -0.7554
12241TIP3    H136666   4.592   4.936   2.974 -1.1221 -0.0879 -2.1825
12241TIP3    H236667   4.683   4.816   2.988  0.6143  1.4790  1.3408
12242TIP3   OH236668   0.533   3.828   5.757 -0.5274  0.2985 -0.2675
12242TIP3    H136669   0.586   3.751   5.737 -1.7218 -0.4714 -0.5748
12242TIP3    H236670   0.552   3.846   5.850  0.4998  0.2468 -0.4527
12243TIP3   OH236671   6.199   2.211   2.777  0.0417  0.1572 -0.4112
12243TIP3    H136672   6.233   2.190   2.864  2.1973  0.5829 -1.0883
12243TIP3    H236673   6.147   2.290   2.790 -0.5356 -0.3726  0.6419
12244TIP3   OH236674   8.168   4.523   6.526 -0.5805  0.1476 -0.1960
12244TIP3    H136675   8.080   4.486   6.514 -0.7284 -0.4985  2.4188
12244TIP3    H236676   8.226   4.447   6.524 -0.4482  0.1962  1.2322
12245TIP3   OH236677   8.113   1.628   5.137  0.3153  0.3754  0.0596
12245TIP3    H136678   8.026   1.669   5.134 -1.1065 -2.2181  1.5411
12245TIP3    H236679   8.171   1.697   5.169 -0.8570  2.5801 -2.2355
12246TIP3   OH236680   0.534   3.039   1.648 -0.2228 -0.3401  0.3307
12246TIP3    H136681   0.510   3.114   1.702 -0.5747 -0.4335  0.3052
12246TIP3    H236682   0.581   2.981   1.707 -0.7216 -0.5014  0.5706
12247TIP3   OH236683   6.757   7.763   4.206  0.3673  0.1625  0.2573
12247TIP3    H136684   6.694   7.711   4.156  0.4413  0.4061 -0.0927
12247TIP3    H236685   6.703   7.828   4.251  0.3669  0.3784 -0.0515
12248TIP3   OH236686   5.169   4.830   3.053  0.2466  0.0587 -0.3355
12248TIP3    H136687   5.105   4.771   3.012  0.3797  0.9122 -1.8484
12248TIP3    H236688   5.251   4.813   3.005  0.1675  1.7819 -1.1469
12249TIP3   OH236689   8.079   3.590   6.416  0.1732 -0.5089 -0.0144
12249TIP3    H136690   8.034   3.567   6.335 -1.6050  0.4260  0.6483
12249TIP3    H236691   8.104   3.506   6.454  0.0727 -1.0041 -1.0161
12250TIP3   OH236692   8.247   3.507   1.740 -0.4723  0.2816 -0.0447
12250TIP3    H136693   8.323   3.450   1.753  0.1846  0.7958 -1.3847
12250TIP3    H236694   8.179   3.448   1.706 -0.7538 -0.2131  1.3329
12251TIP3   OH236695   0.556   2.061   3.042 -0.5082 -0.2266  0.2669
12251TIP3    H136696   0.562   2.023   3.129 -0.7976 -2.2592 -0.5489
12251TIP3    H236697   0.515   2.146   3.055 -0.0428 -0.2555  2.1521
12252TIP3   OH236698   6.064   7.473   2.846 -0.7133  0.1621 -0.2139
12252TIP3    H136699   6.090   7.386   2.816  1.9100  0.9725 -0.5374
12252TIP3    H236700   5.972   7.463   2.871 -0.7086 -2.4983 -0.9350
12253TIP3   OH236701   2.429   5.936   3.341  0.1857 -0.2857  0.1457
12253TIP3    H136702   2.448   5.968   3.252 -1.4169  1.3696  0.3575
12253TIP3    H236703   2.369   5.864   3.328  0.9187 -0.8571 -0.1554
12254TIP3   OH236704   7.824   6.257   2.760  0.3845  0.0711 -0.6853
12254TIP3    H136705   7.792   6.190   2.819 -2.2678  3.1270  1.7312
12254TIP3    H236706   7.765   6.254   2.684 -0.0729  0.0042 -0.3288
12255TIP3   OH236707   3.454   4.926   1.052  0.3928 -0.1593 -0.2517
12255TIP3    H136708   3.458   4.947   0.959 -0.9751 -2.6858 -0.9853
12255TIP3    H236709   3.509   4.848   1.061 -1.2661 -1.3112  0.5308
12256TIP3   OH236710   6.277   5.038   0.413 -0.0696  0.1316 -0.2497
12256TIP3    H136711   6.217   5.031   0.487  1.8573  0.0099  1.3985
12256TIP3    H236712   6.223   5.071   0.341 -2.2792 -0.8370  0.8565
12257TIP3   OH236713   0.731   4.824   4.792 -0.0399  0.1032  0.7649
12257TIP3    H136714   0.773   4.744   4.760 -1.3009 -0.2675 -0.0675
12257TIP3    H236715   0.782   4.850   4.868  1.2877 -0.6594  0.1590
12258TIP3   OH236716   8.239   3.837   2.310 -0.4022 -0.1211  0.0258
12258TIP3    H136717   8.303   3.895   2.349  0.9848 -1.4724 -0.1324
12258TIP3    H236718   8.154   3.872   2.337  0.4144  1.1980  0.9741
12259TIP3   OH236719   6.200   3.626   2.984  0.1569  0.8332 -0.1013
12259TIP3    H136720   6.185   3.546   3.034  0.7170  1.8114  1.7231
12259TIP3    H236721   6.282   3.609   2.937  1.4593  1.0568  1.9651
12260TIP3   OH236722   0.862   2.420   1.241 -0.3966  0.0525 -0.2730
12260TIP3    H136723   0.878   2.416   1.146  2.7094 -0.0321  0.1365
12260TIP3    H236724   0.797   2.351   1.257  1.9134 -2.7576 -1.9359
12261TIP3   OH236725   5.044   2.959   3.156 -0.3112  0.3819 -0.1122
12261TIP3    H136726   5.124   2.950   3.208 -0.0050  1.8760 -0.2857
12261TIP3    H236727   5.068   2.923   3.070 -0.3496 -0.6857  0.3116
12262TIP3   OH236728   2.438   1.830   5.164 -0.4936  0.2248  0.0544
12262TIP3    H136729   2.388   1.756   5.128  0.4954 -0.6085  0.3617
12262TIP3    H236730   2.437   1.817   5.258  2.7985 -1.5348 -0.0257
12263TIP3   OH236731   2.026   1.315   4.950 -0.0628  0.1278  0.0238
12263TIP3    H136732   2.004   1.222   4.954 -1.4795  0.3551 -1.1804
12263TIP3    H236733   2.083   1.323   4.873 -1.3184  0.4303 -0.9301
12264TIP3   OH236734   6.831   1.385   2.781 -0.1538 -0.5441  0.5180
12264TIP3    H136735   6.754   1.353   2.734  0.4369  1.0685 -1.6970
12264TIP3    H236736   6.905   1.345   2.735  0.5501  2.8274 -1.6164
12265TIP3   OH236737   5.253   6.968   2.804 -0.6137  0.0636  0.2779
12265TIP3    H136738   5.339   6.935   2.780  0.5688  1.7942  1.8085
12265TIP3    H236739   5.191   6.911   2.758  1.3243 -1.1534 -0.9661
12266TIP3   OH236740   0.876   1.758   4.245  0.1381  0.3023  0.5059
12266TIP3    H136741   0.918   1.678   4.275 -1.1370  0.4870  2.9888
12266TIP3    H236742   0.942   1.800   4.190  0.9147 -2.2849 -0.6904
12267TIP3   OH236743   5.234   0.085   3.633  0.4502 -0.1300  0.1038
12267TIP3    H136744   5.235   0.114   3.542  1.9516 -0.7509 -0.1013
12267TIP3    H236745   5.229  -0.010   3.629 -1.3792 -0.1057  0.7313
12268TIP3   OH236746   4.015   0.225   5.672  0.4510  0.0612 -0.0234
12268TIP3    H136747   3.942   0.236   5.733  0.7688  2.3046  0.0311
12268TIP3    H236748   4.083   0.283   5.705  1.3775 -0.1754 -1.4261
12269TIP3   OH236749   3.705   6.298   6.667  0.1591  0.2465 -0.1975
12269TIP3    H136750   3.730   6.309   6.759  0.5867  1.6821 -0.4669
12269TIP3    H236751   3.611   6.315   6.665  0.1338  0.1287 -0.0198
12270TIP3   OH236752   0.647   0.099   6.426  0.9611  0.3652 -0.1693
12270TIP3    H136753   0.669   0.134   6.513  1.1833  2.0074 -0.8487
12270TIP3    H236754   0.730   0.068   6.390  1.1445  1.0914 -0.3853
12271TIP3   OH236755   6.618   7.728   6.141 -0.0516  0.2725  0.1765
12271TIP3    H136756   6.570   7.753   6.062 -0.1501  1.5208  0.6009
12271TIP3    H236757   6.709   7.745   6.121 -0.2309  2.4644  0.9311
12272TIP3   OH236758   4.164   7.127   6.505 -0.6365  0.2921  0.5522
12272TIP3    H136759   4.090   7.096   6.452 -1.1503  0.7799  0.9619
12272TIP3    H236760   4.128   7.201   6.554 -0.4412 -0.6265  2.1835
12273TIP3   OH236761   3.375   0.425   4.581  0.1509 -0.2974 -0.9401
12273TIP3    H136762   3.321   0.467   4.513  0.1297  0.2097 -0.6095
12273TIP3    H236763   3.353   0.332   4.574 -0.1227 -0.2030 -1.3896
12274TIP3   OH236764   3.779   5.914   4.683  0.2189 -0.0892  0.2950
12274TIP3    H136765   3.752   5.841   4.738  2.3570 -0.7221  0.5762
12274TIP3    H236766   3.772   5.991   4.740 -0.8239 -0.2370  0.3815
12275TIP3   OH236767   7.959   6.299   4.296  0.1388 -0.2008 -0.0947
12275TIP3    H136768   7.878   6.350   4.302  0.3807  0.0569  1.3939
12275TIP3    H236769   8.028   6.360   4.324  0.2507 -1.6929  3.3288
12276TIP3   OH236770   5.707   0.415   0.566  0.5237 -0.2026  0.1308
12276TIP3    H136771   5.701   0.326   0.531 -0.0230  0.4967 -1.6597
12276TIP3    H236772   5.617   0.440   0.587  0.6548 -0.0139  0.4876
12277TIP3   OH236773   4.826   0.848   6.509 -0.3575  0.3444  0.0110
12277TIP3    H136774   4.766   0.891   6.448  0.3070  0.3391 -0.6622
12277TIP3    H236775   4.886   0.799   6.453 -0.7844 -1.0610  0.7445
12278TIP3   OH236776   5.363   5.991   6.566  0.2432  0.4809 -0.6722
12278TIP3    H136777   5.347   5.949   6.482  2.0571  0.0544 -0.8467
12278TIP3    H236778   5.456   6.013   6.565  0.4133  0.0967  1.3836
12279TIP3   OH236779   1.318   5.004   6.307 -0.2015 -0.2795 -0.8990
12279TIP3    H136780   1.297   4.916   6.277  0.0920 -0.4167 -0.6995
12279TIP3    H236781   1.233   5.046   6.320 -0.3416 -0.5759 -0.8592
12280TIP3   OH236782   3.107   2.846   1.985 -0.0439 -0.0716 -0.3030
12280TIP3    H136783   3.178   2.786   1.962  0.2475 -0.1476  0.7508
12280TIP3    H236784   3.050   2.795   2.043  0.4200  0.7636  0.9335
12281TIP3   OH236785   4.333   3.843   1.632  0.3052 -0.4964 -0.2112
12281TIP3    H136786   4.317   3.749   1.625 -0.0882 -0.4507  0.0009
12281TIP3    H236787   4.335   3.859   1.727 -0.1692 -0.2077 -0.2467
12282TIP3   OH236788   6.365   5.526   1.244 -0.9184 -0.4338  0.1349
12282TIP3    H136789   6.408   5.444   1.219 -0.2743 -0.1544  0.3290
12282TIP3    H236790   6.373   5.582   1.167  0.0431  0.0115  0.5478
12283TIP3   OH236791   6.165   4.224   6.007  0.4968  0.3431  0.0504
12283TIP3    H136792   6.137   4.233   5.916 -0.1228 -0.0454  0.1954
12283TIP3    H236793   6.188   4.313   6.034  1.2799  0.3725 -0.6649
12284TIP3   OH236794   5.591   5.416   4.705  0.2325  0.0640  0.0505
12284TIP3    H136795   5.629   5.467   4.633 -0.8822  0.4858 -0.2482
12284TIP3    H236796   5.508   5.459   4.724 -0.3101 -1.1031  0.4114
12285TIP3   OH236797   5.189   5.326   5.064  0.5949  0.6866  0.6373
12285TIP3    H136798   5.121   5.376   5.019 -0.0355 -1.4080 -0.8852
12285TIP3    H236799   5.163   5.328   5.156 -0.6388  1.2910  0.2950
12286TIP3   OH236800   2.054   6.681   6.156 -0.3673  0.1227  0.0638
12286TIP3    H136801   2.147   6.663   6.167 -0.2996 -1.0579 -1.9214
12286TIP3    H236802   2.018   6.599   6.122 -2.2440  0.3966  1.2400
12287TIP3   OH236803   4.107   1.175   4.543  0.1642  0.0228  0.3353
12287TIP3    H136804   4.152   1.258   4.527  0.3408 -0.0924  0.2428
12287TIP3    H236805   4.176   1.114   4.569  0.0555 -0.1371  0.2500
12288TIP3   OH236806   2.846   0.747   2.453  0.1523 -0.4911 -0.2039
12288TIP3    H136807   2.857   0.839   2.473  3.5775 -0.7098 -0.5727
12288TIP3    H236808   2.769   0.720   2.503 -1.0756  2.5571 -0.2736
12289TIP3   OH236809   8.168   4.803   4.202 -0.1646 -0.1086  0.6017
12289TIP3    H136810   8.146   4.762   4.285 -0.4614 -0.6612  0.2610
12289TIP3    H236811   8.220   4.738   4.155 -0.2403  0.0837  0.2400
12290TIP3   OH236812   1.544   5.890   5.474 -0.3026 -0.2137 -0.1846
12290TIP3    H136813   1.515   5.863   5.387 -0.1071  0.5133 -0.4879
12290TIP3    H236814   1.464   5.922   5.517 -0.3212 -0.1664 -0.2547
12291TIP3   OH236815   6.037   7.235   4.906 -0.4697  0.2521 -0.0654
12291TIP3    H136816   5.943   7.230   4.922 -0.5125  0.6990 -0.1683
12291TIP3    H236817   6.051   7.323   4.869 -0.5527 -1.1054 -3.7282
12292TIP3   OH236818   0.449   0.874   2.180  0.2146 -0.2935 -0.5716
12292TIP3    H136819   0.438   0.851   2.088 -1.8772 -1.0728 -0.1856
12292TIP3    H236820   0.508   0.949   2.179  0.5926 -0.5685 -2.5036
12293TIP3   OH236821   3.047   4.958   2.519  0.3020  0.5175 -0.2884
12293TIP3    H136822   2.957   4.937   2.541  0.7900 -2.6627 -0.9125
12293TIP3    H236823   3.051   4.949   2.424  1.2973  0.6146 -0.2663
12294TIP3   OH236824   4.302   0.235   1.288  0.4516  0.4775  0.2516
12294TIP3    H136825   4.242   0.200   1.354  0.5270 -0.8070 -0.3296
12294TIP3    H236826   4.384   0.251   1.335  0.2151  0.4733  0.6663
12295TIP3   OH236827   0.800   1.692   2.042 -0.7723  0.2786 -0.1681
12295TIP3    H136828   0.855   1.618   2.016 -1.3606 -0.6121  0.9987
12295TIP3    H236829   0.728   1.692   1.979 -0.6691 -0.0316 -0.2896
12296TIP3   OH236830   5.888   0.967   1.409  0.0333 -0.3048 -0.1340
12296TIP3    H136831   5.797   0.956   1.437 -0.3616  1.7830 -0.4476
12296TIP3    H236832   5.883   0.973   1.314  0.5519 -0.6071 -0.1826
12297TIP3   OH236833   2.693   5.080   0.486 -0.3534 -0.3754 -0.5963
12297TIP3    H136834   2.730   5.023   0.554 -0.3217 -0.3168 -0.5650
12297TIP3    H236835   2.759   5.080   0.417 -0.5716 -0.7754 -0.8100
12298TIP3   OH236836   2.050   5.422   4.436  0.0861 -0.3752  0.0902
12298TIP3    H136837   2.113   5.444   4.505 -0.6438  0.3599  0.5400
12298TIP3    H236838   2.094   5.355   4.384  0.5560 -1.1448  1.4209
12299TIP3   OH236839   8.189   5.551   5.763  0.0142  0.0262 -0.2156
12299TIP3    H136840   8.204   5.484   5.695 -0.3293  0.9883 -1.2743
12299TIP3    H236841   8.266   5.607   5.757 -0.3206  0.4845 -0.2626
12300TIP3   OH236842   0.543   0.009   4.578  0.4092  0.1406  0.0696
12300TIP3    H136843   0.530   0.010   4.483 -1.6984 -2.0846  0.2276
12300TIP3    H236844   0.456   0.025   4.614  0.8969 -0.4460  1.5824
12301TIP3   OH236845   4.089   1.068   5.131 -0.1023 -0.0469  0.0943
12301TIP3    H136846   4.107   1.146   5.184 -0.9825  0.2005  0.0580
12301TIP3    H236847   4.120   0.995   5.185  0.5853  0.3159  0.1978
12302TIP3   OH236848   5.785   5.622   3.760 -0.0855 -0.5673  0.3383
12302TIP3    H136849   5.720   5.647   3.826  1.6408 -1.7862  2.6641
12302TIP3    H236850   5.838   5.701   3.747 -0.0410 -0.4937  0.9396
12303TIP3   OH236851   6.372   4.971   1.156 -0.2578 -0.1127 -0.0055
12303TIP3    H136852   6.345   4.913   1.228  3.1487  0.8175  2.2215
12303TIP3    H236853   6.435   4.919   1.107  1.2139  0.9153  0.7437
12304TIP3   OH236854   0.941   5.501   6.673 -0.3418 -0.0148  0.6067
12304TIP3    H136855   0.859   5.526   6.630  0.1638  0.6117 -0.0216
12304TIP3    H236856   0.937   5.544   6.758 -0.1100  1.0929  0.0831
12305TIP3   OH236857   5.604   1.066   5.465 -0.4955 -0.3746  0.7868
12305TIP3    H136858   5.600   1.006   5.391 -1.0043  0.7723 -0.1565
12305TIP3    H236859   5.531   1.126   5.451  1.1001  1.6219  0.6508
12306TIP3   OH236860   5.486   1.393   4.180 -0.0596 -0.3829  0.3401
12306TIP3    H136861   5.407   1.401   4.233 -0.6220 -0.9201 -0.4075
12306TIP3    H236862   5.518   1.482   4.172  0.3201 -0.3293  1.9882
12307TIP3   OH236863   3.460   2.290   3.971  0.0112  0.3269 -0.1029
12307TIP3    H136864   3.523   2.272   4.041 -0.5854  0.1008  0.3868
12307TIP3    H236865   3.385   2.329   4.015 -1.5703 -2.4202 -0.1395
12308TIP3   OH236866   1.360   1.989   1.011 -0.6139  0.2952 -0.0016
12308TIP3    H136867   1.372   2.024   1.099  1.0032 -0.2600  0.0301
12308TIP3    H236868   1.438   2.017   0.962 -0.8525 -0.4954 -0.8755
12309TIP3   OH236869   0.125   3.099   6.255  0.3054  0.2841  0.3155
12309TIP3    H136870   0.048   3.068   6.208  0.9324 -0.4969 -0.2180
12309TIP3    H236871   0.188   3.121   6.186 -0.2037  3.1357  0.6160
12310TIP3   OH236872   2.114   3.293   3.737 -0.0229 -0.2712  0.6155
12310TIP3    H136873   2.209   3.292   3.742  0.2109  0.4009 -2.0908
12310TIP3    H236874   2.087   3.206   3.766  1.5009 -0.8710  0.3009
12311TIP3   OH236875   2.361   5.938   3.951  0.1756  0.5996 -0.2852
12311TIP3    H136876   2.432   5.995   3.922  1.1881  0.7955  2.3838
12311TIP3    H236877   2.396   5.890   4.026 -2.0244 -0.4290  0.1843
12312TIP3   OH236878   1.539   4.867   3.921 -0.2462  0.2632 -0.0508
12312TIP3    H136879   1.482   4.914   3.860  0.3383 -0.5175 -1.2326
12312TIP3    H236880   1.584   4.802   3.867 -0.7516 -1.4295  1.4399
12313TIP3   OH236881   7.163   1.849   4.430  0.6902  0.7778  0.3367
12313TIP3    H136882   7.077   1.824   4.396 -0.5120  2.7418  1.7221
12313TIP3    H236883   7.211   1.766   4.439 -0.6907 -0.2670 -1.3172
12314TIP3   OH236884   3.172   0.513   4.124  0.3698 -0.1520  0.5419
12314TIP3    H136885   3.137   0.468   4.046 -1.3115 -0.9862  1.7059
12314TIP3    H236886   3.206   0.596   4.091 -0.2753 -0.4973 -1.0844
12315TIP3   OH236887   2.026   0.175   5.709  0.3903  0.1591 -0.2144
12315TIP3    H136888   2.102   0.230   5.696  0.0192  0.7265 -0.0195
12315TIP3    H236889   2.006   0.183   5.803  0.3747 -0.3549 -0.1721
12316TIP3   OH236890   3.680   3.838   2.830  0.0952 -0.8336 -0.3470
12316TIP3    H136891   3.755   3.889   2.862  1.0251 -1.5814 -1.2231
12316TIP3    H236892   3.614   3.904   2.808 -0.0748 -0.2316  1.7544
12317TIP3   OH236893   0.483   7.776   2.750  0.4548  0.5733 -0.6496
12317TIP3    H136894   0.465   7.854   2.698 -0.7240  1.1173  0.5374
12317TIP3    H236895   0.425   7.782   2.825  0.8059 -1.1270 -0.1869
12318TIP3   OH236896   2.946   0.756   5.688 -0.0062  0.2619  0.3546
12318TIP3    H136897   2.950   0.800   5.602 -0.4932  2.9312  1.6051
12318TIP3    H236898   2.867   0.703   5.684  0.0578  0.2261 -0.8974
12319TIP3   OH236899   0.313   7.406   1.280  0.1378 -0.0932  0.5071
12319TIP3    H136900   0.396   7.367   1.254  0.2178  0.8948 -0.8303
12319TIP3    H236901   0.277   7.442   1.199 -1.1377  0.3197  1.2360
12320TIP3   OH236902   5.909   4.013   1.755  0.5972  0.0781  0.1501
12320TIP3    H136903   5.986   4.019   1.811  0.4560 -3.2655  0.8953
12320TIP3    H236904   5.930   3.943   1.693 -1.8067 -0.9904  0.4195
12321TIP3   OH236905   6.610   3.826   3.472  0.0578 -0.1877 -0.3702
12321TIP3    H136906   6.591   3.745   3.425  0.0214  0.6664 -1.8847
12321TIP3    H236907   6.525   3.858   3.500 -1.1880  3.0059 -6.1006
12322TIP3   OH236908   1.528   3.790   1.726 -0.8692  0.9036  0.5330
12322TIP3    H136909   1.591   3.791   1.655 -1.4958  0.5741 -0.0373
12322TIP3    H236910   1.579   3.766   1.803 -0.5735 -1.0675 -0.2122
12323TIP3   OH236911   2.586   1.463   6.734 -0.1123 -0.1622 -0.2284
12323TIP3    H136912   2.493   1.445   6.729 -0.2323  0.7885 -2.2432
12323TIP3    H236913   2.626   1.407   6.668  0.6506 -0.0007  0.0783
12324TIP3   OH236914   1.526   0.504   5.562 -0.3063  0.5174 -0.0651
12324TIP3    H136915   1.603   0.449   5.549  0.9336  1.7630  1.6373
12324TIP3    H236916   1.494   0.521   5.473  0.8125 -0.7594 -0.7587
12325TIP3   OH236917   0.853   7.660   1.591  0.0844 -0.1865  0.1700
12325TIP3    H136918   0.834   7.719   1.664  0.6485  0.6225 -0.3258
12325TIP3    H236919   0.808   7.579   1.614 -0.5667  0.3744  0.9502
12326TIP3   OH236920   3.984   1.438   2.514 -0.8451 -0.3341  0.0340
12326TIP3    H136921   3.937   1.468   2.591  0.3247  2.8460 -0.3606
12326TIP3    H236922   4.059   1.497   2.506  0.4692 -2.1111 -2.1473
12327TIP3   OH236923   7.921   2.291   5.222  0.8228 -0.0953  0.8572
12327TIP3    H136924   7.998   2.237   5.239 -0.0667 -0.9792  2.2615
12327TIP3    H236925   7.847   2.238   5.252 -0.5192  0.1353 -1.7615
12328TIP3   OH236926   4.248   3.539   0.598  0.5092 -0.3868 -0.6671
12328TIP3    H136927   4.327   3.567   0.552  0.3085  1.0012 -0.2185
12328TIP3    H236928   4.238   3.603   0.669  1.2059 -2.8220  1.8023
12329TIP3   OH236929   3.662   7.737   4.894  0.0833 -0.2730  0.3486
12329TIP3    H136930   3.683   7.831   4.895  0.9380 -0.4586  0.8958
12329TIP3    H236931   3.619   7.722   4.978  0.4371 -0.4723  0.4956
12330TIP3   OH236932   3.053   4.105   5.362 -0.0349 -0.0467 -0.2249
12330TIP3    H136933   3.021   4.162   5.292  1.3202  0.0216 -0.8366
12330TIP3    H236934   3.138   4.142   5.386 -0.3529 -0.2323  1.2910
12331TIP3   OH236935   0.796   5.361   2.989 -0.0767 -0.2220  0.4484
12331TIP3    H136936   0.889   5.379   3.005  0.5871 -2.8504  0.0406
12331TIP3    H236937   0.785   5.269   3.012 -2.3155 -0.3141 -0.7180
12332TIP3   OH236938   4.516   0.370   5.006  0.4588  0.8789  0.0146
12332TIP3    H136939   4.609   0.378   5.028  0.2167  2.3655  0.6430
12332TIP3    H236940   4.470   0.414   5.078 -0.7699 -0.2646 -0.0343
12333TIP3   OH236941   5.233   6.716   6.027 -0.1950 -0.4181  0.4568
12333TIP3    H136942   5.319   6.717   6.071  0.5989  0.2099 -1.0492
12333TIP3    H236943   5.175   6.758   6.090  1.0137  0.9272  0.7333
12334TIP3   OH236944   0.375   3.657   3.196 -0.6944  0.0039  0.6578
12334TIP3    H136945   0.281   3.670   3.186 -0.4249  2.2092  0.4582
12334TIP3    H236946   0.396   3.698   3.280  0.1097 -0.4603  0.6971
12335TIP3   OH236947   5.078   1.989   1.969 -0.2720 -0.2166 -0.2841
12335TIP3    H136948   5.133   1.949   2.036 -0.0072 -0.1591 -0.4684
12335TIP3    H236949   5.081   1.928   1.895  1.6560  0.9924 -1.2950
12336TIP3   OH236950   3.978   5.893   6.561  0.3730 -0.3596  0.1235
12336TIP3    H136951   4.028   5.811   6.554  1.9652  0.2615  2.6382
12336TIP3    H236952   4.037   5.952   6.609 -1.4154  1.6699 -0.0407
12337TIP3   OH236953   2.368   4.842   4.313  0.2131  0.3339 -0.9498
12337TIP3    H136954   2.365   4.747   4.302 -0.7210  0.2162  0.1000
12337TIP3    H236955   2.460   4.862   4.328  0.1540 -0.7262  1.1788
12338TIP3   OH236956   0.538   5.795   3.309 -0.3893 -0.4062  0.7385
12338TIP3    H136957   0.559   5.884   3.278  0.2747 -0.3345  1.3717
12338TIP3    H236958   0.606   5.740   3.269 -0.6786 -0.6001  0.5136
12339TIP3   OH236959   4.170   1.588   1.371 -0.2333 -0.7031  0.5469
12339TIP3    H136960   4.193   1.636   1.291 -1.5412 -1.0580 -0.0645
12339TIP3    H236961   4.241   1.609   1.432 -1.2720  3.0146  0.7476
12340TIP3   OH236962   7.450   3.756   4.832 -0.1725 -0.4724 -0.1651
12340TIP3    H136963   7.443   3.666   4.863 -0.5636 -0.9055 -1.4673
12340TIP3    H236964   7.388   3.762   4.759 -0.2023  0.8697 -0.0652
12341TIP3   OH236965   2.423   5.426   4.327  0.1465 -0.1852  0.2843
12341TIP3    H136966   2.331   5.404   4.314  0.1286 -0.7003  1.1512
12341TIP3    H236967   2.455   5.449   4.240 -0.4509 -1.3791 -0.2833
12342TIP3   OH236968   6.030   4.225   2.060 -0.4463  0.1850 -0.0892
12342TIP3    H136969   6.071   4.163   2.000 -1.1314 -2.6740  2.1956
12342TIP3    H236970   5.959   4.264   2.010 -1.1802 -2.3124 -1.1104
12343TIP3   OH236971   3.080   3.464   2.990 -0.7815 -0.2384  0.0613
12343TIP3    H136972   3.074   3.538   2.930  1.6953 -0.5475 -0.6860
12343TIP3    H236973   3.122   3.395   2.938  1.6896 -0.4558  2.1477
12344TIP3   OH236974   2.839   2.385   2.234  0.0134  0.1001  0.7885
12344TIP3    H136975   2.923   2.340   2.221 -0.3006 -0.0511 -1.0177
12344TIP3    H236976   2.851   2.470   2.192 -0.5422  0.3246  1.0728
12345TIP3   OH236977   8.205   4.982   0.913  0.0226 -0.1576 -0.6868
12345TIP3    H136978   8.289   5.027   0.917 -0.4861  0.7982 -0.5793
12345TIP3    H236979   8.219   4.901   0.963  0.5954  0.4506  0.1594
12346TIP3   OH236980   0.744   2.779   0.428 -0.1731  0.0618  0.2167
12346TIP3    H136981   0.693   2.705   0.460  0.2091 -0.3397 -0.0947
12346TIP3    H236982   0.698   2.807   0.348 -0.3571  0.2127  0.3723
12347TIP3   OH236983   6.862   2.490   4.091 -0.1069 -0.2264  0.2480
12347TIP3    H136984   6.813   2.409   4.085  0.3493 -0.4571 -0.3768
12347TIP3    H236985   6.923   2.488   4.017 -0.0470  0.6502  0.2583
12348TIP3   OH236986   6.130   3.393   0.252 -0.1434 -0.4906 -0.1901
12348TIP3    H136987   6.162   3.385   0.342 -3.1538  0.5537  1.1059
12348TIP3    H236988   6.159   3.480   0.224  1.9542 -1.3439 -0.7963
12349TIP3   OH236989   2.537   7.784   4.834  0.3288  0.6898 -0.0440
12349TIP3    H136990   2.544   7.871   4.797 -0.9951  0.1973 -1.5510
12349TIP3    H236991   2.572   7.726   4.766  0.1536 -0.0376  0.4735
12350TIP3   OH236992   7.870   1.487   4.408  0.0701  0.6379 -0.3484
12350TIP3    H136993   7.789   1.474   4.359  0.2514 -0.3366 -0.4161
12350TIP3    H236994   7.841   1.502   4.498 -0.1949 -2.9507  0.3310
12351TIP3   OH236995   6.561   1.214   0.873 -0.1578  0.0812  0.4668
12351TIP3    H136996   6.543   1.184   0.962 -2.0629 -0.2908  0.0056
12351TIP3    H236997   6.559   1.309   0.880 -1.2043  0.0622  0.6960
12352TIP3   OH236998   0.559   2.387   5.279 -0.6102  0.0522  0.3686
12352TIP3    H136999   0.488   2.388   5.215  0.7063 -0.8721 -1.1910
12352TIP3    H237000   0.626   2.445   5.243 -0.5552  0.9216  1.8115
12353TIP3   OH237001   8.110   0.235   2.670 -0.2658 -0.0808  0.0915
12353TIP3    H137002   8.100   0.297   2.598 -0.3163  1.3546  1.2795
12353TIP3    H237003   8.204   0.218   2.674 -0.1747  0.4329  0.1652
12354TIP3   OH237004   4.441   0.200   5.553  0.8121  0.2815 -0.1370
12354TIP3    H137005   4.396   0.145   5.489  0.3602 -0.1475  0.5386
12354TIP3    H237006   4.401   0.177   5.637  0.3576  1.8980  0.1256
12355TIP3   OH237007   3.302   1.641   4.325  0.5914 -0.2070  0.0026
12355TIP3    H137008   3.323   1.733   4.339 -1.5601  0.0280  2.3328
12355TIP3    H237009   3.221   1.642   4.275  0.8200 -0.8674 -0.3935
12356TIP3   OH237010   3.324   0.592   1.606 -0.3938  0.5853 -0.0555
12356TIP3    H137011   3.371   0.540   1.541  0.3177 -2.5821  2.7018
12356TIP3    H237012   3.232   0.567   1.596 -0.1819 -0.5281  0.5924
12357TIP3   OH237013   1.363   7.345   5.193 -0.1674  0.1752 -0.0632
12357TIP3    H137014   1.430   7.350   5.261  1.4702  0.5091 -1.6180
12357TIP3    H237015   1.317   7.263   5.211  0.0992  0.3409  1.5164
12358TIP3   OH237016   5.546   3.768   5.111 -0.0967  0.1985 -0.1444
12358TIP3    H137017   5.627   3.718   5.115 -1.3330 -1.8391  1.4541
12358TIP3    H237018   5.514   3.755   5.021  0.7109 -0.0098 -0.4064
12359TIP3   OH237019   0.657   6.041   3.201 -0.3785 -0.3891 -0.0509
12359TIP3    H137020   0.696   6.049   3.114  1.3775 -0.9254  0.6456
12359TIP3    H237021   0.731   6.050   3.262 -1.7339  1.1765  1.4576
12360TIP3   OH237022   1.939   2.363   1.716 -0.1286  0.3852  0.4886
12360TIP3    H137023   2.014   2.349   1.658  0.6749  1.0893  1.3324
12360TIP3    H237024   1.977   2.397   1.797 -1.3195  0.2966  1.1085
12361TIP3   OH237025   7.562   7.663   2.994  0.3520 -0.7516 -0.0358
12361TIP3    H137026   7.505   7.636   2.922  0.0632 -0.4023  0.0602
12361TIP3    H237027   7.615   7.734   2.957 -1.6826  1.3663  0.8317
12362TIP3   OH237028   2.110   4.733   6.683  0.6035 -0.4787 -0.0376
12362TIP3    H137029   2.037   4.680   6.652 -0.5418  0.3183  1.1446
12362TIP3    H237030   2.099   4.735   6.778  1.7206  0.3084  0.0956
12363TIP3   OH237031   1.274   1.224   2.174 -0.4366  0.6019  0.3032
12363TIP3    H137032   1.361   1.221   2.133 -0.6117  0.3973 -0.0602
12363TIP3    H237033   1.289   1.197   2.264 -0.2822 -0.4271 -0.0266
12364TIP3   OH237034   5.105   2.322   3.445  0.5982  0.5775 -0.0966
12364TIP3    H137035   5.084   2.252   3.507 -1.0715  1.0421 -0.0925
12364TIP3    H237036   5.180   2.367   3.485  1.0180 -0.5414  0.4210
12365TIP3   OH237037   6.213   1.758   2.860  0.2184  0.0402  0.5890
12365TIP3    H137038   6.126   1.790   2.885 -0.9680 -2.1231 -0.4587
12365TIP3    H237039   6.224   1.786   2.769 -0.6243 -1.9425 -0.1782
12366TIP3   OH237040   0.406   2.810   3.410  0.1172  0.0130 -0.0110
12366TIP3    H137041   0.343   2.742   3.433 -1.1271  1.1867  0.1985
12366TIP3    H237042   0.424   2.796   3.317 -1.2099  0.2187 -0.3176
12367TIP3   OH237043   3.755   3.993   1.885 -0.8991 -0.1506  0.3499
12367TIP3    H137044   3.758   3.966   1.977  0.6615  0.7845  0.6021
12367TIP3    H237045   3.667   4.029   1.874 -0.2565  2.2769  2.2783
12368TIP3   OH237046   7.464   0.360   1.945  0.0796  0.3855 -0.6952
12368TIP3    H137047   7.474   0.326   1.856  0.1599  1.8441 -1.2726
12368TIP3    H237048   7.471   0.455   1.935  2.5783  0.4920  1.2068
12369TIP3   OH237049   6.293   2.406   6.382  0.5058  1.0020  0.3734
12369TIP3    H137050   6.252   2.320   6.383  0.0886  1.1956  1.6733
12369TIP3    H237051   6.221   2.468   6.395  0.8769  1.5014  0.0682
12370TIP3   OH237052   6.665   2.674   5.586  0.3946  0.5562 -0.4954
12370TIP3    H137053   6.645   2.619   5.662  1.3618  1.6711  0.6093
12370TIP3    H237054   6.581   2.686   5.542 -0.1208 -0.3902  0.2079
12371TIP3   OH237055   1.905   6.228   0.805  0.2668 -0.1159 -0.3511
12371TIP3    H137056   1.811   6.234   0.784 -0.2241 -2.5680  0.8188
12371TIP3    H237057   1.917   6.288   0.878 -0.5897 -0.3790  0.0209
12372TIP3   OH237058   2.810   5.426   2.768  0.3521  0.1389  0.0815
12372TIP3    H137059   2.816   5.519   2.747  1.4730  0.0318 -0.1245
12372TIP3    H237060   2.885   5.386   2.723  0.4836 -0.6991  1.0132
12373TIP3   OH237061   4.374   5.853   2.061 -0.1358 -0.2780  0.0080
12373TIP3    H137062   4.310   5.869   1.991 -0.5600 -1.0412  0.2195
12373TIP3    H237063   4.450   5.905   2.035 -1.3109  1.7815  0.4630
12374TIP3   OH237064   8.195   1.991   0.609 -0.5499  0.3288  0.5091
12374TIP3    H137065   8.257   1.929   0.570 -0.4524  0.2452  0.7927
12374TIP3    H237066   8.127   2.002   0.543  0.3713  1.3415 -0.2964
12375TIP3   OH237067   0.519   3.769   0.610 -0.6485 -0.0776 -0.2453
12375TIP3    H137068   0.432   3.787   0.647 -1.2134 -0.9651 -1.0793
12375TIP3    H237069   0.501   3.712   0.535  0.6891 -0.4822 -0.2742
12376TIP3   OH237070   5.285   2.906   6.160 -0.1359 -0.3707  0.1320
12376TIP3    H137071   5.316   2.819   6.185  1.3381  0.1397  0.1516
12376TIP3    H237072   5.250   2.895   6.072  2.8393 -0.4556 -1.1657
12377TIP3   OH237073   6.664   3.754   1.281 -0.3281 -0.3141 -0.6232
12377TIP3    H137074   6.746   3.788   1.315  0.1920 -0.3470 -1.8061
12377TIP3    H237075   6.651   3.671   1.328  0.3056 -0.3115 -0.4400
12378TIP3   OH237076   0.435   6.989   2.742 -0.0638 -0.3467 -0.6559
12378TIP3    H137077   0.528   6.970   2.740 -0.0769 -0.4890 -0.0981
12378TIP3    H237078   0.422   7.053   2.672  0.8376  1.3115  0.6075
12379TIP3   OH237079   4.741   4.491   0.209  0.7849 -0.1054 -0.1948
12379TIP3    H137080   4.825   4.458   0.176  1.1058  0.6937 -0.2185
12379TIP3    H237081   4.764   4.532   0.293  0.6900  1.3873 -0.8681
12380TIP3   OH237082   7.317   7.724   0.610  0.5745  0.2323 -0.3178
12380TIP3    H137083   7.353   7.640   0.582  1.4094  0.3454  0.3779
12380TIP3    H237084   7.383   7.760   0.669 -0.4646  0.6849  0.6022
12381TIP3   OH237085   0.861   7.092   4.892 -0.2327 -0.1936 -0.0507
12381TIP3    H137086   0.867   7.148   4.969  0.4258 -1.8790  1.1775
12381TIP3    H237087   0.768   7.090   4.871 -0.3603  0.6815  0.3875
12382TIP3   OH237088   2.583   3.723   3.052  0.7511  0.7795 -0.6591
12382TIP3    H137089   2.490   3.704   3.041  0.6677  1.8301 -2.2079
12382TIP3    H237090   2.586   3.817   3.071  1.5201  0.9402 -1.5122
12383TIP3   OH237091   3.392   3.690   6.634 -0.1588  0.3076 -0.2102
12383TIP3    H137092   3.323   3.625   6.627  0.5204 -0.3314 -1.2662
12383TIP3    H237093   3.346   3.774   6.635 -1.0095 -0.1489  0.5377
12384TIP3   OH237094   5.309   5.385   1.735 -0.4488  0.0067 -0.3521
12384TIP3    H137095   5.375   5.323   1.766  0.5639  0.3597 -1.7220
12384TIP3    H237096   5.348   5.471   1.750 -0.3185  0.2056 -1.7102
12385TIP3   OH237097   5.442   2.121   2.971 -0.3100  0.3266  0.5498
12385TIP3    H137098   5.512   2.130   3.036  0.5625  0.6672 -0.4013
12385TIP3    H237099   5.403   2.208   2.966  1.7990  1.2639 -1.7033
12386TIP3   OH237100   1.049   6.958   0.512  0.0239 -0.0024 -0.1901
12386TIP3    H137101   1.005   6.889   0.563 -0.7829 -0.0046 -0.8567
12386TIP3    H237102   0.987   7.031   0.514 -0.6819 -0.4629 -2.2712
12387TIP3   OH237103   6.618   6.873   4.082 -0.9260  0.1249 -0.0544
12387TIP3    H137104   6.599   6.814   4.155  0.0927  0.2827  0.3553
12387TIP3    H237105   6.713   6.888   4.087 -1.0751  1.3369 -0.4862
12388TIP3   OH237106   3.438   5.544   0.451 -0.0894 -0.2223 -0.0472
12388TIP3    H137107   3.354   5.558   0.407 -0.9425 -2.5430  0.7376
12388TIP3    H237108   3.415   5.507   0.536  1.7044  0.6321  0.8689
12389TIP3   OH237109   1.449   7.411   4.570  0.2148 -0.8419  0.1136
12389TIP3    H137110   1.397   7.378   4.642 -1.7016  1.9029  0.1389
12389TIP3    H237111   1.392   7.406   4.494  1.6812 -2.2777 -0.9624
12390TIP3   OH237112   7.772   3.571   1.626  0.6496 -0.2233 -0.0883
12390TIP3    H137113   7.714   3.616   1.687  1.3226 -0.8231  1.0483
12390TIP3    H237114   7.716   3.506   1.584 -0.5896  2.2501 -2.5330
12391TIP3   OH237115   2.426   5.162   5.840 -0.0263 -0.0449  0.5834
12391TIP3    H137116   2.465   5.120   5.763  0.4949  0.3355  0.6308
12391TIP3    H237117   2.500   5.178   5.898 -0.1910  1.0547  0.5069
12392TIP3   OH237118   7.082   3.025   0.195  0.0810  0.5739 -0.8135
12392TIP3    H137119   7.140   3.032   0.120  0.5537  2.2689 -0.3265
12392TIP3    H237120   7.013   2.964   0.166  0.2260  1.2024 -2.6146
12393TIP3   OH237121   6.544   3.532   5.078  0.1075 -0.2379 -0.8307
12393TIP3    H137122   6.577   3.582   5.003 -1.2598 -0.3415 -1.5352
12393TIP3    H237123   6.601   3.456   5.084  0.5551  0.0442 -1.4277
12394TIP3   OH237124   3.732   0.573   2.688  0.4193 -0.1306 -0.7007
12394TIP3    H137125   3.694   0.523   2.615 -0.2529  0.5698 -0.8462
12394TIP3    H237126   3.805   0.621   2.648  1.4485 -1.4222 -0.4362
12395TIP3   OH237127   7.056   2.571   3.421  0.1176  0.0410 -0.5641
12395TIP3    H137128   6.988   2.534   3.476  0.4595  0.2668  0.0180
12395TIP3    H237129   7.094   2.495   3.376  1.3760 -0.4818  1.2388
12396TIP3   OH237130   0.158   3.368   1.056  0.2297 -0.1804  0.0517
12396TIP3    H137131   0.184   3.380   0.965 -0.3757  0.9201  0.0063
12396TIP3    H237132   0.239   3.345   1.101  0.9503  1.3154 -0.4092
12397TIP3   OH237133   2.146   5.541   6.409 -0.1253  0.3514  0.1078
12397TIP3    H137134   2.241   5.557   6.409  0.4119 -2.1393  1.8711
12397TIP3    H237135   2.112   5.601   6.475  0.7351 -0.7118  1.5876
12398TIP3   OH237136   7.093   4.298   1.761  0.2913 -0.1505  0.0984
12398TIP3    H137137   7.039   4.375   1.778 -1.5655 -1.5880  1.0624
12398TIP3    H237138   7.043   4.248   1.696  1.3780 -0.6474 -0.3782
12399TIP3   OH237139   6.701   6.204   0.028  0.0824  0.6142 -0.1697
12399TIP3    H137140   6.680   6.295   0.006  0.9330  1.2687  1.5276
12399TIP3    H237141   6.621   6.170   0.067 -0.2472  0.6206 -0.8326
12400TIP3   OH237142   5.412   2.364   1.867  0.4676  0.4774  0.4818
12400TIP3    H137143   5.357   2.442   1.875  0.3434  0.4640 -0.2268
12400TIP3    H237144   5.364   2.307   1.807 -0.3582 -0.9284  2.3788
12401TIP3   OH237145   4.054   6.820   5.970  0.5939 -0.0807 -0.1763
12401TIP3    H137146   4.073   6.756   5.901  1.1628  1.1261 -1.2005
12401TIP3    H237147   4.107   6.896   5.946  0.0585  0.7202  1.0833
12402TIP3   OH237148   5.224   1.392   5.102 -0.1986 -0.3188  0.0664
12402TIP3    H137149   5.288   1.368   5.035  0.3055  0.8245  0.0972
12402TIP3    H237150   5.278   1.428   5.173 -0.8411  0.0727  0.3604
12403TIP3   OH237151   0.415   2.970   2.091 -0.0527  0.4032  0.0452
12403TIP3    H137152   0.332   2.975   2.138 -0.2209  1.7518 -0.3614
12403TIP3    H237153   0.389   2.953   2.000  0.0305  1.9231 -0.2858
12404TIP3   OH237154   1.929   5.069   1.493 -0.0895 -0.3954  0.0854
12404TIP3    H137155   1.848   5.022   1.472 -0.7288  0.5560  0.3241
12404TIP3    H237156   1.999   5.008   1.471 -0.8622 -1.1095 -0.4678
12405TIP3   OH237157   3.020   6.912   4.473 -0.0061  0.1769 -0.3803
12405TIP3    H137158   3.103   6.948   4.506  0.2464 -0.9323  0.2395
12405TIP3    H237159   3.029   6.817   4.484 -0.8723 -0.0565 -1.4684
12406TIP3   OH237160   1.853   3.517   3.178  0.2069 -0.7568 -0.1898
12406TIP3    H137161   1.922   3.582   3.191  1.2199 -1.6848 -0.6927
12406TIP3    H237162   1.787   3.561   3.125 -0.6246  0.8162  2.0134
12407TIP3   OH237163   2.076   4.905   2.064  0.7705 -0.1095  0.2282
12407TIP3    H137164   2.127   4.985   2.049 -0.9876  0.7011 -1.9101
12407TIP3    H237165   2.089   4.886   2.157  1.4046  2.5605  0.7794
12408TIP3   OH237166   0.553   6.765   6.698 -0.0108  0.1726 -0.4648
12408TIP3    H137167   0.523   6.823   6.628 -0.3433  0.8043  0.1890
12408TIP3    H237168   0.619   6.817   6.745  0.3452 -0.3140 -0.4182
12409TIP3   OH237169   6.823   5.641   3.918  0.5256  0.5774  0.1317
12409TIP3    H137170   6.864   5.686   3.992 -0.7725  1.9285  0.0807
12409TIP3    H237171   6.864   5.681   3.841  1.3883 -0.3502  0.0889
12410TIP3   OH237172   0.033   1.306   1.755  0.4769 -0.1459 -0.3469
12410TIP3    H137173  -0.050   1.282   1.796  0.9407  1.4696  1.7022
12410TIP3    H237174   0.052   1.234   1.695 -2.2767 -0.6555 -0.7219
12411TIP3   OH237175   6.016  -0.003   5.971  0.2318  0.0860  0.2868
12411TIP3    H137176   6.001   0.090   5.955 -0.7005 -0.1521 -0.3062
12411TIP3    H237177   5.937  -0.032   6.016  0.7250 -0.3297  0.9057
12412TIP3   OH237178   4.862   3.737   2.338 -0.1792 -0.7250  0.3301
12412TIP3    H137179   4.811   3.740   2.257  0.6440 -1.5843 -0.2532
12412TIP3    H237180   4.953   3.746   2.309  0.0755 -0.1909  1.2524
12413TIP3   OH237181   1.577   1.736   1.326 -0.3978 -0.3501  0.3393
12413TIP3    H137182   1.524   1.809   1.359 -1.1582 -0.5016 -0.5073
12413TIP3    H237183   1.611   1.767   1.242  0.5149 -0.4184  0.6763
12414TIP3   OH237184   7.527   1.384   2.996  0.6305  0.2433 -0.0337
12414TIP3    H137185   7.511   1.313   2.934  0.7302 -1.2270  1.5392
12414TIP3    H237186   7.445   1.432   3.000 -0.0160 -0.8435  0.1417
12415TIP3   OH237187   2.017   4.410   0.653 -0.3498 -0.3636 -0.0119
12415TIP3    H137188   1.930   4.412   0.614 -0.7400 -0.2945  0.8273
12415TIP3    H237189   2.066   4.479   0.608 -0.8871 -0.0575 -0.1382
12416TIP3   OH237190   4.627   6.417   5.361 -0.7356 -0.2851  0.0518
12416TIP3    H137191   4.679   6.341   5.337  1.0425  0.3678  1.5946
12416TIP3    H237192   4.592   6.396   5.448 -0.7448  0.3961  0.2210
12417TIP3   OH237193   6.209   2.499   1.218  0.1543 -0.0870  0.0604
12417TIP3    H137194   6.229   2.588   1.247 -1.1682  0.0235  0.6953
12417TIP3    H237195   6.264   2.442   1.272 -0.5358  0.2486  1.1503
12418TIP3   OH237196   7.766   1.698   0.467  0.2126  0.3967 -0.0616
12418TIP3    H137197   7.857   1.712   0.495  0.9671 -2.6361 -0.6717
12418TIP3    H237198   7.734   1.786   0.445  2.6968  1.6545  0.9645
12419TIP3   OH237199   4.965   1.490   5.356 -0.2708 -0.1044 -0.1829
12419TIP3    H137200   4.872   1.514   5.349 -0.3181 -0.1386  0.3249
12419TIP3    H237201   5.008   1.544   5.290 -0.7367 -0.5707 -0.8859
12420TIP3   OH237202   4.531   7.719   0.215 -0.7989 -0.2541 -0.0985
12420TIP3    H137203   4.439   7.711   0.192 -0.7339 -0.2060 -0.3809
12420TIP3    H237204   4.577   7.671   0.146 -0.5899  0.0343 -0.1623
12421TIP3   OH237205   2.400   6.244   6.104  0.1656 -0.1180 -0.0225
12421TIP3    H137206   2.372   6.153   6.101  0.4453 -0.3789  2.6545
12421TIP3    H237207   2.408   6.264   6.197  1.5796  2.2006 -0.5423
12422TIP3   OH237208   4.535   5.596   0.704 -0.5147  0.3036 -0.2185
12422TIP3    H137209   4.475   5.671   0.710 -0.4442  0.3936 -0.6295
12422TIP3    H237210   4.552   5.573   0.795  0.2540  1.4268 -0.0550
12423TIP3   OH237211   0.550   7.074   4.874  0.5440 -0.0924  0.5761
12423TIP3    H137212   0.485   7.144   4.883  0.1465 -0.4254  0.3060
12423TIP3    H237213   0.558   7.037   4.962  0.4661  0.0322  0.6364
12424TIP3   OH237214   0.454   7.773   3.493 -0.0316 -0.5180 -0.2848
12424TIP3    H137215   0.546   7.764   3.515  0.3684  0.9378 -1.1823
12424TIP3    H237216   0.445   7.730   3.408 -0.2766 -0.9913 -0.0249
12425TIP3   OH237217   4.900   6.606   3.141  0.5305  0.4015  0.5014
12425TIP3    H137218   4.825   6.665   3.142 -1.5122 -2.0479  1.0731
12425TIP3    H237219   4.913   6.581   3.232  1.1681 -0.2396  0.2465
12426TIP3   OH237220   4.741   3.025   4.666 -0.2981 -0.7886  0.1765
12426TIP3    H137221   4.665   2.974   4.637 -1.5648 -0.7043  3.0298
12426TIP3    H237222   4.704   3.096   4.717  1.6831  0.0374  0.5636
12427TIP3   OH237223   3.983   5.549   5.186  0.0757 -0.1975 -0.6033
12427TIP3    H137224   3.928   5.623   5.212 -1.7247 -1.7655  0.3730
12427TIP3    H237225   4.072   5.574   5.211 -0.6630  1.1137  0.8757
12428TIP3   OH237226   5.771   1.776   4.315 -0.2910  0.4963  0.8838
12428TIP3    H137227   5.778   1.799   4.408  2.2460 -0.0016  0.8999
12428TIP3    H237228   5.847   1.816   4.275 -0.9024  0.0115 -0.8467
12429TIP3   OH237229   4.703   7.080   4.413 -0.0203 -0.1763  0.9414
12429TIP3    H137230   4.726   7.029   4.336 -1.8545 -0.4652  0.5337
12429TIP3    H237231   4.786   7.093   4.460  1.6262  1.9633 -2.1796
12430TIP3   OH237232   7.045   2.716   1.076 -0.1481 -0.0647 -0.2153
12430TIP3    H137233   7.057   2.747   1.166  1.4840 -0.7182 -0.1657
12430TIP3    H237234   6.955   2.683   1.074 -0.9201  1.8093  0.5774
12431TIP3   OH237235   0.176   7.657   0.312  0.2377 -0.4366 -0.1856
12431TIP3    H137236   0.237   7.643   0.384  0.2539  0.8510  0.0848
12431TIP3    H237237   0.212   7.608   0.239  2.4703  1.4948 -0.4987
12432TIP3   OH237238   5.065   3.845   3.013 -0.3140 -0.1711  0.1918
12432TIP3    H137239   5.094   3.897   2.938  0.0151 -0.8081 -0.1342
12432TIP3    H237240   5.146   3.816   3.055 -0.4900 -0.6605  0.1966
12433TIP3   OH237241   0.728   3.409   3.561  0.0676 -0.1367 -0.7052
12433TIP3    H137242   0.814   3.369   3.571 -0.1172 -0.0432  1.7937
12433TIP3    H237243   0.722   3.474   3.631 -1.7492  0.4052 -1.2850
12434TIP3   OH237244   4.982   0.789   5.293 -0.4712 -0.1552 -0.2898
12434TIP3    H137245   5.049   0.744   5.242 -1.9986 -1.1855 -1.4758
12434TIP3    H237246   4.902   0.740   5.277 -1.2431  0.0390  2.4027
12435TIP3   OH237247   6.235   6.539   2.429  0.3811 -0.1539  0.4868
12435TIP3    H137248   6.149   6.522   2.391 -0.0053  0.6528  0.9600
12435TIP3    H237249   6.262   6.622   2.390 -0.1402  0.8325  2.0886
12436TIP3   OH237250   5.997   2.577   1.549 -0.3486  0.0601 -0.2399
12436TIP3    H137251   5.954   2.537   1.625  0.0766  0.0892  0.0220
12436TIP3    H237252   6.073   2.522   1.533 -2.0383 -1.8300 -2.6035
12437TIP3   OH237253   7.105   3.056   3.595  0.2288  0.5382 -0.0476
12437TIP3    H137254   7.141   3.051   3.683  1.9834 -2.4730 -0.7844
12437TIP3    H237255   7.036   2.989   3.594  1.4646 -0.8056 -1.3668
12438TIP3   OH237256   6.801   2.157   0.289 -0.4073 -0.1123 -0.6043
12438TIP3    H137257   6.788   2.063   0.278  1.2590 -0.7413  1.9452
12438TIP3    H237258   6.875   2.178   0.231  1.2652 -1.0819  1.0968
12439TIP3   OH237259   5.343   5.779   6.360 -0.3254  0.3805 -0.1345
12439TIP3    H137260   5.309   5.726   6.288 -1.2207 -1.1831  1.3733
12439TIP3    H237261   5.294   5.751   6.436  1.1359  1.4324  1.2714
12440TIP3   OH237262   2.309   4.009   2.917  0.1776 -0.0906 -0.1475
12440TIP3    H137263   2.344   3.986   3.003  0.1074 -1.1604 -0.3870
12440TIP3    H237264   2.364   4.081   2.887 -0.2961  0.8116  1.1165
12441TIP3   OH237265   1.298   7.419   5.649  0.0005  0.3778  0.1528
12441TIP3    H137266   1.319   7.330   5.620 -0.9806 -0.1779  1.0875
12441TIP3    H237267   1.209   7.413   5.683  0.4293  1.3829  1.5751
12442TIP3   OH237268   7.167   3.276   5.197 -0.2886  0.1700  0.2867
12442TIP3    H137269   7.085   3.269   5.246  0.4304 -2.1513  1.3041
12442TIP3    H237270   7.226   3.325   5.255  0.0074 -1.0030  1.0060
12443TIP3   OH237271   6.510   0.673   0.423  0.4683 -0.0989  0.0162
12443TIP3    H137272   6.523   0.755   0.471 -0.0511  0.1113 -0.2044
12443TIP3    H237273   6.417   0.672   0.401 -0.0124 -1.7648  1.8763
12444TIP3   OH237274   2.034   5.521   0.952  0.5307  0.3344  0.2374
12444TIP3    H137275   1.963   5.475   0.997  0.4239  0.9184  0.6704
12444TIP3    H237276   2.072   5.454   0.895  0.4796 -0.3432  0.9686
12445TIP3   OH237277   0.301   3.601   5.845 -0.2314  0.1576 -0.1101
12445TIP3    H137278   0.346   3.645   5.773 -0.0828 -0.4037 -0.3697
12445TIP3    H237279   0.210   3.596   5.816 -0.5726  1.6852  0.6062
12446TIP3   OH237280   4.486   7.030   0.030  0.3817  0.6277  0.0225
12446TIP3    H137281   4.400   7.072   0.028  0.8020  1.4930 -0.9468
12446TIP3    H237282   4.506   7.022   0.123  0.5219  3.1680  0.2890
12447TIP3   OH237283   0.061   3.574   5.668  0.6904  0.2030  0.3583
12447TIP3    H137284  -0.002   3.502   5.658  0.0134  0.4857  2.2522
12447TIP3    H237285   0.007   3.653   5.669  1.0500  0.4580  1.8878
12448TIP3   OH237286   2.118   0.396   0.354 -0.6008  0.4441  0.0389
12448TIP3    H137287   2.155   0.459   0.292  0.0690  1.1310  1.1214
12448TIP3    H237288   2.075   0.450   0.420 -0.2710 -0.2444  0.8269
12449TIP3   OH237289   7.661   6.003   1.873  0.4078  0.2021  0.1576
12449TIP3    H137290   7.612   5.923   1.854 -0.4693  0.8781 -0.5300
12449TIP3    H237291   7.741   5.973   1.916  0.4451 -1.0956 -0.7717
12450TIP3   OH237292   7.878   2.123   0.101 -0.0439 -0.3877  0.7479
12450TIP3    H137293   7.942   2.070   0.054  0.4710 -0.7914  1.8469
12450TIP3    H237294   7.898   2.213   0.076 -0.2314 -0.6378 -0.3139
12451TIP3   OH237295   0.818   3.593   4.484 -0.6884  0.0217  0.2367
12451TIP3    H137296   0.754   3.664   4.473  1.5348  2.4445  1.8010
12451TIP3    H237297   0.895   3.621   4.434  0.7249 -0.6021  1.9485
12452TIP3   OH237298   1.235   1.581   3.843 -0.2155  0.0952  0.0865
12452TIP3    H137299   1.325   1.550   3.842 -0.2243  0.0709 -0.0615
12452TIP3    H237300   1.234   1.654   3.781 -0.0369  0.8581  0.9672
12453TIP3   OH237301   4.485   3.561   4.900  0.0503  0.3623  0.1153
12453TIP3    H137302   4.405   3.613   4.892 -1.0911 -1.0796  1.6237
12453TIP3    H237303   4.455   3.470   4.902  1.9354 -0.3799 -1.6203
12454TIP3   OH237304   3.641   1.841   6.251  0.3124  0.0325 -0.0581
12454TIP3    H137305   3.714   1.869   6.196 -0.5278  0.4342 -0.9863
12454TIP3    H237306   3.599   1.771   6.202  0.1703 -0.3321  0.5630
12455TIP3   OH237307   4.838   5.741   1.818  0.0018 -0.4681 -0.4618
12455TIP3    H137308   4.787   5.731   1.738 -0.3052 -2.7359 -0.0363
12455TIP3    H237309   4.785   5.697   1.885  0.6826  0.5975  0.8138
12456TIP3   OH237310   3.219   1.130   5.742 -0.6334  0.2246  0.4953
12456TIP3    H137311   3.263   1.096   5.820 -1.8170  2.3984  2.2539
12456TIP3    H237312   3.289   1.145   5.679  0.5141 -0.6083  1.5303
12457TIP3   OH237313   1.028   6.520   1.500  0.1819  0.1692  0.2059
12457TIP3    H137314   1.089   6.555   1.564 -1.8784  0.2888  2.2539
12457TIP3    H237315   0.951   6.577   1.507 -0.2828 -0.0872 -2.1090
12458TIP3   OH237316   1.508   3.495   6.381  0.1966 -0.5429 -0.0668
12458TIP3    H137317   1.569   3.541   6.440 -0.7360 -0.7125  1.0796
12458TIP3    H237318   1.478   3.420   6.433 -0.4526 -0.8485 -0.8749
12459TIP3   OH237319   0.824   7.069   3.036  0.3612 -0.3739  0.2085
12459TIP3    H137320   0.839   7.134   3.104  1.8344 -0.3785 -0.0878
12459TIP3    H237321   0.835   7.117   2.953  1.7276 -1.0128 -0.0135
12460TIP3   OH237322   0.510   0.224   4.895  0.3459 -0.1605 -0.0329
12460TIP3    H137323   0.438   0.263   4.844  0.5563 -0.9803 -0.9874
12460TIP3    H237324   0.589   0.258   4.853  0.5384  0.6255  0.9281
12461TIP3   OH237325   3.317   6.272   4.261  0.1633 -0.0253  0.4076
12461TIP3    H137326   3.373   6.321   4.201  1.1613 -0.3315  1.0498
12461TIP3    H237327   3.319   6.182   4.228  1.4575 -0.3880  1.3600
12462TIP3   OH237328   3.600   3.533   4.149 -0.0860  0.8699 -0.3338
12462TIP3    H137329   3.596   3.463   4.084  0.7576 -0.5792  1.1003
12462TIP3    H237330   3.510   3.546   4.177 -0.2169  0.1990 -0.4454
12463TIP3   OH237331   3.663   4.439   2.739  0.6279  0.2560  0.6551
12463TIP3    H137332   3.670   4.353   2.698 -0.1330  0.3559  0.3014
12463TIP3    H237333   3.686   4.501   2.669  2.6647  0.3004  1.3072
12464TIP3   OH237334   2.888   4.964   3.309 -0.7262 -0.0239 -0.1402
12464TIP3    H137335   2.937   5.031   3.356 -0.2229 -0.2123 -0.3864
12464TIP3    H237336   2.920   4.970   3.219 -1.0167 -0.2787 -0.2634
12465TIP3   OH237337   7.933   5.845   4.555  0.1386 -0.4669 -0.4540
12465TIP3    H137338   7.850   5.797   4.549  1.2103 -2.4044 -0.7137
12465TIP3    H237339   7.923   5.918   4.494 -1.5802 -0.2994 -0.0181
12466TIP3   OH237340   6.877   3.721   2.354 -0.1436  0.3858 -0.0012
12466TIP3    H137341   6.972   3.712   2.366 -0.0463  1.4309  0.1001
12466TIP3    H237342   6.847   3.766   2.434 -1.0038 -1.4711  0.7911
12467TIP3   OH237343   7.703   7.322   1.144 -0.0822  0.4150  0.1287
12467TIP3    H137344   7.662   7.236   1.142 -2.4980  1.4879 -0.4944
12467TIP3    H237345   7.740   7.334   1.057  1.9963 -0.6994  0.7992
12468TIP3   OH237346   7.517   5.747   1.578  0.7038 -0.1160 -0.1033
12468TIP3    H137347   7.453   5.735   1.649  0.6764  0.4885 -0.0128
12468TIP3    H237348   7.487   5.826   1.532  0.4630 -0.7623 -1.0820
12469TIP3   OH237349   4.663   6.424   2.545 -0.0346  0.3805  0.3686
12469TIP3    H137350   4.651   6.332   2.522 -0.1436  0.1804  1.1873
12469TIP3    H237351   4.576   6.453   2.574  0.4236  0.1277  2.1705
12470TIP3   OH237352   7.837   0.471   4.763 -0.0444  0.5010 -0.0677
12470TIP3    H137353   7.849   0.413   4.688  1.5848 -1.2690  1.4490
12470TIP3    H237354   7.743   0.491   4.763  0.0438  1.4192 -3.0957
12471TIP3   OH237355   5.374   1.204   1.028  0.0816  0.3232  0.1393
12471TIP3    H137356   5.437   1.275   1.039 -0.3374  0.7901 -0.3968
12471TIP3    H237357   5.388   1.173   0.938 -0.1998  0.1934  0.1380
12472TIP3   OH237358   3.732   7.549   2.407 -0.1743  0.3922  0.1439
12472TIP3    H137359   3.640   7.563   2.427 -0.3539  1.4273 -1.2893
12472TIP3    H237360   3.761   7.629   2.364  1.2375 -0.1482  0.0032
12473TIP3   OH237361   2.172   3.687   3.300 -0.6795  0.5126  0.0981
12473TIP3    H137362   2.235   3.626   3.262 -0.5985  1.4487 -1.3281
12473TIP3    H237363   2.193   3.687   3.393 -0.8746 -1.8338  0.2181
12474TIP3   OH237364   5.054   3.022   0.815  0.4777 -0.5464  0.0963
12474TIP3    H137365   5.084   3.057   0.731 -1.5914  1.7955  0.2199
12474TIP3    H237366   5.000   2.946   0.791  0.1198 -0.0628 -0.6802
12475TIP3   OH237367   0.662   3.267   5.814 -0.1366  0.7728 -0.4229
12475TIP3    H137368   0.734   3.316   5.774 -0.1204 -0.6596 -2.2815
12475TIP3    H237369   0.668   3.287   5.907  2.4059  1.0569 -0.5777
12476TIP3   OH237370   2.338   6.182   2.420  0.1099  0.7378 -0.0617
12476TIP3    H137371   2.395   6.254   2.395  0.6894 -0.1270 -1.3524
12476TIP3    H237372   2.268   6.182   2.354  1.3774 -1.2650 -1.5233
12477TIP3   OH237373   6.897   6.943   4.093 -0.7732 -0.4971  0.4665
12477TIP3    H137374   6.898   6.976   4.183  0.2507 -1.6565  0.8948
12477TIP3    H237375   6.972   6.985   4.051  0.2066 -1.7837  0.8608
12478TIP3   OH237376   2.966   1.886   4.659  0.3732  0.0939  0.2909
12478TIP3    H137377   2.940   1.898   4.750  0.3069 -0.2605  0.3207
12478TIP3    H237378   2.913   1.811   4.629  1.5984 -0.8779  0.4544
12479TIP3   OH237379   5.347   7.342   2.852 -0.5154 -0.5160 -0.1596
12479TIP3    H137380   5.281   7.285   2.813  0.3556 -1.1726 -0.7055
12479TIP3    H237381   5.340   7.326   2.946 -0.9338 -0.7964 -0.2358
12480TIP3   OH237382   2.939   5.698   5.728  0.1571  0.6974  0.0599
12480TIP3    H137383   2.941   5.607   5.696 -0.8565  0.8473 -0.4438
12480TIP3    H237384   3.028   5.712   5.762  1.0104  0.2113 -1.8000
12481TIP3   OH237385   0.996   2.026   2.262  0.0770 -0.2550  0.6284
12481TIP3    H137386   0.997   2.121   2.278  1.5848 -0.1630  0.1087
12481TIP3    H237387   1.044   1.989   2.336  0.6947 -0.4803  0.1224
12482TIP3   OH237388   7.071   3.792   6.058 -0.6416  0.0641  0.1725
12482TIP3    H137389   7.105   3.879   6.039 -0.6337 -0.2095 -1.1726
12482TIP3    H237390   6.976   3.802   6.054 -0.6276 -0.2103 -1.1209
12483TIP3   OH237391   3.102   1.959   5.304 -0.1937  0.0081 -0.1453
12483TIP3    H137392   3.095   1.865   5.291  0.9631 -0.0044 -0.7494
12483TIP3    H237393   3.146   1.991   5.226  1.7476  0.7089  1.1751
12484TIP3   OH237394   3.392   3.574   3.257 -0.2522 -0.5223 -0.2077
12484TIP3    H137395   3.442   3.492   3.260  0.8113  0.1096 -0.1740
12484TIP3    H237396   3.304   3.547   3.229 -0.0430 -1.7228  0.2147
12485TIP3   OH237397   7.776   1.505   6.625 -0.0571  0.2273 -0.9371
12485TIP3    H137398   7.804   1.417   6.600 -0.1051  0.3437 -1.4094
12485TIP3    H237399   7.733   1.540   6.547  0.7659  1.0162 -1.0447
12486TIP3   OH237400   0.734   4.879   1.966  0.4352 -0.1659  0.0763
12486TIP3    H137401   0.717   4.835   1.883  2.7740 -0.0877 -0.5138
12486TIP3    H237402   0.793   4.820   2.013  0.1550  0.3823  1.1572
12487TIP3   OH237403   1.297   4.932   3.502  0.2578  0.1795 -0.1919
12487TIP3    H137404   1.215   4.974   3.476 -0.4129 -0.3172  1.0099
12487TIP3    H237405   1.366   4.986   3.463 -0.5621  2.4059  1.2922
12488TIP3   OH237406   7.313   0.881   1.771 -0.0327  0.8770 -0.1275
12488TIP3    H137407   7.326   0.929   1.853 -0.1551  0.8260 -0.0777
12488TIP3    H237408   7.400   0.875   1.733  0.2001 -0.0155  0.5145
12489TIP3   OH237409   2.396   4.868   1.791  0.0742  0.5883  0.3225
12489TIP3    H137410   2.463   4.925   1.753  0.5196  0.3556  0.7386
12489TIP3    H237411   2.314   4.913   1.776  0.3055  0.7762 -0.3924
12490TIP3   OH237412   4.313   4.592   0.793 -0.2549 -0.0283  0.5124
12490TIP3    H137413   4.265   4.510   0.803  1.7981 -1.7113 -2.1867
12490TIP3    H237414   4.249   4.654   0.758 -1.1416 -1.3706 -0.3058
12491TIP3   OH237415   0.554   5.905   6.163 -0.7197 -0.3192  0.0301
12491TIP3    H137416   0.553   6.000   6.155 -0.9745 -0.4090 -1.3565
12491TIP3    H237417   0.594   5.888   6.248 -0.7393  1.0235  0.3277
12492TIP3   OH237418   1.628   3.300   1.853 -0.4383 -0.6492 -0.0600
12492TIP3    H137419   1.642   3.215   1.811  0.7648  0.0028 -1.0307
12492TIP3    H237420   1.626   3.363   1.781  0.1318  0.3190  0.7471
12493TIP3   OH237421   5.749   1.985   6.720 -0.7403 -0.1764 -0.2935
12493TIP3    H137422   5.667   1.982   6.769 -0.8583 -1.5487 -0.5279
12493TIP3    H237423   5.785   1.897   6.729  1.3370  0.7125  0.8227
12494TIP3   OH237424   6.887   7.534   5.945  0.1289 -0.4400 -0.2731
12494TIP3    H137425   6.864   7.627   5.949  1.4559 -0.1310  0.5348
12494TIP3    H237426   6.925   7.522   5.858  2.4100  0.4118  0.5271
12495TIP3   OH237427   8.240   0.448   1.390 -0.0662  0.4696 -0.3417
12495TIP3    H137428   8.331   0.422   1.404  0.8872  3.2428 -0.7350
12495TIP3    H237429   8.189   0.381   1.436  2.0818 -1.6985 -0.9068
12496TIP3   OH237430   7.604   7.502   3.759 -0.1727  0.1159 -0.3332
12496TIP3    H137431   7.693   7.513   3.793 -0.7147 -0.1513  1.2663
12496TIP3    H237432   7.550   7.491   3.837 -1.7743  1.3352 -1.1949
12497TIP3   OH237433   7.640   2.764   3.662 -0.1019 -0.3608 -0.0641
12497TIP3    H137434   7.657   2.858   3.667 -0.2137 -0.3390 -0.0976
12497TIP3    H237435   7.610   2.741   3.750  2.3407 -0.8423  0.6984
12498TIP3   OH237436   4.956   1.929   0.803  0.1635  0.3729  0.2382
12498TIP3    H137437   4.939   2.023   0.797 -1.8599  0.0075 -0.6248
12498TIP3    H237438   4.930   1.906   0.893 -0.9309  0.3971 -0.0510
12499TIP3   OH237439   6.851   4.194   4.879  0.3385 -0.0336 -0.4411
12499TIP3    H137440   6.827   4.221   4.790  0.1195  1.3308 -0.0005
12499TIP3    H237441   6.810   4.260   4.935 -0.1387 -1.2809  0.7365
12500TIP3   OH237442   7.029   1.531   0.503  0.2669 -0.2394 -0.3177
12500TIP3    H137443   7.027   1.442   0.468  0.4961 -0.6237  0.6051
12500TIP3    H237444   7.078   1.582   0.438 -0.1545 -0.7046 -1.0128
12501TIP3   OH237445   5.672   5.791   2.679  0.1413 -0.2087  0.4472
12501TIP3    H137446   5.655   5.715   2.623 -1.4274 -0.5042  1.2609
12501TIP3    H237447   5.720   5.852   2.623 -0.5503 -0.8809 -0.9242
12502TIP3   OH237448   2.889   1.982   0.686 -0.2874  0.3021  0.3686
12502TIP3    H137449   2.974   1.980   0.731  0.1511 -1.1817 -0.4397
12502TIP3    H237450   2.871   2.074   0.673  0.2045  0.7432  2.3875
12503TIP3   OH237451   2.938   2.072   3.650  0.3029 -0.6060  0.5335
12503TIP3    H137452   2.855   2.063   3.697 -0.7213  0.3954 -0.9738
12503TIP3    H237453   2.969   2.160   3.672  0.9768 -0.9682  1.0734
12504TIP3   OH237454   1.102   5.522   1.544 -0.2633  0.2750  0.3849
12504TIP3    H137455   1.080   5.528   1.637 -0.9592  1.1071  0.1757
12504TIP3    H237456   1.182   5.574   1.534  0.1976 -0.3722  0.6280
12505TIP3   OH237457   4.609   2.976   1.460  0.0825 -0.2547 -0.5667
12505TIP3    H137458   4.683   3.033   1.476  0.6432 -0.4521 -2.2963
12505TIP3    H237459   4.537   3.016   1.509  0.4427  1.9553 -1.7144
12506TIP3   OH237460   2.964   7.013   5.503  0.0497  0.4398  0.1400
12506TIP3    H137461   2.971   6.991   5.596 -0.4469  0.9001  0.2900
12506TIP3    H237462   3.042   7.064   5.484 -0.5853  1.6681  0.6907
12507TIP3   OH237463   5.737   4.018   5.870 -0.5855  0.2070  0.0022
12507TIP3    H137464   5.825   4.019   5.907 -1.1870 -0.3796  1.5053
12507TIP3    H237465   5.690   3.954   5.922 -1.4401 -0.8182 -1.9081
12508TIP3   OH237466   7.315   2.456   5.622 -0.1800 -0.0303  0.1894
12508TIP3    H137467   7.370   2.408   5.560  0.6873  1.5878 -0.3785
12508TIP3    H237468   7.227   2.449   5.585  0.6483  3.2711 -3.0490
12509TIP3   OH237469   3.055   1.873   5.986 -0.2227 -0.0748  0.3107
12509TIP3    H137470   3.104   1.839   5.911  0.7746  0.8075  0.5423
12509TIP3    H237471   3.067   1.968   5.981 -3.7449  0.4647 -0.8833
12510TIP3   OH237472   5.882   1.320   5.761 -0.0794 -0.5331  0.0451
12510TIP3    H137473   5.846   1.231   5.766 -0.7524 -0.2357  0.7957
12510TIP3    H237474   5.903   1.343   5.851  0.0435  0.0863 -0.1326
12511TIP3   OH237475   6.649   7.144   0.245  0.3315 -0.4754  0.4887
12511TIP3    H137476   6.570   7.120   0.294 -0.1498 -0.8599 -0.4367
12511TIP3    H237477   6.719   7.144   0.310 -0.0740 -2.1474  0.9800
12512TIP3   OH237478   3.080   6.918   5.741 -0.2074 -0.0041  0.2306
12512TIP3    H137479   3.061   6.962   5.824  0.2986 -2.0858  1.5272
12512TIP3    H237480   3.170   6.886   5.751 -0.7320 -1.8204 -0.3654
12513TIP3   OH237481   1.530   5.330   2.214 -0.0103 -0.4363  0.3463
12513TIP3    H137482   1.488   5.285   2.287 -0.0830 -0.5223  0.2529
12513TIP3    H237483   1.620   5.298   2.214 -0.4458 -1.8036 -0.6752
12514TIP3   OH237484   6.660   4.972   2.304 -0.1106 -0.3396  0.2186
12514TIP3    H137485   6.566   4.983   2.315 -0.2474 -0.1105 -1.1000
12514TIP3    H237486   6.677   4.997   2.213  1.2423 -0.2369  0.4791
12515TIP3   OH237487   0.899   5.458   0.515 -0.2762  0.3905 -0.2326
12515TIP3    H137488   0.926   5.366   0.519  0.5985  0.6620  3.1978
12515TIP3    H237489   0.828   5.459   0.451 -1.2780 -2.9645  0.6043
12516TIP3   OH237490   3.935   6.971   5.370  0.0655  0.1172  0.0839
12516TIP3    H137491   3.930   6.875   5.367 -1.9547  0.2107 -1.2179
12516TIP3    H237492   3.959   6.997   5.281  2.8364  0.8245  0.9197
12517TIP3   OH237493   6.006   4.457   2.514  0.0109  0.1026 -0.0956
12517TIP3    H137494   5.980   4.516   2.584  1.1570  1.0468 -0.4452
12517TIP3    H237495   5.928   4.403   2.498 -1.0585  1.4994  0.2395
12518TIP3   OH237496   5.487   3.542   5.530  0.5776  0.1405  0.5568
12518TIP3    H137497   5.508   3.628   5.493 -2.0687 -0.7175 -3.6256
12518TIP3    H237498   5.549   3.483   5.489  0.8178 -0.3124  1.5349
12519TIP3   OH237499   4.022   5.322   0.704  0.3570 -0.4404 -0.3069
12519TIP3    H137500   4.031   5.296   0.795 -0.0831  0.5768  0.0422
12519TIP3    H237501   3.953   5.389   0.704 -0.2944 -1.0727 -1.5148
12520TIP3   OH237502   2.980   7.087   2.529  0.3879 -0.0555 -0.1507
12520TIP3    H137503   2.897   7.065   2.569 -0.7595  0.0052 -2.3190
12520TIP3    H237504   3.022   7.148   2.590 -1.4852  0.4756  0.6550
12521TIP3   OH237505   3.945   7.777   1.952  0.7440  0.7580 -0.4556
12521TIP3    H137506   3.946   7.870   1.975  0.3425  0.5593  0.4214
12521TIP3    H237507   4.037   7.752   1.950  0.8136  0.5557  2.0687
12522TIP3   OH237508   7.901   6.537   4.114 -0.0926  0.1727 -0.3330
12522TIP3    H137509   7.824   6.500   4.159 -0.2370  1.3541  0.4373
12522TIP3    H237510   7.893   6.631   4.128  1.2297  0.3468 -0.6988
12523TIP3   OH237511   5.159   5.799   5.652 -0.2126 -0.0340 -0.1877
12523TIP3    H137512   5.168   5.894   5.644 -1.5320  0.0272 -1.3110
12523TIP3    H237513   5.229   5.773   5.712 -0.0046  1.6752  0.3574
12524TIP3   OH237514   1.852   6.089   5.694 -0.0492 -0.5512 -0.6146
12524TIP3    H137515   1.913   6.056   5.628 -2.2498 -2.2711 -1.9211
12524TIP3    H237516   1.833   6.014   5.750 -0.5613  0.0950  0.1115
12525TIP3   OH237517   1.316   3.858   3.193  0.2324 -0.4887  0.0344
12525TIP3    H137518   1.337   3.936   3.142  0.0391 -0.7360 -0.4222
12525TIP3    H237519   1.307   3.891   3.283  0.1192  0.0214 -0.1577
12526TIP3   OH237520   5.183   1.748   3.672 -0.4529 -0.0366 -0.5892
12526TIP3    H137521   5.155   1.804   3.745 -0.4009 -0.1041 -0.5177
12526TIP3    H237522   5.274   1.773   3.656 -0.2333 -0.5435 -0.1432
12527TIP3   OH237523   5.792   5.887   0.351  0.4072  1.3275 -0.4426
12527TIP3    H137524   5.875   5.884   0.398 -0.3212  0.4214  0.8318
12527TIP3    H237525   5.811   5.850   0.265  1.0900  0.1696  0.1962
12528TIP3   OH237526   1.049   6.059   2.319 -0.6980 -0.3393 -0.0422
12528TIP3    H137527   0.977   6.050   2.381 -0.5652  1.4428  0.4239
12528TIP3    H237528   1.104   6.128   2.356 -0.6568  0.8437 -2.1591
12529TIP3   OH237529   8.147   1.250   6.187  0.5661  0.3809  0.2510
12529TIP3    H137530   8.110   1.334   6.159 -0.1528 -0.1930 -0.5818
12529TIP3    H237531   8.239   1.269   6.204 -0.0415  1.8376  2.3248
12530TIP3   OH237532   0.531   0.407   6.667  0.4565 -0.0433  0.0137
12530TIP3    H137533   0.500   0.443   6.584  0.1956 -0.7006 -0.1815
12530TIP3    H237534   0.622   0.438   6.674  0.1355  0.9368  0.0280
12531TIP3   OH237535   0.021   2.970   0.410  0.1714  0.5265 -0.0035
12531TIP3    H137536  -0.043   2.968   0.481  1.1445 -0.7727  0.8871
12531TIP3    H237537   0.040   3.063   0.396 -2.5848  1.0187 -0.9729
12532TIP3   OH237538   4.018   6.788   3.169  0.1998 -0.0985  0.1372
12532TIP3    H137539   4.062   6.873   3.176  2.1484 -0.8709 -1.5825
12532TIP3    H237540   3.961   6.796   3.092  0.0193 -0.2032  0.2584
12533TIP3   OH237541   3.872   3.048   0.119  0.3457 -0.0537  0.3361
12533TIP3    H137542   3.890   2.957   0.140  0.5642  0.0914  0.7794
12533TIP3    H237543   3.945   3.097   0.155  0.2346  0.3004  0.0937
12534TIP3   OH237544   4.331   6.445   2.851  0.1851  0.5925 -0.2320
12534TIP3    H137545   4.243   6.481   2.843  0.3819  1.0937 -0.2154
12534TIP3    H237546   4.339   6.422   2.944 -0.4755 -0.9377 -0.5151
12535TIP3   OH237547   6.293   6.575   1.891 -0.0682  0.1321 -0.2790
12535TIP3    H137548   6.367   6.573   1.831  1.2250  2.6942  1.0664
12535TIP3    H237549   6.284   6.667   1.915 -2.5174 -0.3703  1.0594
12536TIP3   OH237550   3.302   1.367   3.548 -0.6468  0.2993  0.0872
12536TIP3    H137551   3.234   1.378   3.615 -1.1532 -0.0506 -0.3557
12536TIP3    H237552   3.263   1.306   3.485 -0.3651  0.9865 -0.7674
12537TIP3   OH237553   8.005   7.257   0.647  0.0718 -0.2118 -0.0710
12537TIP3    H137554   8.090   7.259   0.692  0.2165 -2.3128 -0.1550
12537TIP3    H237555   7.941   7.257   0.718  0.2004 -0.1961  0.0467
12538TIP3   OH237556   6.355   5.462   5.015  0.3208  0.6539 -0.0649
12538TIP3    H137557   6.346   5.557   5.005 -0.7496  0.5660 -0.0643
12538TIP3    H237558   6.426   5.438   4.955  0.1052  1.3507 -0.6133
12539TIP3   OH237559   7.825   5.448   4.209  0.7065 -0.3390 -0.1743
12539TIP3    H137560   7.777   5.517   4.162  1.3916  0.1940 -0.1028
12539TIP3    H237561   7.912   5.448   4.170  0.6717 -1.2738 -0.2737
12540TIP3   OH237562   2.299   6.519   2.215  0.0086  0.5659 -0.1192
12540TIP3    H137563   2.365   6.508   2.284 -1.0540  2.5516  1.2986
12540TIP3    H237564   2.349   6.512   2.134  1.3654 -1.4407  0.8067
12541TIP3   OH237565   7.386   0.394   5.669  0.1386  0.1309  0.4187
12541TIP3    H137566   7.369   0.476   5.622 -0.0632  0.2962  0.7797
12541TIP3    H237567   7.321   0.333   5.633  1.7479 -0.5482 -1.5299
12542TIP3   OH237568   4.610   0.148   6.346  0.9800  0.0133 -0.5440
12542TIP3    H137569   4.558   0.224   6.319 -0.7253 -0.9111 -0.0511
12542TIP3    H237570   4.697   0.165   6.312  0.9689  2.7262  0.5330
12543TIP3   OH237571   3.252   6.096   5.029  0.1424 -0.0850 -0.3163
12543TIP3    H137572   3.245   6.057   5.116 -0.3510 -1.0578 -0.7697
12543TIP3    H237573   3.209   6.181   5.037 -1.5590 -0.9213 -0.0344
12544TIP3   OH237574   2.535   6.559   4.928  0.3385  0.5661  0.0779
12544TIP3    H137575   2.581   6.593   5.004  0.6150 -0.4703  0.3896
12544TIP3    H237576   2.510   6.470   4.953 -0.3463  0.5269 -0.7150
12545TIP3   OH237577   6.887   6.612   4.755 -0.1099 -0.4697 -0.5672
12545TIP3    H137578   6.832   6.677   4.714  1.9937  1.0970 -1.0862
12545TIP3    H237579   6.828   6.561   4.811 -2.0551  0.9347 -1.2681
12546TIP3   OH237580   5.794   6.764   2.375 -0.2468 -0.0317 -0.9853
12546TIP3    H137581   5.833   6.722   2.451 -0.5392 -1.3280 -1.5219
12546TIP3    H237582   5.704   6.784   2.402  0.1550  1.1355 -0.4239
12547TIP3   OH237583   0.907   7.720   0.355 -0.0242 -0.2856  0.1843
12547TIP3    H137584   0.940   7.654   0.294 -0.6066  1.0516 -1.6544
12547TIP3    H237585   0.982   7.779   0.369  0.0207 -0.4223  0.5195
12548TIP3   OH237586   2.454   2.374   1.749  0.0671 -0.1744 -0.3022
12548TIP3    H137587   2.372   2.376   1.797 -0.2788 -2.8870 -0.6013
12548TIP3    H237588   2.522   2.373   1.816 -0.1463  1.2012 -0.0399
12549TIP3   OH237589   3.327   6.865   1.267 -0.5429 -0.1378  0.6672
12549TIP3    H137590   3.302   6.913   1.346  0.2910  2.4626 -0.5367
12549TIP3    H237591   3.421   6.882   1.258 -0.8630  0.7484 -1.5481
12550TIP3   OH237592   3.776   3.663   6.559 -0.2010 -0.1801  0.3938
12550TIP3    H137593   3.772   3.571   6.535 -0.5841  0.0737 -0.5414
12550TIP3    H237594   3.711   3.706   6.504 -0.7905  0.5046  1.5692
12551TIP3   OH237595   5.300   6.386   5.134  0.2444 -0.2287 -0.9134
12551TIP3    H137596   5.237   6.389   5.062 -1.4157  1.2482  0.5085
12551TIP3    H237597   5.336   6.474   5.140 -0.2163 -0.1013  0.5007
12552TIP3   OH237598   1.355   4.284   3.322  0.6641  0.0005 -0.5187
12552TIP3    H137599   1.271   4.275   3.277  1.7618 -2.4158 -2.2858
12552TIP3    H237600   1.339   4.350   3.389 -2.3414  0.3835 -1.4653
12553TIP3   OH237601   2.414   1.184   1.962 -0.7408 -0.5837 -0.4333
12553TIP3    H137602   2.367   1.215   1.885 -1.8290 -1.6169 -0.2163
12553TIP3    H237603   2.363   1.109   1.993 -0.5445  0.0204  1.5106
12554TIP3   OH237604   3.349   7.411   1.506  0.2300  0.0872 -0.4256
12554TIP3    H137605   3.342   7.495   1.459  1.1293  0.6870  0.4749
12554TIP3    H237606   3.416   7.427   1.572 -0.2557 -1.0782  0.3606
12555TIP3   OH237607   3.213   0.182   1.055  0.5482 -0.3410  0.2729
12555TIP3    H137608   3.227   0.272   1.026  1.4911 -0.3261  0.7091
12555TIP3    H237609   3.121   0.164   1.037  0.2949  0.7903  0.3881
12556TIP3   OH237610   3.723   6.068   2.700  0.5027  0.0266 -0.0329
12556TIP3    H137611   3.785   6.141   2.701  0.2299  0.2891 -1.0811
12556TIP3    H237612   3.676   6.076   2.783  1.0041  0.5830  0.2101
12557TIP3   OH237613   3.461   7.594   1.814  0.0920 -0.5549 -0.4825
12557TIP3    H137614   3.477   7.514   1.764  0.9887  0.2061 -1.4844
12557TIP3    H237615   3.535   7.651   1.791  0.1083  0.1290  1.1304
12558TIP3   OH237616   1.379   5.739   4.901 -0.6720 -0.1571  0.4422
12558TIP3    H137617   1.450   5.687   4.940 -0.3938 -0.2648 -0.1863
12558TIP3    H237618   1.358   5.692   4.820 -0.7752  0.4240  0.1299
12559TIP3   OH237619   2.984   3.755   3.680  0.4161 -0.1512 -0.5148
12559TIP3    H137620   2.999   3.712   3.596  0.2413 -1.5013  0.1143
12559TIP3    H237621   3.052   3.720   3.737  0.1718  0.2966  0.0635
12560TIP3   OH237622   6.503   1.742   2.017  0.0496  0.1351 -0.2280
12560TIP3    H137623   6.581   1.779   1.976  0.4875  0.5841  0.9423
12560TIP3    H237624   6.520   1.750   2.111 -1.6898  0.8315  0.0578
12561TIP3   OH237625   7.168   5.912   4.168 -0.0392  0.3192 -0.3783
12561TIP3    H137626   7.149   5.944   4.080  3.3794 -0.0685 -1.3948
12561TIP3    H237627   7.209   5.986   4.212  4.0023 -1.1115 -1.3404
12562TIP3   OH237628   6.133   2.520   3.304  0.5073  0.1986 -0.6174
12562TIP3    H137629   6.211   2.473   3.274  0.4166 -1.0093  0.9260
12562TIP3    H237630   6.092   2.461   3.367 -0.2884  1.8533  0.4764
12563TIP3   OH237631   0.647   3.644   3.106  0.1970  1.1807 -0.3275
12563TIP3    H137632   0.634   3.703   3.031  1.6073  0.7977 -0.9061
12563TIP3    H237633   0.561   3.638   3.147 -0.1078  3.2761 -0.5233
12564TIP3   OH237634   2.576   6.699   3.508  0.2376 -0.0591  0.0465
12564TIP3    H137635   2.653   6.663   3.553 -0.7891 -0.5916  1.4450
12564TIP3    H237636   2.508   6.634   3.521 -0.5499  0.5295 -0.9471
12565TIP3   OH237637   7.020   1.368   4.676 -0.0548 -0.2101  0.1362
12565TIP3    H137638   7.003   1.314   4.753  0.1814  1.5353  1.4696
12565TIP3    H237639   7.113   1.357   4.659 -0.2462 -1.1565 -0.3706
12566TIP3   OH237640   5.983   1.068   4.849  0.0667 -0.2529 -0.5919
12566TIP3    H137641   6.038   1.024   4.914  0.3952  0.5170 -0.3322
12566TIP3    H237642   5.984   1.160   4.875 -0.0861  0.0126 -1.4789
12567TIP3   OH237643   7.620   1.483   2.682  0.7424  0.2683  0.1307
12567TIP3    H137644   7.628   1.563   2.630  1.4350 -0.2436 -0.5530
12567TIP3    H237645   7.671   1.501   2.761  1.4819  0.2506 -0.3345
12568TIP3   OH237646   5.135   6.084   5.158  0.0274 -0.3646 -0.0153
12568TIP3    H137647   5.041   6.084   5.145  0.2049  0.9883 -1.6384
12568TIP3    H237648   5.165   6.001   5.120 -0.3211  0.0281 -1.1590
12569TIP3   OH237649   3.580   6.148   1.479  0.6616 -0.3281 -0.0910
12569TIP3    H137650   3.626   6.225   1.446 -1.7279  0.9191 -0.7340
12569TIP3    H237651   3.545   6.176   1.564  0.3969 -0.9609  0.0130
12570TIP3   OH237652   6.742   4.024   5.793 -0.2457  0.1958 -0.0810
12570TIP3    H137653   6.820   3.972   5.775 -1.4655 -2.0198  0.6800
12570TIP3    H237654   6.693   4.024   5.711  0.5201  1.6478 -0.5803
12571TIP3   OH237655   1.146   1.225   1.931  0.1213 -0.0034 -0.3346
12571TIP3    H137656   1.177   1.233   2.022 -0.4567 -2.7817  0.1878
12571TIP3    H237657   1.209   1.168   1.889 -0.2248  0.3754 -1.3933
12572TIP3   OH237658   7.707   1.662   1.629  0.2531 -0.2720 -0.4018
12572TIP3    H137659   7.702   1.688   1.537  1.7348 -0.0075 -0.4281
12572TIP3    H237660   7.616   1.657   1.657 -0.2314 -0.4762 -1.9106
12573TIP3   OH237661   7.028   0.619   6.490  0.2678  0.0137 -0.7452
12573TIP3    H137662   7.102   0.674   6.514  0.6546 -0.5132 -0.7099
12573TIP3    H237663   6.957   0.647   6.549  0.5247  0.3182 -0.5795
12574TIP3   OH237664   2.157   6.874   2.268  0.2681  0.1169 -0.2296
12574TIP3    H137665   2.151   6.863   2.173  0.7026  0.4847 -0.3071
12574TIP3    H237666   2.230   6.817   2.294  0.6719  0.6184 -0.2362
12575TIP3   OH237667   6.819   1.109   5.366 -0.2771  0.1563  0.1360
12575TIP3    H137668   6.811   1.195   5.408 -0.4604 -0.7589  2.0865
12575TIP3    H237669   6.863   1.054   5.431  1.0099 -0.9409 -1.5501
12576TIP3   OH237670   1.291   7.503   0.358  0.8775  0.1702  0.7461
12576TIP3    H137671   1.369   7.488   0.304  1.5179  0.8836  1.4316
12576TIP3    H237672   1.324   7.501   0.448  0.0429  0.1836  1.0622
12577TIP3   OH237673   1.676   7.319   1.046 -0.4651  0.5273 -0.2358
12577TIP3    H137674   1.748   7.321   1.109 -0.0149 -1.1979 -0.6307
12577TIP3    H237675   1.598   7.339   1.098 -0.1065 -0.8529  0.9088
12578TIP3   OH237676   3.404   3.847   5.592 -0.3625 -0.4066  0.1134
12578TIP3    H137677   3.411   3.840   5.687 -0.0509 -1.8569  0.0150
12578TIP3    H237678   3.430   3.936   5.572 -0.2774 -0.1284  1.3719
12579TIP3   OH237679   3.196   1.076   3.106 -0.0970 -0.1275 -0.0128
12579TIP3    H137680   3.108   1.108   3.085  0.3792  2.3105  1.2871
12579TIP3    H237681   3.251   1.155   3.105  2.1007 -1.5811 -0.8036
12580TIP3   OH237682   8.097   2.165   0.970  0.3395  0.4105  0.1905
12580TIP3    H137683   8.051   2.213   0.901  0.6918 -1.2156 -1.2476
12580TIP3    H237684   8.034   2.100   1.000  1.4850 -1.7417 -1.6944
12581TIP3   OH237685   2.291   0.196   1.423  0.2258  0.1423  0.3019
12581TIP3    H137686   2.346   0.160   1.492 -0.1788 -2.7998 -0.7584
12581TIP3    H237687   2.207   0.150   1.432  0.1308 -0.2642 -2.0492
12582TIP3   OH237688   0.927   7.240   2.785  0.0266  0.3827 -0.2390
12582TIP3    H137689   0.926   7.201   2.697  0.8368 -0.5029  0.1331
12582TIP3    H237690   1.005   7.205   2.826  0.7136  2.2882  0.1830
12583TIP3   OH237691   6.991   0.726   5.329  0.0035  0.2877  0.2817
12583TIP3    H137692   6.960   0.695   5.414 -0.4903  1.9943  0.7693
12583TIP3    H237693   7.084   0.745   5.342 -0.4173  2.1310  0.9897
12584TIP3   OH237694   6.863   3.164   3.477  0.1778  0.4119 -0.0903
12584TIP3    H137695   6.857   3.084   3.424 -0.2306  0.0485  0.4879
12584TIP3    H237696   6.784   3.214   3.454 -0.7442 -0.3857  1.1604
12585TIP3   OH237697   1.776   4.648   5.241 -0.2013  0.0330 -0.2400
12585TIP3    H137698   1.822   4.566   5.220 -1.4816 -0.5418 -0.8667
12585TIP3    H237699   1.752   4.638   5.333 -1.0600 -0.6620 -0.5273
12586TIP3   OH237700   1.712   6.431   1.234  0.4166  0.2160  0.2404
12586TIP3    H137701   1.690   6.497   1.169  0.7103  0.7309  0.6538
12586TIP3    H237702   1.628   6.397   1.263  0.2545  0.5441  0.1601
12587TIP3   OH237703   7.993   7.359   5.928  0.0387  0.1778 -0.2432
12587TIP3    H137704   7.928   7.295   5.957 -0.0610  0.4524  0.1546
12587TIP3    H237705   8.046   7.377   6.006  0.3720  0.2180 -0.4743
12588TIP3   OH237706   5.516   4.623   0.091  0.3416  0.1204 -0.4573
12588TIP3    H137707   5.458   4.548   0.096  1.1668 -0.5164 -0.2276
12588TIP3    H237708   5.490   4.679   0.165 -1.6031  1.0743 -1.7654
12589TIP3   OH237709   1.854   6.334   6.168  0.3462 -0.5586 -0.7330
12589TIP3    H137710   1.831   6.386   6.245 -0.4257 -0.6977 -0.8589
12589TIP3    H237711   1.776   6.338   6.113  1.8514  2.0856 -2.9634
12590TIP3   OH237712   0.224   1.745   5.454  0.3143 -0.0710  0.5335
12590TIP3    H137713   0.208   1.786   5.539  1.0958  1.1994  0.0950
12590TIP3    H237714   0.309   1.702   5.464 -0.1641 -1.0016  0.7581
12591TIP3   OH237715   4.371   2.379   3.471 -0.0589  0.0890 -0.1191
12591TIP3    H137716   4.354   2.393   3.378  1.4062  1.9672 -0.1506
12591TIP3    H237717   4.446   2.319   3.473 -0.2856 -0.1996 -0.1234
12592TIP3   OH237718   7.336   3.491   0.589 -0.3059  0.5420 -0.4339
12592TIP3    H137719   7.261   3.435   0.606  1.9749 -2.8990 -0.7854
12592TIP3    H237720   7.319   3.530   0.503 -1.8190  0.1768 -0.3249
12593TIP3   OH237721   4.605   4.607   6.446 -0.5389  0.0940  0.3076
12593TIP3    H137722   4.513   4.606   6.418 -0.0832 -0.7716 -1.3220
12593TIP3    H237723   4.648   4.667   6.385  0.3562 -1.2459 -0.4442
12594TIP3   OH237724   5.371   4.613   3.264  0.2586  0.0188  0.5886
12594TIP3    H137725   5.423   4.684   3.300 -0.4703  0.5271  0.6599
12594TIP3    H237726   5.417   4.589   3.183 -0.0511  1.2735  0.0236
12595TIP3   OH237727   2.186   2.611   3.542 -0.4753  0.6669  0.1999
12595TIP3    H137728   2.175   2.706   3.554 -0.6246  0.5262  1.3432
12595TIP3    H237729   2.099   2.575   3.560 -0.3905  0.3014 -0.1093
12596TIP3   OH237730   6.135   3.803   4.588  0.2566 -0.1814 -0.8935
12596TIP3    H137731   6.094   3.743   4.650  0.3387  0.0355 -0.6246
12596TIP3    H237732   6.143   3.753   4.507 -0.9319 -0.0836 -1.0858
12597TIP3   OH237733   7.425   5.074   4.129 -0.3207 -0.4509 -0.4707
12597TIP3    H137734   7.521   5.071   4.134 -0.2126  1.0263 -1.0270
12597TIP3    H237735   7.396   5.048   4.216  0.6255 -0.0750 -0.0242
12598TIP3   OH237736   2.545   3.446   0.506 -0.3880 -1.0092  0.1638
12598TIP3    H137737   2.600   3.503   0.560 -0.1847 -0.1697 -0.8782
12598TIP3    H237738   2.606   3.404   0.446 -0.7700 -0.7218 -0.4390
12599TIP3   OH237739   0.079   4.589   5.229 -0.0624  0.0407  0.4335
12599TIP3    H137740  -0.009   4.603   5.194 -0.7839 -2.8644  0.8370
12599TIP3    H237741   0.087   4.654   5.299 -2.3989 -0.3992  1.1849
12600TIP3   OH237742   3.991   6.669   6.348 -0.0150 -0.3728 -0.2339
12600TIP3    H137743   4.003   6.620   6.429 -1.8812 -1.2073 -0.4180
12600TIP3    H237744   4.077   6.666   6.305  0.1652 -2.7633  0.1746
12601TIP3   OH237745   3.090   6.385   0.619  0.1008 -0.2402 -0.3232
12601TIP3    H137746   3.103   6.353   0.708 -0.7246  1.8670  0.6404
12601TIP3    H237747   3.166   6.440   0.603 -0.2909  0.2748 -0.4535
12602TIP3   OH237748   7.933   4.630   4.259  0.7422 -0.1840 -0.3943
12602TIP3    H137749   7.926   4.534   4.253 -3.3945 -0.1650  0.5487
12602TIP3    H237750   7.904   4.661   4.173 -1.4155  0.1261  0.3926
12603TIP3   OH237751   6.866   1.813   4.644 -0.3464 -0.3462 -0.3397
12603TIP3    H137752   6.775   1.787   4.629 -1.2512  0.9198  2.4440
12603TIP3    H237753   6.897   1.753   4.712 -0.0748  1.0583  0.8110
12604TIP3   OH237754   7.463   0.323   4.083  0.2843  0.1967 -0.1924
12604TIP3    H137755   7.552   0.306   4.054 -0.9243 -0.7818 -3.8674
12604TIP3    H237756   7.446   0.414   4.057  0.0453  0.2172  0.0219
12605TIP3   OH237757   2.210   1.492   0.775  0.0788  0.0487  0.0552
12605TIP3    H137758   2.226   1.416   0.718 -2.6616 -0.3690 -0.2684
12605TIP3    H237759   2.122   1.522   0.752  0.4646  2.3792  1.3001
12606TIP3   OH237760   1.842   5.177   1.844 -0.1973  0.1293 -0.4131
12606TIP3    H137761   1.849   5.214   1.756 -0.4910 -0.3222 -0.6301
12606TIP3    H237762   1.905   5.227   1.896 -0.7551  1.0912 -0.6439
12607TIP3   OH237763   6.703   2.222   1.098 -0.3393  0.2379 -0.0450
12607TIP3    H137764   6.697   2.180   1.183  1.5120 -0.1294 -0.0413
12607TIP3    H237765   6.743   2.308   1.116  0.4350  0.0024 -0.5496
12608TIP3   OH237766   4.408   4.707   2.107  0.4921  0.1584 -0.0849
12608TIP3    H137767   4.387   4.665   2.190 -0.9409  2.3667  0.7834
12608TIP3    H237768   4.503   4.712   2.106  0.5598 -0.4443  1.1561
12609TIP3   OH237769   7.954   6.758   5.638 -0.6376  0.1675  0.3898
12609TIP3    H137770   7.963   6.814   5.561  0.4679  0.1788  0.5234
12609TIP3    H237771   7.953   6.819   5.712  1.4125  0.0156  0.6027
12610TIP3   OH237772   1.917   6.144   4.981  0.0013  0.1370  0.0398
12610TIP3    H137773   1.869   6.202   5.039 -0.6646 -0.7218  0.3687
12610TIP3    H237774   1.950   6.074   5.038  1.9644  0.8834 -0.1178
12611TIP3   OH237775   6.663   7.535   2.876  0.3412  0.1294 -0.5910
12611TIP3    H137776   6.633   7.506   2.790  1.5356  1.1751 -1.4043
12611TIP3    H237777   6.640   7.464   2.935 -0.0026 -0.8685 -1.8778
12612TIP3   OH237778   2.818   6.918   6.747  0.2606 -0.6699 -0.4551
12612TIP3    H137779   2.841   6.977   6.675 -0.2298 -1.8868 -1.6634
12612TIP3    H237780   2.822   6.831   6.708  1.3499 -1.4903  1.3839
12613TIP3   OH237781   2.506   3.792   6.306 -0.1264  0.2584  0.3048
12613TIP3    H137782   2.565   3.719   6.324  1.0003  1.0337 -0.1280
12613TIP3    H237783   2.440   3.756   6.247  0.7300 -0.2684 -0.3492
12614TIP3   OH237784   4.610   5.371   5.051 -0.5596  0.2871 -0.7838
12614TIP3    H137785   4.575   5.296   5.098 -0.7474  1.3352  0.8137
12614TIP3    H237786   4.697   5.385   5.088 -0.7281  1.1606 -0.6845
12615TIP3   OH237787   1.196   7.351   6.138 -0.2103  0.1357 -0.3058
12615TIP3    H137788   1.253   7.385   6.070 -1.3256  1.4692 -0.6265
12615TIP3    H237789   1.122   7.312   6.091  0.4508 -1.7023  0.0920
12616TIP3   OH237790   6.340   7.440   6.628 -0.0329  0.1221 -0.5020
12616TIP3    H137791   6.367   7.362   6.581 -0.9112 -0.4107 -0.1420
12616TIP3    H237792   6.287   7.489   6.565  1.0987  0.8054 -0.9641
12617TIP3   OH237793   1.602   2.448   3.156  0.9214  0.8168 -0.4224
12617TIP3    H137794   1.586   2.494   3.239  0.1082  1.5758 -0.9826
12617TIP3    H237795   1.514   2.427   3.124  1.2465  0.1307 -0.8844
12618TIP3   OH237796   2.324   2.420   4.140 -0.6732 -0.1138 -0.4497
12618TIP3    H137797   2.310   2.503   4.094  0.1321 -0.3221 -1.0983
12618TIP3    H237798   2.345   2.445   4.230  1.0971  0.4849 -0.9857
12619TIP3   OH237799   7.438   6.921   3.977 -0.3119 -0.1968  0.1995
12619TIP3    H137800   7.495   6.880   3.911  1.9576  3.0375 -0.0548
12619TIP3    H237801   7.378   6.975   3.926 -0.6273 -0.0909  0.6808
12620TIP3   OH237802   6.522   5.969   4.220 -0.2083  0.3772  0.1556
12620TIP3    H137803   6.535   5.875   4.206  0.1414  0.4868 -0.3107
12620TIP3    H237804   6.472   5.975   4.301 -2.1974 -0.3039 -0.9473
12621TIP3   OH237805   4.360   5.268   3.709 -0.5176 -0.7463 -0.5766
12621TIP3    H137806   4.332   5.188   3.665 -0.4346 -0.3672 -1.3457
12621TIP3    H237807   4.378   5.329   3.637  0.1462 -0.2833 -0.0292
12622TIP3   OH237808   4.791   1.863   6.032  0.4789  0.0583  0.2460
12622TIP3    H137809   4.709   1.819   6.008  0.0101  1.2570 -0.4426
12622TIP3    H237810   4.780   1.884   6.125 -0.3839  1.0036 -0.0562
12623TIP3   OH237811   3.084   6.126   3.625 -0.0861 -0.7942  0.0364
12623TIP3    H137812   3.049   6.200   3.575  0.1503  0.4338  1.6266
12623TIP3    H237813   3.143   6.082   3.564  0.3334  0.7599 -0.7355
12624TIP3   OH237814   2.929   3.346   5.786  0.6507 -0.4130 -0.0924
12624TIP3    H137815   2.916   3.375   5.696  0.0160 -1.1095 -0.2415
12624TIP3    H237816   2.941   3.427   5.836 -0.8491  0.1073 -0.5226
12625TIP3   OH237817   3.797   0.357   4.856  0.0434  0.6539 -0.0611
12625TIP3    H137818   3.816   0.323   4.769  1.0967  2.3921 -0.5483
12625TIP3    H237819   3.771   0.279   4.906 -0.5030 -0.3952 -1.8652
12626TIP3   OH237820   3.636   4.491   1.732 -0.2798  0.2264  0.1737
12626TIP3    H137821   3.560   4.443   1.698 -0.5424  1.1974 -0.6730
12626TIP3    H237822   3.602   4.577   1.753  0.1470  0.0089  1.8654
12627TIP3   OH237823   3.224   3.328   0.416  0.4171  0.4739 -0.5920
12627TIP3    H137824   3.265   3.384   0.481 -0.4887  1.6947 -1.0466
12627TIP3    H237825   3.259   3.358   0.332  1.3951 -0.9306 -0.7167
12628TIP3   OH237826   0.363   0.378   5.249  0.0089  0.2750 -0.3479
12628TIP3    H137827   0.336   0.449   5.190  0.3462  0.7143  0.0144
12628TIP3    H237828   0.457   0.370   5.235  0.5139  1.8850  1.6836
12629TIP3   OH237829   7.114   0.083   4.804  0.1806  0.6678  0.2706
12629TIP3    H137830   7.189   0.139   4.822  1.6961 -1.5367  1.3208
12629TIP3    H237831   7.145   0.022   4.736 -1.2873  0.8200 -0.5961
12630TIP3   OH237832   0.581   7.187   0.143 -0.5012  0.3999 -0.0398
12630TIP3    H137833   0.563   7.251   0.073 -0.1698  0.7816  0.2184
12630TIP3    H237834   0.651   7.227   0.194 -1.7855  0.8384  1.4426
12631TIP3   OH237835   5.163   7.820   3.220  0.4463  0.5761 -0.1965
12631TIP3    H137836   5.148   7.780   3.134  0.0613 -2.5112  1.1449
12631TIP3    H237837   5.081   7.808   3.267  1.7231 -1.3637  1.7716
12632TIP3   OH237838   1.443   6.254   5.436  0.8468 -0.5813 -0.4681
12632TIP3    H137839   1.357   6.233   5.473 -0.4912 -0.4543 -3.2471
12632TIP3    H237840   1.465   6.339   5.475  0.5773 -1.3968  1.5850
12633TIP3   OH237841   5.862   2.833   3.580 -0.2595  0.0562 -0.6270
12633TIP3    H137842   5.881   2.844   3.673 -1.2518  0.8047 -0.4941
12633TIP3    H237843   5.948   2.832   3.538  0.1546  1.0814  0.1561
12634TIP3   OH237844   0.973   3.558   0.571 -0.0850  0.7127 -0.0844
12634TIP3    H137845   1.045   3.589   0.626 -0.2056 -1.2737  1.2929
12634TIP3    H237846   0.896   3.560   0.628 -0.8719  1.4913 -1.1286
12635TIP3   OH237847   2.250   5.534   0.610  0.2451 -0.7308  0.0456
12635TIP3    H137848   2.201   5.538   0.527  0.9972 -1.0402 -0.4282
12635TIP3    H237849   2.209   5.463   0.658 -1.4629  0.6985  0.7936
12636TIP3   OH237850   1.140   0.475   2.339  0.4102  0.4398 -0.0541
12636TIP3    H137851   1.140   0.568   2.318 -0.7668  0.0659 -1.9308
12636TIP3    H237852   1.231   0.455   2.360  0.5782  2.1163  0.9722
12637TIP3   OH237853   1.081   1.821   2.083  0.0918 -0.4818 -0.1764
12637TIP3    H137854   1.175   1.840   2.087 -0.0022  0.3059 -1.2441
12637TIP3    H237855   1.041   1.890   2.136 -0.0061  0.3894 -1.3392
12638TIP3   OH237856   6.873   0.597   4.106 -0.0712 -0.6634 -0.1529
12638TIP3    H137857   6.964   0.627   4.105 -0.5592  1.2252  2.4772
12638TIP3    H237858   6.830   0.653   4.041  0.1753  0.3743  0.5384
12639TIP3   OH237859   5.538   2.529   6.420  0.1479 -0.1830 -0.3634
12639TIP3    H137860   5.543   2.591   6.493  0.5585  1.1266 -1.4480
12639TIP3    H237861   5.447   2.499   6.420  0.1248 -0.1283  0.6251
12640TIP3   OH237862   6.889   6.139   5.570 -0.4282  0.6503 -0.0938
12640TIP3    H137863   6.881   6.234   5.569  1.0341  0.7986 -0.7871
12640TIP3    H237864   6.892   6.115   5.662  1.0276  1.4749  0.0943
12641TIP3   OH237865   5.164   0.067   5.188 -0.1375  0.0425 -0.3150
12641TIP3    H137866   5.253   0.087   5.217 -0.1466  0.4644 -0.5705
12641TIP3    H237867   5.111   0.074   5.267  0.2238 -1.3240  0.0602
12642TIP3   OH237868   5.734   7.279   6.298 -0.1836  0.0121 -0.8897
12642TIP3    H137869   5.737   7.362   6.346 -0.3391  0.3494 -1.4555
12642TIP3    H237870   5.818   7.237   6.318  0.6577  1.1027 -1.9973
12643TIP3   OH237871   2.505   6.130   4.840 -0.2222  0.1343  0.0680
12643TIP3    H137872   2.445   6.204   4.852 -1.5470 -0.7685 -0.6290
12643TIP3    H237873   2.456   6.055   4.874  0.7380 -0.5521 -0.0539
12644TIP3   OH237874   1.997   0.834   3.577  0.0015 -0.1009 -0.2343
12644TIP3    H137875   1.929   0.899   3.592 -0.3540 -0.9490  2.2624
12644TIP3    H237876   2.078   0.885   3.570 -0.3273  0.6877  1.2635
12645TIP3   OH237877   2.437   7.639   3.630 -0.0357 -0.1875 -0.2701
12645TIP3    H137878   2.410   7.577   3.698 -0.9635  0.0560 -0.4064
12645TIP3    H237879   2.430   7.589   3.549  3.4733 -1.2998 -0.0643
12646TIP3   OH237880   2.503   7.201   4.607 -0.9348 -0.1864 -0.3911
12646TIP3    H137881   2.580   7.145   4.617 -2.7238 -2.5426  1.3993
12646TIP3    H237882   2.461   7.170   4.526 -0.8766 -0.0478 -0.4745
12647TIP3   OH237883   6.473   5.572   3.971  0.1036  0.1434  0.3970
12647TIP3    H137884   6.386   5.609   3.985  0.6570  1.5581  0.1887
12647TIP3    H237885   6.528   5.646   3.946  1.4021 -0.7031  0.6221
12648TIP3   OH237886   4.995   5.031   3.955 -0.0533 -0.2736 -0.1923
12648TIP3    H137887   5.087   5.043   3.977 -0.1059  0.0955 -0.1813
12648TIP3    H237888   4.988   4.938   3.933  0.1979 -0.4321  0.3953
12649TIP3   OH237889   2.340   1.306   3.495  0.0684  0.1647  0.0327
12649TIP3    H137890   2.294   1.303   3.579  1.3958  0.9719  0.8281
12649TIP3    H237891   2.431   1.288   3.517  0.4909  0.6925 -1.1941
12650TIP3   OH237892   4.078   3.156   6.054 -0.5015 -0.6447 -0.2430
12650TIP3    H137893   4.063   3.242   6.094 -1.5735 -0.1781 -1.5710
12650TIP3    H237894   4.146   3.116   6.108  1.5906  1.8645 -0.7904
12651TIP3   OH237895   0.753   6.451   2.446 -0.3360  0.1971  0.2288
12651TIP3    H137896   0.757   6.478   2.538 -0.8833 -0.4062  0.4397
12651TIP3    H237897   0.705   6.368   2.448 -0.6192  0.3336 -0.6371
12652TIP3   OH237898   0.948   1.800   3.720 -0.3106 -0.2064 -0.1059
12652TIP3    H137899   0.910   1.876   3.676  0.1196 -0.2731 -0.6062
12652TIP3    H237900   0.888   1.781   3.792 -0.5169  0.4944 -0.0868
12653TIP3   OH237901   1.647   6.767   3.823 -0.0131  0.2921  0.3851
12653TIP3    H137902   1.730   6.807   3.849  0.3121 -0.1807  0.0876
12653TIP3    H237903   1.597   6.762   3.904  0.8385 -0.7962  0.8625
12654TIP3   OH237904   3.124   1.207   6.019  0.2560 -0.5139 -0.0946
12654TIP3    H137905   3.047   1.167   6.058 -0.1574  1.7090  1.6220
12654TIP3    H237906   3.108   1.205   5.925 -0.3837 -2.9064  0.0144
12655TIP3   OH237907   2.579   1.437   6.145  0.4560 -0.1231 -0.1253
12655TIP3    H137908   2.546   1.526   6.157  0.1457 -0.2883  0.2604
12655TIP3    H237909   2.639   1.423   6.218  0.5833 -0.1922 -0.2429
12656TIP3   OH237910   0.695   4.120   3.346  0.0535  0.4434 -0.5020
12656TIP3    H137911   0.714   4.120   3.440 -0.6377 -0.9921 -0.3330
12656TIP3    H237912   0.716   4.031   3.318  0.4318  0.9159 -1.7596
12657TIP3   OH237913   4.032   2.177   3.135  0.2062  0.0944  0.1162
12657TIP3    H137914   3.958   2.141   3.087  0.3433  0.2293 -0.2045
12657TIP3    H237915   3.999   2.192   3.223 -0.7071  1.8671 -0.4731
12658TIP3   OH237916   2.654   7.729   5.830 -0.3895  0.2286  0.4483
12658TIP3    H137917   2.694   7.657   5.878 -0.3369  0.8057  1.2838
12658TIP3    H237918   2.726   7.766   5.777 -0.9499 -1.8780 -1.9508
12659TIP3   OH237919   2.632   6.556   4.667  0.4481  0.3535  0.0644
12659TIP3    H137920   2.582   6.533   4.746 -0.1447 -0.3740 -0.5096
12659TIP3    H237921   2.650   6.649   4.677 -0.6228  0.5327  0.5265
12660TIP3   OH237922   0.210   2.576   3.089  0.0457  0.3546 -0.0881
12660TIP3    H137923   0.199   2.485   3.063  0.2857  0.0839  0.7384
12660TIP3    H237924   0.135   2.621   3.051 -1.1563 -0.5371  1.1545
12661TIP3   OH237925   3.838   3.855   5.251  0.0368 -0.4606  0.1130
12661TIP3    H137926   3.756   3.845   5.300 -0.6661 -1.3331 -1.1710
12661TIP3    H237927   3.828   3.795   5.177  0.8575  1.1578 -1.3652
12662TIP3   OH237928   2.082   1.872   2.500 -0.3094 -0.1348 -0.7758
12662TIP3    H137929   2.025   1.797   2.485  0.2444 -0.1359 -3.4303
12662TIP3    H237930   2.166   1.834   2.528 -0.2212 -0.4882 -1.4968
12663TIP3   OH237931   0.353   5.309   3.344  0.6637 -0.0364  0.3228
12663TIP3    H137932   0.385   5.374   3.281 -0.8909  0.1545 -0.3169
12663TIP3    H237933   0.391   5.337   3.428  0.0090  1.7505  0.0768
12664TIP3   OH237934   3.872   0.374   0.962 -0.1306 -0.1174  0.2252
12664TIP3    H137935   3.901   0.325   1.039 -0.0600  0.0105  0.2795
12664TIP3    H237936   3.799   0.427   0.993 -1.6355 -1.7686 -0.3013
12665TIP3   OH237937   2.241   5.764   5.833  0.3331  0.1319 -0.0673
12665TIP3    H137938   2.321   5.794   5.791  1.3566 -2.0250  0.2117
12665TIP3    H237939   2.190   5.725   5.762 -0.0258  0.6165 -0.0765
12666TIP3   OH237940   1.769   7.378   2.125  0.1364  0.2354  0.1296
12666TIP3    H137941   1.819   7.358   2.204 -0.1175  1.6386  0.6697
12666TIP3    H237942   1.832   7.367   2.054  0.5112 -0.5285  0.5650
12667TIP3   OH237943   1.622   2.735   5.043 -0.0179 -0.4333 -0.0659
12667TIP3    H137944   1.560   2.662   5.039  0.4192 -0.7749 -0.6484
12667TIP3    H237945   1.708   2.694   5.049  0.2260  0.0241 -0.3458
12668TIP3   OH237946   7.413   6.736   1.631 -0.3470 -0.2702 -0.1956
12668TIP3    H137947   7.320   6.714   1.630 -0.7916  1.4831 -1.1048
12668TIP3    H237948   7.456   6.657   1.665 -2.2037 -0.8917  0.8195
12669TIP3   OH237949   2.876   5.247   5.971  0.4820  0.5588 -0.0335
12669TIP3    H137950   2.909   5.200   5.895 -1.4038  1.5619 -1.5467
12669TIP3    H237951   2.924   5.329   5.972  0.8774  0.3286  0.1904
12670TIP3   OH237952   7.032   4.891   1.060 -0.0757  0.3243 -0.3708
12670TIP3    H137953   6.987   4.806   1.057 -1.3564  0.9436  0.3499
12670TIP3    H237954   7.054   4.903   1.152  0.4966  0.5816 -0.5400
12671TIP3   OH237955   8.030   1.649   0.838  0.0520 -0.2260  0.0791
12671TIP3    H137956   8.122   1.665   0.859  0.1855 -1.1481  0.2384
12671TIP3    H237957   8.033   1.614   0.749 -0.1285 -0.4508  0.1626
12672TIP3   OH237958   0.368   2.540   0.304  0.4866  0.5120 -0.0610
12672TIP3    H137959   0.283   2.541   0.260  0.2050 -0.0735  0.4464
12672TIP3    H237960   0.380   2.629   0.337  1.4594  1.4267 -2.6833
12673TIP3   OH237961   3.572   1.272   5.303 -0.5326 -0.1509 -0.6554
12673TIP3    H137962   3.662   1.299   5.319 -0.7384 -0.8658  2.2216
12673TIP3    H237963   3.579   1.193   5.249  0.5251 -0.1406 -0.5469
12674TIP3   OH237964   2.824   5.688   2.713  0.2165 -0.0732 -0.0077
12674TIP3    H137965   2.815   5.783   2.715 -0.6513 -0.1396 -0.2261
12674TIP3    H237966   2.739   5.657   2.683  0.8880 -0.8580 -1.1732
12675TIP3   OH237967   5.681   6.704   5.772  0.0050 -0.6842  0.1763
12675TIP3    H137968   5.760   6.667   5.810 -0.5404 -0.8232  1.2090
12675TIP3    H237969   5.712   6.755   5.697  1.1530 -0.0527  1.0535
12676TIP3   OH237970   1.492   5.290   0.860 -0.4750 -0.0752 -0.1183
12676TIP3    H137971   1.397   5.293   0.862 -0.5277 -0.4850 -1.2320
12676TIP3    H237972   1.518   5.284   0.952 -1.4555  1.5689  0.3054
12677TIP3   OH237973   3.817   5.569   0.988  0.4253 -0.3729 -0.2809
12677TIP3    H137974   3.824   5.662   0.964  0.8404  0.0722  1.4542
12677TIP3    H237975   3.749   5.567   1.055  1.3744 -1.1189  0.6752
12678TIP3   OH237976   3.371   1.822   2.732 -0.4559  0.4502 -0.1707
12678TIP3    H137977   3.362   1.727   2.738 -0.8876  0.4682 -0.4652
12678TIP3    H237978   3.455   1.835   2.688  0.0482  0.2289  0.7082
12679TIP3   OH237979   6.842   1.022   0.394  0.3485 -0.3599  0.4687
12679TIP3    H137980   6.839   1.078   0.472  1.0260  2.1970 -1.2328
12679TIP3    H237981   6.935   1.013   0.374  0.2107 -1.5240  0.2828
12680TIP3   OH237982   4.493   5.629   6.426  0.1482  0.3469  0.1049
12680TIP3    H137983   4.458   5.540   6.430 -2.1737  1.0402 -2.2501
12680TIP3    H237984   4.569   5.623   6.369  0.1072 -0.1832  0.1051
12681TIP3   OH237985   6.347   6.104   5.354 -0.1803  0.2125 -0.6428
12681TIP3    H137986   6.278   6.117   5.289  0.0794  0.1352 -0.9379
12681TIP3    H237987   6.317   6.030   5.407 -0.5169  0.4455 -0.5061
12682TIP3   OH237988   3.796   7.080   1.254  0.7749  0.3583 -0.0697
12682TIP3    H137989   3.791   7.154   1.192 -0.9137  0.8729  0.6036
12682TIP3    H237990   3.797   7.121   1.340 -1.4965 -0.3644  0.3653
12683TIP3   OH237991   6.085   5.995   3.061 -0.3206  0.1781 -0.3841
12683TIP3    H137992   6.056   6.073   3.014 -0.8265 -0.6799 -1.5509
12683TIP3    H237993   6.012   5.974   3.121 -0.1533  0.6329 -0.0192
12684TIP3   OH237994   2.879   6.152   2.715  0.1777 -0.3762 -0.9975
12684TIP3    H137995   2.841   6.068   2.691 -2.6098  0.7466 -0.9032
12684TIP3    H237996   2.900   6.194   2.632 -0.5250 -0.2853 -1.1328
12685TIP3   OH237997   0.939   1.163   2.999 -0.0120 -0.0395  0.6586
12685TIP3    H137998   0.893   1.084   2.972  1.0361 -0.5518  0.3167
12685TIP3    H237999   0.999   1.134   3.068  1.0379  0.2513 -0.0982
12686TIP3   OH238000   1.029   4.660   4.811  0.0933 -0.2097 -0.1751
12686TIP3    H138001   1.038   4.652   4.906  0.3968  1.6577 -0.0051
12686TIP3    H238002   0.946   4.618   4.791  0.8487 -2.2062  0.6499
12687TIP3   OH238003   8.141   4.162   1.880 -0.1525  0.3035  0.0484
12687TIP3    H138004   8.208   4.227   1.901 -0.3959  0.1238  1.4504
12687TIP3    H238005   8.095   4.199   1.804 -0.9498  2.2951  1.4235
12688TIP3   OH238006   1.958   5.542   3.013  0.2385  0.4555 -0.1792
12688TIP3    H138007   1.955   5.447   3.022  0.4909  0.2833 -1.6541
12688TIP3    H238008   2.051   5.563   3.019  0.3592  0.3959 -1.5350
12689TIP3   OH238009   7.637   3.435   1.933  0.4401 -0.9946 -0.0891
12689TIP3    H138010   7.649   3.530   1.925  1.0696 -0.8385  1.8920
12689TIP3    H238011   7.726   3.402   1.947  0.2616 -1.9352 -1.1121
12690TIP3   OH238012   5.023   5.255   4.801  0.0458 -0.2159 -0.3685
12690TIP3    H138013   5.055   5.323   4.742 -0.0234 -0.8795 -1.1882
12690TIP3    H238014   4.966   5.301   4.862 -1.1955  0.2424 -1.8337
12691TIP3   OH238015   0.743   1.530   0.347 -0.1362 -0.2506 -0.0367
12691TIP3    H138016   0.671   1.553   0.407 -0.0210 -0.1210  0.0533
12691TIP3    H238017   0.749   1.605   0.288  1.3420  0.7456  1.2892
12692TIP3   OH238018   3.165   2.931   2.991 -0.6637 -0.5394  0.2523
12692TIP3    H138019   3.070   2.936   2.993 -0.9429 -1.7538 -2.9659
12692TIP3    H238020   3.184   2.843   2.959  1.3953  0.3815 -1.3482
12693TIP3   OH238021   4.038   0.915   4.676 -0.0559  0.0585  0.5106
12693TIP3    H138022   4.124   0.928   4.635 -0.8053 -1.7097 -1.8342
12693TIP3    H238023   4.059   0.877   4.762  1.5267  0.4012  0.3053
12694TIP3   OH238024   0.856   0.694   1.963 -0.2856 -0.4985  0.0667
12694TIP3    H138025   0.857   0.754   1.889  0.5365 -1.8186 -1.0528
12694TIP3    H238026   0.805   0.739   2.030 -1.7632  0.3987 -1.5750
12695TIP3   OH238027   3.188   3.595   3.795 -0.2577  0.1019  0.4699
12695TIP3    H138028   3.176   3.550   3.878  2.2034 -0.4133  0.6064
12695TIP3    H238029   3.251   3.542   3.747  0.7188  1.9669 -0.4446
12696TIP3   OH238030   5.995   7.086   0.500  0.4408 -0.4456  0.3029
12696TIP3    H138031   5.920   7.034   0.529 -0.3837  0.2890 -0.4538
12696TIP3    H238032   5.983   7.097   0.406  0.2436  1.5979  0.5072
12697TIP3   OH238033   4.992   6.175   3.367 -0.0573 -0.0580  0.4547
12697TIP3    H138034   5.080   6.137   3.361  1.4345  3.1214 -0.0599
12697TIP3    H238035   4.955   6.165   3.279  0.4171 -0.0733  0.2537
12698TIP3   OH238036   6.456   2.270   2.665  0.3641  0.0891 -0.5812
12698TIP3    H138037   6.379   2.232   2.707 -0.3771 -0.5386 -2.4001
12698TIP3    H238038   6.473   2.351   2.713  0.5726 -1.3513  1.9311
12699TIP3   OH238039   0.253   2.590   3.370  0.5567  0.2143  0.6454
12699TIP3    H138040   0.221   2.584   3.280  2.3647  0.0741 -0.0324
12699TIP3    H238041   0.181   2.558   3.424 -0.1860 -0.6902 -0.8370
12700TIP3   OH238042   8.261   5.908   0.044  0.1618 -0.1419  0.2166
12700TIP3    H138043   8.187   5.867   0.089  1.3079 -0.9110  1.4683
12700TIP3    H238044   8.277   5.989   0.093  0.1413  0.0363 -0.0667
12701TIP3   OH238045   5.630   6.330   4.079  0.3204  0.4803 -0.2827
12701TIP3    H138046   5.717   6.354   4.113 -0.2105  1.6396  0.3155
12701TIP3    H238047   5.644   6.316   3.986  1.2749  0.0212 -0.0817
12702TIP3   OH238048   5.646   4.075   6.518 -0.3061  0.8272  0.3472
12702TIP3    H138049   5.581   4.082   6.588 -1.0954  1.3126 -0.4175
12702TIP3    H238050   5.696   4.157   6.524  0.6914  0.1929  1.3331
12703TIP3   OH238051   4.803   0.785   4.511 -0.0118  0.0066 -0.2829
12703TIP3    H138052   4.843   0.799   4.597  0.0393  1.9964 -0.5694
12703TIP3    H238053   4.752   0.705   4.520  3.7441 -2.6262  0.1967
12704TIP3   OH238054   5.264   1.324   1.450  0.2977  0.3295 -0.0405
12704TIP3    H138055   5.209   1.248   1.430 -0.6612  0.7959  0.7796
12704TIP3    H238056   5.208   1.399   1.435  0.9852  0.8565 -0.0142
12705TIP3   OH238057   3.280   0.397   5.839  0.4109 -0.4955  0.3636
12705TIP3    H138058   3.320   0.318   5.803  1.7469  1.2482 -2.3058
12705TIP3    H238059   3.328   0.414   5.920  0.0792 -2.3478  1.0033
12706TIP3   OH238060   6.721   2.780   1.630 -0.0694 -0.4437 -0.4336
12706TIP3    H138061   6.716   2.780   1.726 -1.8571 -1.1149 -0.4868
12706TIP3    H238062   6.805   2.738   1.610  0.2569 -0.4400  0.8301
12707TIP3   OH238063   0.720   1.340   5.776  0.1163  0.4610 -0.1461
12707TIP3    H138064   0.672   1.266   5.813 -0.0487  0.4894 -0.3042
12707TIP3    H238065   0.676   1.358   5.693  0.8911 -0.0303 -0.6847
12708TIP3   OH238066   1.477   5.099   3.399 -0.2279  1.0790 -0.0387
12708TIP3    H138067   1.519   5.173   3.441  0.7826  0.1156  0.7065
12708TIP3    H238068   1.549   5.053   3.354 -0.8816  0.7156 -0.7355
12709TIP3   OH238069   3.812   3.200   4.173 -0.4532  0.6573 -0.4642
12709TIP3    H138070   3.868   3.182   4.097 -0.5186  0.7747 -0.5409
12709TIP3    H238071   3.744   3.133   4.169 -0.5670  0.7790 -0.6205
12710TIP3   OH238072   4.015   5.317   4.248  0.4579 -0.0888 -0.3422
12710TIP3    H138073   4.058   5.342   4.166  0.5866  0.8049 -0.0243
12710TIP3    H238074   3.949   5.253   4.223 -1.0964  1.8357 -1.5185
12711TIP3   OH238075   2.797   5.559   4.295  0.6051  0.5010  0.0585
12711TIP3    H138076   2.822   5.602   4.213  2.0749  1.1959  0.8195
12711TIP3    H238077   2.733   5.494   4.270 -0.0317  1.6493 -1.4595
12712TIP3   OH238078   3.621   2.963   3.247 -0.4135 -0.6023 -0.4987
12712TIP3    H138079   3.540   2.915   3.263  0.5674 -1.6573  1.7800
12712TIP3    H238080   3.690   2.903   3.273  1.0201  0.8813 -0.7203
12713TIP3   OH238081   5.239   1.336   1.786  0.6127  0.0466  0.1180
12713TIP3    H138082   5.300   1.308   1.718  0.8979 -0.1220  0.4426
12713TIP3    H238083   5.260   1.429   1.800  1.9995 -0.4218  1.4601
12714TIP3   OH238084   5.297   2.964   3.307 -0.0713  0.4739  0.0102
12714TIP3    H138085   5.313   3.020   3.383  1.9808  0.1136 -0.0944
12714TIP3    H238086   5.358   2.996   3.241 -1.0514  0.0680 -1.1057
12715TIP3   OH238087   3.408   2.148   1.680 -0.4523 -0.0530 -0.6358
12715TIP3    H138088   3.432   2.175   1.592 -1.9067  1.0742 -0.7264
12715TIP3    H238089   3.343   2.078   1.666 -1.1282  0.5363 -0.4779
12716TIP3   OH238090   4.501   2.941   0.499 -0.0393  0.3583  0.5169
12716TIP3    H138091   4.483   2.852   0.469 -0.3935  0.2342  1.0730
12716TIP3    H238092   4.449   2.950   0.579 -0.0261  1.0745  0.4503
12717TIP3   OH238093   1.448   7.627   3.254 -0.2217  0.0522  0.2955
12717TIP3    H138094   1.519   7.565   3.241 -0.6591 -0.6456  1.1061
12717TIP3    H238095   1.393   7.618   3.176  1.0740  1.3107 -0.8015
12718TIP3   OH238096   5.591   7.786   0.935  0.6681 -0.6553  0.4363
12718TIP3    H138097   5.663   7.748   0.885  0.5448 -0.0331 -0.2397
12718TIP3    H238098   5.598   7.747   1.022  2.0409 -0.3331  0.4967
12719TIP3   OH238099   2.257   3.371   2.433 -0.2060 -0.5464  0.5612
12719TIP3    H138100   2.286   3.280   2.440  0.7361 -0.5051 -1.6881
12719TIP3    H238101   2.205   3.373   2.352 -1.8270  0.5657  1.5593
12720TIP3   OH238102   6.306   7.531   3.363  0.6338 -0.2986  0.2764
12720TIP3    H138103   6.228   7.479   3.342  0.6510  0.0297 -0.6664
12720TIP3    H238104   6.365   7.470   3.406 -0.0057 -0.6384  0.6894
12721TIP3   OH238105   1.636   5.340   0.084  0.1070 -0.3451 -0.1023
12721TIP3    H138106   1.707   5.282   0.056  0.6607  0.7488 -1.0764
12721TIP3    H238107   1.582   5.352   0.005  1.5408  2.5789 -0.8016
12722TIP3   OH238108   0.344   3.595   4.293  0.1721  0.1327  0.5303
12722TIP3    H138109   0.409   3.541   4.247  0.3173  1.3521 -0.7352
12722TIP3    H238110   0.268   3.537   4.301  0.7686 -0.7024  0.3943
12723TIP3   OH238111   0.883   3.486   5.099 -0.1419  0.5879 -0.0207
12723TIP3    H138112   0.826   3.426   5.148  0.6869  0.1599  0.4451
12723TIP3    H238113   0.824   3.531   5.039 -0.8632 -0.3697 -0.0628
12724TIP3   OH238114   6.125   0.350   2.572  0.0397 -0.2593 -0.0689
12724TIP3    H138115   6.186   0.400   2.518  1.6402 -0.4750  1.4449
12724TIP3    H238116   6.166   0.347   2.658 -0.7471 -2.8248  0.3020
12725TIP3   OH238117   2.268   5.784   2.573 -0.5450  0.3300  0.1527
12725TIP3    H138118   2.196   5.729   2.541  0.5819 -2.8256  2.5396
12725TIP3    H238119   2.249   5.798   2.666  1.1636  0.7493  0.4676
12726TIP3   OH238120   3.235   0.252   3.594 -0.5674  0.8138  0.3297
12726TIP3    H138121   3.214   0.301   3.514 -0.9340  0.2393  0.0636
12726TIP3    H238122   3.242   0.161   3.565  0.3990  0.7420  0.7679
12727TIP3   OH238123   3.631   6.874   3.144 -0.0206  0.3106 -0.0776
12727TIP3    H138124   3.540   6.858   3.118  0.3559  0.8444 -1.7943
12727TIP3    H238125   3.646   6.966   3.125  1.2733 -0.0778 -1.0404
12728TIP3   OH238126   1.022   6.265   4.706  0.0816 -0.3261 -0.0033
12728TIP3    H138127   1.059   6.188   4.749  0.1880 -0.7260 -0.7940
12728TIP3    H238128   1.072   6.273   4.625 -0.6904 -0.1021 -0.4632
12729TIP3   OH238129   6.426   3.625   3.345 -0.2966  0.3916  0.6195
12729TIP3    H138130   6.357   3.576   3.299 -0.6361  1.0618  0.3957
12729TIP3    H238131   6.380   3.676   3.411  0.0003  0.7402  0.5618
12730TIP3   OH238132   7.737   5.782   3.496  0.2048  0.3043  0.4442
12730TIP3    H138133   7.773   5.712   3.441 -0.0624 -0.4151  1.1612
12730TIP3    H238134   7.763   5.759   3.585  0.3349  1.2674  0.6666
12731TIP3   OH238135   3.267   5.583   5.235 -0.3612  0.1911  0.3613
12731TIP3    H138136   3.288   5.496   5.268 -1.2833 -0.7652 -1.3982
12731TIP3    H238137   3.287   5.642   5.307  1.0566 -1.3854  1.3242
12732TIP3   OH238138   0.283   2.856   6.708  0.0586  0.6555  0.1011
12732TIP3    H138139   0.319   2.858   6.797 -0.9560 -0.0147  0.5450
12732TIP3    H238140   0.206   2.913   6.713 -0.7485 -0.4148 -0.0022
12733TIP3   OH238141   8.013   3.799   3.438  0.3911  0.2294  0.2923
12733TIP3    H138142   8.093   3.791   3.490  0.8171  3.1713  0.2746
12733TIP3    H238143   7.954   3.852   3.493 -0.9826 -0.6096 -0.3109
12734TIP3   OH238144   5.015   0.323   3.746 -0.3952 -0.1596 -0.1030
12734TIP3    H138145   5.049   0.234   3.737 -0.2915 -0.1414  0.0908
12734TIP3    H238146   4.993   0.350   3.657 -0.5566 -0.4307 -0.1445
12735TIP3   OH238147   2.148   5.648   0.374 -0.7240  0.2466  0.3797
12735TIP3    H138148   2.127   5.560   0.344  0.6729 -0.6645  1.9067
12735TIP3    H238149   2.176   5.694   0.295 -0.1509 -1.1096 -0.2470
12736TIP3   OH238150   6.954   6.948   2.783  0.1262  0.2278 -0.6372
12736TIP3    H138151   7.000   6.935   2.866 -0.5500  1.5499 -0.0264
12736TIP3    H238152   6.863   6.927   2.803  0.2542 -1.4543 -1.5992
12737TIP3   OH238153   7.269   4.915   1.596 -0.4711 -0.0783 -0.2640
12737TIP3    H138154   7.280   4.953   1.683  0.0593  1.3730 -0.9288
12737TIP3    H238155   7.178   4.887   1.593 -0.8714  1.0987  0.2980
12738TIP3   OH238156   0.918   4.348   0.695 -0.0764 -0.2300  0.0003
12738TIP3    H138157   0.827   4.323   0.710 -0.1387  1.0179  2.1585
12738TIP3    H238158   0.968   4.271   0.721 -0.4501  0.0049  1.5207
12739TIP3   OH238159   1.574   3.708   2.583 -0.0552  0.8131  0.3024
12739TIP3    H138160   1.613   3.758   2.511 -1.2896  0.3015 -0.7767
12739TIP3    H238161   1.580   3.616   2.555  1.6189  0.3630  1.9706
12740TIP3   OH238162   8.087   4.976   4.000 -0.5035  0.2382  0.0702
12740TIP3    H138163   8.160   5.024   3.961 -0.5994 -1.4041 -2.3548
12740TIP3    H238164   8.129   4.914   4.060  0.0535 -0.0286 -0.5747
12741TIP3   OH238165   0.555   6.773   3.071 -0.2815 -0.2943  0.3337
12741TIP3    H138166   0.569   6.858   3.114 -1.3349 -0.0379  0.2136
12741TIP3    H238167   0.465   6.778   3.039 -0.2284 -1.3252 -0.0017
12742TIP3   OH238168   6.123   1.791   1.792 -0.8519 -0.5675  0.0739
12742TIP3    H138169   6.047   1.805   1.849 -0.7436 -1.0261  0.3307
12742TIP3    H238170   6.182   1.736   1.843  0.0982  0.5920  0.2613
12743TIP3   OH238171   1.814   3.650   3.753  0.2176  0.5789 -0.0042
12743TIP3    H138172   1.817   3.598   3.833 -2.0665  1.2554  0.6064
12743TIP3    H238173   1.822   3.585   3.682  0.6997 -0.2067  0.7505
12744TIP3   OH238174   3.722   0.559   1.920 -0.3994 -0.1289 -0.2176
12744TIP3    H138175   3.660   0.486   1.915 -0.0268 -0.5694  1.0971
12744TIP3    H238176   3.798   0.522   1.965  0.2698  0.7638 -0.5991
12745TIP3   OH238177   3.434   0.924   3.138  0.4830 -0.0450 -0.5088
12745TIP3    H138178   3.465   0.969   3.216 -0.6817 -0.8407  0.4523
12745TIP3    H238179   3.344   0.955   3.127  0.3594 -0.5775 -1.0422
12746TIP3   OH238180   1.847   5.841   0.268 -0.0483  0.0089  0.0490
12746TIP3    H138181   1.817   5.751   0.255  1.5626 -0.7723  1.5180
12746TIP3    H238182   1.885   5.866   0.184 -2.8986  0.3794 -1.2803
12747TIP3   OH238183   1.348   6.845   0.651  0.0105  0.2561  0.1271
12747TIP3    H138184   1.278   6.829   0.714  0.5408  0.7989  0.8763
12747TIP3    H238185   1.315   6.808   0.569 -0.2014 -1.5711  0.9724
12748TIP3   OH238186   2.736   2.306   1.900 -0.5558  0.0469 -0.3920
12748TIP3    H138187   2.757   2.376   1.962 -0.9863  1.3825 -1.6822
12748TIP3    H238188   2.789   2.325   1.823  1.6738 -2.8437  0.2586
12749TIP3   OH238189   6.572   2.925   2.601  0.4105  0.4380 -0.0524
12749TIP3    H138190   6.611   2.969   2.526 -0.1267 -1.2039 -1.3443
12749TIP3    H238191   6.581   2.989   2.673 -0.5159  2.7180 -1.8287
12750TIP3   OH238192   8.114   5.482   3.589 -0.1260 -0.0009 -0.0923
12750TIP3    H138193   8.174   5.468   3.516 -0.5824  2.3737 -1.0336
12750TIP3    H238194   8.039   5.426   3.571 -0.0371  0.2264 -1.2136
12751TIP3   OH238195   5.696   7.500   0.629 -0.1209 -0.6307 -0.3924
12751TIP3    H138196   5.619   7.557   0.631 -0.0564 -0.5229 -0.7965
12751TIP3    H238197   5.666   7.423   0.581  0.2527 -0.2285 -1.3070
12752TIP3   OH238198   0.504   1.570   4.438  0.2747  0.0768 -0.2963
12752TIP3    H138199   0.508   1.624   4.359 -0.5410  0.6642  0.0502
12752TIP3    H238200   0.417   1.530   4.435  1.0236 -1.6076 -0.7753
12753TIP3   OH238201   6.320   0.759   5.411  0.4756  0.0881 -0.3364
12753TIP3    H138202   6.269   0.688   5.451 -0.4002  0.4397 -0.7970
12753TIP3    H238203   6.346   0.814   5.485  0.9645 -0.5838  0.0002
12754TIP3   OH238204   1.066   5.004   4.819 -0.0999 -0.3307 -0.0970
12754TIP3    H138205   1.154   4.966   4.814  0.5847  1.2494 -0.8593
12754TIP3    H238206   1.024   4.958   4.891  1.3981 -1.0420  0.3668
12755TIP3   OH238207   6.314   6.792   3.844 -0.7021  0.1403 -0.3036
12755TIP3    H138208   6.383   6.856   3.826 -0.9449  0.4178 -0.2530
12755TIP3    H238209   6.320   6.777   3.938 -1.9733  1.6495  0.0674
12756TIP3   OH238210   7.433   3.358   4.211 -0.2084 -0.4288 -0.1599
12756TIP3    H138211   7.410   3.395   4.296 -2.1098 -3.2271  0.6538
12756TIP3    H238212   7.376   3.404   4.149  0.8208  1.2526  0.0534
12757TIP3   OH238213   5.836   6.189   5.783 -0.1670 -0.1164 -0.3223
12757TIP3    H138214   5.796   6.260   5.732 -0.1522 -0.8160 -1.3500
12757TIP3    H238215   5.788   6.189   5.866 -0.0086  1.2325 -0.1987
12758TIP3   OH238216   3.955   6.122   2.151 -0.5268  0.2652 -0.2120
12758TIP3    H138217   3.968   6.187   2.221  0.2754 -0.3106  0.1999
12758TIP3    H238218   3.861   6.119   2.138 -0.7743 -0.1264  1.3803
12759TIP3   OH238219   6.259   1.553   1.342 -0.0452 -0.0187  0.3138
12759TIP3    H138220   6.171   1.522   1.366 -0.3729 -0.4315 -1.2733
12759TIP3    H238221   6.280   1.618   1.408 -1.5640  0.1007  0.7311
12760TIP3   OH238222   6.540   2.804   1.411 -0.0797  0.6246  0.5677
12760TIP3    H138223   6.539   2.894   1.377  0.3032  0.5923  0.4694
12760TIP3    H238224   6.618   2.801   1.467  0.1741  0.2132  0.1965
12761TIP3   OH238225   7.354   5.110   3.854 -0.3144 -0.2387 -0.3468
12761TIP3    H138226   7.308   5.191   3.832  1.1890  0.4962 -0.9510
12761TIP3    H238227   7.373   5.118   3.947 -0.3040  0.0528 -0.3720
12762TIP3   OH238228   6.361   4.843   1.734  0.0827  0.5642  0.1666
12762TIP3    H138229   6.379   4.751   1.756  0.5689  0.6692  0.2184
12762TIP3    H238230   6.326   4.839   1.645 -0.7696  0.2478  0.5035
12763TIP3   OH238231   2.061   7.756   5.026  0.0076 -0.0590 -0.0732
12763TIP3    H138232   2.156   7.745   5.027 -0.2320 -2.7205 -0.6240
12763TIP3    H238233   2.026   7.669   5.045 -2.3188  0.0710 -3.0370
12764TIP3   OH238234   1.957   7.281   3.683  0.4775 -0.5816  0.3220
12764TIP3    H138235   1.946   7.278   3.778  1.4551 -1.2192  0.4339
12764TIP3    H238236   1.978   7.191   3.659 -0.4708 -0.5728 -0.6012
12765TIP3   OH238237   0.533   2.180   0.990 -0.2740  0.1729 -0.6165
12765TIP3    H138238   0.457   2.122   0.982 -0.5649  0.7385 -2.5111
12765TIP3    H238239   0.605   2.132   0.951  0.0345  0.1691 -0.0492
12766TIP3   OH238240   4.186   6.324   4.062 -0.3569 -0.0479 -0.0843
12766TIP3    H138241   4.245   6.389   4.100 -1.9086  0.7940  1.0279
12766TIP3    H238242   4.178   6.349   3.970  1.3790 -0.5067 -0.4004
12767TIP3   OH238243   1.086   3.643   3.648 -0.7609  0.3984  0.0789
12767TIP3    H138244   1.051   3.610   3.565  0.2699 -0.8945  0.1196
12767TIP3    H238245   1.137   3.720   3.624 -1.6650  0.9072 -0.2762
12768TIP3   OH238246   6.316   6.726   0.813 -0.2163  0.6338  0.5315
12768TIP3    H138247   6.221   6.742   0.812 -0.6383 -1.5599  0.5097
12768TIP3    H238248   6.331   6.677   0.894  0.5873 -0.5756 -0.3226
12769TIP3   OH238249   5.777   0.642   1.559 -0.0185  0.1044 -0.1148
12769TIP3    H138250   5.691   0.676   1.585 -0.1155 -0.5679  0.4960
12769TIP3    H238251   5.840   0.701   1.601 -0.1786  0.5561 -0.5034
12770TIP3   OH238252   3.395   4.982   0.014  0.3881  0.1279 -0.1263
12770TIP3    H138253   3.431   5.053   0.067 -2.0816  0.5925  1.1040
12770TIP3    H238254   3.412   5.009  -0.076  1.2807  1.2848  0.3588
12771TIP3   OH238255   1.327   3.402   4.327  0.4700 -0.0636  0.3904
12771TIP3    H138256   1.243   3.416   4.369 -0.3191 -1.0401 -0.7805
12771TIP3    H238257   1.387   3.462   4.371 -0.7115  0.2679  1.6025
12772TIP3   OH238258   3.837   7.122   1.524  0.1028  0.0486  0.1797
12772TIP3    H138259   3.886   7.092   1.600 -0.1038  0.3553  0.4357
12772TIP3    H238260   3.774   7.053   1.507 -0.2721  0.2665  0.6769
12773TIP3   OH238261   1.274   4.572   4.685  0.7824 -0.3046  0.1036
12773TIP3    H138262   1.207   4.617   4.736  2.0733  0.2656  1.3903
12773TIP3    H238263   1.263   4.604   4.596 -0.4239  0.0256  0.3645
12774TIP3   OH238264   6.833   1.631   2.562 -0.9213  0.1515 -0.3442
12774TIP3    H138265   6.803   1.593   2.480 -0.3458 -0.7640 -0.1423
12774TIP3    H238266   6.836   1.557   2.623  1.5329  0.1970 -0.3087
12775TIP3   OH238267   6.572   0.023   2.295  0.2031  0.3325 -0.2277
12775TIP3    H138268   6.667   0.029   2.303  0.1913 -1.1246  1.8665
12775TIP3    H238269   6.537   0.076   2.367 -0.6063  1.0037 -1.0796
12776TIP3   OH238270   2.740   0.309   2.437 -0.2347 -0.2952 -0.0305
12776TIP3    H138271   2.722   0.217   2.420  0.7843 -0.4777 -0.1606
12776TIP3    H238272   2.815   0.330   2.382 -1.1411  0.9221 -0.8550
12777TIP3   OH238273   6.850   5.221   0.682 -0.6548  0.0725 -0.0598
12777TIP3    H138274   6.830   5.194   0.593 -0.2344 -0.3331 -0.0389
12777TIP3    H238275   6.807   5.156   0.738 -1.7285  0.8757  0.0670
12778TIP3   OH238276   6.409   4.857   3.444 -0.0399  0.3240 -0.7340
12778TIP3    H138277   6.435   4.771   3.409 -0.7726 -0.0185 -0.4671
12778TIP3    H238278   6.388   4.840   3.536 -0.4876  0.7248 -0.7560
12779TIP3   OH238279   7.191   2.146   1.918  0.2776 -0.2800 -0.4397
12779TIP3    H138280   7.129   2.154   1.990  1.1063  0.3116  0.2344
12779TIP3    H238281   7.276   2.170   1.956  0.4585  2.0085 -2.0233
12780TIP3   OH238282   1.010   3.168   4.945 -0.4021  0.1498  0.0119
12780TIP3    H138283   0.983   3.210   5.026 -0.3922 -1.2144  0.7629
12780TIP3    H238284   0.940   3.105   4.926 -0.3441  0.3642 -0.9728
12781TIP3   OH238285   6.373   0.843   4.942 -0.2675  0.7856  0.3565
12781TIP3    H138286   6.420   0.894   5.008  0.7313  3.0357 -1.9257
12781TIP3    H238287   6.382   0.894   4.861 -0.3015 -2.4079 -1.8637
12782TIP3   OH238288   1.644   0.974   2.376  0.3254  0.0031  0.4158
12782TIP3    H138289   1.588   0.898   2.359  1.9023 -1.2466  0.5108
12782TIP3    H238290   1.725   0.955   2.328  0.1356  2.5138 -1.0815
12783TIP3   OH238291   4.639   0.658   5.412  0.2566  0.1552  0.0426
12783TIP3    H138292   4.725   0.618   5.430  0.3718  0.1566 -0.5087
12783TIP3    H238293   4.577   0.603   5.460  0.4108 -0.7006 -0.7174
12784TIP3   OH238294   8.155   4.014   6.219 -0.5733 -0.4529 -0.1227
12784TIP3    H138295   8.117   3.943   6.168 -1.1424 -0.2805  0.0485
12784TIP3    H238296   8.090   4.084   6.216 -0.9022 -0.6592  1.3313
12785TIP3   OH238297   2.803   5.897   3.802  0.1171  0.2906  0.6712
12785TIP3    H138298   2.805   5.816   3.852 -0.5196 -0.3180 -0.2737
12785TIP3    H238299   2.895   5.926   3.801  0.5091 -0.9250  0.1960
12786TIP3   OH238300   2.944   1.139   2.994 -0.6823 -0.1454 -0.0140
12786TIP3    H138301   2.910   1.068   2.940  0.8834 -1.3652  0.5331
12786TIP3    H238302   2.878   1.153   3.061 -0.0396 -2.7772  1.3214
12787TIP3   OH238303   6.839   5.484   1.040 -0.1674  0.3838  0.7528
12787TIP3    H138304   6.857   5.460   0.949 -1.1026 -0.4719  0.7664
12787TIP3    H238305   6.789   5.565   1.034 -1.9171 -0.6793  0.3740
12788TIP3   OH238306   6.465   7.499   1.599  0.2771  0.1211 -0.1289
12788TIP3    H138307   6.419   7.453   1.528  0.6709 -0.5494  0.0437
12788TIP3    H238308   6.520   7.432   1.639 -1.5404 -0.1044  2.2325
12789TIP3   OH238309   2.840   1.424   6.530  0.0818 -0.0631 -0.2069
12789TIP3    H138310   2.928   1.420   6.569 -0.6957  0.5129  1.7405
12789TIP3    H238311   2.816   1.516   6.537 -1.0424 -0.3751  0.1642
12790TIP3   OH238312   5.727   2.569   5.741  0.4927 -0.7185  0.6246
12790TIP3    H138313   5.755   2.591   5.652  1.4063 -0.5263  0.9416
12790TIP3    H238314   5.809   2.559   5.790  0.0039 -0.7215  1.4709
12791TIP3   OH238315   1.653   0.813   3.722  0.2954 -0.4380 -0.4348
12791TIP3    H138316   1.629   0.801   3.814 -1.4791 -2.6509 -1.1055
12791TIP3    H238317   1.711   0.889   3.722  2.4583 -1.8913  2.8174
12792TIP3   OH238318   7.119   6.649   1.928 -0.4375 -0.2450  0.3211
12792TIP3    H138319   7.109   6.555   1.943 -0.9876  0.0490  2.0774
12792TIP3    H238320   7.213   6.664   1.936 -0.4883 -0.4513  1.4873
12793TIP3   OH238321   4.969   2.693   2.808 -0.4123 -0.0089 -0.2554
12793TIP3    H138322   5.031   2.726   2.742 -0.0064  0.7179  0.4659
12793TIP3    H238323   5.000   2.605   2.827  0.1354  0.1835 -0.2344
12794TIP3   OH238324   2.807   3.138   6.613 -0.1053 -0.0033 -0.1452
12794TIP3    H138325   2.759   3.165   6.534  1.4732 -0.9589 -1.4936
12794TIP3    H238326   2.766   3.055   6.638 -0.7219  0.3863  0.1644
12795TIP3   OH238327   2.592   0.340   1.345 -0.4561 -0.1605 -0.0900
12795TIP3    H138328   2.646   0.269   1.307 -1.8563 -0.9024 -0.7677
12795TIP3    H238329   2.545   0.299   1.417  0.6261  0.7483  1.1805
12796TIP3   OH238330   1.032   2.812   3.263  0.3471 -1.0843  0.1107
12796TIP3    H138331   1.068   2.901   3.259  0.4853 -1.1573 -0.2836
12796TIP3    H238332   0.937   2.825   3.258  0.3477 -0.9352  0.4572
12797TIP3   OH238333   3.399   1.369   1.993  0.2408  0.7439  0.0072
12797TIP3    H138334   3.491   1.372   2.018  0.4867  1.0640 -0.8946
12797TIP3    H238335   3.382   1.277   1.974 -0.3737  0.2020  2.7744
12798TIP3   OH238336   6.460   6.462   2.276 -0.5321 -0.8082  0.1735
12798TIP3    H138337   6.403   6.462   2.353  0.0827  0.8086  0.6715
12798TIP3    H238338   6.524   6.393   2.294 -0.2909 -0.3328  1.1937
12799TIP3   OH238339   0.802   5.841   6.662  0.1587 -0.7873 -0.4253
12799TIP3    H138340   0.777   5.787   6.738  1.0764 -0.3049  0.2410
12799TIP3    H238341   0.807   5.930   6.697 -1.0134 -0.2893 -1.4399
12800TIP3   OH238342   7.369   5.091   6.657 -0.6131  0.3862  0.3618
12800TIP3    H138343   7.312   5.125   6.726 -0.6399  0.2396  0.4124
12800TIP3    H238344   7.428   5.164   6.636 -1.8716  1.0873 -0.8496
12801TIP3   OH238345   7.131   2.184   2.472 -0.5936  0.0002 -0.0843
12801TIP3    H138346   7.183   2.262   2.491 -0.9007  0.6505 -1.7346
12801TIP3    H238347   7.051   2.196   2.524 -0.5822  0.7342 -0.2164
12802TIP3   OH238348   1.801   2.764   4.405  0.0753 -0.5674 -0.0632
12802TIP3    H138349   1.897   2.759   4.408  0.0728 -0.2956  0.8088
12802TIP3    H238350   1.779   2.758   4.312  1.0036  0.4458 -0.3612
12803TIP3   OH238351   5.506   7.109   6.307 -0.3256 -0.1841 -0.0222
12803TIP3    H138352   5.505   7.119   6.403  1.0442 -0.6656  0.0631
12803TIP3    H238353   5.583   7.158   6.279 -0.5358 -0.3143 -0.8575
12804TIP3   OH238354   6.561   6.925   2.260  0.3137  0.0298 -0.0900
12804TIP3    H138355   6.560   6.888   2.172 -1.0196  0.8494 -0.4481
12804TIP3    H238356   6.651   6.912   2.290  0.4575 -1.4378 -1.0504
12805TIP3   OH238357   7.405   7.403   2.419  0.3502 -0.2143 -0.0092
12805TIP3    H138358   7.443   7.462   2.483  2.3483 -0.4083 -0.9350
12805TIP3    H238359   7.415   7.316   2.457  0.6018 -0.2369 -0.1202
12806TIP3   OH238360   6.070   6.021   4.784 -0.0856  0.5469  0.0350
12806TIP3    H138361   6.155   6.066   4.779  0.6871 -0.9065 -0.6237
12806TIP3    H238362   6.005   6.091   4.779  0.9714  1.5273 -3.9981
12807TIP3   OH238363   1.640   7.624   1.055  0.1575  0.5442 -0.0098
12807TIP3    H138364   1.691   7.564   0.999 -0.6675 -0.2310  0.0432
12807TIP3    H238365   1.703   7.654   1.121  0.4965 -0.6044  0.2149
12808TIP3   OH238366   3.039   1.337   0.280 -0.2004  0.2902  0.0947
12808TIP3    H138367   3.123   1.297   0.302  0.6009  0.9783 -1.5077
12808TIP3    H238368   3.035   1.416   0.333  0.0717  0.1415  0.3372
12809TIP3   OH238369   7.094   4.776   6.616  0.2457 -0.4635 -0.0127
12809TIP3    H138370   7.124   4.799   6.704  2.7371 -2.2783 -0.2401
12809TIP3    H238371   7.140   4.836   6.558 -0.1916 -0.2617 -0.1520
12810TIP3   OH238372   3.626   1.950   2.975  0.1034  0.3293  0.0315
12810TIP3    H138373   3.579   1.982   2.898  0.0580  0.5140  0.1344
12810TIP3    H238374   3.590   1.863   2.991  0.5510  0.0361 -0.5242
12811TIP3   OH238375   7.382   5.124   1.309 -0.0886 -0.6179 -0.0855
12811TIP3    H138376   7.388   5.038   1.350  0.3640 -1.1362 -1.2007
12811TIP3    H238377   7.456   5.126   1.247  0.2614  0.7938  0.3407
12812TIP3   OH238378   5.012   0.517   3.036  0.1895 -0.0328  0.3675
12812TIP3    H138379   5.001   0.536   3.129 -1.8866  0.4549  0.0803
12812TIP3    H238380   4.953   0.578   2.992  0.2150 -1.0627 -1.1914
12813TIP3   OH238381   1.408   6.464   2.414  0.2962 -0.6212 -0.8594
12813TIP3    H138382   1.484   6.406   2.408  0.4790 -0.3967 -0.7248
12813TIP3    H238383   1.444   6.552   2.405  0.0748 -0.5024 -0.6183
12814TIP3   OH238384   5.453   6.782   3.003  0.1216  0.6097 -0.2822
12814TIP3    H138385   5.530   6.767   3.057  0.9264 -0.1389 -1.5995
12814TIP3    H238386   5.484   6.839   2.932 -0.9426  1.6775  0.0589
12815TIP3   OH238387   7.456   6.951   4.653 -0.2902  0.2116 -0.3821
12815TIP3    H138388   7.361   6.940   4.659 -0.1562 -0.6020  0.3339
12815TIP3    H238389   7.490   6.911   4.733  0.7531 -0.6324 -1.2331
12816TIP3   OH238390   6.946   4.266   2.089 -0.0930  0.4253  0.1770
12816TIP3    H138391   6.960   4.343   2.034 -1.3534  1.7338  1.5828
12816TIP3    H238392   6.851   4.256   2.093  0.0435 -1.1334  0.1591
12817TIP3   OH238393   5.328   6.534   3.877 -0.5750  0.2946  0.1645
12817TIP3    H138394   5.386   6.475   3.829 -0.9374  0.4910 -0.5197
12817TIP3    H238395   5.385   6.605   3.906 -0.2559 -0.0798  0.4695
12818TIP3   OH238396   8.105   6.700   2.415  0.3627 -0.1017  0.1495
12818TIP3    H138397   8.100   6.628   2.353  2.6334  0.1812 -0.4522
12818TIP3    H238398   8.062   6.773   2.371  3.3853  0.5911 -1.9599
12819TIP3   OH238399   7.049   7.013   5.203 -0.3602  0.2712 -0.3483
12819TIP3    H138400   7.003   7.094   5.179 -1.2124 -0.3606 -0.9428
12819TIP3    H238401   6.997   6.943   5.161  1.3791 -0.4583 -1.3783
12820TIP3   OH238402   4.327   3.806   3.265  0.4112 -0.0571  0.2269
12820TIP3    H138403   4.350   3.765   3.348 -0.5456 -2.6103 -0.6599
12820TIP3    H238404   4.411   3.828   3.225  0.9093  0.2148  1.3876
12821TIP3   OH238405   2.267   7.154   5.795  0.8924 -0.1422 -0.4087
12821TIP3    H138406   2.191   7.205   5.823  0.7236  0.2303 -1.5077
12821TIP3    H238407   2.269   7.079   5.855 -0.0655  0.0866 -0.0757
12822TIP3   OH238408   0.510   7.560   4.396  0.2365  0.3497 -0.1951
12822TIP3    H138409   0.438   7.497   4.387  1.1385 -0.6649 -0.5755
12822TIP3    H238410   0.494   7.624   4.327 -1.0264  0.9017  0.5709
12823TIP3   OH238411   3.538   3.174   1.573  0.1108  0.0449  0.3886
12823TIP3    H138412   3.554   3.255   1.526 -0.6271 -0.0014  0.0533
12823TIP3    H238413   3.556   3.195   1.665  1.1519  0.2429  0.1452
12824TIP3   OH238414   7.958   3.055   4.332 -0.5112 -0.3145 -0.5570
12824TIP3    H138415   7.962   3.112   4.254 -1.5891  0.7055  0.0917
12824TIP3    H238416   7.983   3.113   4.404  0.7059 -1.3158 -0.1493
12825TIP3   OH238417   4.936   3.496   6.644  0.0977 -0.5238  0.2507
12825TIP3    H138418   4.976   3.548   6.574 -0.5509 -0.0266  0.2435
12825TIP3    H238419   4.848   3.531   6.652  0.3347 -0.1874  1.7017
12826TIP3   OH238420   2.152   1.558   5.658 -0.4813  0.2958  0.3749
12826TIP3    H138421   2.075   1.539   5.711  0.1469 -0.3922  1.0577
12826TIP3    H238422   2.140   1.649   5.631 -1.3612  0.3019  0.7555
12827TIP3   OH238423   7.024   1.695   1.367 -0.7223  0.1156  0.0624
12827TIP3    H138424   7.056   1.720   1.281 -2.1356  0.4942 -0.3767
12827TIP3    H238425   7.095   1.643   1.405  0.3704  0.8916 -0.8671
12828TIP3   OH238426   6.066   0.430   1.002 -0.7101  0.0039  0.5386
12828TIP3    H138427   6.085   0.377   0.925  1.3014 -0.0296  0.9978
12828TIP3    H238428   5.987   0.391   1.039 -0.3804 -1.4469 -0.2183
12829TIP3   OH238429   4.586   1.183   6.717 -0.3082 -0.4004 -0.1790
12829TIP3    H138430   4.661   1.242   6.724  0.0485 -0.7748 -0.7608
12829TIP3    H238431   4.620   1.098   6.747 -1.0173 -0.1685  1.3761
12830TIP3   OH238432   6.613   0.597   3.587  0.1641 -0.3305 -0.0254
12830TIP3    H138433   6.636   0.605   3.680  1.5028 -0.3221 -0.3454
12830TIP3    H238434   6.612   0.688   3.555 -0.6455 -0.3038  0.0434
12831TIP3   OH238435   6.259   5.301   1.068  0.3518  0.1958 -0.1023
12831TIP3    H138436   6.352   5.306   1.043  0.1578  0.8726 -0.7406
12831TIP3    H238437   6.217   5.255   0.996  0.1833 -0.1105  0.1867
12832TIP3   OH238438   4.318   7.349   4.542 -0.3471  0.5322  0.4815
12832TIP3    H138439   4.268   7.293   4.483 -0.6494 -0.0551  1.2824
12832TIP3    H238440   4.405   7.308   4.546 -0.0910  1.0045 -0.1486
12833TIP3   OH238441   7.382   7.205   5.065  0.6280  0.3053 -0.4139
12833TIP3    H138442   7.327   7.243   5.134  1.4024  0.5169  0.0983
12833TIP3    H238443   7.360   7.112   5.066  0.3614  0.3679 -0.1394
12834TIP3   OH238444   6.480   3.245   5.378 -0.5796  0.5589 -0.4978
12834TIP3    H138445   6.515   3.257   5.290 -2.5534  0.1062 -1.3911
12834TIP3    H238446   6.491   3.151   5.395  0.6177  0.7927  0.1398
12835TIP3   OH238447   4.600   7.014   3.288 -0.1203 -0.0049  0.3892
12835TIP3    H138448   4.543   7.063   3.348 -0.5199  1.0690 -0.8335
12835TIP3    H238449   4.654   6.959   3.346  0.8072  2.3436  1.8851
12836TIP3   OH238450   6.002   4.061   4.857 -0.6330  0.4142 -0.0996
12836TIP3    H138451   6.031   3.978   4.895 -1.4332  0.4013  0.5080
12836TIP3    H238452   5.965   4.109   4.931  0.3260  1.5487 -0.3406
12837TIP3   OH238453   1.704   5.491   5.901 -0.1888  0.1432 -0.0276
12837TIP3    H138454   1.704   5.396   5.912  0.6610 -0.1056 -1.7745
12837TIP3    H238455   1.614   5.517   5.921 -0.8603 -1.2505 -1.0521
12838TIP3   OH238456   4.073   3.101   2.731  0.0176  0.5036 -0.5608
12838TIP3    H138457   4.071   3.160   2.806 -1.4184  1.5854 -1.4024
12838TIP3    H238458   3.985   3.064   2.727  0.3397 -0.2423 -1.1937
12839TIP3   OH238459   3.522   6.646   6.141  0.5825 -0.4184  0.0708
12839TIP3    H138460   3.562   6.703   6.207  1.0691 -0.3666 -0.2622
12839TIP3    H238461   3.449   6.604   6.187 -0.7196  1.5785 -0.0741
12840TIP3   OH238462   0.148   6.298   1.672 -0.4558  0.4283  0.1465
12840TIP3    H138463   0.199   6.379   1.677 -0.0974  0.1615  1.0125
12840TIP3    H238464   0.108   6.289   1.758  1.5596 -1.6100  0.9746
12841TIP3   OH238465   2.490   2.373   5.426  0.3163 -0.1487  0.0455
12841TIP3    H138466   2.486   2.316   5.503  1.1101 -1.0774 -0.5709
12841TIP3    H238467   2.566   2.341   5.377 -0.3461  0.2372 -1.2736
12842TIP3   OH238468   1.250   6.395   5.785  0.0036  0.4599 -0.1205
12842TIP3    H138469   1.223   6.332   5.717 -2.1939  0.4816  0.6309
12842TIP3    H238470   1.326   6.354   5.826 -0.7326 -1.2435 -0.3337
12843TIP3   OH238471   3.122   7.354   4.992  0.3568  0.5272 -0.5765
12843TIP3    H138472   3.049   7.332   4.934 -0.9900 -0.4006  1.3582
12843TIP3    H238473   3.115   7.292   5.064  0.9654  2.6007  1.3952
12844TIP3   OH238474   2.259   3.456   0.779 -0.1935  0.2153  0.2814
12844TIP3    H138475   2.286   3.548   0.784  2.5780 -0.5219  0.3832
12844TIP3    H238476   2.251   3.438   0.686  1.9304 -0.0642  0.0975
12845TIP3   OH238477   2.725   7.812   2.654 -0.3463 -0.1483  0.0092
12845TIP3    H138478   2.650   7.854   2.697  0.6568  0.8360  0.8880
12845TIP3    H238479   2.732   7.727   2.697 -1.3547 -0.5404 -0.5630
12846TIP3   OH238480   4.756   0.463   5.143  0.0452 -0.5345  0.3546
12846TIP3    H138481   4.716   0.497   5.223 -1.7907 -1.9539  0.1139
12846TIP3    H238482   4.779   0.373   5.163 -0.0177 -0.7701 -0.5771
12847TIP3   OH238483   2.869   2.435   6.390  0.1928  0.0510 -0.1163
12847TIP3    H138484   2.798   2.405   6.446  0.7570  0.5309  0.8823
12847TIP3    H238485   2.865   2.377   6.313  0.5187 -1.8239  1.2048
12848TIP3   OH238486   6.463   1.468   2.490 -0.1152 -0.0824  0.4949
12848TIP3    H138487   6.539   1.489   2.436 -1.4913  1.6484 -0.9056
12848TIP3    H238488   6.396   1.441   2.427 -1.3958  0.8283  1.4237
12849TIP3   OH238489   2.656   7.570   3.943 -0.2131  0.4944  0.0205
12849TIP3    H138490   2.728   7.631   3.926  0.7943 -0.6621 -0.0248
12849TIP3    H238491   2.691   7.508   4.007 -1.6620  0.7303  1.0957
12850TIP3   OH238492   4.954   7.063   3.039  0.5176 -0.8294  0.2538
12850TIP3    H138493   5.012   7.026   3.105  0.9604 -1.1884 -0.3204
12850TIP3    H238494   4.933   6.990   2.982  1.5781 -0.1903 -1.0213
12851TIP3   OH238495   6.263   2.151   5.505  0.6864  0.2899 -0.2412
12851TIP3    H138496   6.231   2.173   5.417  1.4544 -0.6229 -0.7698
12851TIP3    H238497   6.243   2.058   5.515 -2.7797  1.0814  2.0550
12852TIP3   OH238498   4.296   2.730   1.479  0.2139 -0.4953  0.2084
12852TIP3    H138499   4.305   2.668   1.406  2.1655  1.2567 -1.1502
12852TIP3    H238500   4.215   2.778   1.460  0.3208 -0.5537 -0.4134
12853TIP3   OH238501   4.420   1.525   2.024 -0.0729  0.2581  0.3007
12853TIP3    H138502   4.408   1.462   1.953 -1.0090  0.0644  0.6230
12853TIP3    H238503   4.417   1.610   1.981  1.2510  0.1133 -0.1452
12854TIP3   OH238504   4.375   4.778   3.419  0.0070  0.0273  0.5402
12854TIP3    H138505   4.426   4.706   3.455  1.1531  0.8546  0.6054
12854TIP3    H238506   4.382   4.767   3.324 -1.1180 -0.8153  0.5189
12855TIP3   OH238507   1.763   0.995   5.877  0.1110  0.3672  0.2681
12855TIP3    H138508   1.743   1.035   5.961 -0.0950 -0.7630  0.7747
12855TIP3    H238509   1.790   0.906   5.898  0.3812  0.1637 -0.8411
12856TIP3   OH238510   6.436   3.191   3.091  0.4672 -0.4230  0.3580
12856TIP3    H138511   6.443   3.284   3.069  1.4314 -0.5779 -0.0554
12856TIP3    H238512   6.470   3.146   3.014 -1.3756 -1.1885 -0.0568
12857TIP3   OH238513   2.713   7.381   2.092  0.4150  0.3897  0.7353
12857TIP3    H138514   2.711   7.318   2.164  2.1876  0.8104  1.1939
12857TIP3    H238515   2.673   7.460   2.129  0.4310  0.3034  0.9398
12858TIP3   OH238516   1.486   0.167   4.211 -0.1692 -0.0752 -0.3200
12858TIP3    H138517   1.442   0.172   4.126  0.9571  0.7867 -0.8731
12858TIP3    H238518   1.439   0.230   4.266 -0.2303  0.1552 -0.6300
12859TIP3   OH238519   8.016   0.359   2.406  0.2485  0.4241  0.0462
12859TIP3    H138520   8.000   0.295   2.336  0.2746  3.0432 -2.5318
12859TIP3    H238521   8.110   0.372   2.406  0.2403  0.5141  0.5237
12860TIP3   OH238522   6.793   6.417   6.048 -0.4669  0.1008 -0.5604
12860TIP3    H138523   6.873   6.401   6.097  1.1802 -1.8751 -3.5311
12860TIP3    H238524   6.724   6.374   6.099  0.5170  0.7950  1.4536
12861TIP3   OH238525   2.631   5.726   6.739  0.0685 -0.0752  0.2573
12861TIP3    H138526   2.719   5.758   6.760 -0.3743  0.2884  1.6692
12861TIP3    H238527   2.646   5.650   6.683  1.2599  0.3467 -0.0291
12862TIP3   OH238528   2.546   5.883   3.661 -0.6960  0.2657 -0.8799
12862TIP3    H138529   2.571   5.951   3.723  0.1088  0.3703 -1.3119
12862TIP3    H238530   2.602   5.808   3.683  0.7117  0.8139 -2.4562
12863TIP3   OH238531   5.491   3.782   5.386 -0.0196 -0.0204 -0.3454
12863TIP3    H138532   5.515   3.771   5.293 -1.4247  1.2228 -0.8882
12863TIP3    H238533   5.551   3.849   5.418 -1.2761  1.5188 -1.1167
12864TIP3   OH238534   6.280   2.551   4.979 -0.2908 -0.0341  0.1777
12864TIP3    H138535   6.237   2.626   5.021  1.2004  0.8663  0.1695
12864TIP3    H238536   6.212   2.484   4.974 -1.0245  0.4730  2.3674
12865TIP3   OH238537   6.682   4.781   0.730  0.6632  0.3682 -0.3436
12865TIP3    H138538   6.769   4.746   0.711  0.7062 -0.8431  1.8383
12865TIP3    H238539   6.623   4.725   0.679  0.7560 -2.9315  2.7836
12866TIP3   OH238540   8.219   7.101   1.868 -0.2401  0.4917  0.7473
12866TIP3    H138541   8.192   7.108   1.959  0.5451  1.2270  0.9306
12866TIP3    H238542   8.137   7.101   1.819 -0.7503 -1.3107  1.5099
12867TIP3   OH238543   8.008   2.622   1.523 -0.2256 -0.4484  0.1929
12867TIP3    H138544   8.013   2.535   1.484 -1.3372 -0.4675  0.0429
12867TIP3    H238545   8.096   2.640   1.554  0.4932 -0.7873 -1.5673
12868TIP3   OH238546   7.170   1.621   5.075  0.0346 -0.1565 -0.0654
12868TIP3    H138547   7.105   1.689   5.056 -0.0624 -0.3875 -0.5892
12868TIP3    H238548   7.250   1.654   5.035 -0.2883 -0.8773 -1.3899
12869TIP3   OH238549   6.739   0.251   4.042  0.2925 -0.4091  0.3441
12869TIP3    H138550   6.784   0.171   4.017 -0.1434 -0.6143  0.2148
12869TIP3    H238551   6.804   0.300   4.092  0.6727 -0.6828  0.1225
12870TIP3   OH238552   0.894   4.203   6.351 -0.1552 -0.0300 -0.2553
12870TIP3    H138553   0.865   4.292   6.369 -1.1045 -0.1753 -0.9491
12870TIP3    H238554   0.964   4.212   6.287  0.8731  0.2936  0.8978
12871TIP3   OH238555   7.493   6.004   5.689  0.5840 -0.0013  0.0876
12871TIP3    H138556   7.475   6.018   5.783 -0.4050 -0.2795 -0.0509
12871TIP3    H238557   7.585   5.977   5.686  0.7131  0.3107  0.9506
12872TIP3   OH238558   0.688   1.741   1.013  0.8041  0.1325  0.1188
12872TIP3    H138559   0.774   1.715   1.045 -0.1244 -1.8845  1.1189
12872TIP3    H238560   0.635   1.662   1.017 -1.6210  1.6865  1.2847
12873TIP3   OH238561   1.832   0.724   5.908  0.1278 -0.1494  0.1242
12873TIP3    H138562   1.781   0.652   5.945 -1.0523 -0.6190 -2.2444
12873TIP3    H238563   1.905   0.682   5.863 -0.3025  0.1287 -0.8671
12874TIP3   OH238564   0.469   7.581   4.104  0.1106  0.0043 -0.0324
12874TIP3    H138565   0.517   7.508   4.142 -0.3392  0.4746  1.4965
12874TIP3    H238566   0.474   7.566   4.009  2.6120 -0.3513  0.0884
12875TIP3   OH238567   4.020   5.111   3.017  0.3130  0.1306 -0.3909
12875TIP3    H138568   3.955   5.177   2.994 -0.1235 -0.0650  0.2273
12875TIP3    H238569   4.102   5.160   3.028  0.0123  0.5599 -0.0162
12876TIP3   OH238570   0.109   1.859   3.953  0.5898 -0.2292 -0.0537
12876TIP3    H138571   0.105   1.765   3.935  1.6520 -0.4982  1.0364
12876TIP3    H238572   0.043   1.874   4.021  0.8812 -0.3053  0.2465
12877TIP3   OH238573   0.153   5.726   2.201  0.2148 -0.7238 -0.1520
12877TIP3    H138574   0.126   5.772   2.280 -2.9215 -1.8520 -0.4251
12877TIP3    H238575   0.110   5.774   2.130  0.7207 -1.3586 -0.8964
12878TIP3   OH238576   0.597   1.099   2.260  0.2481 -0.2628 -0.4309
12878TIP3    H138577   0.536   1.077   2.330 -0.3680 -0.2084 -0.9400
12878TIP3    H238578   0.656   1.165   2.299  1.3994 -1.9069  0.7459
12879TIP3   OH238579   1.076   2.475   0.155  0.1789 -0.4861  0.4049
12879TIP3    H138580   1.147   2.451   0.214  0.6918  0.4153  0.1761
12879TIP3    H238581   1.104   2.558   0.116 -1.4224  0.4104  1.0478
12880TIP3   OH238582   5.067   3.364   0.927  0.6169  0.4623  0.1384
12880TIP3    H138583   5.079   3.364   0.832 -0.0994  1.3129  0.0344
12880TIP3    H238584   5.150   3.330   0.962  0.7021 -0.3382 -0.7977
12881TIP3   OH238585   2.142   0.639   5.425  0.2156 -0.5930  0.2162
12881TIP3    H138586   2.188   0.678   5.350 -0.2906  0.2932  0.3537
12881TIP3    H238587   2.168   0.694   5.499 -0.9275 -0.1820  0.3233
12882TIP3   OH238588   0.425   0.432   3.785  0.0277 -0.1426  0.0461
12882TIP3    H138589   0.462   0.389   3.862 -0.5487  0.5650  0.7425
12882TIP3    H238590   0.500   0.467   3.738  0.4247 -1.0361  0.0020
12883TIP3   OH238591   3.321   6.635   3.971 -0.5582 -0.2614 -0.9980
12883TIP3    H138592   3.358   6.594   4.049  2.0162  0.0471 -1.9627
12883TIP3    H238593   3.276   6.713   4.004 -0.4431 -0.7069  0.2752
12884TIP3   OH238594   2.938   7.600   4.786 -0.3071 -0.2523  0.4592
12884TIP3    H138595   2.943   7.509   4.816  1.1138 -0.2356  0.3650
12884TIP3    H238596   3.028   7.632   4.795 -0.6758  0.9634 -0.0759
12885TIP3   OH238597   0.492   5.172   3.071  0.1407  0.3018  0.2069
12885TIP3    H138598   0.429   5.113   3.111 -0.8242 -0.3390 -2.0974
12885TIP3    H238599   0.439   5.235   3.022  1.1771 -0.3419 -1.9020
12886TIP3   OH238600   5.050   5.310   6.173  0.5776 -0.5466 -0.1242
12886TIP3    H138601   5.136   5.348   6.191 -0.1508  0.3211  1.7534
12886TIP3    H238602   5.024   5.270   6.256 -0.8806 -0.7003 -0.6341
12887TIP3   OH238603   8.129   1.148   0.180  0.7329  0.4176  0.2638
12887TIP3    H138604   8.204   1.089   0.176  1.4482  1.2311  1.2180
12887TIP3    H238605   8.133   1.197   0.098  2.0375  1.3489  0.8388
12888TIP3   OH238606   1.812   5.581   5.344  0.2072 -0.0905  0.3568
12888TIP3    H138607   1.804   5.624   5.259  0.8331 -1.0171 -0.1951
12888TIP3    H238608   1.878   5.513   5.330 -0.1652 -0.6926  1.4089
12889TIP3   OH238609   2.259   1.535   2.001 -0.7922  0.4559 -0.2463
12889TIP3    H138610   2.246   1.514   1.908 -0.2362 -1.1902  0.0164
12889TIP3    H238611   2.211   1.466   2.047  0.5871  0.0920  0.6814
12890TIP3   OH238612   1.779   6.552   6.344  0.2694 -0.4607 -0.1383
12890TIP3    H138613   1.844   6.612   6.379 -0.6674  0.6105 -0.2005
12890TIP3    H238614   1.715   6.543   6.415 -0.5172  0.0258 -0.7812
12891TIP3   OH238615   1.165   0.750   2.236 -0.1810  0.2399 -0.0789
12891TIP3    H138616   1.118   0.833   2.233 -0.3314  0.1764  0.3678
12891TIP3    H238617   1.204   0.741   2.149 -1.5860 -0.0434 -0.7131
12892TIP3   OH238618   8.102   5.444   4.114 -0.2818  0.4172 -0.3286
12892TIP3    H138619   8.177   5.502   4.125 -1.4125  1.9370 -0.3038
12892TIP3    H238620   8.085   5.443   4.020  1.3928 -2.1453 -0.7113
12893TIP3   OH238621   1.045   1.752   5.220  0.2666  0.0297 -0.2657
12893TIP3    H138622   1.139   1.766   5.211  0.2368  0.2762 -0.2100
12893TIP3    H238623   1.005   1.830   5.181  0.0620 -0.4768 -1.0798
12894TIP3   OH238624   3.381   7.233   0.407 -0.3549 -0.0201 -0.3517
12894TIP3    H138625   3.302   7.179   0.413 -0.1441 -0.3180 -0.2127
12894TIP3    H238626   3.403   7.254   0.498  0.7130 -1.4039 -0.2494
12895TIP3   OH238627   2.965   0.679   4.263 -0.1582 -0.3281  0.2772
12895TIP3    H138628   3.024   0.626   4.209  0.7606 -0.4490  1.3546
12895TIP3    H238629   2.909   0.614   4.306 -0.5595 -0.2651 -0.1480
12896TIP3   OH238630   5.132   5.318   0.770 -0.2350  0.0492  0.6199
12896TIP3    H138631   5.227   5.303   0.771 -0.1286  0.6423  0.0339
12896TIP3    H238632   5.118   5.376   0.695 -1.3241 -1.7065 -0.6087
12897TIP3   OH238633   6.412   0.111   0.387  0.6474 -0.1160  0.0156
12897TIP3    H138634   6.432   0.018   0.371 -0.9433 -0.2422 -1.5133
12897TIP3    H238635   6.492   0.157   0.365  1.0085 -1.0144 -0.5950
12898TIP3   OH238636   3.944   2.738   3.649  0.5700 -1.1447 -0.2022
12898TIP3    H138637   3.984   2.698   3.726  1.5008  0.1274 -0.0122
12898TIP3    H238638   3.999   2.710   3.576  0.1437 -1.6965 -0.3264
12899TIP3   OH238639   5.345   3.314   0.968  0.5352 -0.2686 -0.1237
12899TIP3    H138640   5.368   3.232   1.011  0.5564 -0.0093  0.3725
12899TIP3    H238641   5.404   3.320   0.893  2.0756  0.3536  1.0820
12900TIP3   OH238642   0.909   7.639   6.029 -0.1571 -0.0823 -0.1803
12900TIP3    H138643   0.909   7.543   6.020  3.2329 -0.0717 -1.7514
12900TIP3    H238644   0.969   7.655   6.102 -1.2568  0.8809  0.5412
12901TIP3   OH238645   1.641   5.763   0.441 -0.2194  0.3756 -0.2817
12901TIP3    H138646   1.668   5.823   0.372  1.3285  1.3363  1.0836
12901TIP3    H238647   1.569   5.712   0.402  0.4215  1.0350 -2.4833
12902TIP3   OH238648   1.925   4.519   3.051  0.1743 -0.2427  0.1608
12902TIP3    H138649   1.871   4.565   2.987  1.1433  2.0594  0.8894
12902TIP3    H238650   2.015   4.535   3.023  0.5882 -0.0246  1.5147
12903TIP3   OH238651   1.382   3.692   2.388  0.2599  0.3935 -0.8985
12903TIP3    H138652   1.429   3.713   2.469 -0.9845  0.5330 -0.1836
12903TIP3    H238653   1.422   3.610   2.358  0.1194 -0.1672  0.3738
12904TIP3   OH238654   7.575   6.532   0.218 -0.0857 -0.4297 -0.7638
12904TIP3    H138655   7.502   6.470   0.225  0.2114 -0.6510  0.5274
12904TIP3    H238656   7.652   6.476   0.205  0.1424 -0.3233  0.1097
12905TIP3   OH238657   2.001   0.151   4.827  0.0623  0.0272  0.4343
12905TIP3    H138658   1.946   0.146   4.749 -1.7158 -0.2648  1.6179
12905TIP3    H238659   1.938   0.150   4.900  1.6215  0.6280  1.8635
12906TIP3   OH238660   1.888   6.765   5.828  0.2860  0.2399  0.2189
12906TIP3    H138661   1.950   6.833   5.805 -0.4836  1.0845  0.5996
12906TIP3    H238662   1.943   6.689   5.850  1.1188  0.3569 -1.3055
12907TIP3   OH238663   4.845   6.356   6.288  0.1494 -0.3859 -0.2272
12907TIP3    H138664   4.875   6.376   6.376 -1.1704  0.5380  0.0406
12907TIP3    H238665   4.924   6.329   6.241  1.0296  0.0290  0.9693
12908TIP3   OH238666   4.006   3.108   3.515  0.3400 -0.1428 -0.6875
12908TIP3    H138667   4.009   3.198   3.547  1.0667 -0.3661 -0.0833
12908TIP3    H238668   4.052   3.110   3.431  1.3719 -0.1342 -0.1489
12909TIP3   OH238669   3.629   6.214   5.115 -0.0936  0.0051 -0.3492
12909TIP3    H138670   3.565   6.271   5.072  1.0324  1.2123 -0.5086
12909TIP3    H238671   3.577   6.154   5.168 -1.3625  0.7002 -0.7693
12910TIP3   OH238672   0.657   5.895   3.980  0.3710 -0.1474  0.5948
12910TIP3    H138673   0.719   5.823   3.995 -0.2218 -0.6922  0.4430
12910TIP3    H238674   0.587   5.880   4.043  1.5905  1.9214  2.6089
12911TIP3   OH238675   1.015   1.559   1.949  0.0694 -0.0689  0.0046
12911TIP3    H138676   1.097   1.548   1.997 -0.6182  0.0342  1.2663
12911TIP3    H238677   1.011   1.653   1.930  1.0651 -0.3363 -1.6354
12912TIP3   OH238678   4.503   3.612   2.619  0.0888 -0.3173 -0.3533
12912TIP3    H138679   4.554   3.582   2.694 -0.4959  0.0762  0.2162
12912TIP3    H238680   4.456   3.534   2.589  0.5405 -0.5387 -0.4886
12913TIP3   OH238681   5.803   3.433   0.831 -0.3404 -0.5914  0.3076
12913TIP3    H138682   5.865   3.483   0.884 -0.3259 -0.0280 -0.2362
12913TIP3    H238683   5.848   3.420   0.747 -1.4734  1.0549 -0.6150
12914TIP3   OH238684   1.965   4.220   3.169 -0.6068 -0.4254  0.0675
12914TIP3    H138685   1.970   4.161   3.094 -2.2824 -0.7625  0.1754
12914TIP3    H238686   1.935   4.303   3.132  2.7780  0.7815 -0.2547
12915TIP3   OH238687   4.722   7.465   1.801  0.1405 -0.3272  0.0316
12915TIP3    H138688   4.795   7.403   1.808  0.1525 -0.2708  0.4167
12915TIP3    H238689   4.735   7.507   1.716  1.0730  0.3211  0.4773
12916TIP3   OH238690   4.571   4.943   3.744  0.3124  0.2221  0.3881
12916TIP3    H138691   4.558   4.865   3.797  1.0122  0.6993  1.2895
12916TIP3    H238692   4.574   5.016   3.806 -0.4019  0.9923 -0.4366
12917TIP3   OH238693   8.112   3.033   0.602 -0.0677 -0.1965  0.4755
12917TIP3    H138694   8.115   3.090   0.678  0.6023 -0.8933  0.9842
12917TIP3    H238695   8.020   3.008   0.595 -0.5273  1.5258 -0.2246
12918TIP3   OH238696   5.141   2.980   0.337  0.1377 -0.1564  0.0530
12918TIP3    H138697   5.204   2.908   0.338 -0.4513 -0.7113 -1.1150
12918TIP3    H238698   5.142   3.012   0.247 -0.3521  0.6499  0.3181
12919TIP3   OH238699   4.213   4.321   0.866 -0.2907  0.7662 -0.0968
12919TIP3    H138700   4.284   4.304   0.804  0.3106  1.2182  0.4515
12919TIP3    H238701   4.190   4.235   0.900 -1.7708  0.2833 -2.1374
12920TIP3   OH238702   0.583   0.307   0.679 -0.0009  0.0370  0.6883
12920TIP3    H138703   0.542   0.282   0.596  0.4178  1.4880  0.0099
12920TIP3    H238704   0.602   0.223   0.722 -1.4940 -0.7135 -0.0347
12921TIP3   OH238705   2.222   3.847   6.119 -0.5430  0.6363 -0.0992
12921TIP3    H138706   2.315   3.859   6.099 -0.6490  0.9791 -0.3973
12921TIP3    H238707   2.188   3.935   6.128 -0.7881  0.5070  0.2708
12922TIP3   OH238708   2.114   2.785   1.221 -0.3143 -0.3977  0.2314
12922TIP3    H138709   2.069   2.863   1.255 -0.3831 -0.5103  0.3980
12922TIP3    H238710   2.066   2.763   1.141 -1.7812 -1.6612  1.4136
12923TIP3   OH238711   3.951   7.515   0.902  0.4098 -0.0022  0.2312
12923TIP3    H138712   3.970   7.527   0.809  2.2113  0.1974  0.5777
12923TIP3    H238713   3.915   7.426   0.908 -0.6158  0.3282 -0.7571
12924TIP3   OH238714   4.559   2.758   6.687  0.1127  0.6515 -0.1875
12924TIP3    H138715   4.603   2.834   6.725  0.7661 -0.1959  0.8526
12924TIP3    H238716   4.467   2.768   6.712  0.0283  1.5445 -0.8357
12925TIP3   OH238717   7.965   5.046   3.704 -0.2752 -0.7659  0.3581
12925TIP3    H138718   8.028   5.074   3.771  1.2863  0.6624 -1.5786
12925TIP3    H238719   8.004   4.967   3.665 -0.6331 -0.9641  0.3968
12926TIP3   OH238720   0.084   0.703   6.288 -0.6767  0.0726  0.2386
12926TIP3    H138721   0.139   0.773   6.322  0.0681  0.0190 -0.7773
12926TIP3    H238722   0.145   0.629   6.277 -1.8595 -1.5722  3.4756
12927TIP3   OH238723   2.457   1.463   4.582  0.1467  0.1562 -0.5885
12927TIP3    H138724   2.462   1.431   4.672 -0.2183  1.3071 -0.1345
12927TIP3    H238725   2.532   1.424   4.538  0.2952 -0.4674  0.1947
12928TIP3   OH238726   4.792   0.162   1.351  0.0498 -0.1201 -0.1759
12928TIP3    H138727   4.871   0.216   1.346 -0.6900  0.9664 -0.4743
12928TIP3    H238728   4.817   0.079   1.310  1.8865 -0.8893  2.1967
12929TIP3   OH238729   4.602   7.662   4.950  0.2723  0.1960  0.1575
12929TIP3    H138730   4.629   7.718   4.877  1.5648  1.1542  1.3128
12929TIP3    H238731   4.667   7.593   4.953  0.0023 -0.0600  0.1731
12930TIP3   OH238732   3.882   2.633   6.110 -0.2098  0.0333 -0.1749
12930TIP3    H138733   3.832   2.555   6.132 -0.7834 -0.7158 -3.5765
12930TIP3    H238734   3.824   2.706   6.134 -0.9686 -0.6904  0.2346
12931TIP3   OH238735   5.322   6.985   3.723  0.3197  0.4248 -0.9278
12931TIP3    H138736   5.275   7.014   3.645 -2.0134  0.5657  0.4326
12931TIP3    H238737   5.286   6.899   3.744 -0.0606  0.9351  0.6922
12932TIP3   OH238738   7.860   4.127   0.878  0.1598  0.1382  0.0653
12932TIP3    H138739   7.942   4.174   0.863 -0.0183  0.9049  1.3531
12932TIP3    H238740   7.825   4.164   0.959 -0.1189 -2.0621  1.0259
12933TIP3   OH238741   7.282   7.371   3.097  0.0971  0.4396  0.0431
12933TIP3    H138742   7.220   7.357   3.169 -0.9899  0.4377 -0.8666
12933TIP3    H238743   7.283   7.466   3.086  0.6379  0.4766  0.3657
12934TIP3   OH238744   5.956   3.022   1.462  0.1340 -0.2295  0.7559
12934TIP3    H138745   5.894   3.089   1.431 -0.0193 -0.9431 -0.5260
12934TIP3    H238746   5.901   2.948   1.485  0.3335 -0.0493  1.8935
12935TIP3   OH238747   8.247   1.311   5.338 -0.1127 -0.1063  0.0918
12935TIP3    H138748   8.300   1.265   5.273 -0.3676  0.8380 -0.8255
12935TIP3    H238749   8.157   1.292   5.313 -0.2707  2.0132 -1.2320
12936TIP3   OH238750   0.507   4.232   5.351  0.3975 -0.1847  0.0146
12936TIP3    H138751   0.429   4.204   5.303  0.0251  2.6331 -1.1967
12936TIP3    H238752   0.475   4.293   5.417  1.4453 -0.0193  0.3945
12937TIP3   OH238753   5.996   1.791   3.067  0.3977 -0.2325 -0.5713
12937TIP3    H138754   6.070   1.805   3.125  0.1933 -2.3817  0.2931
12937TIP3    H238755   5.927   1.849   3.102  0.2891 -1.4411  1.3590
12938TIP3   OH238756   5.591   4.417   2.808  0.0042 -0.4411  0.2676
12938TIP3    H138757   5.653   4.348   2.833  0.3801  0.1027  0.8516
12938TIP3    H238758   5.642   4.478   2.755  0.1465  0.3619  1.3143
12939TIP3   OH238759   4.039   3.341   2.114  0.8554 -0.2405  0.0359
12939TIP3    H138760   4.124   3.330   2.070  1.6982  2.1355  0.8840
12939TIP3    H238761   3.987   3.393   2.053  0.6464 -0.1693  0.2748
12940TIP3   OH238762   4.082   2.166   2.348 -0.2404 -0.2974  0.2560
12940TIP3    H138763   4.093   2.261   2.338  1.9064 -0.4130  0.9157
12940TIP3    H238764   4.172   2.133   2.357 -0.8388 -2.5445 -1.1795
12941TIP3   OH238765   0.312   2.897   2.931 -0.7193  0.2151  0.2574
12941TIP3    H138766   0.360   2.858   2.858 -2.2774  0.7120 -1.0811
12941TIP3    H238767   0.351   2.857   3.009  0.3057 -1.0942 -0.8728
12942TIP3   OH238768   7.941   2.826   3.568  0.0297  0.4197  0.3926
12942TIP3    H138769   7.917   2.819   3.476  1.8200 -1.4911 -0.0044
12942TIP3    H238770   7.972   2.916   3.579 -0.0448  0.6173 -0.9103
12943TIP3   OH238771   0.923   4.905   5.021 -0.0753 -0.2461 -0.9113
12943TIP3    H138772   0.865   4.834   5.046  0.0750 -0.1172 -0.1592
12943TIP3    H238773   0.986   4.911   5.093 -1.7622  2.5096  0.5073
12944TIP3   OH238774   0.788   2.024   2.566  0.2909 -0.3764  0.3302
12944TIP3    H138775   0.734   2.001   2.642  0.7464  1.0724  1.1396
12944TIP3    H238776   0.873   1.986   2.585 -0.4626 -3.0284 -1.1453
12945TIP3   OH238777   7.616   0.429   4.416  0.0246 -0.7018  0.2166
12945TIP3    H138778   7.569   0.512   4.420 -2.7097 -2.1059 -0.6764
12945TIP3    H238779   7.601   0.389   4.502  1.1027 -0.4199  0.5481
12946TIP3   OH238780   4.499   4.506   3.376 -0.0351  0.0816 -0.1411
12946TIP3    H138781   4.477   4.413   3.382  1.8516 -0.3817  0.2031
12946TIP3    H238782   4.522   4.519   3.284 -2.1279  0.6976 -0.6308
12947TIP3   OH238783   3.260   0.953   3.549  0.1293 -0.2158 -0.2537
12947TIP3    H138784   3.295   1.023   3.603 -0.0408  0.1646 -0.6254
12947TIP3    H238785   3.180   0.990   3.511  1.5630  0.4971 -2.8390
12948TIP3   OH238786   1.950   5.050   4.883  0.1821  0.1250  0.1061
12948TIP3    H138787   1.907   5.050   4.968  0.6936  1.0882  0.3798
12948TIP3    H238788   2.025   5.108   4.894  0.1523  0.4069 -1.0497
12949TIP3   OH238789   0.563   1.343   4.744 -0.2349 -0.3549 -0.1283
12949TIP3    H138790   0.643   1.369   4.790 -1.6885  0.6052  2.0360
12949TIP3    H238791   0.517   1.288   4.808 -1.8564  0.1250 -0.8509
12950TIP3   OH238792   2.431   6.108   2.802  0.2486  0.8247  0.1069
12950TIP3    H138793   2.397   6.024   2.831 -0.7732  2.2447  3.6017
12950TIP3    H238794   2.394   6.120   2.714  0.6229 -2.3745 -0.6118
12951TIP3   OH238795   7.057   2.803   3.936 -0.4438 -0.3739  0.5947
12951TIP3    H138796   6.995   2.799   4.010 -1.6546 -0.2145 -0.3745
12951TIP3    H238797   7.077   2.712   3.916  0.3442 -0.4077  1.4671
12952TIP3   OH238798   3.406   6.129   2.295 -0.4138 -0.4412 -0.0011
12952TIP3    H138799   3.414   6.222   2.272 -0.6540 -0.4231 -0.0086
12952TIP3    H238800   3.495   6.104   2.321 -0.9317  0.6264  3.2123
12953TIP3   OH238801   5.452   2.171   6.164  0.0248 -0.5009 -0.4583
12953TIP3    H138802   5.500   2.192   6.084 -0.8206 -0.2084 -0.9079
12953TIP3    H238803   5.369   2.219   6.155  1.3152  2.6195  2.2423
12954TIP3   OH238804   0.618   6.565   5.648  0.6696  0.0640  0.2137
12954TIP3    H138805   0.709   6.537   5.662  0.5141  0.3415  2.0706
12954TIP3    H238806   0.571   6.484   5.626  1.1792 -0.2585  0.2923
12955TIP3   OH238807   4.903   6.260   1.250  0.4265  0.3419  0.1138
12955TIP3    H138808   4.967   6.320   1.212 -1.1609  1.0882 -1.5078
12955TIP3    H238809   4.918   6.265   1.344  2.7998  0.3950 -0.2168
12956TIP3   OH238810   0.676   5.961   0.394  0.0386 -0.0805 -0.6298
12956TIP3    H138811   0.584   5.960   0.420 -0.1533  2.6490 -0.9363
12956TIP3    H238812   0.720   6.014   0.461  1.2167 -0.4950 -1.0403
12957TIP3   OH238813   7.808   2.393   0.587 -0.0433  0.6685  0.4508
12957TIP3    H138814   7.809   2.298   0.571  0.7517  0.7163  0.1852
12957TIP3    H238815   7.724   2.422   0.553 -1.0794 -0.2037  2.1273
12958TIP3   OH238816   5.115   4.613   1.554  0.2316  0.1597  0.0966
12958TIP3    H138817   5.046   4.635   1.491  0.3831 -0.6934 -0.3888
12958TIP3    H238818   5.086   4.530   1.591  1.0197 -0.2300 -0.1445
12959TIP3   OH238819   5.106   3.725   2.685 -0.2043  0.0286  0.0299
12959TIP3    H138820   5.120   3.644   2.734 -1.0897  0.5205  1.1458
12959TIP3    H238821   5.157   3.791   2.733 -1.6693  0.6711  0.8005
12960TIP3   OH238822   2.148   1.255   4.386  0.0509 -0.0678  0.2195
12960TIP3    H138823   2.161   1.335   4.437 -0.0556 -0.8174  1.4678
12960TIP3    H238824   2.073   1.274   4.330 -0.5127  0.4197  1.1160
12961TIP3   OH238825   7.471   5.374   4.212 -0.2004  0.7020  0.6101
12961TIP3    H138826   7.563   5.354   4.231 -0.1721  1.6086  1.5604
12961TIP3    H238827   7.444   5.307   4.150  0.4342 -1.0133  2.0857
12962TIP3   OH238828   7.952   5.033   0.366  0.2321  0.2356 -0.2730
12962TIP3    H138829   7.882   4.985   0.411  0.2280  2.8386  2.9282
12962TIP3    H238830   7.909   5.071   0.290 -0.4776 -2.2174 -1.1902
12963TIP3   OH238831   1.754   6.611   5.654 -0.2571  0.7435 -0.2896
12963TIP3    H138832   1.799   6.527   5.654 -0.4689  0.5753 -2.6309
12963TIP3    H238833   1.808   6.667   5.710  0.7208 -0.5180  0.0685
12964TIP3   OH238834   4.841   5.197   5.759  0.1930 -0.4002  0.0278
12964TIP3    H138835   4.924   5.218   5.801 -0.3063  1.7207  0.0788
12964TIP3    H238836   4.786   5.164   5.829  0.6187 -0.6570  0.2419
12965TIP3   OH238837   4.437   5.716   4.700 -0.1329  0.3567  0.5768
12965TIP3    H138838   4.496   5.720   4.625 -0.8777 -0.9734 -0.1331
12965TIP3    H238839   4.489   5.677   4.770 -0.4239 -1.9201 -0.3851
12966TIP3   OH238840   0.068   6.414   5.938  0.1447 -0.7422  0.2107
12966TIP3    H138841   0.039   6.447   5.853 -0.7267  0.6150  0.9959
12966TIP3    H238842   0.138   6.473   5.964 -0.4511 -0.3685  0.9964
12967TIP3   OH238843   5.818   1.065   0.570 -0.0473 -0.0829  0.5093
12967TIP3    H138844   5.741   1.109   0.534  0.4912  0.0053 -0.5689
12967TIP3    H238845   5.878   1.057   0.496  0.7103 -0.7589  1.1772
12968TIP3   OH238846   4.244   7.389   0.482  0.7702  0.2184 -0.4076
12968TIP3    H138847   4.283   7.305   0.506  0.6328  0.1797 -0.3188
12968TIP3    H238848   4.287   7.453   0.538  0.0086  0.0503  0.3905
12969TIP3   OH238849   6.674  -0.008   5.204 -0.1369  0.2860  0.4904
12969TIP3    H138850   6.602   0.051   5.182  0.9083  0.4947 -2.9375
12969TIP3    H238851   6.751   0.033   5.167  1.4459 -1.0227  2.1215
12970TIP3   OH238852   0.590   3.819   6.010 -0.4589 -0.1470  0.0420
12970TIP3    H138853   0.531   3.830   6.084 -1.0026 -0.7977 -0.2884
12970TIP3    H238854   0.662   3.766   6.045  0.1553  0.9935  0.5553
12971TIP3   OH238855   7.222   7.645   5.690  0.2293 -0.2026 -0.4624
12971TIP3    H138856   7.311   7.612   5.695  0.9357  1.6860  0.3818
12971TIP3    H238857   7.167   7.567   5.696  1.7779 -1.2602  0.9922
12972TIP3   OH238858   3.205   2.787   2.631 -0.0793  0.0462 -0.0019
12972TIP3    H138859   3.146   2.764   2.703  0.0877  2.2213  0.9292
12972TIP3    H238860   3.250   2.706   2.609 -2.4972 -1.4147  0.0948
12973TIP3   OH238861   7.009   6.080   0.552  0.3501  0.1669  0.0326
12973TIP3    H138862   6.984   5.988   0.557 -0.3534  0.1987 -1.8772
12973TIP3    H238863   6.979   6.118   0.634 -0.7505 -0.9926  0.2035
12974TIP3   OH238864   4.084   1.727   5.760  0.6994  0.4501  0.3378
12974TIP3    H138865   3.991   1.747   5.748  0.5533 -0.1228  0.4534
12974TIP3    H238866   4.130   1.781   5.696  0.4352  2.0615  1.4324
12975TIP3   OH238867   3.423   6.489   5.900 -0.3069  0.0547 -0.1607
12975TIP3    H138868   3.496   6.517   5.956 -1.2801 -1.5312  2.0531
12975TIP3    H238869   3.345   6.514   5.950 -1.2289 -1.0041 -1.0471
12976TIP3   OH238870   0.812   0.460   6.323 -0.7913  0.3163  0.0165
12976TIP3    H138871   0.848   0.539   6.365 -1.9622  1.0155 -0.2501
12976TIP3    H238872   0.857   0.388   6.367 -0.8059  1.0702  1.3514
12977TIP3   OH238873   3.002   7.080   4.759  0.7857 -0.1852 -0.0986
12977TIP3    H138874   3.005   7.052   4.850 -0.4287  0.1598  0.0676
12977TIP3    H238875   3.092   7.071   4.728  0.8234 -2.4147  0.4842
12978TIP3   OH238876   4.798   4.361   5.176  0.4941 -0.2695 -0.2745
12978TIP3    H138877   4.722   4.363   5.118 -1.4035  0.2676  2.0717
12978TIP3    H238878   4.825   4.269   5.177  0.6413 -0.2801 -1.9980
12979TIP3   OH238879   1.521   0.523   0.441  0.7162  0.6538  0.3235
12979TIP3    H138880   1.540   0.430   0.447 -0.6558  0.2660 -0.9761
12979TIP3    H238881   1.605   0.566   0.458  1.3038 -0.7951  1.1727
12980TIP3   OH238882   5.978   5.346   3.459 -0.1493 -0.0628  0.6631
12980TIP3    H138883   6.035   5.354   3.536  0.7979 -0.0373 -0.0315
12980TIP3    H238884   6.014   5.408   3.396 -2.3334  1.6989  1.0203
12981TIP3   OH238885   6.616   4.122   1.041  0.4766 -0.1081  0.1001
12981TIP3    H138886   6.655   4.045   1.082 -0.6254 -1.1803 -0.7599
12981TIP3    H238887   6.586   4.090   0.955 -1.4283  0.8401  0.3552
12982TIP3   OH238888   4.224   0.378   0.088  0.2398  0.1914 -0.0954
12982TIP3    H138889   4.153   0.353   0.029  1.2528 -0.7720 -0.9539
12982TIP3    H238890   4.247   0.467   0.061 -0.7277  0.5924  0.3177
12983TIP3   OH238891   1.184   1.620   2.374  0.4291  0.3306  0.0481
12983TIP3    H138892   1.242   1.567   2.429  0.8361  1.0528  0.3344
12983TIP3    H238893   1.096   1.601   2.405  0.5224 -0.6132 -0.2433
12984TIP3   OH238894   0.520   4.191   2.610  0.0887 -0.2852 -0.0909
12984TIP3    H138895   0.571   4.266   2.641  0.4857 -0.9337  0.8789
12984TIP3    H238896   0.449   4.183   2.674 -0.3621 -0.3085 -0.5893
12985TIP3   OH238897   2.863   4.950   1.711 -0.3892  0.1528 -0.9078
12985TIP3    H138898   2.841   4.990   1.795 -2.2547 -0.7471 -0.9171
12985TIP3    H238899   2.950   4.913   1.723 -0.3005  0.7436  0.3611
12986TIP3   OH238900   6.135   6.278   3.758 -0.4223  0.2379 -0.1314
12986TIP3    H138901   6.091   6.357   3.727  1.6694  1.7309  0.4749
12986TIP3    H238902   6.125   6.281   3.853 -0.1549 -0.0977 -0.0918
12987TIP3   OH238903   4.133   7.511   0.204 -0.6840 -0.3093 -0.5770
12987TIP3    H138904   4.189   7.465   0.267 -0.4449 -0.3995 -0.8520
12987TIP3    H238905   4.069   7.445   0.176  0.4565 -0.8772 -1.9537
12988TIP3   OH238906   6.246   4.808   5.517  0.1094 -0.8671  0.1373
12988TIP3    H138907   6.210   4.889   5.553  2.3564  0.7314 -0.9892
12988TIP3    H238908   6.269   4.756   5.593 -0.2252  0.1103  0.9269
12989TIP3   OH238909   0.515   2.205   1.447 -0.0651  0.2782 -0.1357
12989TIP3    H138910   0.470   2.131   1.489  0.1412  0.7946  1.0303
12989TIP3    H238911   0.544   2.260   1.520  0.7727  0.9395 -0.9485
12990TIP3   OH238912   6.306   0.864   4.485  1.0102 -0.2298  0.6175
12990TIP3    H138913   6.384   0.810   4.489 -0.2797 -2.1682  0.8171
12990TIP3    H238914   6.281   0.863   4.392  0.3572 -0.9271  0.7960
12991TIP3   OH238915   7.218   0.513   3.337 -0.3212  0.2222 -0.0898
12991TIP3    H138916   7.232   0.549   3.250  1.8435  0.0693  0.1341
12991TIP3    H238917   7.301   0.528   3.382 -1.0250 -0.6880  1.5958
12992TIP3   OH238918   1.941   5.206   5.621 -0.0731  0.0018 -0.6927
12992TIP3    H138919   1.898   5.135   5.667 -0.2410 -0.3568 -1.3853
12992TIP3    H238920   1.925   5.283   5.675 -0.7547 -0.3053 -0.4461
12993TIP3   OH238921   0.325   1.205   4.069 -0.4182  0.3563  0.5037
12993TIP3    H138922   0.333   1.300   4.079  0.4535  0.4520 -0.8724
12993TIP3    H238923   0.398   1.169   4.119  0.1163  0.4867 -0.1827
12994TIP3   OH238924   8.014   2.729   5.614  0.0261 -0.1393 -0.3030
12994TIP3    H138925   8.065   2.673   5.555  1.0997  0.2959  0.1874
12994TIP3    H238926   8.079   2.778   5.663 -0.8851  0.8439 -0.0347
12995TIP3   OH238927   5.783   2.399   3.210 -0.1640 -0.0016 -0.1799
12995TIP3    H138928   5.820   2.366   3.292  1.3049  1.1074 -0.3607
12995TIP3    H238929   5.857   2.440   3.165 -0.7397 -1.2878 -2.4537
12996TIP3   OH238930   4.818   6.233   5.308  0.2423  0.5549  0.5249
12996TIP3    H138931   4.858   6.279   5.235 -0.5696  1.1116  0.4141
12996TIP3    H238932   4.796   6.147   5.273  1.6796  0.0972  0.7068
12997TIP3   OH238933   2.296   1.790   3.043 -0.2087 -0.3583  0.2023
12997TIP3    H138934   2.297   1.870   3.096 -1.5860 -1.1688  1.5370
12997TIP3    H238935   2.258   1.818   2.960  0.7908  0.6806  0.0679
12998TIP3   OH238936   6.022   5.923   0.599  0.1646 -0.0720 -0.2911
12998TIP3    H138937   5.993   6.015   0.592  0.2474  0.0999  1.2319
12998TIP3    H238938   6.012   5.902   0.692  0.2631 -1.5841 -0.5947
12999TIP3   OH238939   0.087   0.200   2.285 -0.0414  0.0163 -0.4817
12999TIP3    H138940   0.181   0.188   2.275  0.0016  1.0589 -1.5214
12999TIP3    H238941   0.063   0.143   2.358  1.5374  0.4177  0.3941
13000TIP3   OH238942   1.649   4.876   0.417  0.4429  0.3358 -0.1762
13000TIP3    H138943   1.729   4.833   0.385  0.1116  0.0610 -0.6486
13000TIP3    H238944   1.650   4.962   0.374  1.0328  0.7645  0.6602
13001TIP3   OH238945   3.594   1.401   2.198  0.1521  0.2985 -0.3317
13001TIP3    H138946   3.663   1.349   2.156 -0.6499  0.2966 -1.7211
13001TIP3    H238947   3.641   1.460   2.257  1.1675 -1.1488  0.3716
13002TIP3   OH238948   2.289   1.715   6.045 -0.3461 -0.1678 -0.1580
13002TIP3    H138949   2.320   1.638   5.996  0.6696 -0.1094  0.3676
13002TIP3    H238950   2.364   1.774   6.047 -0.6370  0.1930  0.7271
13003TIP3   OH238951   4.496   2.053   6.503 -0.0275  0.2898 -0.2794
13003TIP3    H138952   4.532   2.113   6.568  1.7021 -1.2515  0.2964
13003TIP3    H238953   4.450   1.987   6.554 -2.1502  1.1864 -0.9151
13004TIP3   OH238954   5.273   7.525   2.003 -0.5817  0.4193 -0.5831
13004TIP3    H138955   5.328   7.541   1.926  0.6212  2.2233  0.5731
13004TIP3    H238956   5.201   7.587   1.994 -1.0080 -0.1072 -0.7832
13005TIP3   OH238957   7.065   1.060   0.659 -0.4131  0.3155  0.2244
13005TIP3    H138958   7.056   1.027   0.570 -2.4788  1.2901  0.0168
13005TIP3    H238959   7.014   1.141   0.660  0.2033  0.7255  2.1013
13006TIP3   OH238960   1.130   2.083   5.485 -0.1812  0.0248 -0.2127
13006TIP3    H138961   1.077   2.005   5.502  0.4818 -0.1845  1.0336
13006TIP3    H238962   1.068   2.146   5.447 -1.5332  0.0590  1.8930
13007TIP3   OH238963   4.794   3.006   3.272  0.1074 -0.5349  0.1291
13007TIP3    H138964   4.888   3.013   3.251 -0.7445  0.7953 -4.4488
13007TIP3    H238965   4.767   2.923   3.233 -0.6174 -1.1622  1.8711
13008TIP3   OH238966   3.021   7.015   5.978 -0.6532 -0.6881  0.6906
13008TIP3    H138967   2.989   6.944   6.034  0.7409 -0.8780  1.2932
13008TIP3    H238968   3.072   7.071   6.036  0.7782 -0.8453 -0.3547
13009TIP3   OH238969   2.788   5.031   0.208 -0.2579  0.1293 -0.2174
13009TIP3    H138970   2.828   4.944   0.211 -0.1636  0.1923  1.4904
13009TIP3    H238971   2.695   5.015   0.225 -0.6902  0.1603 -2.3343
13010TIP3   OH238972   6.265   3.796   4.337 -0.1710 -0.4422 -0.2395
13010TIP3    H138973   6.327   3.866   4.358  0.0251 -1.1880  1.9340
13010TIP3    H238974   6.193   3.840   4.292  1.1300  0.7060 -1.2849
13011TIP3   OH238975   0.548   5.289   6.579  0.4461 -0.2771  0.1508
13011TIP3    H138976   0.604   5.213   6.561  0.5941 -0.4128  1.1510
13011TIP3    H238977   0.504   5.268   6.661  0.6577  0.8059  0.5619
13012TIP3   OH238978   2.631   3.710   5.056  0.1671 -0.5100  0.3292
13012TIP3    H138979   2.715   3.734   5.016 -0.8687  0.6141 -1.2843
13012TIP3    H238980   2.590   3.793   5.078 -0.4282 -1.0569  1.3436
13013TIP3   OH238981   7.119   3.440   3.059  0.2383 -0.4267 -0.4487
13013TIP3    H138982   7.091   3.524   3.025  0.1176 -0.8333 -1.3843
13013TIP3    H238983   7.043   3.383   3.048  0.8809 -1.1170 -1.5316
13014TIP3   OH238984   0.362   3.436   0.099  0.0996 -0.5642 -0.1714
13014TIP3    H138985   0.327   3.449   0.011 -0.9425 -1.6047  0.0590
13014TIP3    H238986   0.323   3.505   0.152 -1.3774 -1.4888 -0.0006
13015TIP3   OH238987   1.082   2.127   0.123  0.0735 -0.1657  0.3473
13015TIP3    H138988   1.177   2.120   0.132 -0.0661 -2.7023  0.6514
13015TIP3    H238989   1.061   2.216   0.152  2.5873  1.5067 -2.3752
13016TIP3   OH238990   4.938   6.429   4.169 -1.2315  0.1756  0.1721
13016TIP3    H138991   4.913   6.381   4.248  0.6679 -2.4200 -0.6966
13016TIP3    H238992   5.032   6.412   4.159 -0.8427  2.6733 -1.2131
13017TIP3   OH238993   7.261   3.995   4.261 -0.3954  0.1710 -0.6907
13017TIP3    H138994   7.350   3.961   4.258 -0.3289  0.3897 -1.3144
13017TIP3    H238995   7.259   4.051   4.339 -0.1329 -0.2176 -0.4005
13018TIP3   OH238996   6.530   3.266   6.714  0.1501  0.3566 -0.0667
13018TIP3    H138997   6.549   3.281   6.807  2.1348 -2.4328  0.0904
13018TIP3    H238998   6.458   3.203   6.715 -2.1147  2.7905 -0.5633
13019TIP3   OH238999   3.221   5.753   4.385 -0.5875 -0.0870 -0.1815
13019TIP3    H139000   3.312   5.725   4.400 -0.6553  0.2062  0.8729
13019TIP3    H239001   3.181   5.751   4.472 -1.4843  0.1828 -0.5780
13020TIP3   OH239002   2.665   2.754   0.785 -0.2533 -0.0867  0.1279
13020TIP3    H139003   2.657   2.819   0.716  0.4221  0.1224  0.2424
13020TIP3    H239004   2.722   2.687   0.749  0.8618  0.4766  0.8015
13021TIP3   OH239005   6.646   2.475   0.213 -0.4261 -0.0513 -0.0999
13021TIP3    H139006   6.582   2.484   0.284 -1.6603 -1.0070 -1.0470
13021TIP3    H239007   6.684   2.388   0.225  0.1404  0.2032 -0.0030
13022TIP3   OH239008   3.117   6.883   5.247 -0.1381  0.2329 -0.3770
13022TIP3    H139009   3.209   6.861   5.262  0.3454  0.7804 -2.2445
13022TIP3    H239010   3.074   6.864   5.331  1.6848  0.1264  0.5936
13023TIP3   OH239011   7.311   4.991   3.099  0.0695 -0.4788  0.1974
13023TIP3    H139012   7.255   5.064   3.126 -1.7266 -1.9401  0.6166
13023TIP3    H239013   7.382   4.991   3.162 -0.7256  0.0012  1.1213
13024TIP3   OH239014   7.123   0.613   3.676  0.2285  0.4298 -0.5131
13024TIP3    H139015   7.098   0.523   3.654  1.5843 -0.2520  0.5485
13024TIP3    H239016   7.047   0.666   3.652 -1.1602 -1.1790  0.1779
13025TIP3   OH239017   7.907   6.429   6.044  0.5193  0.0833  0.3434
13025TIP3    H139018   7.891   6.480   5.965  0.0760 -0.2867  0.1945
13025TIP3    H239019   7.977   6.369   6.021  0.0660 -0.3531  0.0802
13026TIP3   OH239020   2.849   5.768   1.552 -0.1008 -0.6500 -0.5065
13026TIP3    H139021   2.836   5.854   1.594  1.1980  0.5251 -2.3460
13026TIP3    H239022   2.798   5.773   1.471  0.1351 -1.5463 -0.7199
13027TIP3   OH239023   7.965   4.460   3.005  0.1446  0.0905 -0.5798
13027TIP3    H139024   8.048   4.414   2.992  0.6451  0.5872  0.7083
13027TIP3    H239025   7.987   4.553   3.000 -0.5284  0.2287 -1.2552
13028TIP3   OH239026   1.508   6.254   1.387 -0.3377  0.2489 -0.4792
13028TIP3    H139027   1.567   6.233   1.459 -0.7163 -0.1391 -0.2828
13028TIP3    H239028   1.452   6.178   1.378 -1.8416  1.1985  0.3646
13029TIP3   OH239029   6.480   1.624   3.364  0.1836 -0.4941  0.1420
13029TIP3    H139030   6.491   1.533   3.335  2.0559 -0.3804  0.3549
13029TIP3    H239031   6.505   1.624   3.456  1.1062  0.3740 -0.0826
13030TIP3   OH239032   6.782   1.643   0.971  0.1328 -0.3540 -0.1540
13030TIP3    H139033   6.841   1.621   0.899  1.7802 -1.1906  1.3567
13030TIP3    H239034   6.725   1.711   0.936  0.8175 -0.8006 -2.2468
13031TIP3   OH239035   5.479   2.641   3.885 -0.1324 -0.2509 -0.7307
13031TIP3    H139036   5.401   2.591   3.909  0.1738  0.1855  1.4093
13031TIP3    H239037   5.523   2.587   3.820 -1.4470 -1.2004 -0.8872
13032TIP3   OH239038   0.996   3.462   6.456 -0.6158  0.7518  0.0824
13032TIP3    H139039   0.937   3.417   6.517 -0.8309  0.4926 -0.3095
13032TIP3    H239040   0.964   3.437   6.370 -0.1383  0.8843 -0.1373
13033TIP3   OH239041   0.314   1.786   1.737  0.3920 -0.2870  0.3177
13033TIP3    H139042   0.381   1.727   1.770  0.2188  0.3905  1.9748
13033TIP3    H239043   0.239   1.773   1.795 -0.4467 -0.0460 -0.6734
13034TIP3   OH239044   0.081   1.637   4.512  0.3171  0.3850 -0.2055
13034TIP3    H139045   0.034   1.563   4.551  1.4401 -1.5143 -2.2336
13034TIP3    H239046   0.093   1.698   4.585 -0.3996 -1.5493  1.6606
13035TIP3   OH239047   3.627   6.748   5.851  0.0838 -0.0741 -0.1755
13035TIP3    H139048   3.641   6.817   5.916 -2.0603 -0.4742  0.7787
13035TIP3    H239049   3.634   6.667   5.900 -1.0746 -0.3985 -0.5148
13036TIP3   OH239050   5.967   6.156   5.209  0.2311  0.1371  0.1039
13036TIP3    H139051   5.960   6.188   5.299  2.7084  1.8376 -0.2280
13036TIP3    H239052   5.884   6.182   5.168 -1.0060 -0.8170  1.8721
13037TIP3   OH239053   4.548   2.739   6.426 -0.4443  0.4241 -0.1538
13037TIP3    H139054   4.598   2.816   6.400  1.2717 -0.3183  0.7902
13037TIP3    H239055   4.518   2.758   6.515 -0.9740  0.4299 -0.3257
13038TIP3   OH239056   4.279   0.407   1.616  0.2399 -0.1783 -0.3035
13038TIP3    H139057   4.356   0.407   1.560  0.8010 -1.8092  0.4010
13038TIP3    H239058   4.314   0.412   1.705 -0.6628  4.2538  0.0416
13039TIP3   OH239059   2.693   6.066   5.451 -0.2531 -0.0769 -0.6365
13039TIP3    H139060   2.693   6.070   5.355  0.6859  0.4653 -0.6210
13039TIP3    H239061   2.696   6.157   5.479  0.7254 -0.2643 -0.1069
13040TIP3   OH239062   6.887   6.679   0.625  0.0269  0.4153  0.9619
13040TIP3    H139063   6.812   6.696   0.568 -0.0821  0.2668  1.0611
13040TIP3    H239064   6.881   6.745   0.693  0.9386  1.4884  0.0451
13041TIP3   OH239065   0.222   7.300   0.222 -0.5005 -0.6454  0.3344
13041TIP3    H139066   0.259   7.218   0.189  0.3107  0.8754 -3.0373
13041TIP3    H239067   0.298   7.356   0.237 -1.1271  0.6753 -1.1323
13042TIP3   OH239068   0.050   3.264   0.402  0.2554 -0.1899 -0.4985
13042TIP3    H139069   0.020   3.344   0.444 -0.1132 -1.3212  1.5660
13042TIP3    H239070   0.026   3.274   0.310  0.6528  2.2291 -0.4055
13043TIP3   OH239071   7.255   6.262   6.418 -0.4491 -0.2040  0.5355
13043TIP3    H139072   7.325   6.198   6.420 -0.9171 -0.7873 -0.4529
13043TIP3    H239073   7.293   6.338   6.373 -0.2053 -0.1850  0.7710
13044TIP3   OH239074   4.517   7.036   0.330 -0.3798  0.0103  0.1010
13044TIP3    H139075   4.579   6.965   0.347 -0.3775 -0.3290 -1.2183
13044TIP3    H239076   4.571   7.115   0.330  0.3007 -0.3882 -2.1372
13045TIP3   OH239077   0.352   5.428   0.397 -0.8900 -0.2911 -0.0765
13045TIP3    H139078   0.404   5.496   0.441 -0.8900 -0.7539  0.6684
13045TIP3    H239079   0.284   5.405   0.461 -2.0836  0.3780 -1.0811
13046TIP3   OH239080   7.003   0.939   5.140 -0.0095  0.0248  0.1428
13046TIP3    H139081   7.089   0.967   5.170  0.1837 -1.4641  1.0375
13046TIP3    H239082   6.973   0.877   5.206 -1.3450 -0.2358 -0.6682
13047TIP3   OH239083   1.047   4.992   3.386 -0.0318  0.5260 -0.1714
13047TIP3    H139084   0.959   5.026   3.370  0.7646  2.6060 -0.5078
13047TIP3    H239085   1.038   4.897   3.382 -2.0787  0.7163 -1.1178
13048TIP3   OH239086   6.777   4.097   2.355 -0.5183 -0.0328  0.3224
13048TIP3    H139087   6.864   4.128   2.330 -0.8223  1.0306  0.5053
13048TIP3    H239088   6.726   4.102   2.274 -0.9983  1.5885  0.6723
13049TIP3   OH239089   3.711   0.760   2.377  0.0535 -0.4533 -0.1555
13049TIP3    H139090   3.681   0.833   2.432 -0.3567 -0.8649  0.1683
13049TIP3    H239091   3.641   0.696   2.381  0.3115 -0.7723 -0.6315
13050TIP3   OH239092   7.152   4.063   6.070 -0.2320  0.1528 -0.0019
13050TIP3    H139093   7.085   4.103   6.127  0.4677 -0.3456  1.2106
13050TIP3    H239094   7.230   4.059   6.125  0.3459 -0.7742 -0.8636
13051TIP3   OH239095   6.383   4.252   2.052 -0.2446  0.2263  0.0330
13051TIP3    H139096   6.468   4.292   2.037  0.5004 -0.7632  1.3362
13051TIP3    H239097   6.324   4.325   2.070  0.4858  0.8799 -0.2058
13052TIP3   OH239098   6.882   2.637   1.395  0.9928 -0.1748 -0.2707
13052TIP3    H139099   6.870   2.719   1.346  0.6021 -0.7882 -1.2182
13052TIP3    H239100   6.972   2.642   1.427  0.5601  1.2459  0.8720
13053TIP3   OH239101   6.574   7.360   1.306  0.6788 -0.3436  0.1088
13053TIP3    H139102   6.653   7.355   1.360  0.6557  0.5424  0.2440
13053TIP3    H239103   6.596   7.423   1.237 -0.3970  1.0552  1.0035
13054TIP3   OH239104   3.490   7.061   4.076  0.3383 -0.4389  0.5428
13054TIP3    H139105   3.397   7.049   4.058  0.3462 -0.9695  0.8451
13054TIP3    H239106   3.515   6.983   4.126  0.5399  0.5240  1.9916
13055TIP3   OH239107   2.448   4.013  -0.003 -0.1844 -0.0826 -0.4441
13055TIP3    H139108   2.475   3.923   0.019  1.4121  0.6439  0.8044
13055TIP3    H239109   2.353   4.011   0.004 -0.0988 -1.3254  1.1218
13056TIP3   OH239110   1.032   2.934   5.866 -0.1226 -0.0602  0.4523
13056TIP3    H139111   0.945   2.927   5.906 -0.3619 -1.1443 -0.2383
13056TIP3    H239112   1.015   2.939   5.772  0.6077 -1.5722  0.2171
13057TIP3   OH239113   6.509   4.575   1.509 -0.1446  0.4909 -0.2866
13057TIP3    H139114   6.604   4.584   1.516  0.0152 -0.5250 -0.8748
13057TIP3    H239115   6.490   4.592   1.417 -0.3934 -0.3248 -0.3949
13058TIP3   OH239116   3.631   6.173   4.361  0.2535  0.1001 -0.7667
13058TIP3    H139117   3.696   6.128   4.414 -1.0051  0.0632  0.8093
13058TIP3    H239118   3.571   6.105   4.333  0.0925  0.3433 -1.0215
13059TIP3   OH239119   7.848   7.011   4.687  0.5776 -0.3479  0.0812
13059TIP3    H139120   7.821   7.101   4.701 -3.6085 -1.1701 -1.2712
13059TIP3    H239121   7.854   6.974   4.775  0.6571  0.8186  0.5825
13060TIP3   OH239122   8.208   5.098   3.465  0.0744  0.0895  0.3128
13060TIP3    H139123   8.257   5.044   3.527 -0.0280  0.3889  0.6547
13060TIP3    H239124   8.250   5.184   3.470 -0.5025  0.3575  0.6286
13061TIP3   OH239125   5.547   1.648   4.222 -0.2659 -0.1773  0.6813
13061TIP3    H139126   5.470   1.704   4.219 -0.1783 -0.0299  1.1834
13061TIP3    H239127   5.616   1.703   4.259  0.7178  0.4465 -1.8466
13062TIP3   OH239128   5.814   3.122   0.776  0.5695  0.8366  0.1329
13062TIP3    H139129   5.869   3.109   0.853 -2.3708 -0.3303  2.2123
13062TIP3    H239130   5.763   3.201   0.796 -0.3322  0.4464 -0.5376
13063TIP3   OH239131   5.077   6.452   5.955 -0.0616  0.6450 -0.4099
13063TIP3    H139132   5.150   6.422   5.901 -0.1998  1.1724 -0.8980
13063TIP3    H239133   5.112   6.529   6.001 -0.5186  1.3162 -1.1732
13064TIP3   OH239134   0.228   7.535   6.345  0.4017  0.0423  0.4372
13064TIP3    H139135   0.266   7.622   6.356  0.3427 -0.0005  1.0337
13064TIP3    H239136   0.175   7.522   6.424  0.3456 -0.5003  0.3152
13065TIP3   OH239137   4.232   7.486   5.981  0.7887 -0.4112 -0.1538
13065TIP3    H139138   4.193   7.427   5.917  1.5264 -0.6274 -0.4146
13065TIP3    H239139   4.168   7.557   5.992  0.6041 -0.4410 -1.0278
13066TIP3   OH239140   1.005   6.816   1.117 -0.0597 -0.4852  0.2111
13066TIP3    H139141   1.086   6.866   1.131  0.2381 -1.2121  1.2063
13066TIP3    H239142   1.027   6.727   1.145 -1.0241 -0.8331 -0.1140
13067TIP3   OH239143   7.914   5.082   2.649  0.2475  0.3653  0.6054
13067TIP3    H139144   7.985   5.087   2.713 -0.0229 -1.5135  1.1193
13067TIP3    H239145   7.895   4.988   2.642 -0.3630  0.5978 -1.5512
13068TIP3   OH239146   4.758   5.538   5.259  0.1661  0.3598  0.0461
13068TIP3    H139147   4.828   5.579   5.311  0.3498 -2.0762  1.9295
13068TIP3    H239148   4.678   5.556   5.309  0.0289 -0.1755  0.0221
13069TIP3   OH239149   6.564   6.078   4.902 -0.1006  0.4441  0.1364
13069TIP3    H139150   6.596   6.047   4.817 -1.9716 -1.5414  0.0756
13069TIP3    H239151   6.571   6.002   4.960  0.5562  1.5942  1.6303
13070TIP3   OH239152   6.116   1.533   5.960  0.2277  0.2619 -0.6597
13070TIP3    H139153   6.205   1.565   5.975  0.6110 -0.8308 -0.5384
13070TIP3    H239154   6.100   1.549   5.867  1.1567 -0.9747 -1.0576
13071TIP3   OH239155   7.744   1.370   6.058  0.6083 -0.6115  0.1493
13071TIP3    H139156   7.828   1.358   6.014  1.2181 -1.4313  1.4591
13071TIP3    H239157   7.755   1.451   6.109  0.5014 -0.5670  0.1015
13072TIP3   OH239158   1.987   7.645   3.255 -0.7663  0.1676 -0.5761
13072TIP3    H139159   1.966   7.556   3.227  0.4961 -0.1089 -0.6961
13072TIP3    H239160   1.915   7.669   3.314 -1.4723 -0.6669 -1.0648
13073TIP3   OH239161   0.917   7.549   1.924 -0.3130  0.0991  0.5097
13073TIP3    H139162   0.828   7.567   1.952 -0.7694  1.5239 -1.6559
13073TIP3    H239163   0.926   7.454   1.935 -2.3169 -0.1778  0.1506
13074TIP3   OH239164   3.765   3.743   0.181 -0.0528 -0.0321 -0.3276
13074TIP3    H139165   3.810   3.798   0.116 -0.5292  0.2340 -0.4422
13074TIP3    H239166   3.720   3.806   0.238  0.1653 -0.2741  0.1149
13075TIP3   OH239167   5.758   1.059   5.722 -0.0677 -0.8727  0.7967
13075TIP3    H139168   5.755   0.972   5.762 -2.2556 -0.9762  0.5166
13075TIP3    H239169   5.677   1.066   5.672  1.5524  0.0850 -1.9182
13076TIP3   OH239170   1.476   0.088   5.786  0.2455  0.1956  0.1447
13076TIP3    H139171   1.418   0.156   5.753  0.8647  0.2040 -0.9900
13076TIP3    H239172   1.456   0.082   5.879 -0.6048  1.1422  0.0391
13077TIP3   OH239173   1.998   0.052   0.818 -0.1993 -0.1889 -0.2004
13077TIP3    H139174   2.023  -0.003   0.893 -0.8802 -1.7713 -1.0887
13077TIP3    H239175   2.067   0.118   0.814 -0.6940  0.6236  2.4520
13078TIP3   OH239176   3.115   0.994   2.355 -0.3057  0.1842 -0.1986
13078TIP3    H139177   3.173   1.070   2.343 -0.7393  0.4221 -0.8286
13078TIP3    H239178   3.131   0.941   2.277 -1.1964  0.4302 -0.5571
13079TIP3   OH239179   0.441   6.530   3.453  1.0359 -0.4605  0.3420
13079TIP3    H139180   0.447   6.525   3.357  0.9527  0.7967  0.2545
13079TIP3    H239181   0.419   6.441   3.480  0.4245 -0.6991 -0.8606
13080TIP3   OH239182   3.879   3.577   5.855  0.2053  1.0136 -0.0452
13080TIP3    H139183   3.914   3.489   5.867  0.7393  1.2222 -0.0086
13080TIP3    H239184   3.859   3.607   5.943  1.3868  1.4584  0.0979
13081TIP3   OH239185   7.785   7.509   2.261 -0.0019 -0.7008  0.6249
13081TIP3    H139186   7.746   7.468   2.184 -0.9499 -1.0203  1.2553
13081TIP3    H239187   7.808   7.597   2.232 -0.1460 -0.8874 -0.0830
13082TIP3   OH239188   5.627   0.137   3.183 -0.8911 -0.8258 -0.2543
13082TIP3    H139189   5.691   0.103   3.246  0.3138  1.3103 -0.2535
13082TIP3    H239190   5.670   0.129   3.098 -0.7886  0.1930 -0.3078
13083TIP3   OH239191   4.221   2.168   1.500 -0.3283 -0.4928 -0.5190
13083TIP3    H139192   4.233   2.257   1.467  0.5350  0.0942  1.2096
13083TIP3    H239193   4.175   2.122   1.431 -1.0301  1.3760 -1.3490
13084TIP3   OH239194   4.806   1.632   1.813  0.1756 -0.0124 -0.2839
13084TIP3    H139195   4.765   1.699   1.759 -0.5998  0.7241  1.1528
13084TIP3    H239196   4.779   1.549   1.774 -1.9179  0.4662  0.0239
13085TIP3   OH239197   7.026   7.483   6.430  0.0433  0.3484  0.0878
13085TIP3    H139198   6.959   7.543   6.398 -0.2568  0.6669  1.2431
13085TIP3    H239199   7.040   7.421   6.359 -2.3349 -0.4286  0.2231
13086TIP3   OH239200   7.906   7.527   2.957 -0.0366  0.3436  0.4137
13086TIP3    H139201   7.968   7.476   3.010  0.4499  0.8920  0.3790
13086TIP3    H239202   7.858   7.581   3.020  0.5899  1.0464  0.2998
13087TIP3   OH239203   3.443   5.568   6.090 -0.4924 -0.0328 -1.1113
13087TIP3    H139204   3.381   5.529   6.029 -1.2905 -0.5988  0.0221
13087TIP3    H239205   3.491   5.631   6.038  0.3530 -1.9938 -2.8479
13088TIP3   OH239206   2.257   5.943   6.575  0.4549  0.0888  0.3492
13088TIP3    H139207   2.246   5.886   6.651 -0.1483  0.1930  0.3451
13088TIP3    H239208   2.215   5.895   6.503  0.8210  0.0925  0.1338
13089TIP3   OH239209   4.229   3.838   5.445 -0.0201  0.6310  0.1240
13089TIP3    H139210   4.208   3.775   5.376  0.1435  0.4091  0.2764
13089TIP3    H239211   4.203   3.795   5.526  1.0998  0.2999  0.3313
13090TIP3   OH239212   2.280   3.946   4.675 -0.1342  0.2067  0.1571
13090TIP3    H139213   2.318   4.009   4.614  0.6551 -0.7628 -0.3797
13090TIP3    H239214   2.192   3.979   4.692  0.9268  2.5622  1.5121
13091TIP3   OH239215   3.817   2.038   0.939  0.0387  0.6211 -0.2782
13091TIP3    H139216   3.879   2.063   0.870  1.1684 -2.8615 -0.7263
13091TIP3    H239217   3.865   2.052   1.021  1.1560 -1.1698 -0.5792
13092TIP3   OH239218   2.492   4.362   4.070 -0.2300  0.1430  0.2210
13092TIP3    H139219   2.508   4.448   4.108  1.9481  0.5431 -1.4054
13092TIP3    H239220   2.511   4.373   3.977  0.5422 -2.1859  0.0366
13093TIP3   OH239221   2.371   0.573   4.987 -0.1048 -0.2108  0.0062
13093TIP3    H139222   2.446   0.572   4.927  1.2497  1.3791  1.5795
13093TIP3    H239223   2.302   0.527   4.939  1.1259  0.3620 -2.4805
13094TIP3   OH239224   7.328   5.003   5.448 -0.4941 -0.0969  0.5626
13094TIP3    H139225   7.368   4.935   5.503 -0.6741  0.3501  1.2527
13094TIP3    H239226   7.235   5.000   5.469 -1.1206 -2.0108 -1.9744
13095TIP3   OH239227   1.877   4.634   2.767 -0.3764 -0.0954  0.2811
13095TIP3    H139228   1.783   4.636   2.754 -0.5527 -0.5594  1.3693
13095TIP3    H239229   1.900   4.726   2.786 -0.2104  0.4671 -2.3190
13096TIP3   OH239230   1.933   7.656   4.722  0.3644  0.4120  0.4548
13096TIP3    H139231   2.024   7.660   4.750  0.5847 -1.4227  0.0895
13096TIP3    H239232   1.899   7.576   4.762 -0.2378 -0.5160 -1.7622
13097TIP3   OH239233   0.421   4.951   5.659  0.4219  0.0904 -0.5860
13097TIP3    H139234   0.375   5.013   5.602 -1.6911  0.7977  1.7343
13097TIP3    H239235   0.375   4.868   5.645  0.0105  0.2260 -0.0552
13098TIP3   OH239236   2.183   4.443   4.409 -0.7200  0.0579  0.6518
13098TIP3    H139237   2.245   4.506   4.372 -2.1632  2.5569  2.2520
13098TIP3    H239238   2.143   4.401   4.332 -0.7488  2.1805 -0.5754
13099TIP3   OH239239   0.175   4.742   6.743 -0.7034 -0.0693  0.2735
13099TIP3    H139240   0.138   4.779   6.824 -2.6799 -0.7104 -0.2673
13099TIP3    H239241   0.238   4.808   6.714 -1.6631  1.2854  1.1161
13100TIP3   OH239242   3.778   4.435   1.504  0.2518 -0.4191  0.3870
13100TIP3    H139243   3.775   4.526   1.474 -0.9566 -0.3951  0.5111
13100TIP3    H239244   3.737   4.438   1.591 -1.3662 -1.3166 -0.3049
13101TIP3   OH239245   6.866   3.906   5.446  0.7189  0.4813  0.3794
13101TIP3    H139246   6.940   3.852   5.421  0.9505  0.0424  1.8929
13101TIP3    H239247   6.882   3.990   5.403  1.8834  0.2592  0.3427
13102TIP3   OH239248   4.430   6.071   1.293  0.9133 -0.2432 -0.0490
13102TIP3    H139249   4.337   6.082   1.271  0.6010 -1.3745  0.6327
13102TIP3    H239250   4.460   6.001   1.236  1.2431 -0.1738  0.0381
13103TIP3   OH239251   0.290   6.215   5.942  0.0647 -0.0255  0.1513
13103TIP3    H139252   0.209   6.228   5.893 -1.2477 -1.2414  1.9068
13103TIP3    H239253   0.263   6.205   6.033  2.2043 -0.3242  0.8214
13104TIP3   OH239254   3.545   3.463   4.525  0.5133 -0.1188  0.1814
13104TIP3    H139255   3.525   3.546   4.482 -1.3090 -0.4768  0.2645
13104TIP3    H239256   3.490   3.399   4.480  1.0484 -1.0893  0.8691
13105TIP3   OH239257   6.158   3.330   6.399  0.1919 -0.6408  0.0919
13105TIP3    H139258   6.151   3.372   6.313  1.6979 -0.4928  0.0222
13105TIP3    H239259   6.068   3.309   6.423 -0.4257  0.9757 -0.6952
13106TIP3   OH239260   0.352   6.075   2.231  0.3357  0.3496  0.5934
13106TIP3    H139261   0.349   6.058   2.137 -0.5674 -1.7069  0.9290
13106TIP3    H239262   0.272   6.125   2.249 -0.1239 -0.2960  0.4113
13107TIP3   OH239263   7.358   6.236   0.661  0.2380  0.5526  0.0367
13107TIP3    H139264   7.347   6.161   0.603 -0.4049  0.7010 -0.0412
13107TIP3    H239265   7.279   6.237   0.714  0.7149  0.5556  0.7651
13108TIP3   OH239266   3.077   1.667   0.986  0.1894  0.4185  0.7244
13108TIP3    H139267   3.047   1.753   0.959 -1.3442 -0.5392 -0.7804
13108TIP3    H239268   3.027   1.606   0.933  1.8836 -1.3985  1.0971
13109TIP3   OH239269   2.628   6.139   3.246 -0.4398  0.1201 -0.0015
13109TIP3    H139270   2.684   6.118   3.321 -1.2016 -2.2742  0.0121
13109TIP3    H239271   2.634   6.062   3.190 -2.8262  0.2321 -0.5126
13110TIP3   OH239272   3.880   2.498   0.363  0.1501  0.0166 -0.0587
13110TIP3    H139273   3.899   2.436   0.293  0.4591  1.1637 -1.0060
13110TIP3    H239274   3.866   2.442   0.440 -0.1971 -1.2632 -1.0056
13111TIP3   OH239275   2.166   5.012   1.781 -0.5223  0.1207  0.0642
13111TIP3    H139276   2.156   5.107   1.781 -1.2538  0.0836 -1.7996
13111TIP3    H239277   2.077   4.978   1.781 -0.3635 -0.4714 -2.5043
13112TIP3   OH239278   2.162   4.928   1.497 -0.4672 -0.2806  0.8155
13112TIP3    H139279   2.232   4.984   1.462 -1.5404  1.1275  0.8233
13112TIP3    H239280   2.176   4.929   1.592 -2.4621  2.9601  1.2385
13113TIP3   OH239281   1.648   0.721   3.153  0.0230 -0.3807 -0.2986
13113TIP3    H139282   1.695   0.723   3.237 -1.9567  0.3614  0.8508
13113TIP3    H239283   1.613   0.633   3.148 -1.2263  0.0397  0.5005
13114TIP3   OH239284   5.714   3.727   4.337  0.3242 -0.1514 -0.0927
13114TIP3    H139285   5.669   3.793   4.283  2.0383  0.2727 -1.0815
13114TIP3    H239286   5.743   3.775   4.414  2.1819  0.5138 -1.1296
13115TIP3   OH239287   2.170   6.345   2.553  1.0650 -0.4767 -0.3849
13115TIP3    H139288   2.223   6.284   2.502  0.6052 -1.7716  0.6329
13115TIP3    H239289   2.217   6.355   2.636  1.6603  1.3870 -0.8955
13116TIP3   OH239290   5.225   5.356   6.799 -0.0620  0.0421  0.1608
13116TIP3    H139291   5.290   5.393   6.739 -1.1314  1.1515 -0.3686
13116TIP3    H239292   5.141   5.389   6.766 -0.6626  1.3420  2.6892
13117TIP3   OH239293   3.855   2.976   3.730 -0.7063 -0.7808 -0.1127
13117TIP3    H139294   3.916   3.015   3.667 -0.1866 -0.0656  0.8008
13117TIP3    H239295   3.864   2.882   3.717  0.4547 -0.6830 -0.1339
13118TIP3   OH239296   6.855   5.528   0.458 -0.0904  0.3932 -0.4009
13118TIP3    H139297   6.816   5.563   0.539  0.5452 -0.0102  0.0905
13118TIP3    H239298   6.785   5.476   0.419 -0.1732 -0.0423  0.2984
13119TIP3   OH239299   7.907   1.325   3.873  0.3347  0.2056  0.1346
13119TIP3    H139300   7.962   1.280   3.937 -2.1903  0.1097  2.4057
13119TIP3    H239301   7.849   1.257   3.839 -0.3398  0.8231  0.0238
13120TIP3   OH239302   2.280   1.890   5.575 -0.5694 -0.2307 -0.4154
13120TIP3    H139303   2.203   1.840   5.549 -0.6049 -1.0618  1.1411
13120TIP3    H239304   2.349   1.860   5.517 -1.3041  0.2557 -1.5866
13121TIP3   OH239305   6.907   4.634   0.681  0.2008 -0.0985  0.5105
13121TIP3    H139306   6.946   4.561   0.634 -0.2414 -1.9873  2.8831
13121TIP3    H239307   6.974   4.660   0.745  0.5306  1.9452 -0.5769
13122TIP3   OH239308   0.343   1.447   2.361 -0.0186 -0.4695 -0.4971
13122TIP3    H139309   0.275   1.380   2.357  0.3334 -0.8228 -0.5449
13122TIP3    H239310   0.302   1.525   2.324 -0.5639 -0.5407 -0.0619
13123TIP3   OH239311   3.160   7.086   0.039 -0.2067  0.0074 -0.4641
13123TIP3    H139312   3.146   7.092   0.133  0.3117  1.4219 -0.4526
13123TIP3    H239313   3.074   7.101   0.000 -0.8217 -2.4501 -0.2280
13124TIP3   OH239314   1.705   5.025   0.938  0.4443 -0.0260 -0.4434
13124TIP3    H139315   1.653   4.945   0.935  0.3853  0.0294 -2.6339
13124TIP3    H239316   1.689   5.067   0.853 -3.1149  4.6619  2.0602
13125TIP3   OH239317   4.313   5.824   0.108 -0.1036  0.0705  0.0645
13125TIP3    H139318   4.350   5.796   0.192 -1.2043  0.7494  0.8173
13125TIP3    H239319   4.361   5.904   0.086 -0.7881  0.7105  0.8189
13126TIP3   OH239320   3.333   4.968   1.469 -0.7610  0.5390 -0.1609
13126TIP3    H139321   3.369   4.884   1.500  2.3645  1.7641 -0.0674
13126TIP3    H239322   3.309   5.015   1.549 -0.6351  0.4748 -0.0841
13127TIP3   OH239323   5.161   2.246   3.191  0.6083  0.2111  0.3967
13127TIP3    H139324   5.166   2.151   3.182 -1.6104 -0.0264  0.9021
13127TIP3    H239325   5.129   2.259   3.281 -0.7812  1.3186 -0.2307
13128TIP3   OH239326   5.062   4.140   6.680 -0.4622  0.1176  0.2199
13128TIP3    H139327   4.988   4.184   6.721 -1.1772  1.2552 -2.1101
13128TIP3    H239328   5.093   4.078   6.746 -2.3209  0.9001  1.9295
13129TIP3   OH239329   7.855   4.447   6.101 -0.1545 -0.5546  0.3638
13129TIP3    H139330   7.833   4.521   6.158 -1.6709 -2.3524  2.2629
13129TIP3    H239331   7.902   4.487   6.028 -1.2005  2.3254  1.1113
13130TIP3   OH239332   1.124   5.153   4.592  0.3013 -0.0863 -0.2812
13130TIP3    H139333   1.206   5.188   4.628  0.2863 -0.4208  0.0869
13130TIP3    H239334   1.084   5.107   4.666 -0.0649 -0.1942 -0.5487
13131TIP3   OH239335   6.097   4.513   2.873 -0.4626  0.3636  0.3841
13131TIP3    H139336   6.027   4.554   2.822  0.0369  1.1257  0.3019
13131TIP3    H239337   6.170   4.506   2.812  0.1323  1.2643  0.9758
13132TIP3   OH239338   6.682   2.053   3.756 -0.1536  0.1858 -0.5629
13132TIP3    H139339   6.707   2.146   3.757 -0.8249  0.3860  0.9531
13132TIP3    H239340   6.721   2.018   3.836  0.5662 -0.9960 -1.4005
13133TIP3   OH239341   5.011   4.392   4.194  0.4100 -1.0809 -0.1445
13133TIP3    H139342   4.991   4.366   4.104  1.2452  2.7957 -1.6883
13133TIP3    H239343   5.068   4.469   4.184 -2.6635  2.1249  3.4676
13134TIP3   OH239344   7.289   4.061   3.749 -0.0759 -0.2141  0.6954
13134TIP3    H139345   7.252   3.997   3.689 -1.3950  0.0683  1.1741
13134TIP3    H239346   7.261   4.033   3.836 -0.5940  0.9413  0.9240
13135TIP3   OH239347   3.087   3.698   2.303 -0.1193  0.0320  0.4113
13135TIP3    H139348   3.029   3.686   2.379  0.0993  2.0759  0.9592
13135TIP3    H239349   3.035   3.750   2.242 -0.0305 -0.9871 -0.5597
13136TIP3   OH239350   5.630   4.166   1.887 -0.8131  0.2325  0.3931
13136TIP3    H139351   5.597   4.189   1.800 -3.1366  1.0096  1.3871
13136TIP3    H239352   5.674   4.082   1.876 -1.2726  0.2115 -1.4817
13137TIP3   OH239353   7.814   3.461   6.249 -0.1330 -0.2373  0.1103
13137TIP3    H139354   7.780   3.550   6.238 -2.1285 -0.7209  1.6731
13137TIP3    H239355   7.768   3.410   6.183  0.1191 -0.3132 -0.0061
13138TIP3   OH239356   6.231   4.718   3.687  0.1974  0.1657  0.7217
13138TIP3    H139357   6.160   4.691   3.628  0.0192  1.2628  0.4108
13138TIP3    H239358   6.202   4.688   3.774 -0.8387  0.9046  0.6600
13139TIP3   OH239359   2.135   5.162   2.834 -0.0953 -0.2024 -0.1293
13139TIP3    H139360   2.119   5.214   2.755  0.3123 -1.6915 -1.2576
13139TIP3    H239361   2.225   5.131   2.825  0.1895  0.1392  1.2843
13140TIP3   OH239362   7.768   5.542   3.945 -0.3104 -0.5494  0.2079
13140TIP3    H139363   7.829   5.520   3.874 -0.3420  1.4954 -0.5228
13140TIP3    H239364   7.699   5.475   3.939  1.2926 -2.3078  0.4148
13141TIP3   OH239365   4.960   3.861   4.240 -0.2239  0.1261  0.4275
13141TIP3    H139366   5.036   3.903   4.282 -0.0439  1.0120 -0.7257
13141TIP3    H239367   4.898   3.847   4.312  0.5580  0.4827  1.1931
13142TIP3   OH239368   1.301   4.409   4.229 -0.7818  0.5565  0.7783
13142TIP3    H139369   1.369   4.458   4.275 -2.5966  1.4014  2.7188
13142TIP3    H239370   1.255   4.361   4.298 -2.2150  0.0585 -0.4556
13143TIP3   OH239371   0.375   1.756   3.953  0.6005  0.3110  0.3878
13143TIP3    H139372   0.288   1.793   3.966  0.4755 -0.0386  0.5774
13143TIP3    H239373   0.370   1.711   3.869  0.6556  0.4521  0.3090
13144TIP3   OH239374   4.537   7.299   6.178  0.1060  0.4219 -0.5029
13144TIP3    H139375   4.497   7.301   6.091 -0.2688  0.5354 -0.3295
13144TIP3    H239376   4.475   7.346   6.234 -0.4957 -1.1382  0.1775
13145TIP3   OH239377   0.425   2.095   6.674 -0.1395 -0.0085  0.0591
13145TIP3    H139378   0.467   2.031   6.731  0.6733  0.8090  0.3986
13145TIP3    H239379   0.332   2.079   6.684  0.0192 -0.3408  1.0747
13146TIP3   OH239380   3.346   4.174   4.785 -0.0554  0.5570 -0.3584
13146TIP3    H139381   3.425   4.142   4.829  0.0201  0.5545 -0.4926
13146TIP3    H239382   3.295   4.217   4.853 -0.1384  0.1863 -0.1850
13147TIP3   OH239383   7.047   7.072   2.112 -0.3507  0.2564 -0.4954
13147TIP3    H139384   7.030   7.109   2.199  0.9560  0.5637 -0.3586
13147TIP3    H239385   7.080   7.146   2.060  1.8364 -0.5537 -0.3555
13148TIP3   OH239386   2.674   2.921   2.497  0.4066 -0.2328  0.1021
13148TIP3    H139387   2.643   2.847   2.445 -0.7814 -0.7651  1.4955
13148TIP3    H239388   2.603   2.938   2.559  1.4422  0.8836  1.0216
13149TIP3   OH239389   1.294   3.583   5.914  0.0810  0.5139 -0.5457
13149TIP3    H139390   1.322   3.536   5.835  0.5204  0.0369 -0.1131
13149TIP3    H239391   1.343   3.542   5.985 -0.5448  0.7307  0.0229
13150TIP3   OH239392   4.248   4.716   0.309 -0.2271  0.0993 -0.0496
13150TIP3    H139393   4.279   4.727   0.219  0.5056 -0.5249  0.1106
13150TIP3    H239394   4.161   4.678   0.300  0.7154 -2.1776 -0.5244
13151TIP3   OH239395   6.593   0.843   4.183 -0.1703 -0.3028  0.4498
13151TIP3    H139396   6.511   0.867   4.142 -0.1505 -1.3631 -0.2553
13151TIP3    H239397   6.646   0.806   4.112  0.0353 -1.7637  1.3104
13152TIP3   OH239398   0.753   2.878   6.246  0.2855  0.6373 -0.0048
13152TIP3    H139399   0.693   2.937   6.292  0.2659  0.3392  0.3567
13152TIP3    H239400   0.700   2.799   6.228 -0.8040  1.9730 -3.5898
13153TIP3   OH239401   1.658   1.039   5.140 -0.6281  0.3839 -0.5251
13153TIP3    H139402   1.655   1.001   5.053  2.1216 -3.3419  0.7613
13153TIP3    H239403   1.596   0.988   5.191  0.4655 -0.0196  0.4546
13154TIP3   OH239404   3.844   7.373   2.610 -0.3135  0.0711  0.0864
13154TIP3    H139405   3.932   7.382   2.575 -0.2556 -1.1572 -0.1547
13154TIP3    H239406   3.788   7.421   2.548  0.1091  0.2467 -0.1579
13155TIP3   OH239407   1.105   5.874   4.917  0.2545  0.4159 -1.1628
13155TIP3    H139408   1.048   5.797   4.910  0.6135  0.2687 -2.8601
13155TIP3    H239409   1.194   5.839   4.906  0.5658  0.8512 -0.1148
13156TIP3   OH239410   3.786   1.076   6.058 -1.0190 -0.1195  0.0143
13156TIP3    H139411   3.881   1.076   6.042 -1.1326 -2.1343 -0.9621
13156TIP3    H239412   3.777   1.057   6.151 -0.4342 -2.4799 -0.3500
13157TIP3   OH239413   1.551   1.872   0.217 -0.2575  0.2527  0.4110
13157TIP3    H139414   1.500   1.888   0.296  1.5928  2.7725  1.2087
13157TIP3    H239415   1.637   1.843   0.249  0.5913  1.5406 -0.6359
13158TIP3   OH239416   3.760   2.424   0.957 -0.1945  0.1843  0.0919
13158TIP3    H139417   3.831   2.409   1.019  0.4475 -0.1061 -0.6874
13158TIP3    H239418   3.748   2.519   0.957  0.3602  0.2578  0.0554
13159TIP3   OH239419   7.520   3.083   6.763 -0.1816 -0.0010  0.2022
13159TIP3    H139420   7.506   3.172   6.796  0.3321 -0.1571  0.8503
13159TIP3    H239421   7.438   3.061   6.720 -0.6427  0.4481  0.8299
13160TIP3   OH239422   2.484   3.239   2.764 -0.4755 -0.3522  0.2346
13160TIP3    H139423   2.472   3.332   2.782 -2.8186 -0.9120  1.9269
13160TIP3    H239424   2.534   3.206   2.839 -0.2412 -0.5773 -0.0199
13161TIP3   OH239425   1.761   2.882   0.887 -0.5324  0.2907  0.2388
13161TIP3    H139426   1.831   2.878   0.952 -0.8148  1.6406  0.6700
13161TIP3    H239427   1.798   2.843   0.808 -0.1960 -1.4328  1.2077
13162TIP3   OH239428   1.586   4.566   3.996 -0.1895  0.1870  0.5593
13162TIP3    H139429   1.549   4.481   4.018 -0.0511 -0.2984 -0.9419
13162TIP3    H239430   1.587   4.567   3.900  0.9076  1.3974  0.5590
13163TIP3   OH239431   5.407   0.695   1.423  0.1206  0.2087  0.0917
13163TIP3    H139432   5.435   0.754   1.354  0.6643  1.0770  1.0253
13163TIP3    H239433   5.457   0.614   1.408  1.2544  0.8628  0.2527
13164TIP3   OH239434   3.218   2.789   0.769  0.0252  0.5264 -0.1118
13164TIP3    H139435   3.147   2.772   0.830 -0.4269  2.8064  0.0866
13164TIP3    H239436   3.287   2.829   0.823  1.4404 -1.4449 -0.3378
13165TIP3   OH239437   6.936   2.848   0.862  0.4166  0.3294 -0.5947
13165TIP3    H139438   6.859   2.856   0.919  0.7049  0.3262 -0.2023
13165TIP3    H239439   6.994   2.788   0.909  0.2321 -0.4548 -1.3613
13166TIP3   OH239440   2.889   2.672   1.242 -0.3032  0.1043  0.0262
13166TIP3    H139441   2.928   2.688   1.156 -0.9287  1.8885  0.0346
13166TIP3    H239442   2.797   2.652   1.223 -0.7518  1.7983  0.3316
13167TIP3   OH239443   5.431   4.021   2.678  0.0970 -0.0140 -0.4712
13167TIP3    H139444   5.497   4.030   2.747  0.0882 -0.4602 -0.4014
13167TIP3    H239445   5.479   3.985   2.603  0.1369  0.6052 -0.7474
13168TIP3   OH239446   3.873   2.959   4.557 -0.0721  0.2161 -0.0816
13168TIP3    H139447   3.829   2.963   4.642  0.4421  1.9744  0.1455
13168TIP3    H239448   3.806   2.985   4.494 -0.9830 -2.8136 -0.5150
13169TIP3   OH239449   0.913   0.426   1.967 -0.5861  0.4952  0.3131
13169TIP3    H139450   0.868   0.510   1.978 -0.7023  0.4923 -0.1345
13169TIP3    H239451   0.861   0.378   1.904 -0.6874 -0.0450  0.7953
13170TIP3   OH239452   5.329   4.119   4.390 -0.0278 -0.0862  0.1572
13170TIP3    H139453   5.357   4.110   4.299 -1.6402 -2.0107 -0.2092
13170TIP3    H239454   5.410   4.137   4.439  1.2180 -1.4201 -1.3347
13171TIP3   OH239455   4.170   2.230   6.665 -0.5718 -0.3688 -0.1121
13171TIP3    H139456   4.101   2.271   6.717  0.1729  0.2482  0.4294
13171TIP3    H239457   4.128   2.208   6.582 -1.4643 -0.1982  0.2817
13172TIP3   OH239458   3.454   2.580   2.374  0.8128 -0.6270  0.0436
13172TIP3    H139459   3.538   2.555   2.412 -0.0293  0.5936  2.9615
13172TIP3    H239460   3.390   2.555   2.440 -0.6552  2.6889  0.0281
13173TIP3   OH239461   4.365   3.626   4.507  0.1414 -0.1083  0.1673
13173TIP3    H139462   4.399   3.550   4.555 -1.2597  0.5508  2.3812
13173TIP3    H239463   4.343   3.593   4.420  0.9778 -1.8557  0.5827
13174TIP3   OH239464   3.672   4.021   0.016  0.0632 -0.1573 -0.4357
13174TIP3    H139465   3.671   4.092   0.080 -1.1002 -1.4125  1.0132
13174TIP3    H239466   3.584   4.022  -0.022 -0.3417 -1.5186  0.4293
13175TIP3   OH239467   1.420   6.529   0.609  0.3250  0.1915  0.0392
13175TIP3    H139468   1.444   6.450   0.560 -0.4276 -0.7086  1.0739
13175TIP3    H239469   1.325   6.524   0.617  0.1899  1.5600 -0.4421
13176TIP3   OH239470   4.272   2.369   3.728  0.7924  0.1590  0.3067
13176TIP3    H139471   4.178   2.363   3.713  1.0087  0.5092 -1.4092
13176TIP3    H239472   4.311   2.356   3.641  2.2935  0.7551  0.8556
13177TIP3   OH239473   2.650   0.162   4.040  0.0629 -0.3695 -0.4955
13177TIP3    H139474   2.629   0.098   3.973  2.4682  0.6211 -2.3622
13177TIP3    H239475   2.740   0.142   4.065 -0.0569  0.6410  0.8754
13178TIP3   OH239476   0.085   7.263   5.283 -0.1104  0.2143  0.1083
13178TIP3    H139477   0.093   7.265   5.187  2.7533  0.9135  0.2707
13178TIP3    H239478   0.067   7.354   5.306 -1.8282 -0.1261  0.2275
13179TIP3   OH239479   5.283   2.825   1.418  0.3231 -0.0237 -0.0781
13179TIP3    H139480   5.317   2.744   1.456 -1.1009 -0.8148 -0.4577
13179TIP3    H239481   5.359   2.884   1.419  1.8070 -1.7971 -1.1570
13180TIP3   OH239482   3.247   4.518   5.699 -0.0822  0.4182 -0.3625
13180TIP3    H139483   3.207   4.451   5.754  1.0727  1.2096  1.5933
13180TIP3    H239484   3.206   4.600   5.727 -2.5919  0.5084 -3.7779
13181TIP3   OH239485   6.770   5.588   5.690 -0.2344  0.7269  0.1581
13181TIP3    H139486   6.707   5.594   5.617 -0.0717 -0.7110 -0.1384
13181TIP3    H239487   6.797   5.679   5.706 -2.2728  1.3796  0.2138
13182TIP3   OH239488   8.232   1.472   5.755  0.0329 -0.1966  0.2352
13182TIP3    H139489   8.149   1.451   5.711  0.6906 -2.0974 -0.1748
13182TIP3    H239490   8.290   1.500   5.684  0.4305 -1.1436  0.1723
13183TIP3   OH239491   7.953   6.207   3.635  0.2465  0.3192  0.5290
13183TIP3    H139492   8.023   6.233   3.575 -0.6940 -2.0807 -1.8036
13183TIP3    H239493   7.877   6.259   3.607  0.2032  0.3631  0.7253
13184TIP3   OH239494   4.475   7.133   4.527  0.2176 -0.4798  0.1112
13184TIP3    H139495   4.562   7.103   4.500  0.8112 -0.2356  1.6394
13184TIP3    H239496   4.434   7.056   4.565  0.3286 -0.2623  0.6865
13185TIP3   OH239497   4.448   1.582   4.542  0.3062 -0.5593  1.0472
13185TIP3    H139498   4.526   1.580   4.487  0.3476 -2.8759  1.0639
13185TIP3    H239499   4.435   1.674   4.564  1.4172  0.1977 -1.2262
13186TIP3   OH239500   7.804   3.052   4.665 -0.3628  0.0573 -0.0844
13186TIP3    H139501   7.741   3.091   4.604  0.7189 -0.8935 -1.8888
13186TIP3    H239502   7.882   3.107   4.657 -0.5727  0.5927  1.3257
13187TIP3   OH239503   2.950   5.307   0.479  0.3449  0.3938  0.0873
13187TIP3    H139504   2.882   5.373   0.464  1.0723  1.2545  0.4372
13187TIP3    H239505   2.914   5.250   0.547 -0.6585 -0.1336 -0.8444
13188TIP3   OH239506   5.515   2.848   4.908 -0.2596 -0.2029  0.2053
13188TIP3    H139507   5.587   2.869   4.967  0.0784  0.7542 -0.5247
13188TIP3    H239508   5.474   2.771   4.946  1.0604 -0.6706  0.7045
13189TIP3   OH239509   0.262   2.200   0.034 -0.3805 -0.0504  0.2162
13189TIP3    H139510   0.284   2.225   0.123 -1.1494 -1.0718  0.7196
13189TIP3    H239511   0.190   2.137   0.044  0.8285 -1.7219 -0.9834
13190TIP3   OH239512   0.059   2.263   3.405  0.5921 -0.3194 -0.3009
13190TIP3    H139513   0.030   2.288   3.317 -0.5541 -1.7676 -0.3684
13190TIP3    H239514  -0.019   2.275   3.460  0.8187 -1.0507  0.1809
13191TIP3   OH239515   2.713   1.498   2.284 -0.2507  0.5037 -0.0497
13191TIP3    H139516   2.683   1.438   2.216  0.4931  0.2988 -0.2050
13191TIP3    H239517   2.770   1.559   2.238  0.5145  0.1665  0.4376
13192TIP3   OH239518   6.391   3.430   2.932  0.2273  0.7902 -0.0640
13192TIP3    H139519   6.462   3.492   2.946  0.8232 -0.1829  1.4610
13192TIP3    H239520   6.416   3.382   2.852  0.2753  1.7619 -0.6487
13193TIP3   OH239521   8.236   0.067   5.433  0.0274  0.4710 -0.1581
13193TIP3    H139522   8.316   0.105   5.398  0.4930 -0.5370 -0.1914
13193TIP3    H239523   8.261   0.032   5.519 -1.2584  3.6054  1.6725
13194TIP3   OH239524   1.571   0.642   0.059 -0.5895  0.3068 -0.0142
13194TIP3    H139525   1.566   0.710   0.126 -0.2447  1.2459 -0.9089
13194TIP3    H239526   1.625   0.574   0.098  0.3774  1.2423  0.3410
13195TIP3   OH239527   4.178   6.552   6.565 -0.5420 -0.0823  0.0401
13195TIP3    H139528   4.236   6.622   6.595 -0.8133 -0.6897  2.1345
13195TIP3    H239529   4.172   6.492   6.639 -1.4959 -1.5799 -1.1772
13196TIP3   OH239530   6.152   6.762   6.263 -0.0440 -0.3785 -0.0663
13196TIP3    H139531   6.229   6.723   6.222  1.3178  0.3205  1.6796
13196TIP3    H239532   6.180   6.851   6.287 -1.6089  0.1201  0.0318
13197TIP3   OH239533   3.938   7.104   4.826  0.6649 -0.3081 -0.7085
13197TIP3    H139534   4.026   7.141   4.813  0.5824 -0.0358 -0.5022
13197TIP3    H239535   3.883   7.150   4.762  0.5581 -0.0497 -0.4375
13198TIP3   OH239536   2.431   5.151   2.953  0.2271 -0.5025 -0.5296
13198TIP3    H139537   2.478   5.074   2.983 -1.3410 -0.9545  0.9350
13198TIP3    H239538   2.498   5.217   2.939  1.4169 -1.5642  0.0073
13199TIP3   OH239539   6.273   7.580   2.530  0.1620  0.1948  0.2393
13199TIP3    H139540   6.224   7.644   2.581 -0.8593 -0.5466  0.2192
13199TIP3    H239541   6.313   7.631   2.460 -0.3036  0.8738  0.4606
13200TIP3   OH239542   4.239   1.127   4.878 -0.2941  0.5775  0.0629
13200TIP3    H139543   4.233   1.033   4.891 -0.0673  0.7332  1.4276
13200TIP3    H239544   4.239   1.164   4.966  1.4833  1.7404 -0.3577
13201TIP3   OH239545   0.819   0.400   0.174 -1.0253 -0.3346 -0.1556
13201TIP3    H139546   0.797   0.493   0.179  1.2834  0.3229 -0.8490
13201TIP3    H239547   0.801   0.366   0.261 -0.8126  1.0473  0.4520
13202TIP3   OH239548   6.047   6.454   1.833 -0.1031  0.3022  0.2382
13202TIP3    H139549   6.141   6.439   1.846  0.1380 -0.9965 -2.2929
13202TIP3    H239550   6.040   6.546   1.809  0.5025  0.4056  0.4396
13203TIP3   OH239551   2.235   7.394   1.630  0.1213  0.1184  0.6970
13203TIP3    H139552   2.250   7.469   1.688 -1.0438  0.5632  0.4539
13203TIP3    H239553   2.319   7.348   1.628  0.5995  0.9158  1.5626
13204TIP3   OH239554   7.151   6.315   4.654  0.1173  0.0268  0.4649
13204TIP3    H139555   7.236   6.357   4.664 -0.1813  0.3998  1.5285
13204TIP3    H239556   7.154   6.276   4.567  1.4718 -0.1770  0.5770
13205TIP3   OH239557   7.866   4.457   0.741  0.4636  0.4117 -0.3109
13205TIP3    H139558   7.920   4.475   0.664  0.2807 -0.8518 -0.7597
13205TIP3    H239559   7.929   4.431   0.809  0.6856  2.1481  0.1989
13206TIP3   OH239560   4.844   2.495   4.368 -0.4134  0.0708  0.1885
13206TIP3    H139561   4.939   2.505   4.371 -0.4714  1.0059 -0.6521
13206TIP3    H239562   4.810   2.573   4.412 -0.8066  1.0519 -1.7559
13207TIP3   OH239563   2.879   6.202   6.344 -0.3941 -0.0001  0.1791
13207TIP3    H139564   2.945   6.266   6.318 -0.9493  1.0274  1.2081
13207TIP3    H239565   2.828   6.186   6.264  0.2016  0.2829 -0.2616
13208TIP3   OH239566   1.838   4.009   5.523  0.3873  0.1843 -0.0676
13208TIP3    H139567   1.893   3.932   5.510 -1.6477 -0.9050 -3.7168
13208TIP3    H239568   1.765   3.979   5.576  0.8359  0.3388  0.6561
13209TIP3   OH239569   3.708   0.802   0.440  0.5566  0.1474 -0.5133
13209TIP3    H139570   3.620   0.772   0.415 -0.8474  1.8677  1.9813
13209TIP3    H239571   3.766   0.734   0.406 -1.9513 -2.4871  0.0225
13210TIP3   OH239572   5.731   5.275   6.250  0.2611  0.0954  0.5665
13210TIP3    H139573   5.753   5.286   6.343 -0.0999  0.9686  0.5608
13210TIP3    H239574   5.799   5.217   6.216  1.8014  1.6495  0.8406
13211TIP3   OH239575   5.010   1.876   3.481  0.1838 -0.2265  0.3293
13211TIP3    H139576   4.991   1.827   3.401 -1.7224  0.6303  0.2132
13211TIP3    H239577   5.068   1.819   3.531 -0.1882 -1.6263 -0.7835
13212TIP3   OH239578   4.221   4.506   3.582 -0.0302 -0.2694 -0.2952
13212TIP3    H139579   4.227   4.414   3.608  0.3585  0.2354  1.5600
13212TIP3    H239580   4.213   4.504   3.486 -0.9527 -2.2467 -0.2177
13213TIP3   OH239581   8.157   7.793   6.012 -0.1840 -0.1713 -0.2329
13213TIP3    H139582   8.158   7.788   5.916 -1.7614  0.5017 -0.3115
13213TIP3    H239583   8.218   7.725   6.040 -0.0940 -0.7366 -1.7051
13214TIP3   OH239584   1.136   2.712   5.245 -0.3857 -0.8278 -0.1522
13214TIP3    H139585   1.051   2.672   5.267 -0.8232 -0.2738 -0.8042
13214TIP3    H239586   1.181   2.646   5.193 -0.5903 -0.9605 -0.1620
13215TIP3   OH239587   3.768   1.609   0.617 -0.0673  0.0469  0.1815
13215TIP3    H139588   3.675   1.593   0.608 -0.2380  1.0144  0.1481
13215TIP3    H239589   3.800   1.537   0.671 -0.6926 -0.6876 -0.4046
13216TIP3   OH239590   4.648   0.924   0.772 -0.2541  0.3761 -0.3030
13216TIP3    H139591   4.659   0.972   0.690 -2.9812 -0.5546 -1.3378
13216TIP3    H239592   4.564   0.954   0.807  1.9469  2.7160  3.6893
13217TIP3   OH239593   0.936   0.652   3.469  0.0953  0.8259 -0.2046
13217TIP3    H139594   0.957   0.745   3.461  1.4248  0.5470 -0.2427
13217TIP3    H239595   0.998   0.619   3.534  0.4215 -0.2568 -1.0352
13218TIP3   OH239596   1.542   4.528   2.389  0.5471 -0.5508 -1.1091
13218TIP3    H139597   1.618   4.494   2.343  1.0002 -1.4122  0.2078
13218TIP3    H239598   1.531   4.617   2.357  3.7898  0.6076  0.6397
13219TIP3   OH239599   8.169   6.371   4.054  0.7556  0.1850 -0.2016
13219TIP3    H139600   8.167   6.395   4.146  0.6776 -1.4922  0.2783
13219TIP3    H239601   8.076   6.360   4.030  0.7948  0.1153 -0.3270
13220TIP3   OH239602   4.921   2.154   2.131 -0.1251 -0.3424  0.3409
13220TIP3    H139603   4.996   2.210   2.146 -1.2611  0.9294  1.5548
13220TIP3    H239604   4.948   2.095   2.061  0.8297  2.2639 -1.6006
13221TIP3   OH239605   0.292   2.090   2.742 -0.2437 -0.2610 -0.2013
13221TIP3    H139606   0.248   2.045   2.814  0.5596  0.4056  0.7380
13221TIP3    H239607   0.320   2.020   2.683 -0.4005 -0.8658  0.4288
13222TIP3   OH239608   4.436   1.526   6.586  0.0429 -0.2592  0.5816
13222TIP3    H139609   4.464   1.484   6.667  2.0541 -0.1415 -0.0152
13222TIP3    H239610   4.395   1.608   6.615 -0.3539 -0.7727  1.5245
13223TIP3   OH239611   6.667   1.104   0.181 -0.1867  0.2440 -0.9286
13223TIP3    H139612   6.621   1.020   0.172  2.0426 -1.0472 -1.0915
13223TIP3    H239613   6.727   1.090   0.254  0.8057  1.4011 -1.4914
13224TIP3   OH239614   5.211   6.077   1.030  0.1792  0.1848  0.0958
13224TIP3    H139615   5.135   6.032   1.066 -0.2057  1.1607  0.5276
13224TIP3    H239616   5.286   6.025   1.062 -0.2291  0.1107  0.9800
13225TIP3   OH239617   2.452   7.350   5.723  0.1772 -0.2588 -0.0274
13225TIP3    H139618   2.513   7.309   5.663  1.0177 -0.5080  0.9661
13225TIP3    H239619   2.390   7.281   5.746  0.3683 -0.4009  0.0601
13226TIP3   OH239620   0.375   4.209   1.311  0.1638  0.3697 -0.2982
13226TIP3    H139621   0.320   4.149   1.361 -0.2928  0.6204 -0.4948
13226TIP3    H239622   0.313   4.268   1.267  0.5851  0.6181 -0.5676
13227TIP3   OH239623   2.376   6.280   6.742  0.0595  0.2310  0.2787
13227TIP3    H139624   2.389   6.303   6.649  0.4720 -1.6055 -0.1610
13227TIP3    H239625   2.465   6.274   6.777 -0.0470 -0.2071  0.4807
13228TIP3   OH239626   6.951   1.114   4.532  0.1347  0.2945  0.2625
13228TIP3    H139627   7.014   1.051   4.566  0.5604  0.1873 -0.7114
13228TIP3    H239628   6.939   1.177   4.603  0.3845 -0.3758  0.9109
13229TIP3   OH239629   4.785   3.880   2.966 -0.0290 -0.4306  0.7296
13229TIP3    H139630   4.827   3.956   2.927  0.6318 -0.9914  0.3403
13229TIP3    H239631   4.857   3.819   2.985 -0.6069 -1.1923  0.5162
13230TIP3   OH239632   2.869   2.281   6.144 -0.1233 -0.0651  0.1723
13230TIP3    H139633   2.784   2.315   6.118 -0.4263  0.1472  1.3601
13230TIP3    H239634   2.905   2.241   6.065 -0.7299  1.0440 -0.6870
13231TIP3   OH239635   7.661   6.274   5.435  0.1760 -0.2570  0.6123
13231TIP3    H139636   7.745   6.228   5.431 -0.0551 -0.6672  0.4477
13231TIP3    H239637   7.684   6.366   5.420  0.4543 -0.5252 -0.7994
13232TIP3   OH239638   4.570   3.248   5.136  0.1859  0.1140 -0.2214
13232TIP3    H139639   4.501   3.226   5.073 -0.8323 -0.2447  0.9762
13232TIP3    H239640   4.535   3.323   5.185  0.5044 -0.2650  0.6076
13233TIP3   OH239641   0.448   7.580   2.547 -0.1883 -0.0578 -0.4644
13233TIP3    H139642   0.520   7.519   2.560  0.8682  1.2621  0.0307
13233TIP3    H239643   0.466   7.653   2.606 -0.9163  1.1865 -1.7031
13234TIP3   OH239644   6.288   3.520   0.450 -0.3697 -0.1601  0.3138
13234TIP3    H139645   6.341   3.566   0.385 -0.0465  0.1880  0.8177
13234TIP3    H239646   6.347   3.455   0.488 -0.8000 -0.9471 -0.3354
13235TIP3   OH239647   2.624   7.238   5.518  0.6856 -0.4351  0.0522
13235TIP3    H139648   2.573   7.210   5.442  2.0042 -0.0575 -1.0119
13235TIP3    H239649   2.715   7.238   5.488  1.2294 -0.0571  1.5690
13236TIP3   OH239650   3.323   0.327   4.899 -0.1943 -0.3419 -0.3921
13236TIP3    H139651   3.257   0.352   4.835 -1.2124  1.4287  1.2344
13236TIP3    H239652   3.382   0.402   4.903 -0.4541 -0.1810  1.0717
13237TIP3   OH239653   0.187   3.621   2.854  0.3056  0.4604 -0.2909
13237TIP3    H139654   0.134   3.543   2.839  0.0174  0.5248  0.3524
13237TIP3    H239655   0.277   3.590   2.845  0.1940  0.0513 -0.0378
13238TIP3   OH239656   4.582   1.196   5.561  0.4592 -0.2811 -0.1506
13238TIP3    H139657   4.526   1.266   5.528  2.6421  1.7351  0.2209
13238TIP3    H239658   4.621   1.158   5.483 -1.4123 -1.7830 -0.4221
13239TIP3   OH239659   2.361   6.799   3.644  0.2179 -0.2721  0.7710
13239TIP3    H139660   2.432   6.782   3.583 -0.4608 -1.1765  0.2074
13239TIP3    H239661   2.386   6.750   3.723  0.0593 -0.8954  0.4454
13240TIP3   OH239662   2.204   2.293   5.107 -0.7750  0.0975  0.3209
13240TIP3    H139663   2.237   2.203   5.100 -1.3382 -0.2277  1.6408
13240TIP3    H239664   2.258   2.342   5.045  0.7428 -0.8271  0.8309
13241TIP3   OH239665   5.778   5.444   4.263  0.3728 -0.4381  0.3006
13241TIP3    H139666   5.710   5.382   4.236 -1.5860  1.5177  0.4516
13241TIP3    H239667   5.785   5.504   4.189  0.6364  0.4134  1.0107
13242TIP3   OH239668   5.695   1.298   3.349 -0.3456 -0.3304  0.3725
13242TIP3    H139669   5.699   1.327   3.258  0.6816  0.3639  0.6185
13242TIP3    H239670   5.725   1.207   3.346 -0.8588 -0.4890 -0.0495
13243TIP3   OH239671   0.423   1.021   3.113  0.0454 -0.1618  0.3535
13243TIP3    H139672   0.353   1.036   3.176 -0.2899 -0.2414  0.0004
13243TIP3    H239673   0.504   1.032   3.164 -0.1591 -2.9794  1.4975
13244TIP3   OH239674   1.939   6.323   1.421 -0.0883 -0.2447 -0.0078
13244TIP3    H139675   1.879   6.314   1.348 -2.2453  0.5008  1.5901
13244TIP3    H239676   1.994   6.398   1.397 -1.8797  1.0844 -0.1774
13245TIP3   OH239677   0.215   0.667   2.655  0.7742  0.5588 -0.0926
13245TIP3    H139678   0.278   0.621   2.600  0.6171  0.7620 -0.4516
13245TIP3    H239679   0.222   0.626   2.741  1.8309  0.9756  0.0394
13246TIP3   OH239680   5.487   2.614   5.997  0.3169 -0.2179 -0.1078
13246TIP3    H139681   5.519   2.687   5.943  0.7517 -0.6513 -0.4461
13246TIP3    H239682   5.549   2.610   6.070  0.7447 -0.7384 -0.4972
13247TIP3   OH239683   4.748   0.505   1.837  0.2581 -0.1995  0.0244
13247TIP3    H139684   4.721   0.594   1.861  0.5620 -0.7223  2.6365
13247TIP3    H239685   4.802   0.476   1.911 -0.3912 -2.7862 -0.4316
13248TIP3   OH239686   7.877   3.478   5.384  0.0902  0.0574  0.4150
13248TIP3    H139687   7.872   3.391   5.344 -0.3824 -1.5251  3.5910
13248TIP3    H239688   7.891   3.537   5.311 -0.8284 -2.5368 -2.0445
13249TIP3   OH239689   4.275   6.377   5.902  0.3879 -0.6697  0.2195
13249TIP3    H139690   4.220   6.347   5.974 -0.1155 -0.6752 -0.1580
13249TIP3    H239691   4.323   6.300   5.873 -0.5763 -1.0371 -0.4636
13250TIP3   OH239692   2.429   6.918   2.126 -0.2256 -0.9454 -0.2140
13250TIP3    H139693   2.431   6.823   2.138  0.7641 -0.9106 -0.0735
13250TIP3    H239694   2.341   6.935   2.092 -0.5897 -1.8506  0.2318
13251TIP3   OH239695   7.046   5.718   1.551  0.0153 -0.1454 -0.4291
13251TIP3    H139696   6.953   5.733   1.535 -0.2995 -0.2234  1.2283
13251TIP3    H239697   7.059   5.624   1.532 -0.2244 -0.1319 -0.6691
13252TIP3   OH239698   6.509   2.577   3.208  0.2569 -0.2770  0.4447
13252TIP3    H139699   6.601   2.595   3.187  0.1440 -0.0756  0.1163
13252TIP3    H239700   6.496   2.486   3.183  0.2067 -0.1291 -0.0702
13253TIP3   OH239701   5.691   3.162   2.645  0.2784 -0.0586 -0.4374
13253TIP3    H139702   5.653   3.089   2.595  1.6591 -0.8927 -0.3256
13253TIP3    H239703   5.633   3.236   2.627 -1.3133 -1.2345 -0.3482
13254TIP3   OH239704   4.609   5.715   2.761  0.4409 -0.0235  0.3543
13254TIP3    H139705   4.577   5.680   2.843 -1.0028 -0.7731 -0.4931
13254TIP3    H239706   4.543   5.779   2.734  0.6397 -0.1491 -0.4631
13255TIP3   OH239707   0.321   0.233   1.726 -0.1907  0.3547  0.8743
13255TIP3    H139708   0.252   0.183   1.770 -0.5136 -1.6283 -1.6351
13255TIP3    H239709   0.382   0.166   1.695  0.9614  1.7819 -0.0450
13256TIP3   OH239710   0.089   4.222   3.553 -0.1135 -1.0103  0.3748
13256TIP3    H139711   0.003   4.255   3.576  1.2880  0.6489  3.9401
13256TIP3    H239712   0.077   4.127   3.545 -1.9762 -1.0279  2.4952
13257TIP3   OH239713   2.794   3.252   4.562 -0.4052 -0.0051  0.0140
13257TIP3    H139714   2.732   3.246   4.490 -1.0211 -1.0249  0.6110
13257TIP3    H239715   2.743   3.285   4.636  0.2308  1.0802 -0.0048
13258TIP3   OH239716   4.488   0.045   2.879 -0.4154  0.3772  0.2336
13258TIP3    H139717   4.441   0.117   2.920  0.7022  0.9253  0.6215
13258TIP3    H239718   4.573   0.045   2.924 -0.7911 -1.9159  1.0665
13259TIP3   OH239719   4.009   4.072   5.041 -0.1470  0.4156 -0.0072
13259TIP3    H139720   4.029   4.042   5.130  0.7053  0.0693 -0.3082
13259TIP3    H239721   3.994   4.166   5.050  0.3602  0.4574  0.4395
13260TIP3   OH239722   2.689   5.343   4.162 -0.2670 -0.0897  0.0638
13260TIP3    H139723   2.629   5.393   4.106  1.9607  1.1707 -1.3697
13260TIP3    H239724   2.645   5.259   4.175 -3.2881  1.4639  0.9523
13261TIP3   OH239725   4.147   4.247   1.276 -0.4497 -0.3018  0.2484
13261TIP3    H139726   4.101   4.262   1.358  1.1910 -0.3447  1.2262
13261TIP3    H239727   4.234   4.217   1.302  0.5315  0.8407 -1.4823
13262TIP3   OH239728   3.751   4.790   4.443 -0.0411 -0.0707 -0.2857
13262TIP3    H139729   3.698   4.714   4.468 -0.9417  0.4931 -0.4663
13262TIP3    H239730   3.840   4.754   4.432 -0.2764 -0.9324  0.4871
13263TIP3   OH239731   0.836   0.131   3.759 -0.0709  0.0797 -0.2056
13263TIP3    H139732   0.855   0.222   3.782  1.0058 -0.1440 -0.1602
13263TIP3    H239733   0.842   0.083   3.841  2.0200 -0.4384 -0.6144
13264TIP3   OH239734   7.304   2.317   4.648  0.1941 -0.4877  0.1091
13264TIP3    H139735   7.400   2.309   4.651  0.2279 -0.7045 -1.0682
13264TIP3    H239736   7.289   2.404   4.609 -0.1233  0.5931  2.5003
13265TIP3   OH239737   3.342   1.772   0.323 -0.2249  0.3735  0.9703
13265TIP3    H139738   3.406   1.816   0.378  0.4238  2.9017 -1.5890
13265TIP3    H239739   3.393   1.708   0.273 -0.3222  0.0163  1.3235
13266TIP3   OH239740   0.624   0.706   3.318 -0.0617 -0.0140  0.1757
13266TIP3    H139741   0.628   0.723   3.412 -0.6149 -1.8992  0.5897
13266TIP3    H239742   0.533   0.722   3.294 -0.1671 -0.5702  0.1944
13267TIP3   OH239743   6.341   0.322   6.137  0.2428 -0.9453  0.1044
13267TIP3    H139744   6.247   0.317   6.152  0.6945 -2.6399  3.4966
13267TIP3    H239745   6.366   0.233   6.110  0.8952 -0.4808 -0.9070
13268TIP3   OH239746   0.582   1.481   5.530 -0.3979  0.0702 -0.0952
13268TIP3    H139747   0.526   1.504   5.604 -0.4789 -0.2985 -0.0403
13268TIP3    H239748   0.544   1.528   5.455 -0.4731  0.2309  0.0435
13269TIP3   OH239749   6.039   6.801   0.757 -0.0793 -0.3801 -0.1273
13269TIP3    H139750   5.978   6.728   0.764  0.9164 -1.1585  0.9414
13269TIP3    H239751   5.997   6.872   0.805 -0.3959 -0.7324  0.1285
13270TIP3   OH239752   5.026   6.624   1.594  0.1553 -0.1277  0.0030
13270TIP3    H139753   4.950   6.568   1.580 -0.3792  0.5111  0.3224
13270TIP3    H239754   5.000   6.710   1.562 -0.8386  1.2145  3.8664
13271TIP3   OH239755   5.476   5.090   2.055  0.4498  0.4736  0.9513
13271TIP3    H139756   5.543   5.071   1.990 -1.1013 -0.2836 -0.5175
13271TIP3    H239757   5.518   5.071   2.139  1.7027 -1.2030  0.0184
13272TIP3   OH239758   5.948   6.263   4.810  0.2074 -0.4211  0.2752
13272TIP3    H139759   5.931   6.317   4.887  2.6044  1.1332 -0.1901
13272TIP3    H239760   5.874   6.280   4.752 -0.8703 -0.4463  1.5841
13273TIP3   OH239761   0.158   5.525   5.026  0.0857  0.5211  0.2779
13273TIP3    H139762   0.073   5.559   4.998 -0.5816 -1.6544 -0.5427
13273TIP3    H239763   0.182   5.579   5.102 -1.5720  1.7714 -0.0357
13274TIP3   OH239764   2.203   4.016   3.944 -0.1382  0.4489 -0.5287
13274TIP3    H139765   2.239   4.094   3.901  0.2865  0.6548  0.1802
13274TIP3    H239766   2.274   3.985   4.000 -1.2138  1.1995  1.3644
13275TIP3   OH239767   0.512   3.213   1.886  0.1583 -0.1428 -0.4910
13275TIP3    H139768   0.419   3.236   1.876  0.4513  1.1736 -0.3876
13275TIP3    H239769   0.557   3.269   1.824  1.1689  1.6689  1.7399
13276TIP3   OH239770   3.328   2.934   5.736  0.5092  0.0722 -0.1803
13276TIP3    H139771   3.265   2.878   5.691 -2.2811  2.8313 -0.0896
13276TIP3    H239772   3.312   2.919   5.829  0.2795  0.4452 -0.1563
13277TIP3   OH239773   6.627   3.085   4.075  0.1444  0.0028 -0.3386
13277TIP3    H139774   6.587   2.998   4.074 -1.1279  0.5623  0.1119
13277TIP3    H239775   6.696   3.079   4.141 -0.5643 -0.3947  0.3738
13278TIP3   OH239776   1.490   2.872   5.241  0.1267  0.2270 -0.5011
13278TIP3    H139777   1.519   2.812   5.172 -0.5853  0.1048 -0.6988
13278TIP3    H239778   1.526   2.957   5.215  1.4892 -0.1616 -0.0086
13279TIP3   OH239779   5.664   2.896   1.220 -0.3931  0.2875  0.4520
13279TIP3    H139780   5.757   2.908   1.238 -0.2603 -0.7866  0.6028
13279TIP3    H239781   5.647   2.804   1.242 -1.1393  0.0178 -1.0542
13280TIP3   OH239782   1.475   0.302   2.890  0.0911  0.6507  0.2555
13280TIP3    H139783   1.410   0.372   2.884 -0.7426  0.0305  1.5524
13280TIP3    H239784   1.449   0.252   2.967  1.9174  0.1736  0.6087
13281TIP3   OH239785   2.102   1.361   2.105  0.2780  0.4090 -0.2520
13281TIP3    H139786   2.012   1.337   2.082 -1.0613  2.2878  2.3690
13281TIP3    H239787   2.129   1.294   2.168  0.3571  0.3391 -0.3609
13282TIP3   OH239788   5.419   4.478   5.091  0.3842  0.0626 -0.1123
13282TIP3    H139789   5.344   4.537   5.087  1.0933  0.9309 -0.9154
13282TIP3    H239790   5.492   4.533   5.118  0.8390 -0.6802  0.2094
13283TIP3   OH239791   0.521   0.944   0.260  0.5414  0.6516  0.8089
13283TIP3    H139792   0.506   0.876   0.326 -0.4481  0.2105  0.1449
13283TIP3    H239793   0.612   0.969   0.273  1.1404 -1.2631  0.6591
13284TIP3   OH239794   6.679   6.471   0.770  0.1283  0.3237  0.2350
13284TIP3    H139795   6.697   6.476   0.864  1.4187 -3.4376  0.3431
13284TIP3    H239796   6.752   6.516   0.729 -0.3888  1.9049  0.9577
13285TIP3   OH239797   7.823   3.463   4.052 -0.6436 -0.1627 -0.0211
13285TIP3    H139798   7.887   3.418   3.997 -1.3239 -1.6245  0.3339
13285TIP3    H239799   7.858   3.552   4.063  1.8606 -1.1886  1.0168
13286TIP3   OH239800   1.610   3.785   5.549  0.4748  0.1806  0.1517
13286TIP3    H139801   1.653   3.699   5.541 -1.8001 -0.8873 -2.0806
13286TIP3    H239802   1.524   3.765   5.587  0.3201  1.6741  0.6564
13287TIP3   OH239803   4.391   5.896   4.113  0.4895  0.0433  0.4456
13287TIP3    H139804   4.480   5.926   4.093  1.5824 -2.1330  1.7290
13287TIP3    H239805   4.362   5.852   4.033  0.7624  0.3184  0.1940
13288TIP3   OH239806   0.582   3.357   3.038 -0.3650 -0.4781 -0.4702
13288TIP3    H139807   0.613   3.267   3.037 -1.6183 -0.9381 -0.0061
13288TIP3    H239808   0.646   3.405   2.986  0.3088 -1.6375 -0.7433
13289TIP3   OH239809   2.167   2.215   2.925 -0.2272 -0.1935  0.0713
13289TIP3    H139810   2.227   2.223   2.999  0.2057 -1.7931 -0.0683
13289TIP3    H239811   2.093   2.271   2.948  1.7995  2.9531 -0.3471
13290TIP3   OH239812   8.251  -0.007   3.145 -0.4486 -0.5368  0.1098
13290TIP3    H139813   8.193   0.067   3.163 -0.8074 -0.8612  0.2985
13290TIP3    H239814   8.206  -0.056   3.076 -1.1764 -1.6522  1.3442
13291TIP3   OH239815   7.811   3.580   3.675  0.3915 -0.0710  0.7268
13291TIP3    H139816   7.741   3.524   3.640 -1.8887  1.0069  3.2753
13291TIP3    H239817   7.892   3.530   3.658 -0.8111 -1.1220 -2.8172
13292TIP3   OH239818   4.901   4.564   2.472  0.0393  0.3387  0.9550
13292TIP3    H139819   4.837   4.632   2.491  0.4243  0.9162  0.2517
13292TIP3    H239820   4.886   4.542   2.380  1.9430  1.7274  0.2363
13293TIP3   OH239821   1.162   0.725   4.369  0.1431  0.0800  0.6576
13293TIP3    H139822   1.096   0.765   4.426 -0.5041  1.4880 -1.0171
13293TIP3    H239823   1.113   0.689   4.296  1.1000 -0.3558  0.2107
13294TIP3   OH239824   2.552   5.377   5.340  0.0843 -0.0090 -0.3824
13294TIP3    H139825   2.618   5.436   5.304  1.4539 -0.1346  1.7340
13294TIP3    H239826   2.583   5.289   5.318 -1.2932 -0.0571 -2.4282
13295TIP3   OH239827   7.000   4.812   6.195 -0.4683 -0.2390  0.6887
13295TIP3    H139828   7.013   4.738   6.256 -0.5444 -2.0856 -1.4140
13295TIP3    H239829   7.073   4.871   6.214  1.6853 -2.5349  0.1786
13296TIP3   OH239830   0.499   6.477   2.102 -0.0327 -0.5230  0.3269
13296TIP3    H139831   0.589   6.504   2.118 -0.3736  0.8284  0.0865
13296TIP3    H239832   0.492   6.390   2.141  1.1488 -0.3123  1.0413
13297TIP3   OH239833   5.800   1.875   5.951  0.1987 -0.3793  0.2355
13297TIP3    H139834   5.798   1.788   5.912 -1.1443 -0.6333  0.8403
13297TIP3    H239835   5.779   1.861   6.043  0.0983  0.5737  0.3685
13298TIP3   OH239836   2.071   5.882   4.019 -0.2150  0.0503  0.0659
13298TIP3    H139837   2.162   5.861   4.038 -0.0015  0.2390 -0.7156
13298TIP3    H239838   2.071   5.912   3.928 -1.1268 -0.4400 -0.1167
13299TIP3   OH239839   0.487   6.791   3.473  0.2211 -0.0746  0.3270
13299TIP3    H139840   0.457   6.700   3.462 -0.1715  0.1666 -0.7270
13299TIP3    H239841   0.408   6.844   3.461  0.4454  0.4126  0.9518
13300TIP3   OH239842   1.001   1.854   5.482 -0.3800 -0.0656  0.0117
13300TIP3    H139843   1.032   1.805   5.406 -1.1603 -0.9555  0.2547
13300TIP3    H239844   0.941   1.795   5.527  0.7893  0.0710  1.8734
13301TIP3   OH239845   2.220   5.075   5.236  0.2603  0.7030  0.0470
13301TIP3    H139846   2.261   5.158   5.214 -1.5282  1.3352 -1.1519
13301TIP3    H239847   2.135   5.099   5.272  0.6480 -0.5738  1.9687
13302TIP3   OH239848   0.235   2.169   5.492  0.1610  0.8812  0.3002
13302TIP3    H139849   0.266   2.122   5.569 -0.7309  1.6763  1.1783
13302TIP3    H239850   0.206   2.254   5.526 -1.0511  0.9286 -0.7599
13303TIP3   OH239851   6.327   3.665   2.751 -0.1255 -0.1582 -0.1347
13303TIP3    H139852   6.415   3.630   2.762 -0.4964 -0.6689  1.5463
13303TIP3    H239853   6.340   3.760   2.743  0.4816  0.1029  2.7650
13304TIP3   OH239854   7.831   5.209   2.018  0.3422  0.3450 -0.4988
13304TIP3    H139855   7.859   5.225   1.928  0.7260  1.9820 -0.1217
13304TIP3    H239856   7.818   5.114   2.023  1.6211  0.0620 -1.8973
13305TIP3   OH239857   0.788   0.728   1.315  0.2684 -0.3396 -0.5599
13305TIP3    H139858   0.744   0.658   1.267  0.0681 -1.8306  1.6459
13305TIP3    H239859   0.878   0.697   1.325  0.2839 -0.1062  0.0748
13306TIP3   OH239860   7.134   1.418   2.400 -0.5086  0.0392  0.4988
13306TIP3    H139861   7.221   1.392   2.371 -0.2162  0.2919  1.1274
13306TIP3    H239862   7.075   1.352   2.364 -0.1387  0.2244 -0.4739
13307TIP3   OH239863   0.730   2.186   1.304 -0.2376 -0.6342 -0.0544
13307TIP3    H139864   0.662   2.211   1.366  0.0663  1.0760 -0.3486
13307TIP3    H239865   0.705   2.099   1.274 -1.4054 -0.7091  1.0499
13308TIP3   OH239866   4.816   0.116   0.640  0.2817  0.2933  0.0361
13308TIP3    H139867   4.801   0.028   0.606 -1.1564  0.5133  0.0229
13308TIP3    H239868   4.730   0.159   0.632  0.2191  0.7991  2.6320
13309TIP3   OH239869   0.931   4.013   3.805 -0.5359  0.0726  0.1049
13309TIP3    H139870   0.985   3.956   3.859  0.0383  0.0886 -0.4386
13309TIP3    H239871   0.989   4.084   3.778 -1.2757  0.9928  0.8604
13310TIP3   OH239872   5.438   1.154   0.046 -0.4061 -0.0271  1.1939
13310TIP3    H139873   5.518   1.111   0.076 -0.3863  0.6200  2.1095
13310TIP3    H239874   5.437   1.139  -0.049 -0.3418 -1.9045  1.4633
13311TIP3   OH239875   3.232   1.983   4.224 -0.1234 -0.1780 -0.1406
13311TIP3    H139876   3.231   2.070   4.264  1.4776 -1.0270  1.9815
13311TIP3    H239877   3.322   1.972   4.194 -0.4588 -0.8903 -0.9040
13312TIP3   OH239878   5.100   6.577   2.325 -0.0693  0.5789 -0.4901
13312TIP3    H139879   5.118   6.529   2.244  1.0138  1.6326 -0.9068
13312TIP3    H239880   5.115   6.668   2.302  1.2561  0.8124  1.1675
13313TIP3   OH239881   4.466   4.120   5.217  0.5049 -0.0905  0.0681
13313TIP3    H139882   4.411   4.188   5.176  1.3074  0.1088 -0.7063
13313TIP3    H239883   4.488   4.061   5.145  1.9458  0.2680  0.1876
13314TIP3   OH239884   2.151   0.021   6.456 -0.3294 -0.3486  0.7954
13314TIP3    H139885   2.069   0.023   6.507  0.4733  1.1317  2.1249
13314TIP3    H239886   2.219   0.043   6.520  0.5583  3.4140 -1.1506
13315TIP3   OH239887   4.078   3.101   5.649 -0.0251  0.0849 -0.2599
13315TIP3    H139888   4.145   3.160   5.613 -0.5404  0.7482 -0.1571
13315TIP3    H239889   4.049   3.049   5.575 -0.5599  0.9413 -0.6683
13316TIP3   OH239890   4.478   1.519   3.781  0.1173  0.1204 -0.4962
13316TIP3    H139891   4.539   1.490   3.849 -0.9935 -0.3755  0.3387
13316TIP3    H239892   4.420   1.443   3.768 -2.4677  1.6314  1.2633
13317TIP3   OH239893   4.711   7.514   0.349  0.1592 -0.9031 -0.1362
13317TIP3    H139894   4.671   7.601   0.348 -0.7897 -1.3205 -0.8552
13317TIP3    H239895   4.803   7.529   0.327  0.4380  0.0813  1.4957
13318TIP3   OH239896   5.106   0.312   0.912 -0.3067 -0.1966 -0.2022
13318TIP3    H139897   5.044   0.369   0.867 -0.0552  0.0614 -0.2255
13318TIP3    H239898   5.192   0.351   0.895 -0.1065 -0.7180 -0.4214
13319TIP3   OH239899   6.476   1.720   5.199  0.3510 -0.6538  0.2600
13319TIP3    H139900   6.451   1.764   5.118 -0.2027 -0.4552  0.5352
13319TIP3    H239901   6.496   1.792   5.260  3.1199 -0.7614 -0.3719
13320TIP3   OH239902   4.448   5.917   1.544  0.1585  0.1342  0.4955
13320TIP3    H139903   4.366   5.874   1.519  1.2216 -1.6509 -0.1181
13320TIP3    H239904   4.503   5.909   1.466  0.7614  1.7583  0.7214
13321TIP3   OH239905   7.173   5.070   5.820 -0.3684 -0.1566 -0.3026
13321TIP3    H139906   7.194   5.154   5.779 -0.5409  0.4146  0.7569
13321TIP3    H239907   7.085   5.048   5.788  0.1188 -0.5199 -1.4768
13322TIP3   OH239908   6.679   3.854   5.190 -0.0878  0.2799  0.0433
13322TIP3    H139909   6.706   3.936   5.231 -0.4874 -0.1483  1.1922
13322TIP3    H239910   6.617   3.881   5.122 -0.5414  0.9161  0.6871
13323TIP3   OH239911   5.513   1.427   5.521 -0.0997  0.4780  0.3173
13323TIP3    H139912   5.607   1.439   5.534 -0.2435  0.5659  1.3002
13323TIP3    H239913   5.480   1.395   5.605 -0.5270 -2.2443 -0.7522
13324TIP3   OH239914   1.241   4.378   0.246  0.2866  0.3362 -0.1041
13324TIP3    H139915   1.169   4.327   0.284  1.4845 -2.3625 -1.1930
13324TIP3    H239916   1.245   4.457   0.300 -3.5024  0.6997 -0.0576
13325TIP3   OH239917   1.135   6.294   6.560 -0.2396 -0.7971 -0.0063
13325TIP3    H139918   1.047   6.276   6.526 -0.0561 -1.5464 -0.0909
13325TIP3    H239919   1.185   6.320   6.483 -0.6962  0.8936  0.2250
13326TIP3   OH239920   3.479   2.248   4.659 -0.7031 -0.4084 -0.4277
13326TIP3    H139921   3.457   2.313   4.593  0.7176  4.0395  2.9506
13326TIP3    H239922   3.573   2.232   4.648 -0.3877  0.6036  0.5776
13327TIP3   OH239923   4.751   4.884   0.967  0.1853  0.0719 -0.1010
13327TIP3    H139924   4.846   4.880   0.975  0.1684  1.0517  0.7871
13327TIP3    H239925   4.734   4.867   0.875  1.2366  0.2233 -0.3352
13328TIP3   OH239926   0.810   2.289   1.572  0.1484  0.0705  0.3932
13328TIP3    H139927   0.817   2.197   1.599  3.0100 -0.2491 -1.0705
13328TIP3    H239928   0.852   2.292   1.486  0.3908  2.8146  0.5284
13329TIP3   OH239929   2.862   3.429   5.098 -0.1342 -0.2512  0.1681
13329TIP3    H139930   2.780   3.389   5.127 -0.4032  0.1602 -0.0124
13329TIP3    H239931   2.927   3.402   5.164 -0.5100 -0.2100  0.5596
13330TIP3   OH239932   4.881   7.749   2.230  0.5455  0.9587  0.7573
13330TIP3    H139933   4.941   7.799   2.174  0.9196  0.2273  0.4982
13330TIP3    H239934   4.929   7.735   2.311  0.0520  1.9030  1.2306
13331TIP3   OH239935   7.240   4.885   4.081  0.5205  0.1374 -0.3900
13331TIP3    H139936   7.265   4.793   4.069  1.7766  0.6070 -1.5784
13331TIP3    H239937   7.321   4.934   4.075 -0.2759  1.4449 -1.0191
13332TIP3   OH239938   0.567   1.779   0.766  0.5789 -0.5540  0.0677
13332TIP3    H139939   0.579   1.685   0.752  0.1910 -0.3636 -1.8508
13332TIP3    H239940   0.596   1.794   0.856  1.5376 -2.3450  0.1060
13333TIP3   OH239941   1.781   2.987   2.973 -0.7828 -0.3307  0.5958
13333TIP3    H139942   1.851   2.980   2.909 -1.4258  1.3365 -0.3307
13333TIP3    H239943   1.782   2.903   3.019  2.2642 -0.1282  1.1036
13334TIP3   OH239944   1.396   2.361   5.446  0.2643 -0.0332 -0.3743
13334TIP3    H139945   1.487   2.333   5.461  0.3291  0.3079 -0.1043
13334TIP3    H239946   1.404   2.437   5.388  0.1242 -0.2333 -0.6586
13335TIP3   OH239947   6.572   6.608   2.063 -0.3031 -0.6103 -0.0324
13335TIP3    H139948   6.491   6.627   2.016  0.5959 -0.0947 -1.4307
13335TIP3    H239949   6.544   6.554   2.137 -2.0089  0.1911 -0.0411
13336TIP3   OH239950   2.080   6.626   4.501  0.3775  0.0587 -0.5251
13336TIP3    H139951   2.040   6.546   4.465  1.3656 -0.0654 -1.4102
13336TIP3    H239952   2.140   6.595   4.568  0.9037  0.0256 -1.0008
13337TIP3   OH239953   4.923   2.447   6.547  0.4083  0.0925  0.0355
13337TIP3    H139954   4.938   2.534   6.509  1.3473  0.8468  1.9497
13337TIP3    H239955   4.834   2.451   6.583  0.2333  0.0492 -0.3913
13338TIP3   OH239956   6.105   1.057   3.108 -0.6167 -0.0012  0.2349
13338TIP3    H139957   6.097   0.998   3.183 -0.3843 -0.3074  0.0223
13338TIP3    H239958   6.156   1.007   3.044 -0.1918  0.5335  0.1534
13339TIP3   OH239959   0.342   3.292   4.738 -0.1643  0.3947  0.2058
13339TIP3    H139960   0.315   3.231   4.807 -1.8090  1.1879  0.2846
13339TIP3    H239961   0.347   3.377   4.782  0.6131  0.6070 -0.2620
13340TIP3   OH239962   2.754   6.340   3.867  0.6919  0.2874 -0.5907
13340TIP3    H139963   2.671   6.333   3.915  1.2562 -0.2003  0.3581
13340TIP3    H239964   2.819   6.351   3.936  1.4997 -0.0842 -1.2863
13341TIP3   OH239965   4.423   7.558   1.476  0.0265 -0.3162  0.0382
13341TIP3    H139966   4.435   7.643   1.518  1.9326 -0.7142  0.4087
13341TIP3    H239967   4.439   7.575   1.383 -1.0709 -0.0248 -0.1154
13342TIP3   OH239968   5.785   1.669   1.307 -0.2416  0.6950 -0.1372
13342TIP3    H139969   5.812   1.761   1.306 -1.3044  1.0696  1.6725
13342TIP3    H239970   5.861   1.622   1.342 -0.6537  1.2742  1.5891
13343TIP3   OH239971   7.511   4.226   1.796  0.0384  0.0359  0.3170
13343TIP3    H139972   7.477   4.290   1.734  0.0776 -0.0374  0.2200
13343TIP3    H239973   7.445   4.223   1.865 -0.3805 -0.4384 -0.0968
13344TIP3   OH239974   4.567   4.056   0.997  0.5669  0.1441  0.4330
13344TIP3    H139975   4.642   3.997   1.003  1.1529  0.6775 -1.1779
13344TIP3    H239976   4.494   4.005   1.030  1.0172 -1.5786 -1.0850
13345TIP3   OH239977   2.390   3.471   1.793  0.1793  0.0051  0.1341
13345TIP3    H139978   2.325   3.466   1.863 -0.2957 -0.1792 -0.3142
13345TIP3    H239979   2.456   3.406   1.817  0.9116  1.1309  1.2937
13346TIP3   OH239980   0.210   4.324   5.703 -0.1914 -0.0833  0.1001
13346TIP3    H139981   0.295   4.281   5.699 -0.2004 -0.0536 -0.5781
13346TIP3    H239982   0.171   4.295   5.786  0.0875 -0.8283 -0.0242
13347TIP3   OH239983   2.393   1.820   3.535  0.3361  0.5797 -1.1332
13347TIP3    H139984   2.453   1.886   3.501 -0.9319  1.7234 -1.2268
13347TIP3    H239985   2.380   1.844   3.627 -0.3884  0.6814 -1.2507
13348TIP3   OH239986   6.872   3.008   3.875 -0.3963 -0.2010  0.4672
13348TIP3    H139987   6.896   3.074   3.940 -1.6322  0.5992  0.1520
13348TIP3    H239988   6.933   2.935   3.890  0.9431  0.9596  0.8813
13349TIP3   OH239989   2.622   2.760   1.608 -0.3146  0.3973 -0.2580
13349TIP3    H139990   2.531   2.758   1.577 -0.3296 -0.6139 -0.1865
13349TIP3    H239991   2.615   2.770   1.703 -0.3952 -0.5754 -0.1463
13350TIP3   OH239992   0.137   5.539   1.933 -0.0813 -0.4743  0.1955
13350TIP3    H139993   0.097   5.557   1.848 -0.0553 -0.1034  0.2613
13350TIP3    H239994   0.064   5.541   1.995  0.0442  0.2638  0.3240
13351TIP3   OH239995   3.387   6.224   5.872  0.0234  0.0199  0.3978
13351TIP3    H139996   3.415   6.315   5.871  1.6852 -0.4516  0.9850
13351TIP3    H239997   3.354   6.208   5.783  0.0740  1.0845  0.1779
13352TIP3   OH239998   3.377   2.189   5.721  0.1680  0.0250  0.6120
13352TIP3    H139999   3.312   2.136   5.676  0.9170  0.5075 -1.1210
13352TIP3    H240000   3.361   2.279   5.690  0.1358  0.5359  2.0255
13353TIP3   OH240001   5.988   1.992   5.546  0.2106 -0.0856  0.0522
13353TIP3    H140002   5.969   2.071   5.495 -0.2924  1.8139  2.9305
13353TIP3    H240003   6.022   2.026   5.630  0.0759 -2.9375  1.3608
13354TIP3   OH240004   0.974   3.911   5.248  0.0091 -0.2652  0.0868
13354TIP3    H140005   0.893   3.874   5.282 -0.7038 -1.5009 -2.6844
13354TIP3    H240006   0.982   3.996   5.292 -2.9424  0.0248  0.2551
13355TIP3   OH240007   2.073   2.589   4.139 -0.4968 -0.3673 -0.2516
13355TIP3    H140008   2.082   2.512   4.194 -0.0073  0.1488  0.4125
13355TIP3    H240009   2.055   2.661   4.201 -1.5588 -0.0437 -0.9047
13356TIP3   OH240010   4.131   6.513   4.394  0.1743  0.8416  0.0281
13356TIP3    H140011   4.093   6.448   4.453 -1.5282  0.6630 -1.1845
13356TIP3    H240012   4.223   6.487   4.386 -0.4069 -1.3227 -0.2474
13357TIP3   OH240013   7.909   5.367   1.813 -0.0480  0.0537  0.0022
13357TIP3    H140014   7.834   5.412   1.853 -0.1174 -0.4151  0.4161
13357TIP3    H240015   7.964   5.438   1.779  0.6518  0.5782  2.0633
13358TIP3   OH240016   3.549   3.673   1.476  0.3422  0.0764  0.0779
13358TIP3    H140017   3.484   3.657   1.544  0.7589  0.9914  0.7033
13358TIP3    H240018   3.498   3.702   1.400 -0.0754 -0.4409  0.1523
13359TIP3   OH240019   5.214   1.901   4.647  0.1480 -0.6183  0.2487
13359TIP3    H140020   5.144   1.905   4.712 -0.5022 -1.6441 -0.3494
13359TIP3    H240021   5.169   1.887   4.564  1.0831 -2.2142 -0.0391
13360TIP3   OH240022   5.081   0.963   6.100 -0.6734 -0.3383  0.1149
13360TIP3    H140023   5.071   1.012   6.182  0.0814 -1.8125  1.1309
13360TIP3    H240024   5.009   0.994   6.045  0.3146  2.6370  0.2752
13361TIP3   OH240025   2.060   7.408   5.347  0.1829  0.0670 -0.5161
13361TIP3    H140026   2.142   7.454   5.366  0.1341 -0.3138  0.7098
13361TIP3    H240027   2.025   7.451   5.269  1.0137  0.9331 -0.4199
13362TIP3   OH240028   5.940   2.088   0.512 -0.3474 -0.5765  0.2013
13362TIP3    H140029   5.965   2.108   0.421 -2.5360 -0.2948 -0.3860
13362TIP3    H240030   6.020   2.102   0.562  0.5817  0.5546 -1.5036
13363TIP3   OH240031   6.557   2.397   5.454 -0.4377 -0.4475  0.4083
13363TIP3    H140032   6.644   2.357   5.451  0.1944  0.9166 -0.8109
13363TIP3    H240033   6.553   2.439   5.540  0.9474  1.1294 -0.2291
13364TIP3   OH240034   0.535   5.327   0.038  1.0859 -0.4497  0.1696
13364TIP3    H140035   0.497   5.413   0.018  0.0711 -1.1708 -1.1684
13364TIP3    H240036   0.476   5.289   0.103 -0.1631 -1.2606 -1.3558
13365TIP3   OH240037   1.379   7.281   2.342  0.0917 -0.0815 -0.0364
13365TIP3    H140038   1.461   7.274   2.391  0.2981 -3.4181 -0.6341
13365TIP3    H240039   1.333   7.199   2.360 -2.4636  1.0521 -0.9138
13366TIP3   OH240040   5.329   0.660   2.398 -0.1500  0.0391  0.1642
13366TIP3    H140041   5.360   0.577   2.362 -1.1877 -0.2352 -0.1367
13366TIP3    H240042   5.404   0.719   2.392  0.5580 -0.8318  0.2484
13367TIP3   OH240043   7.399   7.514   3.947 -0.0775 -0.2949 -0.2756
13367TIP3    H140044   7.448   7.554   4.019  0.2166 -0.2906 -0.4736
13367TIP3    H240045   7.387   7.423   3.973  0.8673 -0.5387 -0.6399
13368TIP3   OH240046  -0.017   1.865   1.493  0.4134 -0.6218  0.9891
13368TIP3    H140047  -0.048   1.775   1.502  2.7766 -1.4841  1.0796
13368TIP3    H240048   0.076   1.857   1.474  0.6702  1.8201  0.8901
13369TIP3   OH240049   2.697   0.679   2.055 -0.7543  0.6995 -0.1611
13369TIP3    H140050   2.683   0.604   1.997 -2.2527  2.0842 -1.7130
13369TIP3    H240051   2.692   0.755   1.997  2.1344  2.0127  1.0994
13370TIP3   OH240052   7.505   2.086   1.004 -0.2428 -0.1296  0.0552
13370TIP3    H140053   7.425   2.094   0.952 -0.5723 -1.4493  0.3199
13370TIP3    H240054   7.543   2.002   0.977 -0.1697 -0.6095  1.5925
13371TIP3   OH240055   4.998   2.017   5.935 -0.2405 -0.3863 -0.3190
13371TIP3    H140056   4.963   2.069   5.862 -1.5106  1.6237  1.5961
13371TIP3    H240057   4.923   1.967   5.966  0.4525 -1.7389 -0.7318
13372TIP3   OH240058   3.640   4.717   5.039 -0.4319  0.0838  0.4183
13372TIP3    H140059   3.627   4.728   4.945 -1.1090 -0.8217  0.3898
13372TIP3    H240060   3.553   4.694   5.072 -0.1465  0.1407  1.2297
13373TIP3   OH240061   6.264   1.627   1.963 -0.1122  0.7396  0.4616
13373TIP3    H140062   6.340   1.675   1.996 -0.1844  1.0827  0.1343
13373TIP3    H240063   6.300   1.565   1.900 -0.0998  0.8458  0.3661
13374TIP3   OH240064   2.453   7.457   5.094 -0.7479  0.3153  0.2445
13374TIP3    H140065   2.425   7.445   5.004  0.3235  1.4931 -0.2806
13374TIP3    H240066   2.513   7.532   5.091 -0.3830  0.1358  1.8661
13375TIP3   OH240067   1.221   5.019   6.047  0.3959  0.6445 -0.0644
13375TIP3    H140068   1.274   5.080   5.996  0.0442 -0.3083 -1.6309
13375TIP3    H240069   1.284   4.964   6.093  0.7305  0.8716 -0.2496
13376TIP3   OH240070   0.049   6.459   3.500 -0.0444  0.7117 -0.2940
13376TIP3    H140071   0.099   6.382   3.473  0.0512  0.6860 -0.0476
13376TIP3    H240072  -0.041   6.438   3.478  0.1272  1.0230 -1.3470
13377TIP3   OH240073   4.715   0.540   3.501 -0.3242 -0.0021 -0.1982
13377TIP3    H140074   4.642   0.596   3.475  1.8597  2.9294 -0.5526
13377TIP3    H240075   4.690   0.505   3.586 -1.7426  1.7151  0.1493
13378TIP3   OH240076   7.646   2.761   0.759 -0.7048  0.4673 -0.3371
13378TIP3    H140077   7.564   2.811   0.764 -0.0948  1.4278  0.3950
13378TIP3    H240078   7.697   2.792   0.834  0.4032  0.0132 -0.8896
13379TIP3   OH240079   1.024   4.160   3.473  0.6057  0.1203  0.1861
13379TIP3    H140080   1.014   4.072   3.438 -2.4343  0.3303  0.2759
13379TIP3    H240081   1.047   4.147   3.565  0.5229 -0.5495  0.1147
13380TIP3   OH240082   2.683   6.190   2.158 -0.1946 -0.6502 -0.2700
13380TIP3    H140083   2.770   6.202   2.118  0.0789 -0.4905  0.3531
13380TIP3    H240084   2.692   6.108   2.207  0.2945  0.4373  1.5381
13381TIP3   OH240085   2.427   1.917   4.577 -0.1234 -0.0628 -0.0569
13381TIP3    H140086   2.501   1.857   4.587  0.0949  0.0481 -0.9487
13381TIP3    H240087   2.453   1.976   4.506 -1.4337 -0.5868 -1.0054
13382TIP3   OH240088   0.285   2.951   1.835  0.3354 -0.1160  0.6971
13382TIP3    H140089   0.242   3.021   1.785 -0.1106 -0.6519  0.3208
13382TIP3    H240090   0.222   2.879   1.835  0.6509 -0.3995  1.3788
13383TIP3   OH240091   5.586   3.883   6.077 -0.2544 -0.4392 -0.2364
13383TIP3    H140092   5.604   3.899   6.170  0.3475  0.4239 -0.4855
13383TIP3    H240093   5.526   3.954   6.052  0.2785 -0.1460 -0.7079
13384TIP3   OH240094   0.569   0.328   6.278  0.1049 -0.7361 -0.2798
13384TIP3    H140095   0.658   0.356   6.257  0.5036 -0.5472  1.4536
13384TIP3    H240096   0.579   0.270   6.354 -1.2912 -0.1168  0.4308
13385TIP3   OH240097   6.828   5.021   4.317 -0.8703 -0.1012  0.4833
13385TIP3    H140098   6.871   5.081   4.256 -1.6473 -1.0554 -1.0580
13385TIP3    H240099   6.900   4.969   4.354 -0.5203 -0.7443 -1.0255
13386TIP3   OH240100   1.864   7.061   3.283  0.0673 -0.0648 -0.0483
13386TIP3    H140101   1.779   7.023   3.304  0.2837  0.3955  1.8376
13386TIP3    H240102   1.913   7.059   3.365  0.5532  3.0604 -0.1389
13387TIP3   OH240103   6.898   4.565   2.487  0.0155  0.3567 -0.1317
13387TIP3    H140104   6.968   4.630   2.478 -0.9429  1.3197 -0.9447
13387TIP3    H240105   6.839   4.602   2.553 -0.5420  0.3467 -0.6081
13388TIP3   OH240106   7.122   0.349   0.585  0.2683 -0.5837  0.2284
13388TIP3    H140107   7.108   0.329   0.678 -0.2626 -0.0406  0.2739
13388TIP3    H240108   7.213   0.380   0.581 -0.0661  0.5329  0.7834
13389TIP3   OH240109   2.266   5.108   2.087 -0.9376 -0.5941 -1.3169
13389TIP3    H140110   2.313   5.029   2.112  0.5438  0.6819  0.0991
13389TIP3    H240111   2.316   5.144   2.013 -1.3957 -0.7657 -1.7173
13390TIP3   OH240112   0.710   7.822   6.601 -0.2503 -0.3067  0.2476
13390TIP3    H140113   0.794   7.819   6.646  1.3617  1.6552 -2.3123
13390TIP3    H240114   0.713   7.750   6.538 -1.6962 -1.8686  1.8513
13391TIP3   OH240115   5.263   2.297   1.563 -0.1352 -0.3345  0.3522
13391TIP3    H140116   5.258   2.234   1.635  3.6268  0.5561  1.6705
13391TIP3    H240117   5.310   2.252   1.493 -1.0453 -0.2372 -0.3341
13392TIP3   OH240118   3.904   6.808   0.014 -0.2624  0.3055 -0.2683
13392TIP3    H140119   3.991   6.848   0.016  0.2049 -0.7152  0.7371
13392TIP3    H240120   3.844   6.882   0.003  0.7476  0.9652 -1.6907
13393TIP3   OH240121   2.454   3.012   4.847 -0.4604 -0.4318 -0.4560
13393TIP3    H140122   2.546   3.028   4.827 -0.5868  0.7362 -0.1775
13393TIP3    H240123   2.407   3.054   4.775 -0.8021  0.1128  0.0798
13394TIP3   OH240124   7.725   3.443   2.764 -0.1476 -0.2297 -0.4424
13394TIP3    H140125   7.807   3.394   2.767  0.3810  0.5665 -1.1472
13394TIP3    H240126   7.752   3.532   2.742 -1.2068  0.0498 -0.6634
13395TIP3   OH240127   2.415   2.618   3.981 -0.2914  0.0865  0.0764
13395TIP3    H140128   2.396   2.698   4.030  0.2224 -0.5561  1.3567
13395TIP3    H240129   2.440   2.649   3.894 -2.2849  1.1918 -0.1676
13396TIP3   OH240130   3.105   4.134   4.282  0.0373  0.4822  0.1757
13396TIP3    H140131   3.196   4.164   4.285 -0.0990  0.8131  1.4808
13396TIP3    H240132   3.093   4.104   4.192  1.3045  0.8430 -0.1354
13397TIP3   OH240133   3.905   4.313   0.727  0.2584 -0.2687  0.7038
13397TIP3    H140134   3.940   4.232   0.691  1.9890  0.7087  0.0683
13397TIP3    H240135   3.952   4.326   0.809  0.8189  0.6275  0.2636
13398TIP3   OH240136   6.086   7.106   3.262 -0.6173 -0.2697 -0.8431
13398TIP3    H140137   6.147   7.062   3.321  0.9118  2.0665 -0.5057
13398TIP3    H240138   6.135   7.117   3.180 -1.0343  0.4863 -1.0091
13399TIP3   OH240139   0.967   2.503   6.563  0.0354  0.0270  0.5166
13399TIP3    H140140   0.973   2.599   6.568  0.4296  0.0484 -0.1603
13399TIP3    H240141   0.874   2.484   6.569 -0.0659  0.4753  0.4135
13400TIP3   OH240142   3.694   4.781   1.358  0.4058  0.1456 -0.2846
13400TIP3    H140143   3.789   4.772   1.349  0.2021 -2.5287 -0.6054
13400TIP3    H240144   3.660   4.761   1.271 -0.4595  2.2814 -0.4925
13401TIP3   OH240145   2.835   4.878   1.249 -1.0234 -0.3685  0.0154
13401TIP3    H140146   2.891   4.955   1.245 -1.3478 -0.0779  0.8961
13401TIP3    H240147   2.746   4.912   1.245 -1.1605 -0.8004 -0.9327
13402TIP3   OH240148   6.736   3.376   1.822  0.0726 -0.0886 -0.2087
13402TIP3    H140149   6.674   3.411   1.758  0.1368 -1.2867 -0.9628
13402TIP3    H240150   6.751   3.286   1.794 -0.1817 -0.7874  1.7184
13403TIP3   OH240151   6.642   1.555   5.535  0.6118 -0.2709  0.3044
13403TIP3    H140152   6.559   1.513   5.559 -0.1377 -0.3103 -2.1157
13403TIP3    H240153   6.624   1.648   5.539  1.4174 -0.1312  2.7427
13404TIP3   OH240154   7.004   5.779   0.425 -0.9228  0.3734 -0.2124
13404TIP3    H140155   6.962   5.696   0.445 -0.9260  0.4339  0.0340
13404TIP3    H240156   6.937   5.831   0.382 -0.6751 -0.0631 -1.1537
13405TIP3   OH240157   6.155   3.318   3.653  0.3246  0.0877 -0.2683
13405TIP3    H140158   6.195   3.286   3.572  0.2130  0.9942 -0.6899
13405TIP3    H240159   6.229   3.335   3.711  0.3673 -1.4985  0.2058
13406TIP3   OH240160   7.945   2.329   3.763  0.3342  0.5084  0.3846
13406TIP3    H140161   7.871   2.281   3.727  2.2638 -1.2841 -1.4031
13406TIP3    H240162   7.906   2.384   3.831 -2.4253 -1.3941  0.5161
13407TIP3   OH240163   0.452   0.140   0.481  0.3653 -0.1234 -0.3331
13407TIP3    H140164   0.456   0.049   0.511 -1.5605 -0.3140 -0.5272
13407TIP3    H240165   0.409   0.134   0.396 -0.0545  1.0002 -0.2065
13408TIP3   OH240166   2.412   0.588   3.657  0.2648 -0.0381 -0.1216
13408TIP3    H140167   2.425   0.651   3.728 -0.2897 -1.3044  1.1372
13408TIP3    H240168   2.330   0.616   3.615 -1.2461 -1.1758  1.8808
13409TIP3   OH240169   8.034   3.084   3.637 -0.2533  0.1326 -0.0455
13409TIP3    H140170   8.071   3.107   3.551 -0.3154 -1.5299 -0.5545
13409TIP3    H240171   7.954   3.136   3.644  0.1754  0.8938 -0.6238
13410TIP3   OH240172   5.681   1.922   2.139  0.5479 -0.3495 -0.3842
13410TIP3    H140173   5.674   1.846   2.197 -1.5316 -0.0398 -0.1346
13410TIP3    H240174   5.677   1.885   2.051  3.0286 -0.7645 -0.3836
13411TIP3   OH240175   2.689   7.691   6.516  0.2733  0.9247 -0.1916
13411TIP3    H140176   2.701   7.735   6.432  2.7495 -1.8501 -1.4879
13411TIP3    H240177   2.771   7.706   6.563  0.0807 -0.0019  0.4655
13412TIP3   OH240178   1.318   0.563   1.215 -0.0716  0.0712  0.4247
13412TIP3    H140179   1.241   0.566   1.159 -0.7412 -1.5031  1.2077
13412TIP3    H240180   1.339   0.470   1.222  3.0609  0.5103 -1.2787
13413TIP3   OH240181   3.932   4.121   6.427  0.5617 -0.0839  0.4612
13413TIP3    H140182   3.870   4.193   6.422 -0.3733 -0.8084  1.3533
13413TIP3    H240183   3.991   4.145   6.499  1.3127  0.5643 -0.3342
13414TIP3   OH240184   4.789   4.432   4.866 -0.3547 -0.0287  0.0365
13414TIP3    H140185   4.832   4.411   4.783 -0.0578 -2.3888  0.6925
13414TIP3    H240186   4.861   4.440   4.928 -0.6182  1.0820  0.2185
13415TIP3   OH240187   5.259   1.581   2.231 -0.2428 -0.3170 -0.1877
13415TIP3    H140188   5.354   1.566   2.227 -0.4490 -1.5897 -1.0025
13415TIP3    H240189   5.230   1.575   2.140 -1.0093  0.9085 -0.0511
13416TIP3   OH240190   2.489   3.979   6.500 -0.1009  0.1075  0.5551
13416TIP3    H140191   2.567   3.951   6.548 -0.0089 -0.6458 -0.0170
13416TIP3    H240192   2.496   3.936   6.415 -0.6500  0.8191  0.1349
13417TIP3   OH240193   0.413   2.569   4.935  0.2408 -0.2135  0.3831
13417TIP3    H140194   0.353   2.575   4.861 -0.1111 -1.0292  0.5860
13417TIP3    H240195   0.487   2.518   4.902 -0.1731 -1.0656  0.7388
13418TIP3   OH240196   0.503   5.760   0.231  0.2124  0.0822  0.5469
13418TIP3    H140197   0.551   5.776   0.311 -0.5856 -3.1573  1.8410
13418TIP3    H240198   0.569   5.762   0.162  1.5671 -0.5524  1.7758
13419TIP3   OH240199   1.650   6.427   4.889  0.5575  0.3700  0.0339
13419TIP3    H140200   1.718   6.470   4.836  0.1179 -0.8078 -1.5486
13419TIP3    H240201   1.698   6.388   4.962  1.5131  0.0325 -0.7544
13420TIP3   OH240202   4.713   5.185   6.251 -0.3416 -0.4743 -0.0846
13420TIP3    H140203   4.762   5.224   6.323 -0.4401 -4.0320  2.1502
13420TIP3    H240204   4.624   5.175   6.285 -1.0128 -0.0430 -1.6343
13421TIP3   OH240205   5.147   7.751   4.350  0.1331 -0.1769 -0.0226
13421TIP3    H140206   5.223   7.700   4.322 -0.9150 -1.4421 -0.6646
13421TIP3    H240207   5.085   7.742   4.278 -1.1454 -0.2916  1.0728
13422TIP3   OH240208   7.408   3.804   2.513 -0.2380  0.3532 -0.2027
13422TIP3    H140209   7.462   3.727   2.497  1.4279  1.7311 -1.6374
13422TIP3    H240210   7.429   3.831   2.602  1.0309  0.5185 -0.5363
13423TIP3   OH240211   8.007   3.442   2.421  0.3940  0.2504  0.3235
13423TIP3    H140212   8.072   3.402   2.478  0.3472 -0.1194  0.1261
13423TIP3    H240213   8.050   3.448   2.336 -0.3982 -1.6402 -0.2610
13424TIP3   OH240214   2.113   6.962   0.565  0.6595  1.3198  0.2294
13424TIP3    H140215   2.147   6.879   0.597 -1.4420  0.4030  0.2861
13424TIP3    H240216   2.154   6.974   0.479  0.5876 -0.0721 -0.0164
13425TIP3   OH240217   2.000   6.244   0.131 -0.2450  0.1949  0.9725
13425TIP3    H140218   1.926   6.243   0.192  0.5024  0.5457  1.9143
13425TIP3    H240219   2.041   6.329   0.144 -1.4539  1.3003 -1.7872
13426TIP3   OH240220   7.562   1.803   0.969  0.3408 -0.6030  0.3677
13426TIP3    H140221   7.481   1.789   0.920  0.6734 -1.8652  0.1398
13426TIP3    H240222   7.630   1.762   0.916  1.2676  1.0752  0.1937
13427TIP3   OH240223   3.844   0.136   0.505 -0.3263 -0.3602 -0.2434
13427TIP3    H140224   3.763   0.188   0.514  0.3183  0.5616  0.3994
13427TIP3    H240225   3.899   0.165   0.577  1.6058  0.9458 -2.1129
13428TIP3   OH240226   2.829   4.295   4.930 -0.3313 -0.6524 -0.2744
13428TIP3    H140227   2.890   4.337   4.869 -0.3037  1.1791  0.9164
13428TIP3    H240228   2.750   4.348   4.925 -0.7536 -1.2025  0.3978
13429TIP3   OH240229   0.128   6.914   5.029 -0.2500  0.1983 -0.3204
13429TIP3    H140230   0.112   6.840   4.970 -2.9237  1.2125 -1.0199
13429TIP3    H240231   0.132   6.990   4.971  1.6691  0.7531  0.4594
13430TIP3   OH240232   6.713   0.823   2.996 -0.0486  0.0059 -0.2045
13430TIP3    H140233   6.718   0.732   2.969 -1.7692 -0.6741  1.5874
13430TIP3    H240234   6.762   0.827   3.078 -1.1799  0.3411  0.4803
13431TIP3   OH240235   3.660   4.935   1.849 -0.2825  0.6291  0.0825
13431TIP3    H140236   3.677   4.984   1.930  2.6012 -0.0718  0.0227
13431TIP3    H240237   3.710   4.981   1.782 -0.0470 -0.5922 -0.6186
13432TIP3   OH240238   1.639   6.901   5.771  0.1210  0.0584  0.0960
13432TIP3    H140239   1.587   6.876   5.848  0.8188 -0.5164  0.4000
13432TIP3    H240240   1.729   6.879   5.796  0.4647  0.7067 -0.5521
13433TIP3   OH240241   3.103   0.547   3.493 -0.1803 -0.0963  0.9671
13433TIP3    H140242   3.198   0.551   3.485 -0.2522 -0.4876 -0.1636
13433TIP3    H240243   3.077   0.471   3.442 -1.3441  1.5981 -1.1702
13434TIP3   OH240244   3.860   6.845   2.955 -0.2487  0.4025 -0.6509
13434TIP3    H140245   3.855   6.842   2.860  0.0625  0.5526 -0.6761
13434TIP3    H240246   3.771   6.829   2.985 -0.3850  0.5524 -0.9726
13435TIP3   OH240247   1.974   5.925   5.147  0.8928  0.5459  0.1988
13435TIP3    H140248   1.914   5.850   5.152  0.0285  1.2149  0.0868
13435TIP3    H240249   2.057   5.888   5.116 -0.0376 -0.0933 -1.6503
13436TIP3   OH240250   6.338   2.171   0.231 -0.2711  0.1270 -0.3980
13436TIP3    H140251   6.288   2.164   0.150  0.0318 -1.0304 -0.5104
13436TIP3    H240252   6.272   2.188   0.298 -0.6542 -0.0032 -0.7363
13437TIP3   OH240253   3.940   4.157   5.802  0.0811 -0.2181  0.1135
13437TIP3    H140254   3.928   4.066   5.776  0.9615 -0.7020  1.2920
13437TIP3    H240255   4.027   4.159   5.841 -0.1393  1.0144  0.5880
13438TIP3   OH240256   0.111   4.381   5.962  0.0030  0.6468  0.2428
13438TIP3    H140257   0.078   4.464   5.997 -0.2455  0.3899  0.6125
13438TIP3    H240258   0.050   4.315   5.994  1.4180  0.0286  1.7960
13439TIP3   OH240259   0.978   3.901   3.387 -0.4417 -0.0774 -0.4696
13439TIP3    H140260   1.018   3.814   3.375 -0.9924 -0.2565 -1.1197
13439TIP3    H240261   0.976   3.938   3.298  2.2140  1.7298  0.1077
13440TIP3   OH240262   0.011   2.459   6.371 -0.3191 -0.5910 -0.1974
13440TIP3    H140263   0.031   2.462   6.278 -0.8488  0.2456 -0.2949
13440TIP3    H240264   0.096   2.447   6.414  0.0445 -0.0355 -0.7466
13441TIP3   OH240265   6.276   0.586   4.038 -0.2185  0.3208 -0.6160
13441TIP3    H140266   6.279   0.495   4.066 -1.2732  0.3252 -0.4264
13441TIP3    H240267   6.284   0.582   3.942 -2.4985 -0.1850 -0.8407
13442TIP3   OH240268   6.374   5.745   4.907 -0.4666 -0.5084  0.2547
13442TIP3    H140269   6.296   5.778   4.862 -0.5462 -0.5703  0.3471
13442TIP3    H240270   6.385   5.803   4.982 -0.4447 -0.5221  0.2623
13443TIP3   OH240271   5.644   3.118   3.724 -0.4055 -0.3031  0.1122
13443TIP3    H140272   5.724   3.134   3.674 -0.9105 -0.2279 -0.6910
13443TIP3    H240273   5.601   3.204   3.727  0.1145 -0.0580  1.6008
13444TIP3   OH240274   6.196   4.583   2.336  0.3145 -0.1450  0.4139
13444TIP3    H140275   6.124   4.633   2.298 -0.6281 -1.0352  0.9526
13444TIP3    H240276   6.157   4.541   2.413  1.4557 -0.5295  0.8031
13445TIP3   OH240277   7.969   5.483   4.691 -0.1710 -0.1622  0.3218
13445TIP3    H140278   8.003   5.529   4.615 -1.4123  1.2806  0.5933
13445TIP3    H240279   7.983   5.542   4.765 -1.2784 -0.4211  0.7775
13446TIP3   OH240280   7.690   1.240   2.240 -0.5099 -0.0189 -0.2052
13446TIP3    H140281   7.703   1.320   2.190 -1.1275  0.1874 -0.0424
13446TIP3    H240282   7.767   1.235   2.297  0.8511 -0.9225 -2.0155
13447TIP3   OH240283   6.949   5.594   4.729 -0.1678  0.0242  0.2737
13447TIP3    H140284   6.870   5.622   4.684 -0.2735 -2.2273 -1.0820
13447TIP3    H240285   7.016   5.658   4.704 -1.2213  1.1690  0.3419
13448TIP3   OH240286   2.073   3.865   5.504  0.0913  0.1648  0.0861
13448TIP3    H140287   2.158   3.835   5.535 -1.0140 -1.4939  1.7838
13448TIP3    H240288   2.052   3.807   5.431 -0.0575 -0.2183  0.4247
13449TIP3   OH240289   5.052   2.699   6.624  0.2065 -0.5057 -0.1762
13449TIP3    H140290   4.999   2.710   6.545  1.1233  1.0564 -0.6229
13449TIP3    H240291   5.026   2.771   6.681  0.8488 -0.5475  0.1841
13450TIP3   OH240292   4.536   1.591   5.120 -0.7088 -0.4124 -0.7257
13450TIP3    H140293   4.589   1.531   5.173 -0.5133 -0.0858 -0.5517
13450TIP3    H240294   4.458   1.607   5.173  0.4135  1.5718  0.4272
13451TIP3   OH240295   5.328   3.577   2.814  0.2795  0.5268 -0.4878
13451TIP3    H140296   5.415   3.545   2.791 -0.4169 -0.7904 -1.3838
13451TIP3    H240297   5.300   3.522   2.887 -0.0329  0.5681 -0.5734
13452TIP3   OH240298   2.203   7.738   4.743  0.4749  0.1192  0.2992
13452TIP3    H140299   2.165   7.826   4.739 -0.4079 -0.1227  2.3365
13452TIP3    H240300   2.234   7.729   4.833  0.0083 -1.8731  0.2990
13453TIP3   OH240301   0.488   5.907   6.772 -0.4280 -0.0526 -0.0907
13453TIP3    H140302   0.436   5.947   6.702  1.8558  0.1997 -1.7452
13453TIP3    H240303   0.542   5.979   6.805  1.0314 -0.9149 -0.5173
13454TIP3   OH240304   3.080   0.638   1.071  0.7016 -0.2314 -0.1651
13454TIP3    H140305   3.112   0.566   1.125  0.2280 -1.4236 -1.4346
13454TIP3    H240306   3.019   0.685   1.129 -0.1529 -1.7540  0.2166
13455TIP3   OH240307   0.660   4.329   1.023 -0.3756 -0.6280 -0.5195
13455TIP3    H140308   0.585   4.374   0.984  0.4508  1.1670 -0.1638
13455TIP3    H240309   0.725   4.398   1.035  1.5610 -2.2256 -1.3309
13456TIP3   OH240310   2.371   5.689   2.081 -0.4438 -0.3403  0.0094
13456TIP3    H140311   2.351   5.625   2.013  1.0788 -2.4017  1.3633
13456TIP3    H240312   2.292   5.694   2.134 -1.0478 -0.0192 -0.9147
13457TIP3   OH240313   0.722   5.084   6.585 -0.8157  0.2756 -0.3315
13457TIP3    H140314   0.773   5.015   6.627  0.6886  2.3244  1.3699
13457TIP3    H240315   0.661   5.036   6.528 -1.6155 -2.5939  2.6328
13458TIP3   OH240316   4.942   2.557   5.471 -0.3271  0.5919  0.3434
13458TIP3    H140317   4.858   2.550   5.516 -1.4337  1.3174 -1.4726
13458TIP3    H240318   4.920   2.596   5.386  2.1277  2.7300  0.5755
13459TIP3   OH240319   0.373   6.652   4.078  0.4703  0.4616  0.0110
13459TIP3    H140320   0.453   6.688   4.117  1.5830 -1.6069 -0.2261
13459TIP3    H240321   0.374   6.683   3.988  0.5831  1.0562  0.2068
13460TIP3   OH240322   1.549   7.047   5.062  0.1745 -0.0585  0.2403
13460TIP3    H140323   1.464   7.007   5.042  1.0914 -1.4971 -0.9478
13460TIP3    H240324   1.557   7.039   5.157 -1.2419  0.6147  0.4498
13461TIP3   OH240325   0.985   6.495   3.809 -0.3117 -0.0003  0.4206
13461TIP3    H140326   1.011   6.419   3.757  0.7594  1.1843 -0.8290
13461TIP3    H240327   1.068   6.532   3.841 -0.5625  2.1914 -1.2444
13462TIP3   OH240328   1.718   0.131   3.027 -0.4025 -0.4413  0.1445
13462TIP3    H140329   1.808   0.145   3.055 -0.5776  0.1906  0.4153
13462TIP3    H240330   1.670   0.205   3.063 -0.9023 -0.3974 -0.5857
13463TIP3   OH240331   5.326   1.075   5.410  0.2962  0.5327 -0.0919
13463TIP3    H140332   5.332   1.087   5.315  1.0507 -0.9331 -0.2507
13463TIP3    H240333   5.249   1.019   5.422 -0.4334  1.5797  0.2682
13464TIP3   OH240334   7.521   4.002   2.130  0.1260  0.7309  0.4658
13464TIP3    H140335   7.429   3.997   2.155 -0.0624  1.9287  0.0688
13464TIP3    H240336   7.524   3.963   2.042  0.0368  0.4954  0.5671
13465TIP3   OH240337   5.394   6.099   1.398 -0.1007 -0.1060  0.9685
13465TIP3    H140338   5.407   6.008   1.372 -1.6550  0.0531 -0.5449
13465TIP3    H240339   5.457   6.113   1.468  2.5155 -1.3770 -0.9786
13466TIP3   OH240340   0.650   0.148   6.692  0.0006  0.5567  0.4167
13466TIP3    H140341   0.591   0.073   6.697  0.3190  0.3137  0.5909
13466TIP3    H240342   0.592   0.224   6.693 -0.2811  0.3554  1.6167
13467TIP3   OH240343   5.788   0.795   3.217 -0.0745  0.4275 -0.4091
13467TIP3    H140344   5.718   0.858   3.197  1.0140  1.5040 -0.9472
13467TIP3    H240345   5.744   0.726   3.266 -0.8880  2.9489  2.7983
13468TIP3   OH240346   5.117   5.463   2.708  0.6750  0.0596 -0.5453
13468TIP3    H140347   5.122   5.552   2.744  1.4644 -0.6493  1.2290
13468TIP3    H240348   5.131   5.475   2.614 -0.0431  1.8742 -0.4739
13469TIP3   OH240349   0.261   3.440   3.641 -0.5391 -0.6252 -0.3143
13469TIP3    H140350   0.299   3.379   3.704  0.4344  0.4269  0.1581
13469TIP3    H240351   0.206   3.386   3.585 -1.3335 -1.6208  1.3486
13470TIP3   OH240352   3.851   3.181   5.419  0.3420  0.2151  0.4925
13470TIP3    H140353   3.873   3.269   5.449 -0.6679  0.3006  1.0272
13470TIP3    H240354   3.871   3.124   5.493  0.2902  0.0877  0.4097
13471TIP3   OH240355   5.711   0.301   4.471  0.1561 -0.4722  0.2105
13471TIP3    H140356   5.641   0.316   4.408  0.0423  0.2818  0.5118
13471TIP3    H240357   5.673   0.242   4.537 -0.2714  0.1145  0.4970
13472TIP3   OH240358   7.235   4.714   0.554 -0.2575 -0.5522 -0.0066
13472TIP3    H140359   7.234   4.792   0.499  1.2852 -0.4322  0.0927
13472TIP3    H240360   7.225   4.641   0.492 -3.1504 -0.3011  0.0224
13473TIP3   OH240361   0.842   6.054   1.814 -0.2598 -0.5286 -0.1668
13473TIP3    H140362   0.884   6.140   1.824 -1.4343  0.0413  0.0862
13473TIP3    H240363   0.897   5.995   1.866 -0.5144  0.4602  1.3156
13474TIP3   OH240364   5.577   5.902   3.119  0.1589 -0.4864 -0.1210
13474TIP3    H140365   5.541   5.990   3.131  2.9393  0.5472  1.4763
13474TIP3    H240366   5.511   5.843   3.156 -0.6632  1.1112  1.0424
13475TIP3   OH240367   1.539   2.570   1.613 -0.3220  0.7445 -0.1961
13475TIP3    H140368   1.518   2.491   1.563 -1.6224  1.5842 -1.0426
13475TIP3    H240369   1.634   2.579   1.606 -0.1140 -0.8958  0.1782
13476TIP3   OH240370   7.011   0.170   0.769  0.4107  0.1522 -0.2550
13476TIP3    H140371   7.002   0.113   0.692  0.4346 -0.4093  0.1483
13476TIP3    H240372   7.096   0.146   0.806 -0.1685 -0.5215  0.6856
13477TIP3   OH240373   2.720   4.430   2.480 -0.2325 -0.5674 -0.4355
13477TIP3    H140374   2.715   4.420   2.575  0.5660 -1.0277 -0.4350
13477TIP3    H240375   2.788   4.497   2.466 -1.9025  1.1797 -0.6225
13478TIP3   OH240376   7.916   0.507   4.483 -0.2822  0.5541  0.0923
13478TIP3    H140377   7.851   0.438   4.473 -0.5681  0.5305  1.8022
13478TIP3    H240378   7.901   0.565   4.409 -2.2292  0.5312  0.4174
13479TIP3   OH240379   7.799   2.260   2.799  0.8874  0.0518  0.0187
13479TIP3    H140380   7.710   2.297   2.806  1.8700  2.2044  2.7404
13479TIP3    H240381   7.797   2.181   2.852  0.5282 -0.0968 -0.2105
13480TIP3   OH240382   6.696   2.979   4.976 -0.2543  0.0977  0.0195
13480TIP3    H140383   6.683   2.885   4.964  2.0039 -0.2835  0.1935
13480TIP3    H240384   6.752   3.005   4.903  1.6158  0.6706  1.6078
13481TIP3   OH240385   1.815   4.677   4.539  0.1472 -0.3292  0.5768
13481TIP3    H140386   1.886   4.680   4.603  1.1311  1.5008 -0.5159
13481TIP3    H240387   1.743   4.726   4.580  0.7355  0.7412  0.3833
13482TIP3   OH240388   6.279   1.697   1.583 -0.2055 -0.0257 -0.5618
13482TIP3    H140389   6.369   1.728   1.588  0.5523 -2.1334  0.1979
13482TIP3    H240390   6.229   1.758   1.638  0.7516  1.1226 -0.9376
13483TIP3   OH240391   3.967   6.191   2.745 -0.3289  0.1988 -0.3849
13483TIP3    H140392   4.035   6.124   2.735  0.5253  0.9658  0.0751
13483TIP3    H240393   3.962   6.206   2.840 -1.2215  0.0862 -0.4074
13484TIP3   OH240394   0.503   0.979   3.978 -0.5995  0.0532 -0.3087
13484TIP3    H140395   0.421   1.002   3.934 -0.7087  0.9444  0.3304
13484TIP3    H240396   0.563   1.050   3.955 -0.0615 -0.4961 -0.6114
13485TIP3   OH240397   6.368   4.094   0.238 -0.4672 -0.4851 -0.5919
13485TIP3    H140398   6.435   4.160   0.255 -2.1965  1.2390 -0.0035
13485TIP3    H240399   6.292   4.144   0.208 -1.2922 -2.4093 -1.9230
13486TIP3   OH240400   1.118   2.511   0.661  0.3664 -0.1116  0.0115
13486TIP3    H140401   1.057   2.464   0.604  1.0736 -2.5712  1.1741
13486TIP3    H240402   1.065   2.582   0.698 -1.8332 -2.0990  0.9282
13487TIP3   OH240403   5.010   3.028   4.734  0.3819  0.0038 -0.1774
13487TIP3    H140404   5.063   3.056   4.659 -0.2830  1.2578 -0.2115
13487TIP3    H240405   4.920   3.048   4.708  0.1426  0.4897  0.9621
13488TIP3   OH240406   4.779   0.509   3.961  0.2586 -0.6446 -0.4287
13488TIP3    H140407   4.715   0.580   3.967  0.7286 -0.1692 -0.8702
13488TIP3    H240408   4.776   0.467   4.046  0.6911  0.5445  0.1960
13489TIP3   OH240409   7.281   7.353   4.588 -0.5159 -0.6100 -0.2834
13489TIP3    H140410   7.330   7.275   4.560  2.2557  0.8483  0.1865
13489TIP3    H240411   7.269   7.404   4.507 -1.7924 -1.1782 -0.4828
13490TIP3   OH240412   5.319   4.103   4.846 -0.1108  0.5883 -0.1440
13490TIP3    H140413   5.330   4.196   4.869 -0.8778  1.1477 -1.8798
13490TIP3    H240414   5.228   4.084   4.865 -0.3690  0.6520 -1.2688
13491TIP3   OH240415   2.703   3.125   5.401 -0.4396  0.0211  0.3585
13491TIP3    H140416   2.647   3.078   5.464 -2.4800  0.7938 -0.7907
13491TIP3    H240417   2.700   3.216   5.431  0.1522  0.0907  0.2159
13492TIP3   OH240418   6.639   0.863   5.351 -0.0934 -0.7357  0.3612
13492TIP3    H140419   6.703   0.934   5.352 -0.3711 -0.4175 -1.7103
13492TIP3    H240420   6.591   0.873   5.434  0.3180  1.0635  0.4166
13493TIP3   OH240421   0.773   2.863   5.528 -0.4502  0.1606 -0.3543
13493TIP3    H140422   0.689   2.887   5.567 -1.3025  0.5117 -2.3039
13493TIP3    H240423   0.756   2.863   5.434  2.2225  2.1812 -0.9453
13494TIP3   OH240424   0.526   5.352   0.721  0.5220 -0.8672 -0.0795
13494TIP3    H140425   0.528   5.319   0.811 -1.1234  0.9505  0.7151
13494TIP3    H240426   0.579   5.432   0.724 -1.2955  0.4011 -0.1239
13495TIP3   OH240427   5.223   2.542   5.286 -0.2471 -0.3594  0.5854
13495TIP3    H140428   5.270   2.504   5.360  0.8009 -1.1826 -0.4540
13495TIP3    H240429   5.160   2.602   5.325  1.2809  0.3539  2.0906
13496TIP3   OH240430   2.029   4.029   5.781  0.8015  0.2534 -0.6424
13496TIP3    H140431   2.060   4.104   5.831  0.4400  0.2178 -0.3573
13496TIP3    H240432   2.084   4.027   5.703  1.2365  0.4271 -0.3386
13497TIP3   OH240433   4.155   1.118   4.230 -0.0000  0.1374 -0.5731
13497TIP3    H140434   4.197   1.122   4.315 -0.8876 -1.6917  0.0175
13497TIP3    H240435   4.193   1.040   4.188 -0.7852  0.0423 -1.1343
13498TIP3   OH240436   5.339   2.082   5.187  0.1225 -0.2778  0.2196
13498TIP3    H140437   5.270   2.138   5.223 -0.8620 -2.6063  2.2564
13498TIP3    H240438   5.294   2.023   5.128  0.9555  0.2798 -1.0059
13499TIP3   OH240439   5.802   4.635   5.723 -0.3909  0.4264 -0.3073
13499TIP3    H140440   5.836   4.598   5.804 -2.0704 -1.5856 -0.4336
13499TIP3    H240441   5.727   4.687   5.750 -1.0249 -0.3456 -0.5700
13500TIP3   OH240442   5.513   6.574   6.342  0.5313 -0.3297  0.2086
13500TIP3    H140443   5.587   6.604   6.395  0.7457 -2.1628  1.0465
13500TIP3    H240444   5.475   6.502   6.393 -1.3517  0.0560 -0.5832
13501TIP3   OH240445   6.475   1.894   1.391  0.4874  1.2442  0.0690
13501TIP3    H140446   6.510   1.907   1.479  0.3381  1.8815  0.0424
13501TIP3    H240447   6.546   1.922   1.333  1.6969 -1.8370 -0.1161
13502TIP3   OH240448   4.773   6.017   4.272 -0.1757 -0.1490  0.3329
13502TIP3    H140449   4.832   5.944   4.288 -1.4547 -1.0365  1.2153
13502TIP3    H240450   4.813   6.091   4.318  1.4904 -0.0841 -1.1540
13503TIP3   OH240451   4.025   3.984   3.213  0.2462 -0.2217  0.2037
13503TIP3    H140452   3.987   4.072   3.215  0.0645 -0.2978  0.0454
13503TIP3    H240453   4.120   4.000   3.212  0.2971 -0.0566  2.5986
13504TIP3   OH240454   3.256   3.251   5.154 -0.4085  0.2034 -0.5370
13504TIP3    H140455   3.274   3.326   5.097 -0.1900 -0.5173 -1.4411
13504TIP3    H240456   3.184   3.205   5.110 -1.7066  0.7946  0.8871
13505TIP3   OH240457   2.546   4.184   3.283 -0.0098  0.0060  0.4251
13505TIP3    H140458   2.462   4.217   3.251  0.6243  0.4925 -0.7884
13505TIP3    H240459   2.542   4.090   3.267 -0.5188 -0.0467  0.8419
13506TIP3   OH240460   6.873   2.244   3.316 -0.3780 -0.3018 -0.1012
13506TIP3    H140461   6.889   2.186   3.390 -1.3735 -1.0004 -0.4185
13506TIP3    H240462   6.784   2.278   3.331 -0.4030 -0.0792 -0.7299
13507TIP3   OH240463   3.317   7.564   2.052 -0.4785 -0.4052 -0.2301
13507TIP3    H140464   3.243   7.606   2.009  0.8981  3.0248  0.4307
13507TIP3    H240465   3.390   7.576   1.992  0.4799  0.3783  1.0435
13508TIP3   OH240466   8.257   2.027   2.729 -0.0781  0.1431  0.2672
13508TIP3    H140467   8.313   2.097   2.695 -1.2241  1.0655  0.2365
13508TIP3    H240468   8.253   1.963   2.658 -0.1504  0.7107 -0.2484
13509TIP3   OH240469   2.000   0.282   6.613 -0.2474  0.1216 -0.3483
13509TIP3    H140470   1.966   0.372   6.607  0.2313  0.5207  2.1508
13509TIP3    H240471   1.953   0.243   6.686  0.6942 -1.1601 -0.3953
13510TIP3   OH240472   6.375   3.236   4.059  0.2349 -0.2566  0.6043
13510TIP3    H140473   6.461   3.198   4.077  0.0578 -0.8402  0.2645
13510TIP3    H240474   6.333   3.173   4.000  0.8178  1.5809 -1.9364
13511TIP3   OH240475   4.227   3.715   5.168 -0.5081 -0.5210 -0.1771
13511TIP3    H140476   4.323   3.718   5.174 -0.5670  1.1738  0.4176
13511TIP3    H240477   4.208   3.757   5.084 -0.7700  0.8128  0.5182
13512TIP3   OH240478   0.137   3.378   1.347 -0.2872  0.5524 -0.4120
13512TIP3    H140479   0.148   3.421   1.262  0.2933 -0.5129 -0.8907
13512TIP3    H240480   0.135   3.284   1.327  3.2760  0.0250  1.0340
13513TIP3   OH240481   0.488   4.604   3.617  0.9503 -0.0736  0.5445
13513TIP3    H140482   0.414   4.548   3.593 -0.8671  2.6196 -0.5890
13513TIP3    H240483   0.556   4.582   3.554  0.3637 -1.0942  0.2369
13514TIP3   OH240484   1.553   0.719   3.975 -0.4048  0.2748 -0.5851
13514TIP3    H140485   1.583   0.640   4.021  0.2855  0.6934 -0.3009
13514TIP3    H240486   1.548   0.786   4.043 -1.7071  0.3020 -0.6903
13515TIP3   OH240487   7.308   4.273   3.383  0.0047 -0.4670 -0.3276
13515TIP3    H140488   7.232   4.276   3.440  0.2490 -0.6442  0.0092
13515TIP3    H240489   7.382   4.257   3.442  0.1500 -1.5252 -0.7843
13516TIP3   OH240490   5.229   4.100   1.761  0.1201 -0.1193  0.1894
13516TIP3    H140491   5.160   4.118   1.825 -2.4308  0.4498 -2.4829
13516TIP3    H240492   5.272   4.185   1.748  0.4367 -0.1688  0.9060
13517TIP3   OH240493   3.426   3.219   2.703 -0.8633  0.6378 -0.2377
13517TIP3    H140494   3.448   3.266   2.623  1.8036 -0.7936 -0.4504
13517TIP3    H240495   3.391   3.135   2.672  0.8082 -0.1928  0.0216
13518TIP3   OH240496   6.952   5.453   1.729 -0.3865  0.0249  0.4796
13518TIP3    H140497   6.971   5.461   1.636 -1.6468  1.1189  0.2920
13518TIP3    H240498   6.881   5.389   1.734 -0.3232 -0.0313  0.6899
13519TIP3   OH240499   3.412   6.693   5.130 -0.0708  0.2451 -0.2074
13519TIP3    H140500   3.420   6.644   5.212 -0.6195  2.1361  1.0477
13519TIP3    H240501   3.483   6.660   5.075  0.0084 -1.4134  0.8380
13520TIP3   OH240502   7.872   7.558   4.737  0.3288 -0.5536 -1.0795
13520TIP3    H140503   7.932   7.558   4.811  0.7077  0.6163 -1.3747
13520TIP3    H240504   7.927   7.578   4.661 -0.1760 -1.0171 -1.5828
13521TIP3   OH240505   3.682   1.504   6.264  0.7377 -0.0176 -0.1788
13521TIP3    H140506   3.665   1.566   6.335 -2.3793 -0.9091 -0.0300
13521TIP3    H240507   3.768   1.467   6.285  2.2991  3.4188  0.2421
13522TIP3   OH240508   5.567   7.571   5.582  0.7791  0.3289 -0.3323
13522TIP3    H140509   5.543   7.500   5.642 -1.1317  0.6425 -0.6669
13522TIP3    H240510   5.564   7.649   5.637  0.2603  0.4640 -0.5514
13523TIP3   OH240511   6.500   4.604   0.266  0.0082  0.6494  0.0877
13523TIP3    H140512   6.445   4.680   0.246 -0.9925  0.2125  1.0699
13523TIP3    H240513   6.509   4.606   0.362  1.4696  0.5354 -0.0220
13524TIP3   OH240514   5.502   4.046   6.738 -0.3469 -0.2572 -0.0325
13524TIP3    H140515   5.507   3.966   6.791  0.8720 -1.6016 -2.0157
13524TIP3    H240516   5.431   4.029   6.676  0.5225 -0.2701 -1.0744
13525TIP3   OH240517   4.890   4.945   2.111  0.0258  0.4695  0.1407
13525TIP3    H140518   4.819   4.882   2.112  0.1565  0.2766  2.2831
13525TIP3    H240519   4.884   4.987   2.025  0.3148 -2.8031 -1.6248
13526TIP3   OH240520   0.456   3.800   3.660 -0.0817  0.6149  0.2242
13526TIP3    H140521   0.382   3.750   3.624  0.2776  0.7349 -0.7161
13526TIP3    H240522   0.477   3.756   3.742  0.9137 -1.4705 -1.0710
13527TIP3   OH240523   2.513   1.035   5.940  0.2811  0.2366  0.0602
13527TIP3    H140524   2.427   1.066   5.912  0.2269  0.4321  0.4382
13527TIP3    H240525   2.503   0.940   5.946  0.0031  0.2837  0.3935
13528TIP3   OH240526   3.486   4.257   1.596  0.1171 -0.3342 -0.2203
13528TIP3    H140527   3.467   4.192   1.663  0.2479 -0.3581 -0.2042
13528TIP3    H240528   3.545   4.212   1.535  0.3382 -0.1805 -0.1211
13529TIP3   OH240529   3.227   2.846   5.472  0.1748 -0.1576 -0.0708
13529TIP3    H140530   3.234   2.869   5.379  0.5989  2.5501  0.5490
13529TIP3    H240531   3.165   2.908   5.508 -0.0890 -1.2483  1.4706
13530TIP3   OH240532   6.401   5.050   5.173 -0.4959 -0.3157  0.0650
13530TIP3    H140533   6.395   5.073   5.080 -2.2459  2.0999  0.6631
13530TIP3    H240534   6.324   4.997   5.190 -0.2263 -0.6764  0.1697
13531TIP3   OH240535   5.453   4.031   5.134  0.2003 -0.4552  0.1435
13531TIP3    H140536   5.507   4.087   5.079 -0.3300 -0.5470 -0.4742
13531TIP3    H240537   5.484   3.943   5.116 -0.8663 -0.6063 -1.0267
13532TIP3   OH240538   1.053   3.031   3.653  0.4851  0.3399 -0.1525
13532TIP3    H140539   0.975   3.009   3.602  1.7142 -1.4813 -1.3128
13532TIP3    H240540   1.052   2.969   3.726 -0.7208  2.2825  1.6088
13533TIP3   OH240541   4.981   7.690   4.573 -0.1403  0.1292  0.3683
13533TIP3    H140542   4.897   7.666   4.534 -1.1673  1.3751  1.7070
13533TIP3    H240543   5.030   7.731   4.501 -0.6973 -0.5106 -0.3971
13534TIP3   OH240544   6.517   0.434   6.499 -0.6356 -0.2092  0.3016
13534TIP3    H140545   6.506   0.507   6.561 -2.4212  1.1140 -1.4126
13534TIP3    H240546   6.448   0.372   6.523 -0.6615 -0.1872  0.2846
13535TIP3   OH240547   1.030   7.121   1.731  0.6026  0.1513  0.3442
13535TIP3    H140548   1.043   7.026   1.732 -0.5354 -0.0292  2.0313
13535TIP3    H240549   1.116   7.157   1.707  0.8168 -1.2994 -1.2715
13536TIP3   OH240550   6.107   4.555   3.518 -0.2118  0.3159  0.1002
13536TIP3    H140551   6.028   4.567   3.466  0.4402  1.0695 -0.7586
13536TIP3    H240552   6.179   4.573   3.456  0.7364 -2.5791  0.1919
13537TIP3   OH240553   5.114   4.313   3.933 -0.0047 -0.6578  0.0580
13537TIP3    H140554   5.202   4.319   3.970 -0.4090 -0.2807  0.9869
13537TIP3    H240555   5.106   4.392   3.879 -0.5238  0.4621  1.6905
13538TIP3   OH240556   1.601   0.682   2.242  0.1410  0.2863  0.3741
13538TIP3    H140557   1.693   0.655   2.238 -0.4535 -1.8401 -0.3757
13538TIP3    H240558   1.560   0.620   2.302 -1.3621 -0.7006 -1.5664
13539TIP3   OH240559   0.385   4.887   2.942  0.2874 -0.2686  0.4327
13539TIP3    H140560   0.375   4.920   3.031  1.6779 -1.3446  1.0261
13539TIP3    H240561   0.326   4.941   2.889  1.2448  2.0219  1.5845
13540TIP3   OH240562   3.787   5.861   3.918 -0.2597  0.0189  0.0860
13540TIP3    H140563   3.747   5.816   3.993 -0.6606  0.7085  0.2952
13540TIP3    H240564   3.880   5.869   3.941 -0.3661  0.1539  0.4748
13541TIP3   OH240565   6.176   7.005   4.936 -0.1175 -0.7959 -0.7595
13541TIP3    H140566   6.139   7.093   4.929 -0.1375 -0.9110 -2.3124
13541TIP3    H240567   6.250   7.016   4.996  0.6172  0.5287 -1.8552
13542TIP3   OH240568   3.955   3.325   5.747 -0.3138  0.1752 -0.1290
13542TIP3    H140569   3.973   3.382   5.672  0.4410 -1.7174 -1.4642
13542TIP3    H240570   3.997   3.242   5.725 -3.0265 -1.5788  0.8041
13543TIP3   OH240571   7.956   0.283   2.137 -0.5920  0.7696 -0.2294
13543TIP3    H140572   7.886   0.219   2.131 -0.1213  0.3676 -2.3316
13543TIP3    H240573   7.910   0.368   2.141 -1.2004  0.4192  0.3582
13544TIP3   OH240574   0.692   0.956   4.505 -0.2993 -0.2528 -0.2740
13544TIP3    H140575   0.768   1.015   4.505 -0.1819 -0.3834  0.9578
13544TIP3    H240576   0.701   0.906   4.423  0.6194  0.1369 -0.4268
13545TIP3   OH240577   0.100   2.504   4.062  0.0205  0.3825  0.1440
13545TIP3    H140578   0.068   2.574   4.119 -0.1165  2.2925 -2.1219
13545TIP3    H240579   0.035   2.499   3.991  0.0703 -2.0445  0.1727
13546TIP3   OH240580   3.696   1.626   5.467  0.2771 -0.4093 -0.4538
13546TIP3    H140581   3.661   1.714   5.483 -0.5584 -0.8588  0.2814
13546TIP3    H240582   3.770   1.619   5.526  2.0562  0.7493 -2.4038
13547TIP3   OH240583   7.609   6.468   5.249 -0.1644  0.4225 -0.0622
13547TIP3    H140584   7.568   6.485   5.164 -0.5319 -1.7945 -0.4047
13547TIP3    H240585   7.538   6.482   5.312 -0.6456 -0.4137 -0.3878
13548TIP3   OH240586   6.113   2.333   5.301 -0.3340  0.0183 -0.0905
13548TIP3    H140587   6.116   2.242   5.272 -0.0462  0.4099 -1.4051
13548TIP3    H240588   6.028   2.343   5.343 -0.6992 -0.6767 -0.6431
13549TIP3   OH240589   0.069   0.477   4.797 -0.1010 -0.4906 -0.3274
13549TIP3    H140590   0.152   0.487   4.751  1.6721 -0.9598  2.5080
13549TIP3    H240591   0.071   0.386   4.829 -0.0264  0.4551  2.6304
13550TIP3   OH240592   0.694   7.716   5.848 -0.1811  0.1172  0.7150
13550TIP3    H140593   0.765   7.697   5.910  1.1152  1.8801 -0.1521
13550TIP3    H240594   0.659   7.630   5.824  1.6834 -0.8063  1.1481
13551TIP3   OH240595   0.183   1.657   5.802  0.6975 -0.1024  0.2137
13551TIP3    H140596   0.210   1.666   5.893  1.4441  0.9364 -0.0933
13551TIP3    H240597   0.107   1.716   5.794 -0.2197 -1.2026  0.4736
13552TIP3   OH240598   8.050   1.639   4.812  0.8066 -0.1440  0.1691
13552TIP3    H140599   8.110   1.655   4.885  0.8255  1.0304 -0.0890
13552TIP3    H240600   8.066   1.548   4.788  0.7634 -0.5862  1.6593
13553TIP3   OH240601   0.765   6.425   3.410 -0.1384 -0.4131  0.4084
13553TIP3    H140602   0.747   6.518   3.397 -0.1310 -0.5869 -1.0323
13553TIP3    H240603   0.718   6.381   3.339 -1.0093 -1.6191  1.6709
13554TIP3   OH240604   5.402   4.366   4.827 -0.1866  0.1920  0.1223
13554TIP3    H140605   5.401   4.401   4.916 -1.0656 -0.0437  0.2163
13554TIP3    H240606   5.484   4.399   4.789 -0.1294  0.8470  0.7896
13555TIP3   OH240607   4.071   0.041   6.734  0.0717 -0.2663  0.1005
13555TIP3    H140608   4.044   0.027   6.643  0.4337  2.2597 -0.4880
13555TIP3    H240609   4.002   0.095   6.772  1.3608  1.2940  0.3450
13556TIP3   OH240610   2.172   5.739   0.836 -0.0016 -0.0064 -0.3017
13556TIP3    H140611   2.121   5.734   0.755  1.2754 -1.5701 -1.0463
13556TIP3    H240612   2.142   5.664   0.888 -0.4370  0.6883  0.4762
13557TIP3   OH240613   4.768   0.466   0.530  0.4923  0.4070 -0.0494
13557TIP3    H140614   4.678   0.487   0.504 -0.2342  0.3541  2.1367
13557TIP3    H240615   4.798   0.403   0.465 -1.1855  0.2039 -0.6730
13558TIP3   OH240616   5.030   6.857   6.181  0.8723 -0.0950 -0.6797
13558TIP3    H140617   4.969   6.898   6.244  1.8319  0.1889  0.0925
13558TIP3    H240618   4.973   6.811   6.120 -0.0906 -1.3096  1.0236
13559TIP3   OH240619   5.901   5.887   5.675  0.1925  0.2514 -0.0407
13559TIP3    H140620   5.825   5.871   5.730  1.6030 -1.9073  1.4704
13559TIP3    H240621   5.878   5.964   5.623 -1.6147  1.8714  2.8854
13560TIP3   OH240622   0.025   6.247   5.636 -0.0449 -0.3780  0.4382
13560TIP3    H140623   0.059   6.206   5.715 -1.3280 -0.7285  0.8415
13560TIP3    H240624   0.043   6.340   5.648  0.7984 -0.5559  0.6035
13561TIP3   OH240625   6.829   2.272   2.872 -0.3216 -0.1285 -0.4128
13561TIP3    H140626   6.813   2.210   2.943  1.2425  1.2500  1.2707
13561TIP3    H240627   6.744   2.315   2.857 -0.5300  0.0663  1.1840
13562TIP3   OH240628   6.237   6.055   6.209 -0.0614 -0.5725 -0.4507
13562TIP3    H140629   6.263   5.971   6.171  0.5666 -1.0872  1.0390
13562TIP3    H240630   6.171   6.032   6.275  2.1790 -0.3301  2.0772
13563TIP3   OH240631   0.820   6.051   0.611  0.2312  0.8124 -0.2514
13563TIP3    H140632   0.760   6.121   0.637  0.0377  0.8094 -0.6786
13563TIP3    H240633   0.840   6.005   0.692 -1.4994 -0.1012 -0.3064
13564TIP3   OH240634   7.435   5.713   3.214 -0.7117 -0.1518  0.0169
13564TIP3    H140635   7.495   5.639   3.213 -0.8067 -0.2276 -0.8746
13564TIP3    H240636   7.435   5.745   3.124 -1.1473  0.5441  0.2589
13565TIP3   OH240637   3.098   7.352   1.575 -0.0722  0.0282  0.3364
13565TIP3    H140638   3.048   7.392   1.504  0.8403  0.1864 -0.2324
13565TIP3    H240639   3.189   7.360   1.548  0.2805 -0.1266  1.4171
13566TIP3   OH240640   0.495   3.528   6.067  0.5300  0.1933 -0.0622
13566TIP3    H140641   0.416   3.504   6.116  1.1681  1.2963  1.5893
13566TIP3    H240642   0.462   3.569   5.987 -0.5701 -3.4882 -1.7309
13567TIP3   OH240643   3.308   3.657   0.849  0.2678 -0.5361 -0.1701
13567TIP3    H140644   3.275   3.716   0.782 -0.9862 -0.4713  0.4685
13567TIP3    H240645   3.270   3.690   0.931 -1.0892 -2.6181  0.1266
13568TIP3   OH240646   5.906   5.660   3.333 -0.1064 -0.4084 -0.3628
13568TIP3    H140647   5.884   5.721   3.263  0.6681  2.3860  1.6364
13568TIP3    H240648   5.971   5.601   3.294 -1.0422 -0.1362 -2.4552
13569TIP3   OH240649   6.983   4.985   2.376  0.5415  0.2090 -0.4681
13569TIP3    H140650   6.921   5.045   2.417  1.0130  0.3000  0.1284
13569TIP3    H240651   7.017   5.033   2.301 -0.2020  0.1054 -0.8829
13570TIP3   OH240652   3.958   5.634   3.116 -0.0216  0.1649  0.0537
13570TIP3    H140653   4.016   5.701   3.079 -0.0261  0.6958  0.9887
13570TIP3    H240654   3.876   5.645   3.067  0.6460 -0.6400 -1.3240
13571TIP3   OH240655   7.708   4.191   2.456 -0.2044 -0.4957  0.1554
13571TIP3    H140656   7.717   4.096   2.470  1.0901 -0.2895  0.8549
13571TIP3    H240657   7.754   4.230   2.530 -1.1824  0.6980  0.1610
13572TIP3   OH240658   1.039   7.065   5.741 -0.1804 -0.1254  0.3190
13572TIP3    H140659   0.951   7.102   5.745  0.3991  1.3698 -0.1341
13572TIP3    H240660   1.058   7.059   5.647  0.2550 -0.2901  0.4177
13573TIP3   OH240661   1.724   4.412   1.233  0.7307  0.5733  0.2201
13573TIP3    H140662   1.813   4.398   1.264  1.3134  1.9510 -0.7677
13573TIP3    H240663   1.715   4.507   1.224 -0.3638  0.3903 -1.0227
13574TIP3   OH240664   5.450   6.109   2.165 -0.5991  0.0915 -0.4748
13574TIP3    H140665   5.467   6.085   2.074  1.7423 -1.8965  0.3678
13574TIP3    H240666   5.422   6.028   2.207  0.7007  0.3690  1.0434
13575TIP3   OH240667   4.430   7.223   2.427  0.1020  0.0232  0.2900
13575TIP3    H140668   4.443   7.306   2.472 -1.1762  1.7523 -2.2764
13575TIP3    H240669   4.469   7.236   2.340  1.7421 -2.8494  0.4555
13576TIP3   OH240670   8.043   5.680   1.494 -0.3182 -0.0133 -0.1174
13576TIP3    H140671   8.031   5.705   1.585  2.6632  1.6232 -0.0508
13576TIP3    H240672   8.024   5.586   1.492 -1.2122  0.0704  1.9771
13577TIP3   OH240673   6.368   4.725   5.738  0.0287 -0.3986 -0.2846
13577TIP3    H140674   6.446   4.761   5.780  0.1543 -0.6507 -0.2966
13577TIP3    H240675   6.387   4.631   5.730 -0.1794 -0.4228 -0.4981
13578TIP3   OH240676   5.594   5.758   3.926  0.1147  0.2093 -0.3027
13578TIP3    H140677   5.504   5.768   3.895 -0.8417  0.8321  2.4057
13578TIP3    H240678   5.623   5.848   3.943  1.7670  0.1192 -2.3106
13579TIP3   OH240679   1.762   5.210   6.125  0.1183 -0.0705 -0.0527
13579TIP3    H140680   1.766   5.288   6.181  0.7872 -1.8376  2.5960
13579TIP3    H240681   1.691   5.158   6.162  0.5766 -1.3130 -0.8593
13580TIP3   OH240682   6.450   2.152   2.283  0.2854 -0.0787 -0.3586
13580TIP3    H140683   6.360   2.145   2.315  0.0311  0.6807 -0.8911
13580TIP3    H240684   6.502   2.109   2.351 -0.4074  0.0513  0.2776
13581TIP3   OH240685   4.708   4.615   5.389  0.2281 -0.3265 -0.0597
13581TIP3    H140686   4.717   4.605   5.294  0.4818 -1.4058  0.0595
13581TIP3    H240687   4.656   4.694   5.401  0.9993  0.3526 -1.0779
13582TIP3   OH240688   4.205   5.313   3.017  0.0132  0.1554  0.1074
13582TIP3    H140689   4.247   5.330   3.101 -0.7574 -0.7982  0.7061
13582TIP3    H240690   4.201   5.398   2.974 -1.5104  1.0670  1.9483
13583TIP3   OH240691   8.004   6.262   6.419  0.2637 -0.6395  0.2197
13583TIP3    H140692   7.913   6.239   6.441  0.4533 -0.5719  1.1105
13583TIP3    H240693   8.027   6.203   6.348 -0.9133  0.2304 -0.9552
13584TIP3   OH240694   7.002   4.734   2.677  0.0882 -0.7678 -0.4034
13584TIP3    H140695   7.080   4.780   2.648  0.1566 -1.2370 -0.9536
13584TIP3    H240696   7.034   4.659   2.726 -0.0034 -1.3709 -1.2511
13585TIP3   OH240697   5.962   0.085   2.992 -0.0367  0.5859  0.3933
13585TIP3    H140698   6.046   0.040   2.985 -0.4289 -0.0643 -0.3095
13585TIP3    H240699   5.983   0.170   3.030  1.1262  0.9994 -1.1044
13586TIP3   OH240700   3.372   0.640   4.996 -0.4631  0.1148 -0.1796
13586TIP3    H140701   3.441   0.617   4.934  0.4743 -0.0924  0.8967
13586TIP3    H240702   3.322   0.709   4.953  0.8482  0.7510 -0.7189
13587TIP3   OH240703   0.797   2.154   6.433 -0.2028  0.2987  0.3861
13587TIP3    H140704   0.772   2.185   6.520 -0.7742  1.7663 -0.2583
13587TIP3    H240705   0.716   2.157   6.382  0.4623  1.3120 -0.6778
13588TIP3   OH240706   1.113   0.442   5.225  0.4812 -0.7579  0.2117
13588TIP3    H140707   1.039   0.451   5.285  1.5376  0.4545  1.3932
13588TIP3    H240708   1.127   0.348   5.217 -0.0341 -0.9530  1.4368
13589TIP3   OH240709   6.082   1.716   4.595  0.4830  0.0158  0.0011
13589TIP3    H140710   5.987   1.715   4.584  0.4773  1.5193 -0.4185
13589TIP3    H240711   6.101   1.642   4.652 -0.9291 -0.3615  0.0166
13590TIP3   OH240712   5.826   4.372   1.935  0.4509  0.4679  0.2568
13590TIP3    H140713   5.839   4.368   1.840 -2.3373 -0.5066 -0.1505
13590TIP3    H240714   5.785   4.289   1.958  1.8202  0.3308  2.5033
13591TIP3   OH240715   5.847   3.438   0.561 -0.0585  0.5024  0.0211
13591TIP3    H140716   5.760   3.478   0.555 -0.6702 -0.5920  1.1716
13591TIP3    H240717   5.905   3.501   0.518 -1.2427  1.7772  0.2217
13592TIP3   OH240718   7.325   6.722   0.255 -0.4179 -0.3222  0.1805
13592TIP3    H140719   7.231   6.740   0.259 -0.4286 -0.4480  0.5046
13592TIP3    H240720   7.337   6.679   0.171 -0.9026 -1.7279  0.7909
13593TIP3   OH240721   1.972   3.893   4.012  0.2020  0.3977 -0.0667
13593TIP3    H140722   2.044   3.946   3.977 -0.8842  2.2354  0.3332
13593TIP3    H240723   2.014   3.811   4.039  1.9334  0.9471 -0.8792
13594TIP3   OH240724   7.176   6.266   2.869  0.0608  0.1689  0.2872
13594TIP3    H140725   7.250   6.310   2.910 -0.4385  0.7877  0.5530
13594TIP3    H240726   7.128   6.336   2.824  1.3497 -0.6591 -2.6121
13595TIP3   OH240727   0.858   6.537   2.680 -0.2817 -0.3697  0.0270
13595TIP3    H140728   0.823   6.564   2.765  0.8173 -0.5455  0.5488
13595TIP3    H240729   0.952   6.552   2.686 -0.3443  1.1594 -1.7395
13596TIP3   OH240730   1.720   0.094   3.850 -0.6815  0.0283  0.5130
13596TIP3    H140731   1.686   0.177   3.818 -0.8138 -0.2261 -0.0188
13596TIP3    H240732   1.813   0.096   3.827 -0.8179 -0.2418 -0.0982
13597TIP3   OH240733   3.435   5.970   1.780 -0.2381 -0.1284  0.5484
13597TIP3    H140734   3.476   5.906   1.721  0.5406 -1.1778  2.1511
13597TIP3    H240735   3.403   5.917   1.853 -0.8076  1.1762  1.2669
13598TIP3   OH240736   5.799   7.232   3.691 -0.0673  0.5981 -0.2356
13598TIP3    H140737   5.745   7.297   3.647 -1.4444  1.0878  2.0018
13598TIP3    H240738   5.757   7.148   3.670 -0.3417  0.7630 -0.3523
13599TIP3   OH240739   3.387   0.930   0.802 -0.6164 -0.4866 -0.8247
13599TIP3    H140740   3.480   0.936   0.825 -0.7524  0.7982 -0.5061
13599TIP3    H240741   3.357   0.849   0.844  0.5904 -1.4876 -1.8355
13600TIP3   OH240742   1.475   2.364   4.437  0.5012 -0.6461 -0.0818
13600TIP3    H140743   1.417   2.334   4.508  0.2128  0.1303  0.0213
13600TIP3    H240744   1.426   2.434   4.395  1.6059  0.4147  0.3636
13601TIP3   OH240745   7.849   3.100   3.315  0.0989 -0.2829 -0.1369
13601TIP3    H140746   7.875   3.096   3.222  0.0428 -2.1240 -0.1161
13601TIP3    H240747   7.759   3.067   3.316  0.1484 -0.4067  0.5895
13602TIP3   OH240748   4.476   3.005   4.196 -0.4492  0.0182 -0.2049
13602TIP3    H140749   4.523   2.934   4.154 -1.3542  0.2818 -1.7292
13602TIP3    H240750   4.476   2.983   4.289  0.0150 -1.5209 -0.5539
13603TIP3   OH240751   0.168   3.890   4.005 -0.2323 -0.0021  0.6133
13603TIP3    H140752   0.153   3.798   3.985 -0.9578  0.0310  0.9721
13603TIP3    H240753   0.243   3.890   4.064  1.3846 -0.1617 -1.3499
13604TIP3   OH240754   0.907   5.377   4.087  0.2421  0.0180  0.6633
13604TIP3    H140755   0.880   5.468   4.075 -0.8036 -0.3050  0.5393
13604TIP3    H240756   0.873   5.352   4.172 -1.2325 -0.8699 -0.1623
13605TIP3   OH240757   3.850   2.909   5.557 -0.3008 -0.3159  0.3166
13605TIP3    H140758   3.840   2.826   5.510 -0.4868  0.6904 -1.5457
13605TIP3    H240759   3.766   2.921   5.603 -1.8219  0.5360 -2.4257
13606TIP3   OH240760   2.824   0.847   5.091 -0.4319 -0.4366 -0.1468
13606TIP3    H140761   2.782   0.761   5.093  0.7411 -1.0353  1.6552
13606TIP3    H240762   2.837   0.866   4.998 -0.1522 -2.5137 -0.5713
13607TIP3   OH240763   7.660   5.634   0.109 -0.2174 -0.0262 -0.3281
13607TIP3    H140764   7.752   5.659   0.098  0.4815 -2.2080  0.2653
13607TIP3    H240765   7.631   5.683   0.186  1.0082 -0.7429  0.6180
13608TIP3   OH240766   2.808   6.693   4.291 -0.2949  0.7669  0.0295
13608TIP3    H140767   2.878   6.677   4.355  0.7940  0.7012 -1.1438
13608TIP3    H240768   2.732   6.647   4.327  0.0323  1.4591  1.7002
13609TIP3   OH240769   1.497   7.336   6.288  0.0363 -0.1174 -0.1932
13609TIP3    H140770   1.560   7.319   6.217 -0.9948  0.4735 -1.2919
13609TIP3    H240771   1.516   7.268   6.353  0.5492 -1.1447 -1.3605
13610TIP3   OH240772   2.674   2.264   4.118 -0.7999  0.0008 -0.3851
13610TIP3    H140773   2.709   2.175   4.121 -0.0279  0.2961 -0.6142
13610TIP3    H240774   2.598   2.261   4.176 -0.6943 -0.7697 -0.2717
13611TIP3   OH240775   4.634   2.140   4.076  0.3473  0.0286 -0.6366
13611TIP3    H140776   4.564   2.090   4.033  1.0157 -0.8701 -0.7135
13611TIP3    H240777   4.706   2.077   4.086  0.5905  0.4966  0.8514
13612TIP3   OH240778   3.393   3.438   2.886  0.3639 -0.1683  0.7536
13612TIP3    H140779   3.403   3.381   2.810  0.1321  0.2401  0.4099
13612TIP3    H240780   3.458   3.507   2.872  0.7269 -0.4107  1.2278
13613TIP3   OH240781   4.910   5.770   2.805 -0.4087  0.5276  0.5950
13613TIP3    H140782   4.816   5.767   2.786 -0.3925  1.9616  0.1708
13613TIP3    H240783   4.918   5.829   2.880  0.2793  1.8247 -0.4608
13614TIP3   OH240784   3.119   1.673   5.304 -0.7376 -0.6604 -0.2050
13614TIP3    H140785   3.186   1.684   5.236  1.0055 -0.7244  1.4182
13614TIP3    H240786   3.077   1.590   5.282 -0.8757 -0.2174 -1.7341
13615TIP3   OH240787   5.591   4.164   4.903  0.4217  0.1638 -0.4413
13615TIP3    H140788   5.626   4.234   4.848  0.6563 -0.0713 -0.5948
13615TIP3    H240789   5.501   4.152   4.871  0.1193  0.9220  0.1044
13616TIP3   OH240790   2.623   5.680   3.946  0.4694  0.5329 -0.0667
13616TIP3    H140791   2.590   5.759   3.989 -2.1493 -1.8832  2.8413
13616TIP3    H240792   2.718   5.684   3.960  0.2515  2.4435  1.3434
13617TIP3   OH240793   7.637   4.668   5.396  0.2635  0.0287  0.4234
13617TIP3    H140794   7.654   4.741   5.456 -0.6457  0.2861  0.3792
13617TIP3    H240795   7.565   4.620   5.436  1.4145 -1.3847  0.9050
13618TIP3   OH240796   7.926   2.118   6.175 -0.2388  0.0596 -0.4130
13618TIP3    H140797   7.986   2.175   6.223 -0.6458 -0.2225  0.4579
13618TIP3    H240798   7.845   2.168   6.169 -0.1738  0.1152 -0.8709
13619TIP3   OH240799   8.032   3.809   6.604 -0.2235  0.5428 -0.1548
13619TIP3    H140800   8.015   3.787   6.696  0.8244  0.6783  0.0821
13619TIP3    H240801   8.088   3.738   6.572 -1.1389  0.1289 -0.9059
13620TIP3   OH240802   0.628   2.051   4.881 -0.0324 -0.2708 -0.1211
13620TIP3    H140803   0.628   1.987   4.811 -0.3344  0.8666 -1.2049
13620TIP3    H240804   0.720   2.073   4.894  0.1238 -1.3812  0.7035
13621TIP3   OH240805   0.792   2.940   5.284  0.6080  0.1393  0.1042
13621TIP3    H140806   0.865   2.950   5.223  0.3307 -0.6804 -0.3802
13621TIP3    H240807   0.796   3.017   5.340  1.2550  0.5838 -0.5454
13622TIP3   OH240808   7.133   3.756   0.418 -0.3444  0.1407 -0.4548
13622TIP3    H140809   7.125   3.832   0.361 -4.0947  1.0002  0.9513
13622TIP3    H240810   7.072   3.691   0.382 -0.1530 -0.6520  0.5877
13623TIP3   OH240811   4.045   4.801   3.757  0.1555 -0.1508  0.1629
13623TIP3    H140812   4.035   4.725   3.700 -1.2390  0.2820 -0.1981
13623TIP3    H240813   3.956   4.835   3.768  0.6288  0.8217  1.1520
13624TIP3   OH240814   7.404   5.264   5.741  0.5155 -0.6647 -0.0769
13624TIP3    H140815   7.454   5.203   5.796 -1.6769 -0.8895  1.8283
13624TIP3    H240816   7.444   5.349   5.757  0.0766 -0.7609  1.7801
13625TIP3   OH240817   2.499   3.506   6.195 -0.2057  0.1331 -0.0368
13625TIP3    H140818   2.430   3.500   6.261  1.3995  0.4995  1.7859
13625TIP3    H240819   2.555   3.430   6.213 -1.1440 -1.3349 -2.8096
13626TIP3   OH240820   1.947   0.798   0.266 -0.0856  0.0426  1.2216
13626TIP3    H140821   1.896   0.863   0.315 -0.5130 -0.1680  1.0571
13626TIP3    H240822   1.883   0.732   0.240 -0.1573  0.8554 -0.8831
13627TIP3   OH240823   1.036   2.200   1.354  0.6892 -0.4174 -0.3633
13627TIP3    H140824   0.989   2.266   1.302  0.1436 -0.8967 -0.4791
13627TIP3    H240825   1.010   2.117   1.316  2.0221 -0.6816 -0.7577
13628TIP3   OH240826   3.101   0.269   4.220 -0.7452 -0.0151 -0.0668
13628TIP3    H140827   3.108   0.364   4.207  0.2714 -0.2565 -1.5035
13628TIP3    H240828   3.154   0.231   4.150  0.7189 -1.6141  1.7724
13629TIP3   OH240829   4.687   7.646   6.186 -0.5853 -0.2303 -0.1615
13629TIP3    H140830   4.647   7.610   6.265  1.1629 -0.6288  0.5752
13629TIP3    H240831   4.780   7.649   6.205 -0.3806  2.1385 -1.2579
13630TIP3   OH240832   5.913   5.987   2.022 -0.0127  0.1292 -0.4394
13630TIP3    H140833   5.872   6.063   1.983  2.2611  1.2792 -0.7481
13630TIP3    H240834   5.990   5.970   1.968  1.3145 -0.3536  1.4743
13631TIP3   OH240835   4.171   4.975   3.927 -0.7727  0.3440 -0.2745
13631TIP3    H140836   4.131   5.057   3.899  0.1072  0.3663 -1.5403
13631TIP3    H240837   4.125   4.907   3.877 -0.6897  0.1727 -0.1225
13632TIP3   OH240838   1.933   1.162   3.148  0.1668 -0.4421 -0.0855
13632TIP3    H140839   1.887   1.228   3.200  0.0894 -0.5195 -0.0548
13632TIP3    H240840   1.971   1.103   3.212 -1.7437 -1.7970 -0.0999
13633TIP3   OH240841   5.923   1.875   3.688  0.0463 -0.8516 -0.3950
13633TIP3    H140842   5.941   1.785   3.662  0.3555 -1.0146  0.3536
13633TIP3    H240843   5.868   1.867   3.766  0.5907 -0.4059  0.0436
13634TIP3   OH240844   0.633   4.960   0.732  0.2566 -0.6691 -0.4347
13634TIP3    H140845   0.668   5.024   0.670 -0.8531 -0.3366 -0.7416
13634TIP3    H240846   0.613   5.010   0.810 -1.8028 -0.3459 -1.1087
13635TIP3   OH240847   7.432   1.621   3.809 -0.7777 -0.5323 -0.1163
13635TIP3    H140848   7.483   1.700   3.795  0.2773 -1.0046  0.9193
13635TIP3    H240849   7.371   1.618   3.735 -1.1568  1.4720  0.0676
13636TIP3   OH240850   7.326   7.293   0.965 -0.1114  0.7368  0.0814
13636TIP3    H140851   7.393   7.229   0.990  0.3239  1.3591  0.5261
13636TIP3    H240852   7.353   7.323   0.878 -0.2539  0.3989 -0.0804
13637TIP3   OH240853   3.543   4.093   5.490  0.3508 -0.7059 -0.0398
13637TIP3    H140854   3.605   4.166   5.489  0.7114 -1.0041 -1.1867
13637TIP3    H240855   3.549   4.055   5.402 -1.7544 -0.5180 -0.3177
13638TIP3   OH240856   0.217   3.024   3.369  0.0443 -0.5290  0.2387
13638TIP3    H140857   0.172   2.985   3.294 -0.3225  0.0086  0.1686
13638TIP3    H240858   0.254   2.950   3.417  1.2302 -0.8178 -1.0719
13639TIP3   OH240859   7.005   3.738   3.908 -0.0560  0.1477  0.6431
13639TIP3    H140860   6.963   3.793   3.841  0.3668 -0.5590 -0.2272
13639TIP3    H240861   7.086   3.784   3.928  1.5755 -1.3356 -1.9673
13640TIP3   OH240862   3.561   2.119   4.231 -0.1307  0.1595  0.5073
13640TIP3    H140863   3.483   2.144   4.281 -0.0894 -1.5730  1.5186
13640TIP3    H240864   3.602   2.202   4.208 -3.3525  1.2964 -1.9348
13641TIP3   OH240865   5.193   4.834   2.456 -0.1461 -0.1857 -0.2461
13641TIP3    H140866   5.215   4.824   2.548 -0.3584 -1.5395 -0.3243
13641TIP3    H240867   5.256   4.780   2.410 -0.8544 -0.5603 -0.7951
13642TIP3   OH240868   7.165   7.255  -0.039 -0.0066 -0.1983  0.3840
13642TIP3    H140869   7.221   7.209   0.023  0.2851 -0.8931 -0.3852
13642TIP3    H240870   7.104   7.305   0.017  0.1065 -0.9694  1.2255
13643TIP3   OH240871   7.302   4.162   0.418 -0.9781 -0.3462 -0.3143
13643TIP3    H140872   7.314   4.233   0.356 -0.8278 -0.1083 -0.0152
13643TIP3    H240873   7.336   4.084   0.373 -0.2563 -0.0607 -0.2802
13644TIP3   OH240874   6.461   7.176   1.731 -0.4089  0.8021  0.7164
13644TIP3    H140875   6.532   7.214   1.783  0.1009  0.0265  0.6036
13644TIP3    H240876   6.448   7.089   1.769  1.4045 -0.6472 -1.7235
13645TIP3   OH240877   3.913   0.606   0.388  0.0498  0.0313  0.0276
13645TIP3    H140878   3.983   0.662   0.355  0.7621 -0.0630  1.3310
13645TIP3    H240879   3.943   0.517   0.370  1.3067 -0.1034  2.4778
13646TIP3   OH240880   6.849   5.351   5.559 -0.2255 -0.4440  0.0611
13646TIP3    H140881   6.796   5.429   5.571  0.3361  0.3129 -1.9729
13646TIP3    H240882   6.939   5.379   5.578 -0.2706 -1.1660  1.4164
13647TIP3   OH240883   4.537   2.429   6.370  0.1710 -0.0118  0.2899
13647TIP3    H140884   4.550   2.523   6.354 -2.7143  0.2631 -1.1366
13647TIP3    H240885   4.507   2.425   6.461  0.3862  0.4419  0.3860
13648TIP3   OH240886   0.090   6.439   3.168 -0.0012 -0.1205  0.1417
13648TIP3    H140887   0.122   6.512   3.221 -1.8130  1.1154 -0.3866
13648TIP3    H240888   0.051   6.379   3.231 -0.0311  0.1843  0.4136
13649TIP3   OH240889   6.447   7.135   5.929 -0.7311  0.4980 -0.6851
13649TIP3    H140890   6.513   7.169   5.868 -0.0664  0.7103  0.1280
13649TIP3    H240891   6.405   7.213   5.965  0.6438  0.5295  1.0184
13650TIP3   OH240892   7.671   1.924   6.062 -0.5460 -0.1543  0.0243
13650TIP3    H140893   7.617   1.856   6.023  0.3709 -0.4037 -0.8356
13650TIP3    H240894   7.638   2.006   6.024  0.0250 -0.3554 -0.9498
13651TIP3   OH240895   5.951   6.903   6.731  0.2076 -0.3383  0.1897
13651TIP3    H140896   6.017   6.890   6.798  1.7835 -0.8825 -1.3703
13651TIP3    H240897   5.996   6.950   6.661 -1.6655  1.1782 -0.0736
13652TIP3   OH240898   0.658   2.252   5.999  0.2131 -0.2557  0.4789
13652TIP3    H140899   0.596   2.299   5.943 -1.9454 -1.9997  1.2207
13652TIP3    H240900   0.640   2.285   6.087  1.9113  0.7672  0.4744
13653TIP3   OH240901   2.655   1.868   2.789 -0.4143 -0.0566 -0.1090
13653TIP3    H140902   2.619   1.852   2.701  0.6323  0.5168 -0.6605
13653TIP3    H240903   2.600   1.938   2.825 -1.2398 -0.7284 -0.0582
13654TIP3   OH240904   1.376   5.017   3.742  0.2610 -0.2906  0.0525
13654TIP3    H140905   1.350   4.980   3.657 -1.4312 -1.0201  0.8487
13654TIP3    H240906   1.309   5.082   3.762  0.3371 -0.4993  1.0599
13655TIP3   OH240907   0.308   3.794   0.093 -0.3878 -0.2272 -0.5405
13655TIP3    H140908   0.275   3.809   0.182  0.3148 -1.6838  0.0070
13655TIP3    H240909   0.397   3.762   0.106 -0.2992 -0.5289 -1.7712
13656TIP3   OH240910   0.392   2.878   4.335 -0.5599  0.4833  0.6118
13656TIP3    H140911   0.434   2.957   4.301 -1.2477  0.1461 -1.1176
13656TIP3    H240912   0.427   2.807   4.283 -1.1568 -0.1613  1.0584
13657TIP3   OH240913   0.249   0.564   0.901  0.2021 -0.2157 -0.0647
13657TIP3    H140914   0.262   0.659   0.907 -0.6397 -0.0847 -0.1110
13657TIP3    H240915   0.199   0.552   0.820  2.3442 -0.9492 -1.3611
13658TIP3   OH240916   6.530   3.669   3.102 -0.2278  0.0715  0.3999
13658TIP3    H140917   6.537   3.634   3.191  1.5309  0.6610  0.5426
13658TIP3    H240918   6.440   3.701   3.095 -0.7544 -1.0727  1.5373
13659TIP3   OH240919   3.134   4.569   5.461  0.4377 -0.2103  0.2959
13659TIP3    H140920   3.212   4.611   5.427  0.6685 -0.7789  0.1023
13659TIP3    H240921   3.165   4.520   5.537  0.1605  0.0241  0.5616
13660TIP3   OH240922   2.032   7.245   6.528 -0.7493 -0.2574 -0.4272
13660TIP3    H140923   2.020   7.269   6.620 -3.0721 -2.5852  0.0093
13660TIP3    H240924   2.103   7.301   6.498 -0.9545  1.7205  2.3309
13661TIP3   OH240925   2.817   6.074   4.305 -0.5291  0.1941 -0.1641
13661TIP3    H140926   2.908   6.078   4.334 -0.2731  0.4174 -0.9783
13661TIP3    H240927   2.790   5.984   4.325 -0.1196  0.1170  0.0571
13662TIP3   OH240928   1.399   7.158   6.600 -0.3387 -0.2117 -0.4478
13662TIP3    H140929   1.362   7.072   6.623  0.3481  0.0199  1.7478
13662TIP3    H240930   1.469   7.138   6.538  2.0596 -1.7023  2.4831
13663TIP3   OH240931   7.499   4.320   2.699  0.3649 -0.0975 -0.1668
13663TIP3    H140932   7.577   4.356   2.742  1.2731 -1.4512 -0.5812
13663TIP3    H240933   7.463   4.259   2.763 -0.3893  0.5550  0.0365
13664TIP3   OH240934   4.626   3.260   2.677  0.2177 -0.1159  0.0750
13664TIP3    H140935   4.662   3.327   2.735  0.8698  0.1297 -0.5910
13664TIP3    H240936   4.650   3.290   2.589 -3.3699  1.1760 -0.6359
13665TIP3   OH240937   0.562   7.730   1.004 -0.4968 -0.2544 -0.7698
13665TIP3    H140938   0.534   7.704   1.092  2.3236 -0.2555  0.2261
13665TIP3    H240939   0.555   7.826   1.004  0.4668 -0.1684 -0.1302
13666TIP3   OH240940   7.409   4.697   2.592  0.6798 -0.1303  0.5286
13666TIP3    H140941   7.378   4.606   2.587  0.2523  0.0467 -0.2168
13666TIP3    H240942   7.403   4.729   2.502  0.1386  0.8629  0.8997
13667TIP3   OH240943   3.058   7.267   4.142  0.4244 -0.0172 -0.4202
13667TIP3    H140944   3.048   7.357   4.173  1.4029 -0.1404  0.2959
13667TIP3    H240945   3.119   7.273   4.069 -0.1744 -0.0049 -0.9301
13668TIP3   OH240946   7.885   2.886   6.479  0.9015 -0.2029 -0.7945
13668TIP3    H140947   7.920   2.901   6.392 -0.2481  0.4499 -1.1661
13668TIP3    H240948   7.793   2.913   6.473  0.1514 -2.3522 -0.0259
13669TIP3   OH240949   4.784   4.592   6.675 -0.2619  0.1668 -1.0462
13669TIP3    H140950   4.775   4.500   6.700 -1.3808  0.8099  1.1543
13669TIP3    H240951   4.703   4.611   6.627 -0.4215  0.2221 -0.7554
13670TIP3   OH240952   3.859   4.390   4.544  0.1636  0.2493 -0.2665
13670TIP3    H140953   3.803   4.451   4.496 -0.9735 -1.2034 -0.8605
13670TIP3    H240954   3.948   4.423   4.530  0.0265 -0.6332 -4.3207
13671TIP3   OH240955   0.623   4.316   0.636 -0.2958 -0.3968  0.5733
13671TIP3    H140956   0.600   4.389   0.694 -0.5304 -1.0125  1.2665
13671TIP3    H240957   0.540   4.278   0.610 -0.2287  0.4217 -0.9040
13672TIP3   OH240958   6.598   4.236   0.353 -0.3525  0.5790 -0.4930
13672TIP3    H140959   6.688   4.229   0.385 -0.4064  0.2000 -0.4140
13672TIP3    H240960   6.549   4.273   0.426 -0.4930 -0.3657 -0.0871
13673TIP3   OH240961   2.411   7.364   4.809 -0.1086  0.4818  0.3937
13673TIP3    H140962   2.375   7.339   4.724 -1.6104 -0.8120  1.3417
13673TIP3    H240963   2.448   7.451   4.795 -0.9317  0.5866 -1.4222
13674TIP3   OH240964   4.907   3.104   2.701  0.1019 -0.4459 -0.1865
13674TIP3    H140965   4.969   3.177   2.704  2.0020 -1.9946  0.2302
13674TIP3    H240966   4.867   3.103   2.788  2.3303 -1.6818  0.9142
13675TIP3   OH240967   2.430   2.665   5.418  0.0619  0.2928 -0.0038
13675TIP3    H140968   2.433   2.569   5.417  1.7884  0.1222  3.6703
13675TIP3    H240969   2.476   2.691   5.338 -0.3746 -1.9130 -1.0476
13676TIP3   OH240970   6.627   2.995   2.020  0.3695  0.3466 -0.5236
13676TIP3    H140971   6.632   2.908   1.982 -2.2457  0.8515 -2.3135
13676TIP3    H240972   6.632   2.981   2.115  1.0053 -1.6110 -0.8085
13677TIP3   OH240973   2.160   2.997   3.118 -0.0638 -0.5285 -0.7033
13677TIP3    H140974   2.207   2.918   3.144  0.2010 -0.3909 -0.7698
13677TIP3    H240975   2.087   3.002   3.181  2.2433  1.4716  2.0457
13678TIP3   OH240976   3.154   7.649   3.498 -0.8317 -0.2990 -0.4291
13678TIP3    H140977   3.198   7.563   3.504  1.0686  0.7211  2.3471
13678TIP3    H240978   3.211   7.700   3.441 -0.2173 -0.0012  0.4256
13679TIP3   OH240979   5.732   4.258   5.287 -0.2201  0.6593 -0.6158
13679TIP3    H140980   5.662   4.313   5.321  0.1831  2.0773 -1.9562
13679TIP3    H240981   5.794   4.249   5.359 -0.3729  1.8346 -0.3268
13680TIP3   OH240982   0.813   5.145   3.356 -0.0452 -0.0530  0.5728
13680TIP3    H140983   0.808   5.145   3.261 -0.3182 -1.0444  0.5742
13680TIP3    H240984   0.800   5.236   3.381  2.5354  0.6914 -0.4362
13681TIP3   OH240985   4.901   1.903   0.489 -0.2913 -0.0158 -0.4546
13681TIP3    H140986   4.957   1.979   0.474 -1.7039  1.5925  1.8127
13681TIP3    H240987   4.961   1.832   0.509  1.0202  0.7467 -1.5192
13682TIP3   OH240988   6.858   3.900   3.552  0.6884 -0.7951 -0.7848
13682TIP3    H140989   6.770   3.869   3.532  0.6582 -0.9818 -0.3704
13682TIP3    H240990   6.859   3.912   3.647  0.4934  1.1107 -0.9838
13683TIP3   OH240991   0.874   2.712   4.559 -0.0635 -0.3434  0.1491
13683TIP3    H140992   0.801   2.739   4.504  0.6001  0.5780 -0.3063
13683TIP3    H240993   0.836   2.650   4.622 -0.9083 -1.1275 -1.0918
13684TIP3   OH240994   5.051   4.598   0.997  0.1291 -0.2822 -0.2101
13684TIP3    H140995   5.016   4.588   0.908  0.7879 -1.8261 -0.3359
13684TIP3    H240996   5.028   4.687   1.022  1.1625  0.6963 -2.4688
13685TIP3   OH240997   1.641   3.414   3.534 -0.8130  0.4866  0.0642
13685TIP3    H140998   1.625   3.506   3.513 -2.1505  0.0209 -1.1224
13685TIP3    H240999   1.725   3.394   3.493 -1.8865  0.4438 -2.2117
13686TIP3   OH241000   6.003   3.463   2.283 -0.0981  0.1883 -0.7868
13686TIP3    H141001   5.942   3.477   2.211  0.7268 -0.1007 -1.5580
13686TIP3    H241002   5.967   3.388   2.330 -0.4972  0.2087 -1.0574
13687TIP3   OH241003   4.448   4.003   5.835  0.1473 -0.3040 -0.0057
13687TIP3    H141004   4.453   3.944   5.910 -0.6827  0.4371  0.6495
13687TIP3    H241005   4.508   3.965   5.771  1.6335 -0.4289  1.3969
13688TIP3   OH241006   5.664   6.650   0.339  0.2220 -0.1987  0.2212
13688TIP3    H141007   5.740   6.670   0.394 -0.4953 -0.9796  1.5605
13688TIP3    H241008   5.592   6.638   0.401 -0.5291 -1.5789 -0.8639
13689TIP3   OH241009   0.705   2.140   4.593 -0.2394  0.3022  0.0077
13689TIP3    H141010   0.756   2.063   4.567 -1.0104  0.5262 -2.4249
13689TIP3    H241011   0.770   2.210   4.600  0.1356  0.0210 -0.5288
13690TIP3   OH241012   1.461   6.337   1.047 -0.3559 -0.9306  0.1402
13690TIP3    H141013   1.430   6.417   1.090  1.4162  0.1663 -0.5151
13690TIP3    H241014   1.381   6.296   1.013 -1.4019  0.0528  1.2816
13691TIP3   OH241015   8.097   1.003   6.137 -0.1796  0.3411  0.2829
13691TIP3    H141016   8.180   0.968   6.171 -0.2544  0.7296  0.8722
13691TIP3    H241017   8.113   1.097   6.128  0.0737  0.1626 -1.4606
13692TIP3   OH241018   1.994   3.141   5.804 -0.0213 -0.5251  0.2735
13692TIP3    H141019   1.949   3.059   5.783 -0.4105 -0.1538 -0.3491
13692TIP3    H241020   1.944   3.209   5.759  1.4161 -0.1439 -0.8294
13693TIP3   OH241021   7.055   3.740   5.344 -0.4725 -0.5837 -0.2679
13693TIP3    H141022   7.141   3.729   5.384 -1.0223 -0.9071  0.8786
13693TIP3    H241023   7.048   3.668   5.282 -0.6216 -1.6835  0.9680
13694TIP3   OH241024   2.073   2.130   3.711  0.1224 -0.1622  0.4722
13694TIP3    H141025   2.085   2.177   3.629 -2.2934  1.7785  1.1023
13694TIP3    H241026   2.125   2.179   3.775  2.2014 -1.8133  0.1589
13695TIP3   OH241027   2.608   1.730   2.442  0.2206  0.0109 -0.4487
13695TIP3    H141028   2.688   1.731   2.493 -0.5230 -0.2623  0.7631
13695TIP3    H241029   2.599   1.640   2.412 -1.2756 -0.8458  2.1968
13696TIP3   OH241030   3.271   5.832   0.088 -0.1672  0.3003  0.2783
13696TIP3    H141031   3.216   5.834   0.166  0.7151  1.7407  0.8874
13696TIP3    H241032   3.345   5.777   0.112 -1.8553 -2.7805 -0.9804
13697TIP3   OH241033   2.491   7.259   5.991 -0.0994 -0.2374 -0.0802
13697TIP3    H141034   2.482   7.299   5.905  1.1192  0.6011  0.1624
13697TIP3    H241035   2.571   7.207   5.985  0.5896  0.6910  0.8568
13698TIP3   OH241036   0.556   6.333   0.246  0.1129  0.4192  1.0488
13698TIP3    H141037   0.626   6.331   0.181  1.2413 -0.8533  2.2489
13698TIP3    H241038   0.502   6.256   0.225  0.1429  0.3389  1.2691
13699TIP3   OH241039   8.064   0.177   0.246  0.4068  0.2786 -0.1678
13699TIP3    H141040   8.100   0.095   0.211 -0.0926  0.6670 -1.6361
13699TIP3    H241041   8.047   0.157   0.338  0.0539 -1.3629 -0.5483
13700TIP3   OH241042   4.029   0.313   6.164  1.0233 -0.2702  0.3661
13700TIP3    H141043   3.954   0.258   6.187 -0.6269  1.5568 -0.3523
13700TIP3    H241044   4.098   0.285   6.224 -0.0097 -2.4431  0.6478
13701TIP3   OH241045   3.850   2.049   2.860 -0.4362 -0.3149 -0.0702
13701TIP3    H141046   3.782   2.022   2.922  0.6343  1.8242  2.2128
13701TIP3    H241047   3.865   1.972   2.806 -1.8070 -2.1670  2.0156
13702TIP3   OH241048   6.664   3.649   4.849 -0.4436 -0.1171 -0.5550
13702TIP3    H141049   6.690   3.730   4.893  0.9175 -0.4829 -0.6395
13702TIP3    H241050   6.650   3.676   4.758  0.4363 -0.0412 -0.6785
13703TIP3   OH241051   5.213   0.465   6.599  0.5897 -0.0279 -0.2467
13703TIP3    H141052   5.265   0.520   6.541  0.6498  0.2795  0.0983
13703TIP3    H241053   5.138   0.519   6.624  0.0016 -0.5246 -0.8772
13704TIP3   OH241054   5.681   3.677   1.717  0.2884  0.5171 -0.2800
13704TIP3    H141055   5.750   3.704   1.657 -0.6345 -0.8346 -2.0680
13704TIP3    H241056   5.705   3.588   1.743  0.5022  0.9711  1.1226
13705TIP3   OH241057   6.984   2.196   5.124  0.0056 -0.1281  0.1786
13705TIP3    H141058   7.028   2.139   5.186 -1.7874 -2.2198 -0.3527
13705TIP3    H241059   6.895   2.204   5.157 -0.1584  1.2456 -0.5186
13706TIP3   OH241060   7.098   3.258   6.263 -0.4367  0.3307  0.8188
13706TIP3    H141061   7.184   3.293   6.287  0.1636  0.4298 -1.3262
13706TIP3    H241062   7.094   3.264   6.168 -1.9659 -1.6676  0.6708
13707TIP3   OH241063   6.468   3.361   0.587  0.1225  0.1415  0.3973
13707TIP3    H141064   6.444   3.308   0.662  0.4547 -0.8984 -0.2126
13707TIP3    H241065   6.560   3.385   0.604  0.3903 -0.6116  0.0336
13708TIP3   OH241066   3.649   3.114   0.286 -0.4021 -0.0918  0.5710
13708TIP3    H141067   3.700   3.148   0.360 -0.0155  1.3520 -0.3249
13708TIP3    H241068   3.714   3.080   0.226 -0.7973 -2.8961  1.6056
13709TIP3   OH241069   4.746   5.381   0.012  0.1245  0.2576 -0.3153
13709TIP3    H141070   4.785   5.430  -0.060 -1.7906  2.7704  0.2105
13709TIP3    H241071   4.794   5.410   0.090  0.0829 -0.0032 -0.1887
13710TIP3   OH241072   6.936   7.502   2.916 -0.2117 -0.2413  0.6966
13710TIP3    H141073   6.968   7.577   2.966 -0.2679  0.5529 -0.4063
13710TIP3    H241074   6.843   7.521   2.903  0.0383  0.1331 -0.6485
13711TIP3   OH241075   1.062   6.238   3.206 -0.5014  0.1143 -0.0416
13711TIP3    H141076   1.090   6.160   3.158 -1.0675 -0.4037  0.4531
13711TIP3    H241077   0.982   6.211   3.251  0.6463  0.1886  2.1929
13712TIP3   OH241078   7.792   1.146   1.277  0.4498 -0.0465 -0.4057
13712TIP3    H141079   7.879   1.168   1.245  0.0945  0.7113 -0.8738
13712TIP3    H241080   7.776   1.057   1.245  1.0227 -0.1758 -0.3508
13713TIP3   OH241081   2.129   4.729   3.681  0.3553  0.5442 -0.3903
13713TIP3    H141082   2.047   4.777   3.697 -0.6904 -1.6850  1.4947
13713TIP3    H241083   2.195   4.798   3.673 -1.4631  2.3787 -0.5628
13714TIP3   OH241084   1.065   5.514   2.771 -0.2853  0.3741 -0.0159
13714TIP3    H141085   0.970   5.521   2.781 -0.2359  0.8309  0.1401
13714TIP3    H241086   1.096   5.489   2.859 -0.6381 -4.0858 -0.8852
13715TIP3   OH241087   0.499   2.230   0.706  0.4801 -0.1370  0.0146
13715TIP3    H141088   0.450   2.311   0.692  1.6760  0.6122 -0.0136
13715TIP3    H241089   0.537   2.239   0.793  2.1951  0.2309 -0.7212
13716TIP3   OH241090   7.110   5.152   3.177  0.1228 -0.3718 -0.1670
13716TIP3    H141091   7.052   5.226   3.192  0.6970 -0.2100  1.4816
13716TIP3    H241092   7.063   5.077   3.214 -0.2359 -0.7572 -1.3672
13717TIP3   OH241093   2.080   5.036   1.107 -0.3359 -0.8345 -0.1509
13717TIP3    H141094   2.099   5.060   1.016  0.3754 -1.0305 -0.0549
13717TIP3    H241095   2.160   5.057   1.155 -0.8825 -0.2417  0.5331
13718TIP3   OH241096   6.999   1.217   2.284 -0.1744  0.8956 -0.5023
13718TIP3    H141097   6.983   1.251   2.196 -0.3792  0.4259 -0.6503
13718TIP3    H241098   6.975   1.124   2.278  0.4553  0.7055 -0.1275
13719TIP3   OH241099   3.604   5.994   5.885 -0.3942  0.6282  0.1311
13719TIP3    H141100   3.642   6.004   5.973 -0.1543 -0.6734  0.1859
13719TIP3    H241101   3.516   6.030   5.894  0.6777  3.5961  0.0377
13720TIP3   OH241102   6.674   4.159   2.101 -0.0373 -0.1840 -0.1550
13720TIP3    H141103   6.677   4.245   2.058  0.6827  0.4342  1.0898
13720TIP3    H241104   6.638   4.101   2.034 -1.7016  1.3083 -0.6446
13721TIP3   OH241105   0.161   5.265   4.616  0.2534  0.1861 -0.5099
13721TIP3    H141106   0.201   5.260   4.703  1.3814 -0.0686 -1.0108
13721TIP3    H241107   0.229   5.230   4.557 -1.0598 -1.1214 -1.3179
13722TIP3   OH241108   4.581   2.137   1.526  0.1844 -0.4821  0.2391
13722TIP3    H141109   4.524   2.199   1.570  0.4093 -1.6420  2.3031
13722TIP3    H241110   4.670   2.168   1.546  0.2948 -0.5208 -0.1770
13723TIP3   OH241111   7.164   6.440   5.534  0.0315  0.3038 -0.9455
13723TIP3    H141112   7.189   6.352   5.559  1.6999  0.4690 -1.9013
13723TIP3    H241113   7.072   6.432   5.506 -0.6323 -0.6091  1.2685
13724TIP3   OH241114   8.288   2.178   6.688 -0.1826 -0.0369  0.3585
13724TIP3    H141115   8.274   2.181   6.783 -0.9420  0.9311  0.2282
13724TIP3    H241116   8.202   2.197   6.650  0.2245  0.0909 -0.5199
13725TIP3   OH241117   3.489   4.724   1.773 -0.1418  0.0149  0.1602
13725TIP3    H141118   3.547   4.800   1.768  1.6883 -1.3573 -0.8725
13725TIP3    H241119   3.469   4.704   1.681  1.5128 -2.2144  0.2072
13726TIP3   OH241120   4.865   6.524   2.745  0.3747  0.4227  0.1014
13726TIP3    H141121   4.804   6.472   2.692  1.6245 -0.7222 -0.2515
13726TIP3    H241122   4.829   6.520   2.834  0.1670 -0.6117 -0.0188
13727TIP3   OH241123   4.758   5.901   0.396  0.1579  0.6252 -0.3365
13727TIP3    H141124   4.842   5.868   0.365  0.1721  0.2043  0.1384
13727TIP3    H241125   4.745   5.983   0.348  0.5269  0.3594 -0.8886
13728TIP3   OH241126   7.345   4.469   0.413  0.1843  0.6282 -0.0365
13728TIP3    H141127   7.419   4.525   0.387  0.3016  1.4892  2.0133
13728TIP3    H241128   7.334   4.410   0.339  2.7511  0.6447 -0.5374
13729TIP3   OH241129   2.810   3.837   1.087  0.0152  0.8364  0.0355
13729TIP3    H141130   2.849   3.789   1.015  1.4578  1.2727  0.5048
13729TIP3    H241131   2.733   3.785   1.112 -0.6086  0.7760 -1.8892
13730TIP3   OH241132   7.499  -0.018   2.743  0.5284  0.2973 -0.1633
13730TIP3    H141133   7.463   0.059   2.699  0.9900  0.4998 -0.2007
13730TIP3    H241134   7.502   0.008   2.836  1.6593  0.7308 -0.3052
13731TIP3   OH241135   7.079   4.712   4.656  0.4181 -0.3524 -0.3107
13731TIP3    H141136   7.106   4.676   4.740  2.2260  1.0812 -0.1992
13731TIP3    H241137   7.033   4.793   4.677  0.6710 -0.1056 -0.6813
13732TIP3   OH241138   4.042   5.992   4.563  0.6369  0.5337  0.9821
13732TIP3    H141139   4.093   5.915   4.536  0.3435  1.2664 -2.0055
13732TIP3    H241140   3.963   5.955   4.603  0.4625 -0.7769 -0.4556
13733TIP3   OH241141   3.031   5.579   1.522 -0.3403 -0.5654 -0.2664
13733TIP3    H141142   2.949   5.629   1.528  0.0397  0.0021  0.3211
13733TIP3    H241143   3.085   5.629   1.461 -0.4815 -1.0285 -0.7843
13734TIP3   OH241144   3.293   2.506   2.582  0.3392  0.1084 -0.0908
13734TIP3    H141145   3.321   2.454   2.658  2.3571 -0.1892 -0.9569
13734TIP3    H241146   3.224   2.454   2.542  0.5636 -0.6711  0.4832
13735TIP3   OH241147   8.268   5.114   4.283  0.3215  0.3552 -0.3117
13735TIP3    H141148   8.183   5.158   4.281  1.1569  2.0681 -1.6991
13735TIP3    H241149   8.260   5.042   4.222 -0.7240 -0.8009  1.1194
13736TIP3   OH241150   3.545   5.977   0.257  0.1735 -0.0247  0.7203
13736TIP3    H141151   3.581   5.960   0.170 -2.1026 -1.5543 -0.0142
13736TIP3    H241152   3.600   6.047   0.293  0.5894  1.3847 -2.3545
13737TIP3   OH241153   5.283   1.526   2.732  0.5241  0.4153  0.4685
13737TIP3    H141154   5.228   1.597   2.699  1.3524  0.9471  0.2157
13737TIP3    H241155   5.264   1.524   2.826 -1.2714 -0.6082  0.1319
13738TIP3   OH241156   1.050   2.802   3.831 -0.0474  0.1482 -0.2310
13738TIP3    H141157   1.044   2.724   3.887 -0.8153  0.1477 -0.3135
13738TIP3    H241158   1.070   2.767   3.744 -0.5492  0.0304 -0.3005
13739TIP3   OH241159   0.378   7.584   5.874 -0.5183  0.7650 -0.3618
13739TIP3    H141160   0.460   7.537   5.894 -0.8404  0.0359 -0.7185
13739TIP3    H241161   0.391   7.671   5.912  0.0227  0.3337  0.4728
13740TIP3   OH241162   7.807   1.582   5.114 -0.2366 -0.2416 -0.1929
13740TIP3    H141163   7.831   1.564   5.205  1.0040  2.8209  0.2116
13740TIP3    H241164   7.833   1.503   5.066  0.7781 -1.2234  1.8502
13741TIP3   OH241165   5.634   4.214   2.201  0.5355 -0.1131 -0.0319
13741TIP3    H141166   5.686   4.142   2.168 -1.2271 -1.3005 -0.3533
13741TIP3    H241167   5.567   4.173   2.256  0.5478  1.4297  1.2091
13742TIP3   OH241168   5.458   3.045   6.377 -0.8458 -0.4036  0.2436
13742TIP3    H141169   5.364   3.035   6.368 -1.3876  3.2056  0.6861
13742TIP3    H241170   5.472   3.061   6.470 -0.4542  3.2727 -0.3003
13743TIP3   OH241171   7.750   4.380   1.445  0.2471 -0.6825 -0.6282
13743TIP3    H141172   7.816   4.362   1.378 -0.5517 -1.1724 -1.2957
13743TIP3    H241173   7.712   4.295   1.465  0.9778 -0.6466  0.9964
13744TIP3   OH241174   3.112   3.910   4.646  0.1290  0.4574  0.0640
13744TIP3    H141175   3.045   3.961   4.600 -0.0603  0.8657  0.7810
13744TIP3    H241176   3.127   3.958   4.727  1.7952  0.7559 -0.3844
13745TIP3   OH241177   3.424   1.788   5.769  0.0997 -0.3851 -0.1948
13745TIP3    H141178   3.503   1.842   5.772  1.2003 -1.8265 -1.3532
13745TIP3    H241179   3.389   1.791   5.858  0.6926  1.3537  0.0212
13746TIP3   OH241180   7.947   4.583   5.671  0.0558 -0.3201  0.0016
13746TIP3    H141181   7.894   4.509   5.702  0.7234 -1.6140 -1.7893
13746TIP3    H241182   7.974   4.557   5.583 -0.9740  2.7544 -1.3405
13747TIP3   OH241183   5.284   2.753   0.360 -0.4700 -0.1181  0.0718
13747TIP3    H141184   5.298   2.702   0.280  0.7680  1.8222 -1.0266
13747TIP3    H241185   5.207   2.713   0.401 -1.2232 -1.0935 -2.1576
13748TIP3   OH241186   1.043   7.397   0.303 -0.6706 -0.3515 -0.3171
13748TIP3    H141187   1.026   7.404   0.397  0.7038 -1.6844  0.0793
13748TIP3    H241188   1.130   7.436   0.292 -1.7016  1.8163 -1.4495
13749TIP3   OH241189   7.913   3.232   5.948  0.1613 -0.2729 -0.3687
13749TIP3    H141190   7.903   3.156   5.891  0.0781  0.2383 -1.0482
13749TIP3    H241191   7.827   3.242   5.990 -0.1602  0.0828 -1.0970
13750TIP3   OH241192   6.397   5.035   6.573  1.1890  0.0893  0.2715
13750TIP3    H141193   6.474   5.011   6.625 -0.4482 -0.0255  2.8239
13750TIP3    H241194   6.359   5.110   6.619  0.5703  1.1629 -1.8182
13751TIP3   OH241195   1.624   3.996   2.364  0.3333  0.9599 -0.3873
13751TIP3    H141196   1.542   4.033   2.397  0.7916  1.2886  0.4158
13751TIP3    H241197   1.673   4.072   2.332  1.1527  1.0380  0.9850
13752TIP3   OH241198   7.449   4.338   6.479 -0.2457 -0.0414  0.4673
13752TIP3    H141199   7.453   4.301   6.391  1.8492 -0.6211  0.7261
13752TIP3    H241200   7.444   4.432   6.466 -2.0149 -0.2116 -0.2380
13753TIP3   OH241201   4.935   4.681   6.475  0.3743  0.3141  0.1471
13753TIP3    H141202   4.891   4.737   6.412 -0.7055 -1.2006 -0.5021
13753TIP3    H241203   4.866   4.656   6.537  0.6125 -1.0244 -0.1079
13754TIP3   OH241204   1.541   4.129   3.442 -0.0426  0.1674  0.4400
13754TIP3    H141205   1.499   4.092   3.520 -0.9460 -0.8895 -0.5265
13754TIP3    H241206   1.470   4.174   3.396  0.7723  1.9966  0.9119
13755TIP3   OH241207   2.203   4.893   0.295 -0.1810  0.6265  0.0277
13755TIP3    H141208   2.121   4.853   0.323  0.9140 -0.6377  1.6569
13755TIP3    H241209   2.221   4.960   0.361 -0.1254  1.2109 -0.5719
13756TIP3   OH241210   0.287   7.024   0.842  0.3664  0.2929 -0.0611
13756TIP3    H141211   0.351   7.064   0.901  0.5785 -0.6074  0.3250
13756TIP3    H241212   0.206   7.072   0.861  0.7099  0.8353  0.0799
13757TIP3   OH241213   2.043   4.017   2.465  0.6152 -0.0580  0.0733
13757TIP3    H141214   2.113   4.026   2.400 -1.3963  1.5229 -2.0226
13757TIP3    H241215   1.999   4.102   2.466 -0.1980 -0.4129  2.6774
13758TIP3   OH241216   2.190   5.369   5.734 -0.9653  0.1388  0.2091
13758TIP3    H141217   2.231   5.413   5.659  1.2722 -0.4554  1.0331
13758TIP3    H241218   2.096   5.383   5.720 -0.4739  3.6550 -0.4784
13759TIP3   OH241219   6.871   4.933   2.838  0.6333  0.4288  0.0893
13759TIP3    H141220   6.953   4.968   2.872  1.5534 -2.3030  0.9712
13759TIP3    H241221   6.897   4.869   2.772 -0.7571 -0.3576  0.2447
13760TIP3   OH241222   2.602   0.744   5.898 -0.8805 -0.5487 -0.2522
13760TIP3    H141223   2.656   0.671   5.928 -1.4212 -1.7367 -1.9636
13760TIP3    H241224   2.664   0.804   5.855 -0.3893  0.2104  1.4411
13761TIP3   OH241225   2.069   0.154   1.940 -0.2106 -0.0354  0.4817
13761TIP3    H141226   1.995   0.213   1.950  0.1059  0.3341  0.6383
13761TIP3    H241227   2.144   0.211   1.926 -0.0371 -0.4229 -0.2176
13762TIP3   OH241228   7.381   3.783   5.888 -0.1496  0.1262  0.0287
13762TIP3    H141229   7.389   3.753   5.979 -0.8322 -0.7716 -0.1979
13762TIP3    H241230   7.459   3.747   5.845 -0.3373 -0.2879  0.0339
13763TIP3   OH241231   5.949   4.298   4.702 -0.1563  0.2729  0.2704
13763TIP3    H141232   5.929   4.268   4.613 -0.2965  0.0609  0.3723
13763TIP3    H241233   5.986   4.221   4.745 -2.0312 -0.2630  1.0373
13764TIP3   OH241234   2.995   4.725   6.682  0.5706  0.4659  0.0376
13764TIP3    H141235   3.068   4.700   6.737 -0.0905  0.3605  0.8939
13764TIP3    H241236   2.981   4.818   6.701 -0.0101  0.2960  0.4789
13765TIP3   OH241237   7.940   3.995   1.313 -0.6113  0.4128 -0.7706
13765TIP3    H141238   7.876   4.049   1.267 -1.2214 -1.1085 -1.8009
13765TIP3    H241239   7.897   3.911   1.326  0.2073  0.2244  1.0463
13766TIP3   OH241240   4.056   3.924   0.419  0.2210  0.0942  0.0061
13766TIP3    H141241   4.063   3.909   0.325  2.0919  0.5781  0.0312
13766TIP3    H241242   4.138   3.890   0.455 -0.9639 -1.1964  1.6366
13767TIP3   OH241243   1.084   3.164   4.633  0.2157  0.2006  0.5382
13767TIP3    H141244   1.125   3.086   4.671  0.3904  0.6968  1.4054
13767TIP3    H241245   0.992   3.157   4.656 -0.1216 -0.6271 -0.9214
13768TIP3   OH241246   8.091   2.126   5.910 -0.0595  0.0357  0.4692
13768TIP3    H141247   8.027   2.153   5.975  0.0251  0.5826  0.3297
13768TIP3    H241248   8.050   2.051   5.866 -0.2477 -0.1364  0.9340
13769TIP3   OH241249   1.854   6.259   1.077  0.0618  0.4083  0.3231
13769TIP3    H141250   1.790   6.188   1.075 -0.2238  0.6812 -0.8955
13769TIP3    H241251   1.811   6.328   1.128  0.2051 -0.1505  1.2158
13770TIP3   OH241252   4.143   3.057   1.707  0.1983 -0.0201  0.1693
13770TIP3    H141253   4.093   2.981   1.737 -0.6194  0.6200  0.4830
13770TIP3    H241254   4.085   3.131   1.724  1.2478  0.7404  0.4713
13771TIP3   OH241255   6.944   5.441   2.361  0.3931 -0.2369  0.6213
13771TIP3    H141256   6.871   5.503   2.369 -0.6292 -1.3770  0.5762
13771TIP3    H241257   6.931   5.380   2.434  0.8292 -0.9269  0.1339
13772TIP3   OH241258   4.186   3.475   0.329 -0.3370 -0.4217  0.4162
13772TIP3    H141259   4.120   3.533   0.290 -2.2549 -1.9103  1.2487
13772TIP3    H241260   4.183   3.494   0.422  0.5196 -0.4297  0.4507
13773TIP3   OH241261   2.757   4.537   1.395 -0.9866  0.1656  0.2909
13773TIP3    H141262   2.782   4.581   1.314 -0.8298  1.1242  0.8424
13773TIP3    H241263   2.786   4.597   1.465 -1.1142 -0.6403  1.0516
13774TIP3   OH241264   5.065   5.809   5.942 -0.7489  0.5096  0.2785
13774TIP3    H141265   5.080   5.902   5.925  1.0165  0.1633 -0.2134
13774TIP3    H241266   4.984   5.807   5.994 -2.1970  2.1396 -1.7482
13775TIP3   OH241267   7.590   5.987   0.942 -0.0285  0.5468 -0.1322
13775TIP3    H141268   7.525   5.926   0.905  1.2726 -0.8312 -0.2278
13775TIP3    H241269   7.664   5.982   0.882  1.0400  0.3832  1.1749
13776TIP3   OH241270   2.893   0.757   1.250 -0.3967 -0.5895  0.0571
13776TIP3    H141271   2.833   0.831   1.240 -0.4285 -0.7896 -1.6556
13776TIP3    H241272   2.930   0.768   1.337 -0.1660  1.6318 -0.2436
13777TIP3   OH241273   6.491   1.098   4.005  0.1396  0.0099  0.7192
13777TIP3    H141274   6.427   1.091   4.076  1.8103 -0.5807  2.2382
13777TIP3    H241275   6.503   1.192   3.993 -0.0500  0.1124  1.3184
13778TIP3   OH241276   7.497   2.364   5.184 -0.1725  0.6347 -0.1518
13778TIP3    H141277   7.560   2.354   5.113  1.1754  1.0159  0.9449
13778TIP3    H241278   7.431   2.296   5.167  1.5746 -1.1352 -0.2934
13779TIP3   OH241279   7.825   2.776   4.653 -0.2602  0.1637 -0.7441
13779TIP3    H141280   7.802   2.866   4.678 -0.0788 -0.1602  0.6848
13779TIP3    H241281   7.915   2.782   4.623  0.0632  0.3267  0.2235
13780TIP3   OH241282   3.480   6.474   4.142 -0.8875 -0.0912 -0.0817
13780TIP3    H141283   3.500   6.556   4.186  0.1438 -0.7829  0.8112
13780TIP3    H241284   3.565   6.429   4.135 -1.4646 -1.1921 -0.2896
13781TIP3   OH241285   4.612   1.630   3.369 -0.1916  0.0546 -0.3125
13781TIP3    H141286   4.630   1.536   3.371 -0.4155  0.0199  0.4335
13781TIP3    H241287   4.517   1.636   3.380 -0.0624  0.3991  0.7020
13782TIP3   OH241288   4.189   2.832   0.377 -0.0495  0.1343 -0.2124
13782TIP3    H141289   4.164   2.918   0.342  0.3687  0.5083  0.3984
13782TIP3    H241290   4.280   2.821   0.352  0.0052  0.0302  0.0340
13783TIP3   OH241291   1.458   2.375   6.039  0.0733  0.0934  0.0417
13783TIP3    H141292   1.534   2.433   6.035  0.9990 -1.0409  0.6328
13783TIP3    H241293   1.406   2.399   5.962  0.9895  0.9249 -0.3440
13784TIP3   OH241294   2.359   5.315   3.269  0.2498  0.1817 -0.2129
13784TIP3    H141295   2.409   5.388   3.233 -1.7700  0.6698 -2.2593
13784TIP3    H241296   2.423   5.244   3.276  1.6398  1.3015 -0.9418
13785TIP3   OH241297   3.443   7.731   3.006 -0.0963 -0.2113  0.6838
13785TIP3    H141298   3.501   7.747   2.931 -1.0004  0.2473  0.0582
13785TIP3    H241299   3.482   7.780   3.078 -0.2925  1.0180 -0.0183
13786TIP3   OH241300   6.444   3.789   3.754 -0.2223 -0.0207  0.5504
13786TIP3    H141301   6.381   3.766   3.685 -1.5452 -0.5653  1.8883
13786TIP3    H241302   6.513   3.723   3.746 -0.5644 -0.3255  0.0162
13787TIP3   OH241303   7.520   3.686   2.194 -0.0098 -0.3119  0.4436
13787TIP3    H141304   7.462   3.760   2.175 -0.2050 -0.8463 -1.1590
13787TIP3    H241305   7.538   3.694   2.288  0.2923  1.9882  0.2575
13788TIP3   OH241306   1.108   3.448   4.519 -0.0500  0.2810 -0.0764
13788TIP3    H141307   1.081   3.373   4.571 -0.9304  0.7807  0.1954
13788TIP3    H241308   1.039   3.513   4.532  0.8677  1.2753 -0.0315
13789TIP3   OH241309   7.633   2.370   3.011  0.0830 -0.1908 -0.0968
13789TIP3    H141310   7.711   2.360   3.066  0.1073 -2.2913 -0.4256
13789TIP3    H241311   7.560   2.358   3.071  0.0159  0.8438  0.0432
13790TIP3   OH241312   5.033   4.721   2.827  0.0451  0.2277 -0.9014
13790TIP3    H141313   4.978   4.714   2.749  1.6857 -2.5228 -1.9751
13790TIP3    H241314   5.123   4.721   2.793  0.8366 -1.9443  0.9174
13791TIP3   OH241315   2.769   3.934   6.244 -0.1825  0.7917 -0.3158
13791TIP3    H141316   2.815   3.961   6.323 -0.5463 -0.2208  0.2640
13791TIP3    H241317   2.677   3.928   6.270  0.0161 -2.2077 -0.0169
13792TIP3   OH241318   0.147   4.427   0.358  0.5038  0.5250  0.6398
13792TIP3    H141319   0.229   4.477   0.363  1.3438 -0.6942 -0.3761
13792TIP3    H241320   0.084   4.488   0.320  1.2287  1.1380  0.3944
13793TIP3   OH241321   1.460   6.663   3.998 -0.1285  0.1045  0.3479
13793TIP3    H141322   1.461   6.583   4.049  0.0630  1.0044  1.8046
13793TIP3    H241323   1.382   6.654   3.942  0.6189 -1.6391 -0.4879
13794TIP3   OH241324   0.665   4.021   0.252  0.3512 -0.1700  0.1410
13794TIP3    H141325   0.667   4.035   0.346  1.0268  4.0269 -0.3148
13794TIP3    H241326   0.753   4.044   0.222 -0.5405  1.1792 -1.6804
13795TIP3   OH241327   2.067   1.373   1.392  0.3226  0.1575  0.3513
13795TIP3    H141328   2.107   1.456   1.420  0.2243  0.7000 -1.0200
13795TIP3    H241329   2.009   1.349   1.464 -0.2807  1.7225  0.4321
13796TIP3   OH241330   0.302   7.016   6.354 -0.0259 -0.4574 -0.6621
13796TIP3    H141331   0.310   7.046   6.264  0.5163  0.0310 -0.4557
13796TIP3    H241332   0.388   6.979   6.374  0.4891  1.1612  0.2706
13797TIP3   OH241333   2.652   2.953  -0.015  0.4810 -0.2390 -0.0110
13797TIP3    H141334   2.650   2.868   0.029  0.2039 -0.4105 -0.3440
13797TIP3    H241335   2.743   2.981  -0.009  0.4926 -0.3618  0.4730
13798TIP3   OH241336   7.169   3.771   4.957 -0.0723 -0.1715 -0.5038
13798TIP3    H141337   7.093   3.714   4.970 -0.4214  0.7333  2.0656
13798TIP3    H241338   7.245   3.713   4.965 -0.4306 -0.4130  1.5356
13799TIP3   OH241339   6.214   0.760   4.253 -0.2389  0.2279  0.5687
13799TIP3    H141340   6.151   0.721   4.314 -0.7699 -0.4746 -0.4032
13799TIP3    H241341   6.237   0.688   4.194 -0.4901  1.1478 -0.6731
13800TIP3   OH241342   1.875   2.039   4.884  0.2503 -0.5383 -0.0814
13800TIP3    H141343   1.780   2.051   4.890  0.1709 -1.5625  0.9921
13800TIP3    H241344   1.887   1.944   4.877  1.2227 -0.4811  0.6469
13801TIP3   OH241345   6.884   3.996   3.824 -0.4402  0.0761 -0.7141
13801TIP3    H141346   6.918   4.084   3.811 -1.5074  0.4821 -0.8338
13801TIP3    H241347   6.790   4.008   3.842 -0.8220 -1.0900 -1.7594
13802TIP3   OH241348   6.766   5.572   2.145 -0.0402  0.2441 -0.2154
13802TIP3    H141349   6.726   5.488   2.124  0.7709 -0.1752 -0.1238
13802TIP3    H241350   6.692   5.628   2.168 -0.4809 -0.8971  1.3023
13803TIP3   OH241351   5.402   0.795   0.944 -0.3433  0.3351 -0.0415
13803TIP3    H141352   5.351   0.832   1.016 -1.1978 -2.4545  0.9196
13803TIP3    H241353   5.346   0.805   0.867 -1.2679 -0.3640  0.5171
13804TIP3   OH241354   3.441   5.177   6.432  0.2149  0.1908 -0.2322
13804TIP3    H141355   3.406   5.266   6.423 -0.3901  0.1394  1.2112
13804TIP3    H241356   3.394   5.126   6.366  1.5318  1.1588 -2.0050
13805TIP3   OH241357   0.167   6.708   5.857 -0.1817 -0.0162  0.5297
13805TIP3    H141358   0.180   6.711   5.951 -0.9966  0.4963  0.6323
13805TIP3    H241359   0.255   6.716   5.820  0.4243 -2.5757  1.2598
13806TIP3   OH241360   6.980   4.220   0.999  0.3812  0.0099  0.0445
13806TIP3    H141361   6.949   4.138   0.961  0.8253 -0.0932 -0.0991
13806TIP3    H241362   6.925   4.287   0.959 -0.2865 -0.2570  0.4989
13807TIP3   OH241363   1.505   5.138   2.742 -0.1758 -0.2720 -0.0870
13807TIP3    H141364   1.570   5.152   2.673 -0.2082 -2.6073 -0.6575
13807TIP3    H241365   1.550   5.085   2.807  0.0250  2.3271  2.0710
13808TIP3   OH241366   0.276   4.711   5.620 -0.2358 -0.4006 -0.6005
13808TIP3    H141367   0.205   4.698   5.557 -0.6407 -0.6987 -0.0912
13808TIP3    H241368   0.356   4.688   5.571 -0.5301 -0.5041 -1.0393
13809TIP3   OH241369   0.310   5.653   2.740  0.3414 -0.0363  0.8647
13809TIP3    H141370   0.234   5.597   2.723  0.3477  0.2401 -0.1379
13809TIP3    H241371   0.291   5.734   2.693  1.2621  0.0296  0.5851
13810TIP3   OH241372   6.519   5.855   3.091  0.2317  0.1522  0.2050
13810TIP3    H141373   6.490   5.931   3.042  0.9935 -1.3339 -2.7669
13810TIP3    H241374   6.447   5.792   3.084  0.7035 -0.3996  0.2156
13811TIP3   OH241375   1.516   2.695   5.443 -0.2276  0.5304  0.4066
13811TIP3    H141376   1.538   2.745   5.365 -0.0372 -0.9806 -0.5464
13811TIP3    H241377   1.432   2.731   5.472  0.9358  2.8799  1.0827
13812TIP3   OH241378   7.661   6.002   5.914  0.2606  0.0975  0.0070
13812TIP3    H141379   7.675   6.089   5.953 -1.0561  0.2089  0.2536
13812TIP3    H241380   7.641   5.945   5.989 -0.8080 -0.0031 -0.3482
13813TIP3   OH241381   0.671   2.869   4.418 -0.0521 -0.2630 -0.2442
13813TIP3    H141382   0.720   2.929   4.362  1.0082 -1.3128 -0.4872
13813TIP3    H241383   0.623   2.813   4.357  0.0667 -0.5555 -0.0739
13814TIP3   OH241384   5.307   4.900   1.969  0.2266 -0.0553  0.3905
13814TIP3    H141385   5.252   4.909   2.047 -1.6742 -1.3893 -0.7190
13814TIP3    H241386   5.360   4.980   1.968 -2.5434  1.9355  0.9309
13815TIP3   OH241387   1.955   4.633   3.921 -0.0421 -0.2329  0.3283
13815TIP3    H141388   1.932   4.549   3.881  0.4009 -0.5633  0.7517
13815TIP3    H241389   1.937   4.698   3.853  1.1105 -0.8293 -0.5952
13816TIP3   OH241390   4.229   5.370   6.579  0.6051  0.1037 -0.0434
13816TIP3    H141391   4.281   5.411   6.649 -0.1110 -0.6795  0.9883
13816TIP3    H241392   4.284   5.300   6.545  1.0334  0.6107 -0.3979
13817TIP3   OH241393   5.130   0.615   5.854  0.0313 -0.0586  0.7190
13817TIP3    H141394   5.135   0.661   5.770  0.1616 -3.0248 -1.0557
13817TIP3    H241395   5.215   0.570   5.861 -0.1129 -0.1172  2.3053
13818TIP3   OH241396   2.281   7.506   3.836  0.2879  0.0793  0.2344
13818TIP3    H141397   2.322   7.431   3.879  0.9727  0.1752 -0.2421
13818TIP3    H241398   2.247   7.558   3.908  2.6843  0.9789  0.8190
13819TIP3   OH241399   4.679   0.691   6.771 -0.0395 -0.3377 -0.2618
13819TIP3    H141400   4.595   0.650   6.751  0.2991 -0.7184 -0.9842
13819TIP3    H241401   4.675   0.776   6.727 -1.1687  0.9260  2.1515
13820TIP3   OH241402   4.042   1.183   3.108  0.0126  0.0235  0.5438
13820TIP3    H141403   3.965   1.138   3.142 -0.3653  0.7960  0.7371
13820TIP3    H241404   4.009   1.240   3.038  0.0678  1.7753  1.8563
13821TIP3   OH241405   1.288   7.251   0.148 -0.2758  0.5620  0.6070
13821TIP3    H141406   1.281   7.159   0.123  3.4094  0.4224 -0.4521
13821TIP3    H241407   1.233   7.259   0.226 -1.5424 -2.2350  0.1143
13822TIP3   OH241408   3.113   4.581   1.582  0.9995 -0.0651 -0.1893
13822TIP3    H141409   3.031   4.614   1.619 -0.0375 -1.7322 -0.8919
13822TIP3    H241410   3.134   4.644   1.512  1.8577  1.9101  1.7380
13823TIP3   OH241411   4.596   0.683   5.975  0.0700  0.0977 -0.1111
13823TIP3    H141412   4.567   0.733   5.898  0.5589  1.3470  0.5090
13823TIP3    H241413   4.630   0.601   5.938 -0.8459  0.1419 -1.1248
13824TIP3   OH241414   2.597   2.892   6.057 -0.0186  0.1054  0.4085
13824TIP3    H141415   2.664   2.945   6.013  0.7940 -0.4687  0.9178
13824TIP3    H241416   2.548   2.851   5.985  0.6776 -0.0777  0.0275
13825TIP3   OH241417   5.161   1.087   5.142 -0.0071 -0.8942 -0.5413
13825TIP3    H141418   5.206   1.172   5.140  0.4523 -1.1092  0.3401
13825TIP3    H241419   5.068   1.110   5.146  0.1499 -0.4176  0.5224
13826TIP3   OH241420   3.748   3.701   5.041  0.3038  0.0669 -0.0241
13826TIP3    H141421   3.709   3.620   5.006  1.3137 -0.1962 -0.5762
13826TIP3    H241422   3.736   3.765   4.971  0.9781 -0.0579 -0.2638
13827TIP3   OH241423   6.661   3.462   2.060  0.3913 -0.4334 -0.0570
13827TIP3    H141424   6.574   3.431   2.086  0.0713 -0.3604 -1.0029
13827TIP3    H241425   6.670   3.433   1.970 -0.4508  3.2406 -1.4884
13828TIP3   OH241426   3.244   1.000   4.477  0.5272 -0.2572  0.1960
13828TIP3    H141427   3.153   0.994   4.448 -0.0145  0.7904  1.5254
13828TIP3    H241428   3.285   0.919   4.447 -0.7611 -0.6073 -0.6963
13829TIP3   OH241429   8.115   3.119   3.377 -0.7281  0.1837  0.5609
13829TIP3    H141430   8.134   3.199   3.326 -1.6529  0.1940  0.2056
13829TIP3    H241431   8.027   3.093   3.347 -1.3254  0.2233  2.2065
13830TIP3   OH241432   1.662   5.753   2.080 -0.5014 -0.5048  0.3551
13830TIP3    H141433   1.657   5.777   2.172  0.4521 -0.3818  0.3852
13830TIP3    H241434   1.619   5.825   2.033 -0.8185 -0.4772  0.6893
13831TIP3   OH241435   8.282   1.131   3.769  0.1671 -0.2624  0.0679
13831TIP3    H141436   8.274   1.124   3.673  0.6443 -1.5220  0.1033
13831TIP3    H241437   8.198   1.099   3.802  0.1827 -0.2954  0.0758
13832TIP3   OH241438   7.028   4.958   3.935  0.0443  0.9061  0.2247
13832TIP3    H141439   7.097   4.933   3.997 -1.2194  1.1853  1.7815
13832TIP3    H241440   7.016   5.051   3.949 -0.3779  0.9409 -0.3388
13833TIP3   OH241441   1.265   2.805   5.520  0.3110  0.6312  0.0636
13833TIP3    H141442   1.187   2.768   5.561 -1.0963  1.7081 -1.4805
13833TIP3    H241443   1.240   2.816   5.428  2.5112  0.4755 -0.6032
13834TIP3   OH241444   3.739   5.616   4.399  0.2743 -0.3501 -0.0935
13834TIP3    H141445   3.818   5.638   4.447 -0.6740  0.4834  1.1632
13834TIP3    H241446   3.723   5.523   4.419  0.9217 -0.5275 -0.3731
13835TIP3   OH241447   7.791   4.036   6.029 -0.3569  0.4285  0.4419
13835TIP3    H141448   7.836   4.085   6.098  0.5772  1.3724 -0.7959
13835TIP3    H241449   7.800   4.090   5.951  0.0686 -1.3461 -0.8156
13836TIP3   OH241450   2.886   2.197   1.283 -0.3996 -0.1930 -0.0400
13836TIP3    H141451   2.803   2.206   1.237  0.4148  1.9822 -1.2296
13836TIP3    H241452   2.913   2.106   1.267 -1.7921 -0.4753 -0.9279
13837TIP3   OH241453   4.109   7.283   2.527  0.4051  0.0127  0.3444
13837TIP3    H141454   4.201   7.261   2.513 -0.0332 -1.4715 -0.3365
13837TIP3    H241455   4.070   7.202   2.560 -1.2810 -0.3401 -2.2757
13838TIP3   OH241456   3.777   2.056   6.430  0.2801  0.6988  0.7045
13838TIP3    H141457   3.810   1.967   6.417  0.4159  1.0318 -1.7321
13838TIP3    H241458   3.854   2.112   6.421 -0.1664  1.1855 -0.2072
13839TIP3   OH241459   4.234   1.493   2.212  0.2546 -0.1666 -0.4078
13839TIP3    H141460   4.160   1.453   2.166 -0.6257  2.3987 -1.3881
13839TIP3    H241461   4.296   1.516   2.143  0.7281  0.1855  0.1268
13840TIP3   OH241462   8.080   6.236   4.656  0.6646 -0.1339  0.2766
13840TIP3    H141463   8.134   6.238   4.735  0.5351 -3.6852  0.6361
13840TIP3    H241464   8.141   6.216   4.585  0.2761 -0.8903  0.1451
13841TIP3   OH241465   8.045   3.231   0.839 -0.6948  0.4136  0.0724
13841TIP3    H141466   7.961   3.200   0.875  0.3313 -1.2997  1.1112
13841TIP3    H241467   8.098   3.251   0.916 -0.0514  1.2914 -0.5789
13842TIP3   OH241468   1.620   7.684   1.738 -0.1217  0.0813  0.1686
13842TIP3    H141469   1.530   7.651   1.737  0.1778 -0.7932  0.4968
13842TIP3    H241470   1.651   7.668   1.827  0.4377  0.1325 -0.0098
13843TIP3   OH241471   5.309   3.506   1.164 -0.1879  0.4487 -0.4598
13843TIP3    H141472   5.218   3.487   1.187 -0.1576  0.0647 -0.6453
13843TIP3    H241473   5.329   3.445   1.093 -0.0675  1.1511 -1.0449
13844TIP3   OH241474   7.765   4.653   6.288 -0.3713 -0.2786 -0.1914
13844TIP3    H141475   7.756   4.743   6.256  0.5691 -0.6401 -1.6013
13844TIP3    H241476   7.710   4.649   6.366 -0.9103  1.3459 -0.4510
13845TIP3   OH241477   7.073   6.467   2.688  0.1979  0.4571 -0.3149
13845TIP3    H141478   7.048   6.524   2.616 -1.8707  1.2534  0.9474
13845TIP3    H241479   7.017   6.494   2.761  0.7160 -1.7025  0.9869
13846TIP3   OH241480   7.443   3.388   3.915  0.2621 -0.2827 -0.1084
13846TIP3    H141481   7.480   3.473   3.889  2.5078 -1.2501 -0.2932
13846TIP3    H241482   7.472   3.328   3.846 -1.9837 -1.0999 -0.4163
13847TIP3   OH241483   1.750   6.286   6.538 -0.7610  0.6652  0.3479
13847TIP3    H141484   1.828   6.337   6.515 -0.4556 -0.1138 -0.3928
13847TIP3    H241485   1.777   6.233   6.613  0.1549 -1.2265 -1.2323
13848TIP3   OH241486   1.070   7.297   6.560  0.3610  0.0339 -0.9950
13848TIP3    H141487   0.996   7.343   6.601 -0.0092 -1.3501 -0.0510
13848TIP3    H241488   1.114   7.365   6.508  0.2738  1.6309  0.8986
13849TIP3   OH241489   0.640   1.928   6.165 -0.4830  0.2880 -0.5209
13849TIP3    H141490   0.733   1.906   6.159 -0.9990 -1.6307 -2.4777
13849TIP3    H241491   0.635   1.986   6.241  2.1252 -0.5230  0.3993
13850TIP3   OH241492   4.039   2.905   0.972 -0.4471 -0.1436  0.0438
13850TIP3    H141493   4.048   2.926   0.879 -1.1775  0.4701  0.0975
13850TIP3    H241494   3.944   2.893   0.983 -0.2205 -1.7425  0.3898
13851TIP3   OH241495   2.774   3.520   2.107 -0.4277 -0.4533  0.0642
13851TIP3    H141496   2.750   3.450   2.169 -1.4813 -0.0988  0.0696
13851TIP3    H241497   2.696   3.574   2.100  0.4509  0.9004  0.2612
13852TIP3   OH241498   7.834   1.487   5.381 -0.0261 -0.1272  0.3613
13852TIP3    H141499   7.900   1.425   5.353 -1.3123 -1.8507  0.9907
13852TIP3    H241500   7.760   1.433   5.409 -0.5390  1.5961  2.6787
13853TIP3   OH241501   7.684   7.362   5.750  0.2807 -0.6059  0.6749
13853TIP3    H141502   7.737   7.314   5.813  0.5945  1.3277  1.9888
13853TIP3    H241503   7.595   7.358   5.784  0.5680  1.0849  1.7416
13854TIP3   OH241504   7.450   2.023   5.780 -0.3689  0.2889  0.1107
13854TIP3    H141505   7.543   2.002   5.766 -0.5002  0.0786 -0.4794
13854TIP3    H241506   7.450   2.082   5.855  0.2186  0.0469  0.3104
13855TIP3   OH241507   1.657   6.681   5.056 -0.1742 -0.0466 -0.2833
13855TIP3    H141508   1.647   6.611   4.992  0.4877  1.1538 -1.7817
13855TIP3    H241509   1.667   6.637   5.140 -0.6652 -1.6906 -1.0503
13856TIP3   OH241510   2.198   1.295   4.741  0.0071  0.0353  0.0776
13856TIP3    H141511   2.293   1.284   4.737  0.1251  1.1829 -0.8842
13856TIP3    H241512   2.176   1.341   4.660 -1.4340 -0.5912  0.0873
13857TIP3   OH241513   1.999   2.092   5.472  0.1020 -0.4684 -0.0445
13857TIP3    H141514   2.071   2.149   5.445 -1.1753  0.7784 -0.9907
13857TIP3    H241515   1.993   2.103   5.567  1.8577 -1.4964  0.2286
13858TIP3   OH241516   7.392   5.827   5.293 -0.3067  0.0982 -0.3062
13858TIP3    H141517   7.445   5.900   5.324 -0.5563 -0.3551  1.3156
13858TIP3    H241518   7.383   5.840   5.199  3.5170 -0.3401 -0.8593
13859TIP3   OH241519   6.793   4.580   1.560 -0.0539 -0.2297  0.3768
13859TIP3    H141520   6.834   4.515   1.503 -2.6823 -0.8113 -0.9786
13859TIP3    H241521   6.810   4.664   1.517 -0.7431 -0.5144 -0.4554
13860TIP3   OH241522   5.636   2.270   4.283  0.6952  0.1783 -0.1390
13860TIP3    H141523   5.597   2.189   4.250  0.2109  0.2975  0.1283
13860TIP3    H241524   5.605   2.276   4.373  1.6382  0.0872  0.2017
13861TIP3   OH241525   3.866   0.692   4.098  0.0476 -0.5142 -0.8750
13861TIP3    H141526   3.880   0.597   4.103 -0.6019 -0.6332 -1.2023
13861TIP3    H241527   3.893   0.724   4.184  1.4765 -0.8275 -1.1820
13862TIP3   OH241528   5.737   6.640   4.315 -0.0264 -0.8035  0.2417
13862TIP3    H141529   5.724   6.604   4.403  3.5967 -1.7590  0.5544
13862TIP3    H241530   5.773   6.727   4.329 -0.6164 -0.4615 -0.3314
13863TIP3   OH241531   7.944   5.569   0.778  0.3225  0.7176 -0.1073
13863TIP3    H141532   7.898   5.485   0.777 -1.4751  1.6491  0.2358
13863TIP3    H241533   8.036   5.546   0.765  0.1006 -1.4306  1.5454
13864TIP3   OH241534   1.266   4.082   4.433 -0.1040  0.5075  0.0580
13864TIP3    H141535   1.267   4.152   4.498 -0.2704 -0.7139  1.4560
13864TIP3    H241536   1.323   4.014   4.470  0.3607  0.0501 -1.4257
13865TIP3   OH241537   4.483   3.621   0.506 -0.2067 -0.2613  0.2439
13865TIP3    H141538   4.550   3.642   0.571  0.4606  2.2782 -1.1434
13865TIP3    H241539   4.515   3.542   0.464  0.9915 -0.1196  0.8450
13866TIP3   OH241540   1.622   0.963   6.299 -0.3468  0.4916  0.4413
13866TIP3    H141541   1.701   0.948   6.352  0.3419  0.4678 -0.5574
13866TIP3    H241542   1.560   1.004   6.359 -0.2641 -1.2180  1.7664
13867TIP3   OH241543   2.370   1.951   1.611  0.1283 -0.0474 -0.6858
13867TIP3    H141544   2.283   1.988   1.594  0.1588  0.0081 -0.7233
13867TIP3    H241545   2.426   2.028   1.624  0.1161 -0.0888 -0.3957
13868TIP3   OH241546   3.605   7.255   6.190  0.0057 -0.5189 -0.0921
13868TIP3    H141547   3.598   7.348   6.172 -0.4083 -0.9804 -2.7648
13868TIP3    H241548   3.684   7.246   6.242 -0.1943  1.3394  0.6037
13869TIP3   OH241549   4.827   2.914   6.561  0.5832  0.1053  0.3686
13869TIP3    H141550   4.778   2.965   6.497 -0.3960 -2.1945 -0.8301
13869TIP3    H241551   4.785   2.935   6.645 -0.6397  0.2827 -0.2620
13870TIP3   OH241552   0.795   0.046   4.422  0.3517 -0.5925 -0.9911
13870TIP3    H141553   0.835   0.042   4.510 -1.9367 -0.2607  0.1223
13870TIP3    H241554   0.738   0.122   4.425  0.2321 -0.5877 -2.7948
13871TIP3   OH241555   6.398   5.276   4.572 -0.1075 -0.3320 -0.3866
13871TIP3    H141556   6.432   5.289   4.484  0.6725 -1.7949 -0.3388
13871TIP3    H241557   6.404   5.181   4.586  1.2570  0.0070  1.7935
13872TIP3   OH241558   6.804   7.618   1.135 -0.1253  0.3397  0.0082
13872TIP3    H141559   6.820   7.529   1.167  0.1932  0.3120 -0.2264
13872TIP3    H241560   6.814   7.611   1.040 -0.7154  0.4955 -0.0667
13873TIP3   OH241561   4.055   1.536   0.788 -0.2743 -0.6393  0.3394
13873TIP3    H141562   4.129   1.479   0.811  0.8063 -0.0347 -1.4060
13873TIP3    H241563   4.046   1.595   0.863  1.3292 -0.4631  0.4485
13874TIP3   OH241564   8.225   5.879   5.475 -0.7405  0.0727 -0.3205
13874TIP3    H141565   8.241   5.789   5.444 -0.4099  0.6370 -1.8899
13874TIP3    H241566   8.278   5.887   5.554 -1.2198 -1.2805  0.1722
13875TIP3   OH241567   3.429   3.271   3.256  0.2627  0.5963  0.3715
13875TIP3    H141568   3.422   3.245   3.164 -0.5950  0.0920  0.5604
13875TIP3    H241569   3.521   3.262   3.278  0.4104  0.3632 -0.3409
13876TIP3   OH241570   0.198   6.817   2.054 -0.0594  1.0536 -0.0287
13876TIP3    H141571   0.105   6.807   2.076  0.3065 -0.9426  0.8448
13876TIP3    H241572   0.236   6.859   2.131  0.2010 -0.6692  0.8371
13877TIP3   OH241573   1.309   0.153   6.642 -0.1382 -0.2650 -0.0530
13877TIP3    H141574   1.355   0.131   6.561  0.0556  0.1248 -0.0484
13877TIP3    H241575   1.377   0.189   6.699 -0.1388 -1.1152  0.5173
13878TIP3   OH241576   7.248   4.281   6.297 -0.0322  0.4770 -0.6816
13878TIP3    H141577   7.298   4.202   6.278 -0.8929 -0.5104  0.8494
13878TIP3    H241578   7.172   4.249   6.347 -1.9268  1.9467 -2.4391
13879TIP3   OH241579   4.663   5.438   5.741  0.0263  0.2874 -0.7017
13879TIP3    H141580   4.713   5.491   5.678 -0.2958 -0.2905 -1.4698
13879TIP3    H241581   4.721   5.366   5.763 -0.0781  0.1774 -0.7854
13880TIP3   OH241582   5.134   1.508   0.423  0.0045 -0.0987  0.1854
13880TIP3    H141583   5.060   1.474   0.372 -1.6918  2.4107  0.7987
13880TIP3    H241584   5.095   1.535   0.506  1.7105  0.8734  0.7029
13881TIP3   OH241585   7.301   1.359   5.093  0.0603 -0.2096  0.1331
13881TIP3    H141586   7.360   1.432   5.110  2.0361 -1.7167  0.0398
13881TIP3    H241587   7.216   1.400   5.075  0.8342  1.9857  1.1803
13882TIP3   OH241588   0.465   0.887   0.766  0.1233  0.6363 -0.2662
13882TIP3    H141589   0.376   0.885   0.804 -0.9380  0.3927 -2.6301
13882TIP3    H241590   0.458   0.949   0.694  1.6296 -0.1766 -1.1377
13883TIP3   OH241591   1.851   7.747   4.321 -0.3309  0.1248  0.1354
13883TIP3    H141592   1.911   7.682   4.356 -0.8569  0.0109  0.8403
13883TIP3    H241593   1.892   7.775   4.239 -0.2156 -1.2650 -0.3149
13884TIP3   OH241594   2.794   4.098   1.498 -0.1082  0.2604  0.2253
13884TIP3    H141595   2.811   4.192   1.493  0.4622  0.1898  0.7199
13884TIP3    H241596   2.880   4.057   1.485  0.1189 -0.1104  2.4565
13885TIP3   OH241597   3.930   5.085   4.714 -0.3792  0.1726 -0.0846
13885TIP3    H141598   3.989   5.011   4.721 -0.9342 -0.1339  2.1984
13885TIP3    H241599   3.934   5.111   4.622  1.1334 -1.5814 -0.5636
13886TIP3   OH241600   3.066   2.217   2.817 -0.0375 -0.0937  0.0024
13886TIP3    H141601   3.059   2.240   2.910  0.3682 -0.1941  0.0621
13886TIP3    H241602   3.032   2.294   2.771  0.6283  0.3397  0.2196
13887TIP3   OH241603   7.185   4.760   3.414 -0.0772 -0.6104 -0.3417
13887TIP3    H141604   7.127   4.798   3.480  0.2154  0.4734 -0.6864
13887TIP3    H241605   7.234   4.835   3.380  1.6624 -1.5020  0.0736
13888TIP3   OH241606   3.350   6.296   0.338  0.0450 -0.0170  0.1322
13888TIP3    H141607   3.349   6.202   0.356  2.4851  0.2852  2.4572
13888TIP3    H241608   3.393   6.303   0.253  0.7166 -0.9896  0.3674
13889TIP3   OH241609   8.225   1.878   4.976 -0.2396 -0.1497 -0.2128
13889TIP3    H141610   8.144   1.892   4.926 -0.8016 -2.6629 -0.1725
13889TIP3    H241611   8.276   1.817   4.921  1.2593  0.7098  0.1653
13890TIP3   OH241612   5.890   1.948   3.428 -0.2894 -0.1162 -0.0094
13890TIP3    H141613   5.898   2.043   3.438 -3.5173  0.1606  1.1117
13890TIP3    H241614   5.878   1.915   3.517  3.2436 -2.0318 -0.0577
13891TIP3   OH241615   7.268   1.736   0.568 -0.1343  0.0590  0.3938
13891TIP3    H141616   7.326   1.810   0.584 -0.0808  0.9898 -3.1699
13891TIP3    H241617   7.317   1.680   0.508 -3.0814  1.5137 -3.8483
13892TIP3   OH241618   7.188   3.672   5.704 -0.1396  0.1018  0.3725
13892TIP3    H141619   7.250   3.723   5.757  0.5338  0.3021 -0.5841
13892TIP3    H241620   7.232   3.660   5.620 -0.9780 -0.6514  0.0188
13893TIP3   OH241621   6.809   6.694   0.289 -0.4182 -0.0187  0.6861
13893TIP3    H141622   6.732   6.655   0.330  0.7010 -1.8606  1.1329
13893TIP3    H241623   6.861   6.619   0.260 -0.4428  1.1479 -2.8762
13894TIP3   OH241624   7.290   6.079   6.171  0.4472  0.7253  0.6414
13894TIP3    H141625   7.358   6.123   6.223 -0.3969  2.4198  0.3978
13894TIP3    H241626   7.244   6.151   6.128 -0.2437 -0.5175 -0.7679
13895TIP3   OH241627   6.069   1.210   3.815 -0.1037  0.6206 -0.2827
13895TIP3    H141628   5.976   1.187   3.810  0.4696 -1.6988 -1.7249
13895TIP3    H241629   6.093   1.231   3.724  1.5635 -2.5802 -0.7189
13896TIP3   OH241630   7.429   6.562   2.815 -0.1615 -0.2224  0.3160
13896TIP3    H141631   7.433   6.635   2.877 -0.5516 -1.4538  1.8514
13896TIP3    H241632   7.437   6.483   2.869 -0.1313 -1.3542 -1.2443
13897TIP3   OH241633   3.562   0.005   1.816  0.2358  0.3207 -0.2776
13897TIP3    H141634   3.590   0.027   1.905  2.7388  0.6084 -1.0694
13897TIP3    H241635   3.512   0.082   1.787 -0.5544  0.2427  0.8240
13898TIP3   OH241636   4.376   3.383   2.619 -0.2627  0.2838  0.3288
13898TIP3    H141637   4.439   3.316   2.647 -0.0099  0.1353 -0.5766
13898TIP3    H241638   4.340   3.417   2.701  0.3470 -0.2498  0.8313
13899TIP3   OH241639   3.407   4.910   0.306  0.2577 -0.4140 -0.1283
13899TIP3    H141640   3.378   4.887   0.218  0.4337 -2.7026  0.3504
13899TIP3    H241641   3.434   4.827   0.345  0.9337  0.6553  1.8239
13900TIP3   OH241642   2.051   1.805   4.862 -0.1624  0.1174 -0.0470
13900TIP3    H141643   2.109   1.732   4.884 -1.3260 -0.5015  1.1645
13900TIP3    H241644   2.107   1.868   4.818  1.6947  0.0054  1.9923
13901TIP3   OH241645   5.222   1.945   5.007  0.6685  0.0898 -0.1891
13901TIP3    H141646   5.259   1.863   4.975 -1.2879 -0.4100 -1.3822
13901TIP3    H241647   5.132   1.923   5.032  0.6692  1.5031  1.2275
13902TIP3   OH241648   1.729   4.553   0.102  0.3873  0.1264 -0.9870
13902TIP3    H141649   1.776   4.532   0.021  1.6979 -1.5648  0.1466
13902TIP3    H241650   1.786   4.614   0.148  1.2332 -1.4037  0.0812
13903TIP3   OH241651   7.648   1.048   0.807  0.5075 -0.4218 -0.7712
13903TIP3    H141652   7.738   1.027   0.830  0.8671  0.1996 -1.5715
13903TIP3    H241653   7.596   1.013   0.880  1.3883 -0.7672 -0.2943
13904TIP3   OH241654   2.954   3.081   3.532  0.2609  0.1811 -0.2946
13904TIP3    H141655   2.983   3.073   3.623  2.3340  0.6434 -0.8591
13904TIP3    H241656   2.898   3.005   3.518  0.6743 -0.4107  1.1099
13905TIP3   OH241657   1.909   3.153   4.473  0.4861  0.0402 -0.1773
13905TIP3    H141658   1.821   3.191   4.480  1.7451  3.5474 -0.8426
13905TIP3    H241659   1.943   3.154   4.563  0.3932  0.2633 -0.1430
13906TIP3   OH241660   5.797   1.762   0.548  0.0260 -0.0488  0.0838
13906TIP3    H141661   5.819   1.714   0.627 -0.8597  1.1436  1.1071
13906TIP3    H241662   5.730   1.825   0.576  0.1547  0.8422 -1.4680
13907TIP3   OH241663   2.136   6.373   1.131 -0.2222 -0.1021 -0.1551
13907TIP3    H141664   2.047   6.405   1.126  0.4051  1.5596 -1.4426
13907TIP3    H241665   2.127   6.283   1.163 -2.2551  0.3459  0.6828
13908TIP3   OH241666   3.020   2.609   0.467 -0.2517  0.4161 -0.2828
13908TIP3    H141667   3.031   2.580   0.376 -2.1037  1.5721 -0.9222
13908TIP3    H241668   3.099   2.577   0.512  1.3311  0.8871 -2.5507
13909TIP3   OH241669   2.178   6.445   4.751  0.1124 -0.0071  0.6393
13909TIP3    H141670   2.086   6.428   4.774  0.0016  0.6845  0.7286
13909TIP3    H241671   2.228   6.384   4.806 -0.3106 -0.7816  0.1917
13910TIP3   OH241672   0.107   1.435   6.115 -0.1726  0.0861  0.2322
13910TIP3    H141673   0.035   1.494   6.094 -0.7608 -0.6170  0.2414
13910TIP3    H241674   0.180   1.493   6.137 -0.7459  0.8059  0.2704
13911TIP3   OH241675   0.968   1.765   6.585 -0.0844  0.0292 -0.3678
13911TIP3    H141676   0.998   1.852   6.559 -1.9854  0.9437  0.3785
13911TIP3    H241677   0.893   1.780   6.641  0.9324 -2.0384  1.7442
13912TIP3   OH241678   3.683   3.395   5.290 -0.0534 -0.0893  0.4137
13912TIP3    H141679   3.732   3.426   5.214 -1.2047  0.2282 -0.2234
13912TIP3    H241680   3.660   3.304   5.269 -0.3288 -0.0170  0.3927
13913TIP3   OH241681   2.996   1.978   5.697 -0.0596  0.4238  0.3512
13913TIP3    H141682   2.916   1.999   5.745 -0.4986  0.1081 -0.2342
13913TIP3    H241683   2.992   2.034   5.619 -0.9713 -1.3585 -0.9529
13914TIP3   OH241684   3.868   3.815   4.570  0.6603  0.1913  0.4262
13914TIP3    H141685   3.863   3.910   4.562  1.5901  0.3216  1.1694
13914TIP3    H241686   3.923   3.788   4.496 -1.5477 -0.0689 -1.2337
13915TIP3   OH241687   0.932   0.592   1.638  0.5402  0.0712  0.0546
13915TIP3    H141688   1.021   0.625   1.630 -0.2736  2.4219 -0.0914
13915TIP3    H241689   0.881   0.667   1.670 -0.9016 -1.9601  2.9768
13916TIP3   OH241690   7.934   1.284   5.877  0.1986  0.0191  0.4644
13916TIP3    H141691   7.911   1.252   5.789 -0.8731  1.3705  0.2206
13916TIP3    H241692   8.029   1.274   5.882  0.1438 -1.1974 -0.3875
13917TIP3   OH241693   4.826   2.297   0.542 -0.0456 -0.4032 -0.1289
13917TIP3    H141694   4.751   2.355   0.536  1.1860  1.1350 -1.7419
13917TIP3    H241695   4.892   2.337   0.485  2.4302 -1.0287  2.0714
13918TIP3   OH241696   0.023   2.100   1.641  0.4196 -0.0202 -0.6448
13918TIP3    H141697   0.069   2.163   1.585  3.9982 -1.2843  0.5893
13918TIP3    H241698   0.017   2.021   1.588  0.9627 -0.2601 -0.3612
13919TIP3   OH241699   5.621   3.099   5.471 -0.2253 -0.2336 -0.8494
13919TIP3    H141700   5.582   3.117   5.557  2.0920  1.3399 -0.0249
13919TIP3    H241701   5.689   3.166   5.461  1.2341 -1.8787 -2.8266
13920TIP3   OH241702   2.255   2.203   4.449 -0.0279  0.3066  0.1381
13920TIP3    H141703   2.231   2.260   4.376  0.1490  0.4895  0.2193
13920TIP3    H241704   2.188   2.136   4.451  0.9999 -0.8353 -1.4132
13921TIP3   OH241705   6.694   1.013   3.837  0.3833  0.8635  0.5743
13921TIP3    H141706   6.632   1.033   3.906 -1.0900  0.7708 -0.6780
13921TIP3    H241707   6.675   0.922   3.813  1.3554  0.6600  0.5020
13922TIP3   OH241708   8.120   3.188   6.128  0.1702 -0.1599  0.0298
13922TIP3    H141709   8.043   3.235   6.095 -1.1064 -2.2736 -0.1919
13922TIP3    H241710   8.162   3.153   6.050 -0.7192 -2.0019  0.3241
13923TIP3   OH241711   6.829   1.218   5.748  0.4917  0.3367  0.1061
13923TIP3    H141712   6.798   1.129   5.763  0.4851  0.6399  2.1469
13923TIP3    H241713   6.902   1.228   5.809  0.4477  1.7606 -0.0507
13924TIP3   OH241714   4.166   1.882   6.262 -0.3325 -0.4465 -1.1861
13924TIP3    H141715   4.197   1.880   6.171 -0.0482 -0.0891 -1.0987
13924TIP3    H241716   4.174   1.791   6.291  0.3899 -0.4138 -1.2554
13925TIP3   OH241717   3.284   2.413   0.396  0.1041 -0.3544  0.1887
13925TIP3    H141718   3.279   2.378   0.308  1.4524  0.1207 -0.1102
13925TIP3    H241719   3.359   2.473   0.394 -0.9568  1.0934  1.1709
13926TIP3   OH241720   7.245   3.476   2.656  0.1161  0.1692 -1.0872
13926TIP3    H141721   7.187   3.551   2.648 -1.2222 -0.7667 -0.5490
13926TIP3    H241722   7.257   3.465   2.751  1.0809  0.2615 -1.1839
13927TIP3   OH241723   0.648   4.111   6.229  0.3957  0.2030 -0.5841
13927TIP3    H141724   0.616   4.022   6.239 -0.0568  0.3365 -0.7956
13927TIP3    H241725   0.727   4.115   6.282  0.5132 -0.3737 -0.7119
13928TIP3   OH241726   2.933   0.252   2.987 -0.1602  0.5115 -0.3891
13928TIP3    H141727   2.950   0.163   3.019 -1.1477  0.7474  0.8546
13928TIP3    H241728   3.019   0.291   2.978  0.2063  0.0572  0.9506
13929TIP3   OH241729   5.469   0.978   1.235 -0.0271  0.5014  0.3209
13929TIP3    H141730   5.391   1.015   1.193  0.0844  1.7542  1.1419
13929TIP3    H241731   5.542   1.003   1.178 -0.1209  0.1901  0.0653
13930TIP3   OH241732   5.364   7.033   5.750 -0.5699  0.5080 -0.1765
13930TIP3    H141733   5.422   7.077   5.688 -0.3394  0.5131  0.0430
13930TIP3    H241734   5.303   7.101   5.778 -1.0812  0.3521 -0.8839
13931TIP3   OH241735   6.865   4.758   2.181 -0.2615 -0.1104 -0.1489
13931TIP3    H141736   6.862   4.801   2.266 -1.7946 -0.1299 -0.1653
13931TIP3    H241737   6.910   4.675   2.198 -2.4712 -1.1361  1.1619
13932TIP3   OH241738   7.479   7.557   1.853 -0.0816 -0.4785  0.2731
13932TIP3    H141739   7.473   7.517   1.766  0.0121  0.5537 -0.2270
13932TIP3    H241740   7.392   7.594   1.868  0.4442  1.0307 -0.2430
13933TIP3   OH241741   4.092   6.306   5.324  0.1619 -0.1198 -0.0015
13933TIP3    H141742   4.179   6.325   5.288  0.9498 -1.0112  1.3360
13933TIP3    H241743   4.032   6.357   5.269  1.2535 -1.4361 -2.5836
13934TIP3   OH241744   2.496   1.883   6.419 -0.8238  0.0296 -0.0966
13934TIP3    H141745   2.454   1.867   6.503 -1.5110 -1.4027 -0.6770
13934TIP3    H241746   2.578   1.927   6.441 -0.9538 -0.4007  1.3233
13935TIP3   OH241747   3.106   2.343   2.113 -0.0458 -0.4487 -0.0952
13935TIP3    H141748   3.062   2.362   2.030 -0.5495  1.3758  0.5293
13935TIP3    H241749   3.195   2.374   2.101 -0.6886  1.9093  0.6993
13936TIP3   OH241750   1.118   3.719   2.435  0.0809  0.3157 -0.0298
13936TIP3    H141751   1.205   3.698   2.401 -1.2801 -2.6893 -2.1363
13936TIP3    H241752   1.120   3.689   2.526  1.1638  0.0954 -0.1133
13937TIP3   OH241753   0.647   3.728   1.509  0.1278 -0.1910  0.3844
13937TIP3    H141754   0.623   3.788   1.438 -0.3227  1.7547  2.1056
13937TIP3    H241755   0.567   3.721   1.562  0.7155 -0.9050  1.1964
13938TIP3   OH241756   6.391   3.379   4.413  0.7156  0.6407  0.1900
13938TIP3    H141757   6.443   3.299   4.429 -2.9204 -1.3582  3.6786
13938TIP3    H241758   6.395   3.427   4.495 -2.4267  0.5613  0.5141
13939TIP3   OH241759   7.325   3.434   6.357  0.0696  0.1647  0.2623
13939TIP3    H141760   7.338   3.496   6.286 -0.9819 -0.8663 -0.8770
13939TIP3    H241761   7.409   3.388   6.365  0.3637  0.6607  0.0745
13940TIP3   OH241762   1.456   6.116   2.237  0.0404 -0.4650 -0.3463
13940TIP3    H141763   1.431   6.060   2.310  2.8634 -2.3086 -0.6267
13940TIP3    H241764   1.511   6.184   2.276 -0.0509 -0.2840 -0.5275
13941TIP3   OH241765   2.259   2.004   4.776  0.1039 -0.2151 -0.1128
13941TIP3    H141766   2.310   1.976   4.700  0.4148  0.9002 -0.3364
13941TIP3    H241767   2.221   2.088   4.750  1.3539  0.8989  1.4199
13942TIP3   OH241768   7.600   5.382   1.014  0.4325  0.4247 -0.1776
13942TIP3    H141769   7.691   5.362   1.039  0.3176 -1.7515 -1.2514
13942TIP3    H241770   7.548   5.347   1.086  0.2995 -2.4299 -1.5074
13943TIP3   OH241771   5.033   1.876   2.241 -0.0655 -0.1298  0.2337
13943TIP3    H141772   4.987   1.799   2.208  0.1252  0.0378 -0.4388
13943TIP3    H241773   4.964   1.942   2.251 -0.2721 -0.4631  1.0657
13944TIP3   OH241774   4.833   4.303   6.671  0.3383 -0.3662 -0.1138
13944TIP3    H141775   4.744   4.268   6.665  0.5318 -1.0927  0.8953
13944TIP3    H241776   4.879   4.264   6.597 -0.0389 -0.4196 -0.3233
13945TIP3   OH241777   0.946   1.879   0.205 -0.2697 -0.4158  0.0028
13945TIP3    H141778   1.009   1.948   0.187 -0.7987  0.6192  1.8107
13945TIP3    H241779   0.999   1.804   0.234  0.2400 -0.3652 -0.7849
13946TIP3   OH241780   0.389   3.295   1.177 -0.2002  0.1338 -0.0720
13946TIP3    H141781   0.408   3.336   1.261 -0.2423 -1.3220  0.6638
13946TIP3    H241782   0.463   3.237   1.160 -0.1828  0.4172 -1.0557
13947TIP3   OH241783   2.507   5.902   0.236  0.5957 -0.6133 -0.3415
13947TIP3    H141784   2.536   5.877   0.148  0.5707  0.2484 -0.6101
13947TIP3    H241785   2.413   5.918   0.227  1.1307  3.1226 -1.1220
13948TIP3   OH241786   1.343   4.973   4.878  0.2272  0.1361 -0.0545
13948TIP3    H141787   1.413   5.031   4.846  2.6988 -1.9814  1.1563
13948TIP3    H241788   1.335   4.995   4.971  1.5073 -1.6466  0.5217
13949TIP3   OH241789   1.633   7.741   2.222  0.2822  0.2403 -0.3402
13949TIP3    H141790   1.662   7.709   2.136 -1.3150 -0.8331 -0.5135
13949TIP3    H241791   1.653   7.668   2.282 -2.4112 -0.7682 -0.5552
13950TIP3   OH241792   7.165   5.561   6.597 -0.0780 -0.0660  0.1504
13950TIP3    H141793   7.240   5.612   6.568  0.1620 -1.7260 -2.4240
13950TIP3    H241794   7.089   5.603   6.557 -0.4101  0.7126  1.5195
13951TIP3   OH241795   2.822   2.178   0.927  0.8210  0.7010  0.4424
13951TIP3    H141796   2.802   2.088   0.900 -1.8256  0.3437  3.1275
13951TIP3    H241797   2.768   2.232   0.870 -1.1737  0.2350  1.8055
13952TIP3   OH241798   1.183   1.588   0.555 -0.2757 -0.7359 -0.1096
13952TIP3    H141799   1.243   1.660   0.574  2.3903 -2.0393 -2.8512
13952TIP3    H241800   1.220   1.513   0.601 -0.8417 -1.2131 -0.4155
13953TIP3   OH241801   2.904   2.268   1.553  0.8956 -0.5380 -0.5959
13953TIP3    H141802   2.994   2.299   1.565  0.2790  1.8957 -1.5769
13953TIP3    H241803   2.892   2.265   1.458 -0.0704 -0.7549 -0.4785
13954TIP3   OH241804   1.636   7.086   0.177 -0.0140 -0.0361 -0.4981
13954TIP3    H141805   1.575   7.095   0.250 -1.9316 -0.5095 -1.9918
13954TIP3    H241806   1.666   6.995   0.182  3.4027  1.0109  2.2777
13955TIP3   OH241807   3.997   5.853   5.022  0.0120  0.0622  0.7965
13955TIP3    H141808   3.953   5.813   5.097  2.3779 -2.5908  0.9223
13955TIP3    H241809   3.930   5.855   4.953 -1.0684 -1.2335  1.7619
13956TIP3   OH241810   6.454   1.710   0.156 -0.9276 -0.4492 -0.1512
13956TIP3    H141811   6.390   1.776   0.182  0.8602  1.4064 -0.1853
13956TIP3    H241812   6.446   1.641   0.222 -4.4640 -1.4370 -1.4175
13957TIP3   OH241813   2.300   3.103   2.362 -0.3107  0.1658  0.2356
13957TIP3    H141814   2.329   3.012   2.362  0.4935  0.3742  2.0560
13957TIP3    H241815   2.208   3.099   2.335  0.3214 -0.8903 -2.0209
13958TIP3   OH241816   1.644   6.309   0.819  0.3693  0.1419 -0.0951
13958TIP3    H141817   1.583   6.308   0.893 -0.6293  2.2098 -0.8336
13958TIP3    H241818   1.612   6.240   0.761  1.1381 -1.4788  1.3260
13959TIP3   OH241819   3.688   3.951   6.389 -0.4662  0.7317 -0.3534
13959TIP3    H141820   3.739   4.032   6.387  1.9714 -0.6611  1.1188
13959TIP3    H241821   3.599   3.979   6.412  0.4600  2.9074  0.8373
13960TIP3   OH241822   5.333   3.875   1.985  0.2549 -0.1172 -0.4237
13960TIP3    H141823   5.309   3.959   1.945 -1.5313 -1.1783 -1.7481
13960TIP3    H241824   5.423   3.859   1.956  0.3832  1.0347 -0.6908
13961TIP3   OH241825   0.110   3.741   3.085 -0.2893  0.4566 -0.0366
13961TIP3    H141826   0.157   3.814   3.045 -1.1759  0.7938 -0.4871
13961TIP3    H241827   0.102   3.676   3.015  0.5522 -0.1064  0.3813
13962TIP3   OH241828   7.337   0.108   5.048  0.6825 -0.3735 -0.1360
13962TIP3    H141829   7.320   0.018   5.019 -0.4696 -0.4482  0.6963
13962TIP3    H241830   7.350   0.100   5.143  1.5637  0.2241 -0.1957
13963TIP3   OH241831   6.257   0.777   0.349  0.5243  0.1036 -0.1097
13963TIP3    H141832   6.295   0.857   0.313  0.8504 -0.4878 -1.1284
13963TIP3    H241833   6.221   0.803   0.434 -0.6957  1.6715 -1.0546
13964TIP3   OH241834   6.466   0.199   2.479  0.3962  0.0994  0.3857
13964TIP3    H141835   6.509   0.186   2.563  2.5375 -0.3930 -0.7083
13964TIP3    H241836   6.491   0.288   2.452  0.2711  0.0184 -0.0094
13965TIP3   OH241837   7.276   1.324   4.590 -0.0199  0.1177 -0.6149
13965TIP3    H141838   7.278   1.247   4.646  1.0680 -0.6361 -1.6418
13965TIP3    H241839   7.368   1.342   4.571 -0.3494  0.4992 -1.9616
13966TIP3   OH241840   3.080   0.203   6.188  0.2898 -0.4772  0.0949
13966TIP3    H141841   3.145   0.230   6.253 -1.5626  2.4964  0.8859
13966TIP3    H241842   3.080   0.272   6.122  0.2025 -2.0820 -1.6898
13967TIP3   OH241843   3.303   3.088   6.605 -0.6324 -0.5449  0.2845
13967TIP3    H141844   3.309   3.144   6.528 -3.7171 -1.7380 -0.9710
13967TIP3    H241845   3.348   3.137   6.674 -0.0776  1.7657 -1.6076
13968TIP3   OH241846   0.074   4.844   3.100  0.5057  0.1337 -0.2292
13968TIP3    H141847   0.031   4.926   3.123  0.9574 -0.1469  1.7643
13968TIP3    H241848   0.027   4.814   3.022 -2.0658  0.5047  1.0542
13969TIP3   OH241849   6.662   4.844   6.403  0.2101  0.1528 -0.9087
13969TIP3    H141850   6.586   4.853   6.459 -0.5402  0.4048 -1.9331
13969TIP3    H241851   6.699   4.759   6.425 -1.1102 -0.5433 -1.2684
13970TIP3   OH241852   0.900   0.510   0.896 -0.2034 -0.6302  0.4355
13970TIP3    H141853   0.876   0.485   0.806 -1.4594 -0.0200  0.5839
13970TIP3    H241854   0.828   0.479   0.950  0.4537 -0.8252  1.2306
13971TIP3   OH241855   2.012   2.577   5.222  0.4941 -0.2443  0.3355
13971TIP3    H141856   2.101   2.603   5.197  0.4622 -0.8310 -0.4325
13971TIP3    H241857   1.955   2.636   5.172  0.4328  0.7951  1.5703
13972TIP3   OH241858   4.211   0.748   3.248  0.1200  0.1397  0.0584
13972TIP3    H141859   4.238   0.814   3.311 -1.6836  1.8704 -0.8809
13972TIP3    H241860   4.126   0.778   3.216  0.3701 -1.3396 -2.2473
13973TIP3   OH241861   6.017   1.325   0.075  0.1810 -0.6598 -0.3875
13973TIP3    H141862   6.086   1.279   0.123  2.4462  0.9937 -1.7959
13973TIP3    H241863   6.023   1.416   0.106 -0.6503 -0.2707 -1.3081
13974TIP3   OH241864   5.892   1.327   2.785  0.3967 -0.2688  0.1631
13974TIP3    H141865   5.886   1.417   2.816 -2.4515 -0.5932  0.7926
13974TIP3    H241866   5.871   1.274   2.861  0.2015 -1.3752 -0.6317
13975TIP3   OH241867   6.922   5.769   6.025 -0.5115  0.9213 -0.4473
13975TIP3    H141868   6.889   5.844   6.075 -1.8405  0.1060 -0.0269
13975TIP3    H241869   6.854   5.751   5.961  0.0331  0.3897 -0.8906
13976TIP3   OH241870   1.521   3.715   0.369  0.4290 -0.2409  0.1680
13976TIP3    H141871   1.521   3.809   0.348  0.7818 -0.1290  0.6498
13976TIP3    H241872   1.519   3.712   0.465  1.7993 -0.7131  0.1918
13977TIP3   OH241873   5.697   0.338   5.181  0.0933 -0.1750 -0.3083
13977TIP3    H141874   5.723   0.287   5.105 -1.4932 -2.1718  0.4183
13977TIP3    H241875   5.634   0.402   5.147 -1.6900 -1.9633 -0.5357
13978TIP3   OH241876   5.439   1.241   5.023  0.1897 -0.4240  0.1555
13978TIP3    H141877   5.469   1.196   4.944  3.0558 -1.2900  1.6096
13978TIP3    H241878   5.510   1.229   5.086 -0.4145  3.2326  1.7664
13979TIP3   OH241879   1.927   4.450   5.138 -0.4194  0.1843 -0.2534
13979TIP3    H141880   2.001   4.426   5.194 -0.7094  0.0455  0.0718
13979TIP3    H241881   1.967   4.495   5.064  0.0497 -0.4101 -0.3700
13980TIP3   OH241882   0.609   0.082   0.847 -0.2432  0.3729  0.2206
13980TIP3    H141883   0.514   0.071   0.853 -0.3956  0.5488 -1.4623
13980TIP3    H241884   0.644  -0.007   0.851 -0.4386  0.3286  1.1805
13981TIP3   OH241885   2.284   4.424   5.112  0.9528 -0.1552  0.0991
13981TIP3    H141886   2.313   4.419   5.203  0.8304 -0.3442  0.1272
13981TIP3    H241887   2.230   4.347   5.099  1.1611 -0.2542 -0.2026
13982TIP3   OH241888   1.229   1.655   4.837 -0.1240  0.6903 -0.4261
13982TIP3    H141889   1.302   1.678   4.779 -0.7791 -0.2012 -1.6524
13982TIP3    H241890   1.245   1.705   4.917  0.5836  2.3169 -1.5273
13983TIP3   OH241891   6.636   2.352   3.770  0.0243  0.1375  0.1470
13983TIP3    H141892   6.602   2.340   3.859 -0.6503  0.2746 -0.0860
13983TIP3    H241893   6.636   2.446   3.756 -2.4423  0.0418 -0.9485
13984TIP3   OH241894   1.973   7.399   1.906  0.3369 -0.4486  0.0469
13984TIP3    H141895   1.983   7.477   1.853 -0.7133 -1.2667 -1.4181
13984TIP3    H241896   2.040   7.407   1.973  1.3973  0.8489 -1.1174
13985TIP3   OH241897   0.718   7.159   6.751 -0.1265 -0.6297 -0.7321
13985TIP3    H141898   0.731   7.146   6.657 -0.9426  1.9434 -1.2808
13985TIP3    H241899   0.679   7.246   6.758  0.4384 -0.5085  2.0473
13986TIP3   OH241900   5.424   4.139   6.284  0.6565  0.2228  0.4359
13986TIP3    H141901   5.469   4.192   6.218 -0.6895  1.3516  0.3811
13986TIP3    H241902   5.494   4.113   6.344  1.8968 -0.8212 -1.3839
13987TIP3   OH241903   2.154   3.350   5.586 -0.1543 -0.0133  0.2026
13987TIP3    H141904   2.228   3.405   5.562  1.7217 -0.4779  4.0876
13987TIP3    H241905   2.103   3.404   5.647 -1.8050 -0.5046 -0.6813
13988TIP3   OH241906   3.911   5.404   2.212  0.0200  0.5238 -0.3892
13988TIP3    H141907   3.884   5.476   2.155  2.0276 -0.5303 -2.9105
13988TIP3    H241908   4.007   5.405   2.207  0.1776 -0.9274  1.3568
13989TIP3   OH241909   1.192   6.046   0.660  0.3196  0.2014  0.2480
13989TIP3    H141910   1.171   6.082   0.574 -1.5756 -1.3644 -0.0198
13989TIP3    H241911   1.268   5.990   0.646  0.2795  0.2852 -0.3024
13990TIP3   OH241912   2.106   2.110   6.718  0.6566  0.6904  0.0432
13990TIP3    H141913   2.090   2.148   6.632 -1.0587 -1.6268 -0.7825
13990TIP3    H241914   2.165   2.036   6.701  1.7611  1.2586  1.1823
13991TIP3   OH241915   5.212   0.943   3.965 -0.3046 -0.3333  0.1041
13991TIP3    H141916   5.303   0.955   3.992 -0.0292 -2.3783  0.2146
13991TIP3    H241917   5.172   1.029   3.976  2.7877  2.2329 -4.8116
13992TIP3   OH241918   7.528   7.215   2.618  0.0847 -0.6840  0.0443
13992TIP3    H141919   7.455   7.161   2.590 -0.4930  0.0332  0.1532
13992TIP3    H241920   7.559   7.173   2.698 -0.3350 -0.8803  0.1057
13993TIP3   OH241921   4.377   1.186   4.410 -0.7409 -0.1813 -0.1896
13993TIP3    H141922   4.352   1.278   4.414  1.4999  0.5291 -0.9564
13993TIP3    H241923   4.429   1.179   4.329 -1.3874 -2.2676 -0.4824
13994TIP3   OH241924   1.008   1.639   4.668 -0.2899 -0.1866 -0.7072
13994TIP3    H141925   1.088   1.625   4.718  1.0566 -0.2179 -2.7346
13994TIP3    H241926   0.946   1.674   4.731  1.1680 -0.5961  1.0411
13995TIP3   OH241927   3.522   7.079   3.499  0.0944 -0.4015 -0.6266
13995TIP3    H141928   3.563   7.004   3.542 -0.4311  0.1784  0.9791
13995TIP3    H241929   3.590   7.146   3.499 -0.3880  0.1349  0.8613
13996TIP3   OH241930   3.719   6.491   6.348 -0.1131  0.0956 -0.2588
13996TIP3    H141931   3.712   6.466   6.255 -0.6880 -0.2620 -0.1247
13996TIP3    H241932   3.684   6.580   6.351 -1.0315 -0.2563 -0.2303
13997TIP3   OH241933   0.539   5.012   5.103  0.5723 -0.1163 -0.4878
13997TIP3    H141934   0.546   4.921   5.131  0.8420  0.2493  0.7044
13997TIP3    H241935   0.594   5.061   5.165 -0.4731  0.9991 -0.3965
13998TIP3   OH241936   1.043   6.468   4.267  0.5149  0.1566 -0.9070
13998TIP3    H141937   1.041   6.561   4.244 -0.1650  0.3880  0.0233
13998TIP3    H241938   0.952   6.440   4.266  0.6612 -0.3545 -0.6025
13999TIP3   OH241939   1.436   0.627   6.455  0.6620 -0.7430 -0.4705
13999TIP3    H141940   1.463   0.571   6.527  1.1375 -1.3029 -1.0803
13999TIP3    H241941   1.402   0.567   6.389  1.4772 -0.3460 -1.2648
14000TIP3   OH241942   3.347   0.475   2.181 -0.5634 -0.0770 -0.2839
14000TIP3    H141943   3.340   0.488   2.086  1.4287 -0.2541 -0.5162
14000TIP3    H241944   3.360   0.381   2.192 -0.6329 -0.0404  0.1375
14001TIP3   OH241945   7.868   5.342   1.098  0.0556 -0.0332 -0.1233
14001TIP3    H141946   7.956   5.304   1.104 -0.3449 -1.0155 -0.3463
14001TIP3    H241947   7.827   5.321   1.182 -0.1272  0.0094 -0.2019
14002TIP3   OH241948   0.181   1.281   0.330 -0.5331  0.1757 -0.3364
14002TIP3    H141949   0.255   1.340   0.314 -0.6305  0.5074  0.4041
14002TIP3    H241950   0.212   1.195   0.301 -0.0747  0.4257 -0.5975
14003TIP3   OH241951   1.601   4.178   1.501 -0.1778 -0.0044 -0.2653
14003TIP3    H141952   1.566   4.253   1.453  1.1759  0.3048 -0.8104
14003TIP3    H241953   1.607   4.108   1.436  1.5803  0.3917 -0.5779
14004TIP3   OH241954   3.863   0.632   4.899 -0.2442  0.4173  0.3085
14004TIP3    H141955   3.793   0.679   4.945  1.5178  2.6147  0.9531
14004TIP3    H241956   3.841   0.540   4.908 -3.8839  1.0189 -0.9355
14005TIP3   OH241957   5.948   1.245   4.612  0.2399 -0.2223  0.2717
14005TIP3    H141958   5.896   1.223   4.534  0.6116  1.3925 -0.4802
14005TIP3    H241959   5.964   1.161   4.655  0.1305 -1.1894 -1.4772
14006TIP3   OH241960   6.205   0.759   2.653 -0.2673 -0.4559  0.3804
14006TIP3    H141961   6.284   0.713   2.683  0.8985  0.7644 -0.7137
14006TIP3    H241962   6.218   0.772   2.559 -0.6488  1.8415  0.5752
14007TIP3   OH241963   3.414   6.812   4.203  0.3925 -0.3742  0.5365
14007TIP3    H141964   3.501   6.783   4.176 -0.1631 -2.2047  0.5214
14007TIP3    H241965   3.404   6.779   4.292 -1.2059 -2.5349 -0.3525
14008TIP3   OH241966   5.395   3.435   5.756 -0.0154 -0.0223  0.3463
14008TIP3    H141967   5.426   3.469   5.672 -0.2039 -0.6253  0.0227
14008TIP3    H241968   5.371   3.512   5.806  0.1869  0.3493 -0.1221
14009TIP3   OH241969   2.922   6.784   1.228  0.0942  0.3474  0.1302
14009TIP3    H141970   2.977   6.862   1.230  0.5368  0.0533 -0.2321
14009TIP3    H241971   2.956   6.733   1.154  0.0595 -0.3592  0.5845
14010TIP3   OH241972   3.026   2.284   4.703 -0.2233 -0.0550 -0.0714
14010TIP3    H141973   3.069   2.236   4.633 -0.3390  0.4380 -0.4863
14010TIP3    H241974   3.095   2.301   4.767 -0.1551 -0.6497  0.0145
14011TIP3   OH241975   4.701   0.144   5.696 -0.2750 -0.7650  0.5828
14011TIP3    H141976   4.704   0.158   5.602  1.2517 -1.3704  0.5196
14011TIP3    H241977   4.785   0.177   5.729 -0.8252 -0.4512  1.7501
14012TIP3   OH241978   2.489   6.724   6.684 -0.1203  0.3127  0.1652
14012TIP3    H141979   2.506   6.780   6.608  0.9462  0.0896  0.2285
14012TIP3    H241980   2.419   6.665   6.654  1.1704 -0.6397 -1.1128
14013TIP3   OH241981   5.455   1.760   4.691 -0.0359  0.3328  0.4659
14013TIP3    H141982   5.370   1.802   4.703 -0.2566  0.6902 -1.8481
14013TIP3    H241983   5.519   1.824   4.722 -0.3862  2.3833 -2.6251
14014TIP3   OH241984   2.166   0.818   5.644  0.0448 -0.3633  0.0911
14014TIP3    H141985   2.228   0.770   5.698  0.9583  1.5577  0.8578
14014TIP3    H241986   2.204   0.906   5.636 -1.7219  0.3702 -0.8839
14015TIP3   OH241987   5.460   6.327   6.462  0.2116 -0.0693 -0.2105
14015TIP3    H141988   5.519   6.274   6.409  1.9189  0.7608  0.7619
14015TIP3    H241989   5.408   6.264   6.511  1.0081 -0.8465 -0.3373
14016TIP3   OH241990   8.137   2.823   1.968  0.0949 -0.8907 -0.8856
14016TIP3    H141991   8.103   2.884   2.035  0.0539  0.0708 -1.7544
14016TIP3    H241992   8.059   2.777   1.937 -0.4206  0.8997 -2.4607
14017TIP3   OH241993   7.205   4.716   3.045  0.2959 -0.7197  0.0639
14017TIP3    H141994   7.245   4.799   3.020 -1.4341  0.2614  0.3917
14017TIP3    H241995   7.275   4.668   3.090  1.2866  0.6018 -0.0128
14018TIP3   OH241996   0.349   6.088   0.245  0.2001 -0.1259 -0.0225
14018TIP3    H141997   0.404   6.019   0.283 -0.3170 -0.7135 -0.3194
14018TIP3    H241998   0.348   6.068   0.151 -0.7628 -0.3081  0.0223
14019TIP3   OH241999   2.070   0.678   1.749  0.2001  0.1815 -0.2001
14019TIP3    H142000   2.068   0.659   1.655 -2.6208  1.3610 -0.4856
14019TIP3    H242001   2.132   0.750   1.757  1.8392 -1.0834 -0.8320
14020TIP3   OH242002   7.279   7.249   6.369  0.0894  0.3772 -0.6760
14020TIP3    H142003   7.326   7.327   6.399 -0.3584  0.5350 -0.3838
14020TIP3    H242004   7.245   7.209   6.450 -0.2510  0.2460 -0.8836
14021TIP3   OH242005   3.353   2.694   2.001  0.0260  0.2571 -0.0486
14021TIP3    H142006   3.378   2.630   2.068  0.0336  0.0672 -0.2314
14021TIP3    H242007   3.410   2.769   2.017 -0.1964  0.3483  0.3653
14022TIP3   OH242008   4.709   3.254   4.819  0.1585 -0.5940 -0.2344
14022TIP3    H142009   4.663   3.262   4.903  0.2023 -1.1231 -0.1573
14022TIP3    H242010   4.790   3.303   4.832  1.5405 -3.0304  1.0433
14023TIP3   OH242011   7.130   5.212   3.683 -0.1573 -0.1842  0.4876
14023TIP3    H142012   7.124   5.134   3.629 -0.3674  0.9251 -1.1513
14023TIP3    H242013   7.061   5.270   3.650 -0.7972  0.2676  2.4451
14024TIP3   OH242014   5.148   5.958   1.464 -0.1591 -0.6727 -0.5911
14024TIP3    H142015   5.080   5.993   1.522 -0.2227 -2.7032  0.6376
14024TIP3    H242016   5.207   6.033   1.450 -1.4314  0.5191  0.1174
14025TIP3   OH242017   2.543   4.026   4.567 -0.1096 -0.2860 -0.9118
14025TIP3    H142018   2.587   4.035   4.652 -2.1694 -0.7805  0.2854
14025TIP3    H242019   2.599   4.074   4.506  0.7929  1.2099  0.9677
14026TIP3   OH242020   8.247   5.250   2.137 -0.2733 -0.4653  0.6874
14026TIP3    H142021   8.184   5.314   2.171  0.2467  0.4432 -0.0427
14026TIP3    H242022   8.205   5.165   2.153 -2.4172  0.1521 -1.1938
14027TIP3   OH242023   1.623   3.122   4.302 -0.3051 -0.4948  0.2331
14027TIP3    H142024   1.638   3.140   4.395  1.5777  0.3246 -0.1702
14027TIP3    H242025   1.621   3.208   4.261 -1.0881 -0.8495 -0.5080
14028TIP3   OH242026   3.859   0.509   6.369 -0.0360 -0.1886  0.4549
14028TIP3    H142027   3.950   0.536   6.353 -0.2770  1.7484  1.9447
14028TIP3    H242028   3.864   0.456   6.449 -0.2468  0.2067  0.7324
14029TIP3   OH242029   0.290   0.552   4.657  0.4616 -0.1067  0.3947
14029TIP3    H142030   0.368   0.603   4.636  0.3170 -0.0417  0.0013
14029TIP3    H242031   0.265   0.511   4.574 -1.1286  1.5254 -0.0049
14030TIP3   OH242032   4.180   7.719   3.369  0.2502  0.2282  0.0795
14030TIP3    H142033   4.173   7.786   3.436  3.1356  0.6680  0.0973
14030TIP3    H242034   4.187   7.768   3.287  0.4364 -0.1297 -0.1210
14031TIP3   OH242035   6.762   4.728   4.349 -0.1562 -0.2607  0.6443
14031TIP3    H142036   6.736   4.640   4.321 -0.8076 -0.1519  0.9119
14031TIP3    H242037   6.799   4.768   4.270  2.4892 -1.6238  1.0617
14032TIP3   OH242038   0.910   3.803   1.663  0.6358 -0.1113  0.0445
14032TIP3    H142039   0.893   3.791   1.756  2.6194 -1.2591  0.3268
14032TIP3    H242040   0.886   3.719   1.623 -0.6663  0.5357 -0.5791
14033TIP3   OH242041   2.365   3.338   4.744  0.5346  0.1721 -0.2208
14033TIP3    H142042   2.355   3.248   4.714  1.2418 -0.7643  2.0883
14033TIP3    H242043   2.276   3.369   4.759  0.3001 -1.2120  1.6757
14034TIP3   OH242044   8.259   7.540   5.620 -0.1091 -0.4371  0.0903
14034TIP3    H142045   8.233   7.455   5.584  1.1816  0.3653 -3.1123
14034TIP3    H242046   8.341   7.523   5.666 -0.1599 -1.0198 -0.0317
14035TIP3   OH242047   4.960   2.396   2.797  0.0366 -0.6340 -0.3938
14035TIP3    H142048   4.927   2.356   2.877  0.9821  0.4676  0.5983
14035TIP3    H242049   4.903   2.363   2.728 -1.0229 -1.3465  0.7748
14036TIP3   OH242050   3.367   2.064   0.098 -0.6098 -0.5081  0.1657
14036TIP3    H142051   3.439   2.002   0.114 -1.3608 -1.2654  0.6873
14036TIP3    H242052   3.401   2.123   0.030  0.7830 -0.3704  0.9506
14037TIP3   OH242053   1.051   4.178   4.038 -0.1009  0.1464 -0.4448
14037TIP3    H142054   1.100   4.104   4.001 -0.0621 -0.2365  0.3503
14037TIP3    H242055   0.961   4.162   4.011 -0.1869 -0.5023  0.1883
14038TIP3   OH242056   5.608   1.193   0.440  0.8798  0.1697  0.4145
14038TIP3    H142057   5.667   1.216   0.368  1.3378  1.4117  1.1528
14038TIP3    H242058   5.531   1.248   0.427  0.5157 -0.3509  0.3098
14039TIP3   OH242059   3.124   2.130   0.389  0.4790 -0.2643  0.1174
14039TIP3    H142060   3.095   2.221   0.387  0.0348 -0.3929  0.5214
14039TIP3    H242061   3.219   2.135   0.380  0.4305  0.2242 -0.1454
14040TIP3   OH242062   3.742   2.061   0.645  0.3381 -0.3323 -0.1277
14040TIP3    H142063   3.648   2.069   0.660  0.5419 -0.7832  1.5786
14040TIP3    H242064   3.765   1.974   0.678  1.5474  0.2436  0.6332
14041TIP3   OH242065   7.876   1.724   2.207 -0.1751  0.2351 -0.1099
14041TIP3    H142066   7.791   1.753   2.175 -0.5499  0.1081  0.7356
14041TIP3    H242067   7.909   1.797   2.258 -0.1307 -0.0085  0.2135
14042TIP3   OH242068   2.827   2.010   3.127 -0.5282  0.4425 -0.2479
14042TIP3    H142069   2.880   2.024   3.205  1.5493 -1.7484 -1.1199
14042TIP3    H242070   2.759   1.948   3.155 -0.3226  0.3424  0.0361
14043TIP3   OH242071   5.772   2.248   0.268 -0.2969  0.2874  0.2096
14043TIP3    H142072   5.804   2.334   0.241 -1.5061  0.5357 -0.5189
14043TIP3    H242073   5.772   2.252   0.364  1.1122  0.5322  0.2118
14044TIP3   OH242074   1.569   3.954   1.333  0.6338 -0.2069 -0.0472
14044TIP3    H142075   1.627   3.965   1.258  1.9475 -0.1129  0.9461
14044TIP3    H242076   1.514   3.879   1.312  1.2697 -0.4260 -0.9156
14045TIP3   OH242077   8.061   0.359   5.579  0.1818  0.6599 -0.1476
14045TIP3    H142078   8.090   0.269   5.591 -0.2279  0.4006 -1.0163
14045TIP3    H242079   8.051   0.394   5.668 -1.9177 -0.8834  0.2989
14046TIP3   OH242080   3.346   6.107   5.578  0.2050 -0.7638 -0.0732
14046TIP3    H142081   3.259   6.066   5.588  0.4553 -1.3541 -0.2532
14046TIP3    H242082   3.404   6.034   5.559  0.4057 -0.1553 -2.0053
14047TIP3   OH242083   7.644   5.111   4.639 -0.3493  0.8749  0.5727
14047TIP3    H142084   7.582   5.175   4.603  0.3487  0.8091 -0.8176
14047TIP3    H242085   7.594   5.029   4.643 -0.1975  0.6551 -1.2125
14048TIP3   OH242086   4.966   2.564   1.650  0.5286  0.2990 -0.3676
14048TIP3    H142087   4.980   2.533   1.561 -0.0140 -0.8983 -0.0609
14048TIP3    H242088   4.966   2.659   1.643 -0.8131  0.2313 -1.8778
14049TIP3   OH242089   2.266   2.713   6.272 -0.3096 -0.3231 -0.2830
14049TIP3    H142090   2.286   2.646   6.207  0.3672  0.6029 -1.0456
14049TIP3    H242091   2.352   2.743   6.302 -0.6072 -0.8122  1.1401
14050TIP3   OH242092   7.006   0.347   1.076 -0.4935 -0.0627  0.1503
14050TIP3    H142093   6.974   0.301   1.153 -1.0071 -2.0818 -1.1796
14050TIP3    H242094   7.101   0.336   1.079 -0.5034 -0.0684  0.5189
14051TIP3   OH242095   2.922   3.897   3.356  0.5022  0.3148  0.4225
14051TIP3    H142096   2.996   3.837   3.349 -0.3161 -0.7059  0.1748
14051TIP3    H242097   2.845   3.839   3.362 -0.2372  1.3319  1.1458
14052TIP3   OH242098   2.364   6.168   5.369  0.3547  0.2011  0.0903
14052TIP3    H142099   2.392   6.225   5.298  2.3429 -1.0375 -0.2134
14052TIP3    H242100   2.401   6.207   5.448 -1.0016  1.0255  0.3490
14053TIP3   OH242101   5.329   4.482   4.347 -0.2138 -0.1454 -0.5260
14053TIP3    H142102   5.323   4.437   4.263  0.6333  1.1982 -1.3344
14053TIP3    H242103   5.414   4.455   4.383  0.8831  1.6644 -1.5878
14054TIP3   OH242104   5.213   4.948   5.512  0.1962  0.0261 -0.7459
14054TIP3    H142105   5.280   4.900   5.464  0.7331 -0.4931  0.4924
14054TIP3    H242106   5.245   4.951   5.602 -0.9648  0.6541 -0.3348
14055TIP3   OH242107   7.726   6.873   0.671  0.2851  0.2962  0.2065
14055TIP3    H142108   7.631   6.874   0.683  0.1908  1.7743 -0.4699
14055TIP3    H242109   7.743   6.792   0.623 -1.1066  1.6975 -2.9077
14056TIP3   OH242110   1.869   0.943   6.412  0.7025  0.0371 -0.1859
14056TIP3    H142111   1.963   0.931   6.423  0.7309  0.8829  0.5884
14056TIP3    H242112   1.845   1.010   6.476 -0.5169 -0.5345  0.0007
14057TIP3   OH242113   4.510   0.409   1.776  0.2675 -1.0378  0.3215
14057TIP3    H142114   4.531   0.326   1.732  0.8777 -0.2348 -0.9785
14057TIP3    H242115   4.592   0.459   1.771 -0.3958  0.0515  0.1266
14058TIP3   OH242116   6.486   1.415   1.375  0.6738  0.7750  0.4980
14058TIP3    H142117   6.401   1.457   1.361  0.2747 -0.7047 -1.9907
14058TIP3    H242118   6.489   1.401   1.470 -2.3179 -0.0060  0.5803
14059TIP3   OH242119   6.709   5.631   6.395 -0.5705 -0.0235  0.0014
14059TIP3    H142120   6.659   5.581   6.458 -0.8759  0.2790  0.0029
14059TIP3    H242121   6.645   5.656   6.328 -0.4081  0.2990 -0.0351
14060TIP3   OH242122   0.401   2.606   1.298  0.3001  0.1673  0.3005
14060TIP3    H142123   0.477   2.620   1.355  0.2110 -0.6388  0.6210
14060TIP3    H242124   0.410   2.517   1.266 -0.1396  0.3077 -0.2226
14061TIP3   OH242125   4.058   5.177   0.479  0.6517 -0.3005 -0.1205
14061TIP3    H142126   4.073   5.262   0.438 -1.9399  0.0491 -0.4702
14061TIP3    H242127   4.052   5.196   0.573 -0.3425 -0.0056 -0.2350
14062TIP3   OH242128   4.710   7.227   0.345 -0.3782 -0.6784 -0.5305
14062TIP3    H142129   4.723   7.210   0.438 -2.1583 -0.1528 -0.1407
14062TIP3    H242130   4.745   7.315   0.331 -2.0021  0.1342  0.1712
14063TIP3   OH242131   2.344   0.833   5.332 -0.0914 -0.2619 -0.1856
14063TIP3    H142132   2.335   0.921   5.367 -0.8378  0.0590 -1.1296
14063TIP3    H242133   2.401   0.788   5.394 -1.6593  0.1434  1.6351
14064TIP3   OH242134   4.383   2.176   2.139  0.1848 -0.1368 -0.3674
14064TIP3    H142135   4.365   2.264   2.107  0.0206 -0.0712 -0.1032
14064TIP3    H242136   4.310   2.124   2.106  0.5535 -0.2835 -0.9586
14065TIP3   OH242137   6.695   0.022   0.534 -0.2255  0.1540 -0.4258
14065TIP3    H142138   6.657  -0.039   0.471 -0.4177  0.0282 -0.1881
14065TIP3    H242139   6.621   0.075   0.565 -0.3100 -0.4592  0.4501
14066TIP3   OH242140   1.090   1.157   0.630 -0.9546 -0.4312 -0.0680
14066TIP3    H142141   1.108   1.081   0.575 -2.3828 -1.2272  0.5046
14066TIP3    H242142   1.076   1.121   0.717 -0.1156  0.6681  0.5455
14067TIP3   OH242143   8.054   2.000   0.338  0.9560 -0.5679  0.3709
14067TIP3    H142144   8.032   1.925   0.282  2.8619 -0.6758 -0.2974
14067TIP3    H242145   8.120   2.049   0.288  0.8839  0.7109  1.4722
14068TIP3   OH242146   2.562   6.537   5.445  0.0953  0.2974 -0.5697
14068TIP3    H142147   2.550   6.487   5.364  2.9099  0.2012 -1.0316
14068TIP3    H242148   2.657   6.549   5.452 -0.0239  0.3135  2.7244
14069TIP3   OH242149   7.590   4.700   2.863  0.1825  0.2283  0.7053
14069TIP3    H142150   7.548   4.701   2.777  0.5073 -0.5270  0.5317
14069TIP3    H242151   7.675   4.741   2.847 -0.7642  2.6210  1.2413
14070TIP3   OH242152   1.423   7.342   2.067  0.2049 -0.0864  0.5592
14070TIP3    H142153   1.413   7.346   2.163 -0.0781  0.1313  0.5244
14070TIP3    H242154   1.430   7.249   2.047  1.3534 -0.0835  0.8947
14071TIP3   OH242155   7.886   3.632   0.465 -0.1043  0.5625  0.0394
14071TIP3    H142156   7.952   3.573   0.502 -0.7113 -1.1942 -1.4973
14071TIP3    H242157   7.911   3.642   0.373 -1.4727  0.5492 -0.3620
14072TIP3   OH242158   3.216   0.224   2.668 -0.0459  0.5697 -0.1458
14072TIP3    H142159   3.141   0.276   2.697  0.2532  1.9219 -1.6563
14072TIP3    H242160   3.276   0.225   2.743  0.1445  2.8207 -0.2608
14073TIP3   OH242161   1.986   4.392   0.930 -0.2552  0.0308 -0.0020
14073TIP3    H142162   1.923   4.463   0.913 -2.2560 -1.2415  1.5167
14073TIP3    H242163   2.010   4.359   0.844 -1.6915  0.5851 -0.6506
14074TIP3   OH242164   4.883   0.526   5.437  0.0903 -0.3812 -0.0343
14074TIP3    H142165   4.938   0.517   5.515  0.2032  0.3160 -0.0274
14074TIP3    H242166   4.892   0.443   5.392  0.8751 -0.4042  0.1472
14075TIP3   OH242167   6.952   1.330   0.744  0.5122  0.2081  0.0499
14075TIP3    H142168   7.039   1.367   0.755  0.2072  0.5294  1.6053
14075TIP3    H242169   6.894   1.390   0.792 -0.3947 -0.6692  0.0936
14076TIP3   OH242170   1.030   0.617   6.761 -0.3492 -0.4635 -0.0987
14076TIP3    H142171   1.071   0.531   6.759  1.0650  0.1924 -0.7974
14076TIP3    H242172   1.101   0.678   6.742 -1.3791  0.8410  0.0851
14077TIP3   OH242173   4.908   3.782   3.314 -0.3030 -0.1763  0.1383
14077TIP3    H142174   4.881   3.715   3.376  0.9589  1.5250  2.6619
14077TIP3    H242175   4.881   3.865   3.353  0.8751  1.0076 -1.3920
14078TIP3   OH242176   4.462   2.595   5.699  0.0416 -0.0364 -0.1022
14078TIP3    H142177   4.434   2.585   5.790  2.1758 -1.1002  0.5124
14078TIP3    H242178   4.459   2.689   5.683 -0.7538  0.1308  0.9083
14079TIP3   OH242179   8.248   5.789   1.745  0.4631  0.0856 -0.1452
14079TIP3    H142180   8.159   5.819   1.725  0.5981  0.8825  0.3774
14079TIP3    H242181   8.303   5.830   1.678  0.1758 -2.5380 -2.1447
14080TIP3   OH242182   1.098   3.383   2.162 -0.7009 -0.0384 -0.8568
14080TIP3    H142183   1.051   3.460   2.129 -1.2990  0.0341  0.1339
14080TIP3    H242184   1.029   3.326   2.196 -0.1195 -0.1940  0.0916
14081TIP3   OH242185   7.213   6.755   2.817  0.3809  0.4319  0.0900
14081TIP3    H142186   7.264   6.675   2.821 -0.3420 -0.0443  0.0818
14081TIP3    H242187   7.168   6.759   2.902 -1.1459 -0.2516 -0.6514
14082TIP3   OH242188   6.657   4.192   0.084 -0.1759  0.7013  0.3441
14082TIP3    H142189   6.625   4.221   0.170 -0.0105 -0.5322  0.8439
14082TIP3    H242190   6.752   4.207   0.089 -0.2907  1.6625 -0.0597
14083TIP3   OH242191   1.380   3.587   1.560  0.7218 -0.8048 -0.0218
14083TIP3    H142192   1.431   3.562   1.483  0.0982  1.6588 -1.3666
14083TIP3    H242193   1.326   3.511   1.580  1.5553 -1.8171 -1.4795
14084TIP3   OH242194   6.092   4.290   6.599  0.6208 -0.4240 -0.3614
14084TIP3    H142195   6.145   4.337   6.663  1.5918 -2.1058  0.1393
14084TIP3    H242196   6.155   4.253   6.537 -0.1325 -0.7875 -0.9383
14085TIP3   OH242197   0.775   5.200  -0.011 -0.3477 -0.4543  0.5795
14085TIP3    H142198   0.693   5.235   0.023 -0.2216  0.0929  0.3320
14085TIP3    H242199   0.837   5.272  -0.002 -0.0097 -0.7114  0.3302
14086TIP3   OH242200   0.988   4.987   4.398  0.0693  0.1477 -0.5075
14086TIP3    H142201   1.041   5.048   4.449  0.2101 -0.8343  0.5814
14086TIP3    H242202   1.000   4.903   4.443 -1.6410 -0.2844 -0.8089
14087TIP3   OH242203   4.790   3.998   2.434 -0.3888  0.0827  0.1111
14087TIP3    H142204   4.821   4.007   2.524 -1.8321  0.9086  0.5440
14087TIP3    H242205   4.835   3.920   2.402 -0.0105 -0.3595  1.6114
14088TIP3   OH242206   4.923   3.667   4.698  0.2609  0.2797 -0.7538
14088TIP3    H142207   4.872   3.631   4.771  0.4587 -1.2745 -1.3527
14088TIP3    H242208   4.985   3.726   4.740  0.4702 -0.7023  0.3786
14089TIP3   OH242209   0.552   1.510   0.739  0.6817 -0.4127  0.1141
14089TIP3    H142210   0.614   1.437   0.741  0.1384 -0.9056 -0.4087
14089TIP3    H242211   0.525   1.515   0.647  0.0199 -0.1513  0.3196
14090TIP3   OH242212   4.450   7.686   4.332 -0.1654  0.0367 -0.2443
14090TIP3    H142213   4.474   7.674   4.240 -1.0360 -1.7517 -0.3003
14090TIP3    H242214   4.392   7.762   4.332  3.1245  2.7303 -0.4769
14091TIP3   OH242215   7.217   4.663   1.843 -0.3998 -0.1487  0.9900
14091TIP3    H142216   7.216   4.701   1.931  0.2450 -1.4752  1.5965
14091TIP3    H242217   7.225   4.568   1.858 -1.9135 -0.5605 -0.4570
14092TIP3   OH242218   5.862   6.436   4.164  0.3607 -0.1315  0.1433
14092TIP3    H142219   5.832   6.515   4.209 -1.0668 -0.5286 -0.0837
14092TIP3    H242220   5.951   6.458   4.135 -0.3633  1.7431 -0.7837
14093TIP3   OH242221   7.447   1.734   1.735 -0.4692 -0.3708 -0.5424
14093TIP3    H142222   7.397   1.683   1.799 -0.6630 -0.2108 -0.5653
14093TIP3    H242223   7.386   1.801   1.705 -0.1753 -0.0374 -0.4109
14094TIP3   OH242224   1.204   3.860   5.424  0.1308 -0.7020  0.4423
14094TIP3    H142225   1.118   3.888   5.456  1.1458  3.5483  0.1017
14094TIP3    H242226   1.266   3.902   5.483  1.9848 -1.3030 -0.9841
14095TIP3   OH242227   6.011   7.367   4.079  0.3470 -0.3880  0.3225
14095TIP3    H142228   6.075   7.425   4.037 -0.5251  0.9367  0.7269
14095TIP3    H242229   5.988   7.412   4.160 -1.2285 -0.7149  0.0999
14096TIP3   OH242230   8.080   1.285   4.094  0.2670  0.4242  0.4064
14096TIP3    H142231   8.069   1.218   4.162  0.3453 -0.3490 -0.3177
14096TIP3    H242232   8.174   1.289   4.079  0.5736  2.6635  2.3171
14097TIP3   OH242233   6.108   3.849   0.870  0.2566  0.7118  0.8227
14097TIP3    H142234   6.176   3.907   0.904  1.6137 -0.0080 -0.5497
14097TIP3    H242235   6.136   3.828   0.781 -1.5158 -0.0248  0.3916
14098TIP3   OH242236   6.156   6.491   5.122  0.2275  0.3583 -0.2035
14098TIP3    H142237   6.182   6.465   5.211  0.3234  0.8670 -0.0780
14098TIP3    H242238   6.227   6.461   5.066  0.4591  0.5725 -0.0276
14099TIP3   OH242239   0.856   3.457   0.989 -0.3446  0.0212  0.1878
14099TIP3    H142240   0.843   3.540   0.943 -2.9544 -0.4261 -0.0173
14099TIP3    H242241   0.768   3.419   0.995  0.8100 -2.9002 -0.0171
14100TIP3   OH242242   0.402   1.215   2.889  0.3423  0.0056 -0.4262
14100TIP3    H142243   0.404   1.146   2.955 -0.1449 -1.5583 -1.9888
14100TIP3    H242244   0.370   1.292   2.937 -0.8907 -1.2977  0.9676
14101TIP3   OH242245   3.783   7.216   2.825  0.5758  0.0556  0.7537
14101TIP3    H142246   3.863   7.164   2.817  0.6342  0.2223  0.2022
14101TIP3    H242247   3.796   7.289   2.764  1.2509  1.6692  2.7214
14102TIP3   OH242248   6.077   7.700   1.322 -0.3672 -0.1606  0.0484
14102TIP3    H142249   6.127   7.776   1.290 -0.3309 -1.1575 -2.4819
14102TIP3    H242250   6.139   7.627   1.318 -0.7096 -0.5660  1.4589
14103TIP3   OH242251   1.525   2.148   0.845 -0.2348  0.3663 -0.2547
14103TIP3    H142252   1.550   2.239   0.829  1.4855 -0.2909 -1.6408
14103TIP3    H242253   1.449   2.134   0.788 -0.0599  0.7362 -0.5853
14104TIP3   OH242254   1.016   1.172   2.488  0.0637  0.2859 -0.2118
14104TIP3    H142255   1.110   1.179   2.500  0.1080  0.0326 -0.3994
14104TIP3    H242256   0.979   1.187   2.575  0.1700  2.2007 -0.4559
14105TIP3   OH242257   7.026   1.465   0.189  0.2701  0.4346 -0.0796
14105TIP3    H142258   7.078   1.534   0.149  1.7719 -1.2075 -1.0887
14105TIP3    H242259   7.081   1.387   0.183 -0.4617 -0.4387  2.9784
14106TIP3   OH242260   8.137   3.079   2.869  0.2024 -0.2013  0.8591
14106TIP3    H142261   8.124   3.020   2.795 -2.3221 -1.8009  2.4278
14106TIP3    H242262   8.209   3.040   2.918  0.5844 -0.2286  0.2847
14107TIP3   OH242263   2.215   5.333   6.044  0.0532  0.8410  0.4707
14107TIP3    H142264   2.250   5.298   6.127  1.4046  0.4592 -0.2242
14107TIP3    H242265   2.226   5.427   6.052  0.5981  0.7765  0.5575
14108TIP3   OH242266   7.065   7.384   1.010 -0.8571 -0.1607 -0.1416
14108TIP3    H142267   7.064   7.465   0.959  0.0156  0.0380  0.1399
14108TIP3    H242268   7.156   7.356   1.008 -0.9363 -0.5092  0.7489
14109TIP3   OH242269   0.101   1.691   3.518  0.3563 -0.4216 -0.4075
14109TIP3    H142270   0.162   1.764   3.510  0.8280 -0.9398 -1.7538
14109TIP3    H242271   0.014   1.730   3.511  0.6147 -0.0525 -1.9284
14110TIP3   OH242272   0.972   4.237   2.107  0.1699 -0.6021  0.3865
14110TIP3    H142273   1.058   4.222   2.068  0.7174  0.9598  0.9092
14110TIP3    H242274   0.958   4.332   2.099 -0.4459 -0.4707  2.3752
14111TIP3   OH242275   5.511   2.843   2.851 -0.4609  0.2563  0.3551
14111TIP3    H142276   5.488   2.797   2.770  0.7142 -0.6271  0.4891
14111TIP3    H242277   5.497   2.935   2.832  1.4481  0.2299 -1.4630
14112TIP3   OH242278   8.021   1.432   5.589  0.4321  0.1944  0.0502
14112TIP3    H142279   7.929   1.446   5.567  0.4523  0.2120 -0.0253
14112TIP3    H242280   8.029   1.337   5.602 -0.0760  0.4164  2.2651
14113TIP3   OH242281   5.038   1.195   0.016 -0.1408  0.3844 -0.7066
14113TIP3    H142282   4.966   1.227   0.070 -0.1356  0.4413 -0.7335
14113TIP3    H242283   5.115   1.202   0.073 -0.6175 -2.6860  0.4821
14114TIP3   OH242284   4.489   5.150   2.108 -0.6497  0.1723 -0.4268
14114TIP3    H142285   4.503   5.107   2.024  1.5448 -1.1102  0.5074
14114TIP3    H242286   4.566   5.204   2.121 -1.7243  1.6486  0.0478
14115TIP3   OH242287   0.432   4.589   1.972  0.1433 -0.0626 -0.2397
14115TIP3    H142288   0.380   4.512   1.952  0.4714 -1.4007  3.2623
14115TIP3    H242289   0.368   4.656   1.997 -0.0603  0.3129 -1.6693
14116TIP3   OH242290   3.586   5.534   2.235  0.5121 -0.1330  0.1058
14116TIP3    H142291   3.584   5.438   2.246 -2.2309 -0.2529 -0.7336
14116TIP3    H242292   3.569   5.547   2.142 -0.5410  1.1846  0.4632
14117TIP3   OH242293   1.475   3.321   6.589  1.0450 -0.1162 -0.2979
14117TIP3    H142294   1.532   3.255   6.549  0.1451 -0.7687 -0.5349
14117TIP3    H242295   1.492   3.313   6.683  0.8386 -0.7999 -0.3141
14118TIP3   OH242296   1.880   6.190   2.267  0.2367 -0.2803  0.4269
14118TIP3    H142297   1.810   6.231   2.216 -0.0872 -0.5095  0.6821
14118TIP3    H242298   1.952   6.253   2.266 -0.6623  0.8230  1.8210
14119TIP3   OH242299   5.412   3.915   5.692 -0.0557 -0.5923  0.0469
14119TIP3    H142300   5.455   3.924   5.606  0.2981 -0.8371  0.1935
14119TIP3    H242301   5.386   4.004   5.716 -1.2164 -0.6678 -0.8520
14120TIP3   OH242302   0.570   2.456   4.246 -0.2995  0.1122  0.7527
14120TIP3    H142303   0.572   2.483   4.338 -1.9805  0.0560  0.8393
14120TIP3    H242304   0.548   2.363   4.248 -1.5873  0.3896  0.2785
14121TIP3   OH242305   1.839   5.092   6.490 -0.9508 -0.1811  0.5371
14121TIP3    H142306   1.753   5.101   6.448 -1.7887 -0.9865  1.9899
14121TIP3    H242307   1.872   5.182   6.497 -1.9098  0.1905  0.4191
14122TIP3   OH242308   4.856   1.870   5.689  0.1962 -0.0954  0.2149
14122TIP3    H142309   4.861   1.854   5.595  1.5917 -2.1036  0.5686
14122TIP3    H242310   4.847   1.965   5.697  0.8140  0.1881 -1.9133
14123TIP3   OH242311   1.237   3.133   5.200 -0.2159 -0.4066  0.1557
14123TIP3    H142312   1.201   3.220   5.181 -0.8230 -0.8572 -0.7925
14123TIP3    H242313   1.232   3.126   5.295 -2.8814 -0.5400  0.0679
14124TIP3   OH242314   5.153   2.846   0.053 -0.1775 -0.0164  0.1877
14124TIP3    H142315   5.216   2.778   0.077 -0.1162 -1.4162 -3.3149
14124TIP3    H242316   5.202   2.928   0.058  0.7777 -0.6223  1.1174
14125TIP3   OH242317   3.787   2.734   1.039 -0.2007 -0.1960  0.0051
14125TIP3    H142318   3.714   2.742   1.101  0.1084 -0.0929  0.3635
14125TIP3    H242319   3.759   2.781   0.961  0.1643  1.3666  0.7649
14126TIP3   OH242320   0.206   5.509   3.022 -0.0512  0.1253  0.0621
14126TIP3    H142321   0.273   5.543   2.962 -0.3714 -0.4348 -0.6320
14126TIP3    H242322   0.251   5.499   3.106  0.8162 -0.4869 -0.4607
14127TIP3   OH242323   0.351   3.925   1.190 -0.3799  0.0755  0.9134
14127TIP3    H142324   0.262   3.892   1.191 -0.0402 -1.3812 -2.3021
14127TIP3    H242325   0.353   3.987   1.117  1.4898 -1.0354 -0.0898
14128TIP3   OH242326   3.748   6.087   4.886 -0.2007  0.2392  0.2868
14128TIP3    H142327   3.791   6.169   4.860 -0.1481 -0.1711 -0.9840
14128TIP3    H242328   3.664   6.115   4.923 -1.1211  0.8148 -2.0380
14129TIP3   OH242329   7.946   1.894   0.669 -0.1118 -0.8189 -0.0024
14129TIP3    H142330   7.918   1.828   0.733  0.3882 -0.4885  0.5713
14129TIP3    H242331   8.036   1.914   0.694 -1.3503  2.8089  2.2317
14130TIP3   OH242332   7.084   0.473   0.838  0.5948 -0.3627 -0.6887
14130TIP3    H142333   7.035   0.450   0.917 -0.6915  1.1458 -1.0090
14130TIP3    H242334   7.098   0.567   0.845  0.9198 -0.2957 -2.0077
14131TIP3   OH242335   0.919   2.428   3.573  0.1176  0.3918  0.0577
14131TIP3    H142336   0.929   2.384   3.488 -0.2721 -0.2056  0.3070
14131TIP3    H242337   0.856   2.498   3.556 -1.2483 -0.7600  0.1957
14132TIP3   OH242338   5.828   0.280   5.679  0.4836 -0.3420 -0.0477
14132TIP3    H142339   5.833   0.372   5.704 -0.9705 -0.1716 -0.3175
14132TIP3    H242340   5.909   0.264   5.631  0.8447  0.7304  0.1711
14133TIP3   OH242341   5.692   4.296   0.990 -0.1490  0.4106  0.1857
14133TIP3    H142342   5.597   4.307   0.987 -0.1370  0.3930 -0.3062
14133TIP3    H242343   5.707   4.208   0.956  0.0329  0.3351  0.4526
14134TIP3   OH242344   3.520   4.582   3.164 -0.3870  0.3111 -0.1912
14134TIP3    H142345   3.476   4.666   3.182 -2.9870 -0.5742 -1.8382
14134TIP3    H242346   3.564   4.596   3.080 -0.3433  0.1910 -0.1877
14135TIP3   OH242347   6.795   5.727   4.528  0.2666 -0.1082 -0.7970
14135TIP3    H142348   6.808   5.813   4.488 -1.2485  0.6270  0.1889
14135TIP3    H242349   6.824   5.665   4.462  2.1628  1.1494 -1.2445
14136TIP3   OH242350   4.615   6.269   2.932  0.2049  0.0335  0.0596
14136TIP3    H142351   4.645   6.203   2.870 -2.5950 -0.6472 -0.7159
14136TIP3    H242352   4.540   6.228   2.975 -0.5992  2.1272  0.7385
14137TIP3   OH242353   6.049   0.661   0.864 -0.4408 -0.6110 -0.0502
14137TIP3    H142354   6.067   0.576   0.905  0.4454  0.6103  2.2749
14137TIP3    H242355   6.135   0.693   0.837 -0.4162  0.5646  1.3125
14138TIP3   OH242356   5.997   7.735   6.761 -0.5226 -0.4622  0.7357
14138TIP3    H142357   5.974   7.657   6.710 -2.1553  0.8240 -0.5767
14138TIP3    H242358   5.914   7.779   6.778  0.2219  0.2805  2.6962
14139TIP3   OH242359   7.422   1.067   4.127 -0.2071 -1.1862  0.2380
14139TIP3    H142360   7.366   1.142   4.144 -0.1209 -1.2509  0.8243
14139TIP3    H242361   7.500   1.104   4.084 -0.2211 -0.9602  0.4096
14140TIP3   OH242362   2.760   0.779   1.001 -0.2061  0.1073 -0.2410
14140TIP3    H142363   2.781   0.752   0.911 -0.1198  1.7402 -0.7445
14140TIP3    H242364   2.834   0.749   1.053 -0.0440 -0.4749 -0.7928
14141TIP3   OH242365   3.931   6.893   1.118 -0.0266  0.2209 -0.1629
14141TIP3    H142366   3.874   6.953   1.167 -1.4172 -0.5303 -0.7996
14141TIP3    H242367   3.973   6.839   1.185 -1.0018 -0.0239  0.2579
14142TIP3   OH242368   0.212   5.866   2.572 -0.3421 -0.4894 -0.7086
14142TIP3    H142369   0.205   5.926   2.498  1.0041  0.2127 -0.3112
14142TIP3    H242370   0.129   5.876   2.620 -0.0790  1.2288 -0.5466
14143TIP3   OH242371   0.201   2.907   2.411 -0.1866  0.1950 -0.4278
14143TIP3    H142372   0.192   2.937   2.321 -0.3565 -0.2932 -0.5765
14143TIP3    H242373   0.295   2.890   2.422 -0.1471  0.3926 -0.4690
14144TIP3   OH242374   1.024   3.184   2.482  0.0174 -0.5666 -0.1546
14144TIP3    H142375   0.972   3.264   2.468 -2.0858 -1.5876  1.3170
14144TIP3    H242376   1.109   3.204   2.444 -0.3844  2.4334  0.2982
14145TIP3   OH242377   3.231   3.359   4.031  0.6132  0.3214 -0.2654
14145TIP3    H142378   3.162   3.313   4.078  2.8523 -0.6706  2.3313
14145TIP3    H242379   3.240   3.311   3.949 -0.7830 -0.4046 -0.0228
14146TIP3   OH242380   3.875   1.362  -0.012  0.1971 -0.1189  0.4749
14146TIP3    H142381   3.848   1.270  -0.009  1.0021 -0.3426  0.9497
14146TIP3    H242382   3.822   1.405   0.056 -0.5236 -0.1212 -0.0649
14147TIP3   OH242383   2.864   0.831   4.822  0.3168  0.2608  0.4258
14147TIP3    H142384   2.792   0.834   4.759  1.6197  1.4347 -1.0770
14147TIP3    H242385   2.892   0.739   4.822 -0.2262  0.0870 -0.0721
14148TIP3   OH242386   3.893   0.772   6.597 -0.1103  0.4176  0.1629
14148TIP3    H142387   3.830   0.703   6.619  1.9581 -1.4838  0.4588
14148TIP3    H242388   3.881   0.838   6.666 -2.6700  0.8245 -0.5568
14149TIP3   OH242389   6.282   0.395   5.259  0.0142 -0.0803  0.7521
14149TIP3    H142390   6.205   0.381   5.203  0.1761 -0.3473  0.5930
14149TIP3    H242391   6.319   0.477   5.228 -0.6301  0.4376  1.3266
14150TIP3   OH242392   0.067   3.932   6.410 -0.1254 -0.1744 -0.1436
14150TIP3    H142393  -0.011   3.952   6.359 -1.0450 -0.5796  1.0610
14150TIP3    H242394   0.116   4.014   6.412 -1.6739  0.7897  1.0258
14151TIP3   OH242395   3.104   4.150   1.952  0.5672  0.6480 -0.2095
14151TIP3    H142396   3.117   4.134   2.045  1.4411 -0.1370 -0.4553
14151TIP3    H242397   3.190   4.175   1.919  0.3502  0.5566 -0.8692
14152TIP3   OH242398   0.423   2.332   1.221 -0.4054  0.9426  0.3476
14152TIP3    H142399   0.469   2.282   1.154 -0.0964  0.3160  1.0131
14152TIP3    H242400   0.460   2.302   1.303 -1.3680  1.0939  0.8544
14153TIP3   OH242401   4.525   3.580   5.551  0.7845  0.2340 -0.5165
14153TIP3    H142402   4.528   3.671   5.581 -1.2284  0.3023 -0.3951
14153TIP3    H242403   4.539   3.528   5.629  0.1241  0.4420 -0.2549
14154TIP3   OH242404   3.551   3.323   3.975 -0.4199  0.0662  0.2889
14154TIP3    H142405   3.507   3.269   4.040 -0.9563 -1.1263 -0.9962
14154TIP3    H242406   3.589   3.259   3.914 -0.0399  1.1354 -0.6266
14155TIP3   OH242407   8.234   6.345   2.551 -0.0567 -0.0262 -0.2752
14155TIP3    H142408   8.219   6.397   2.471 -1.3201  0.5741  0.3289
14155TIP3    H242409   8.187   6.264   2.536  0.9412 -0.5387 -0.7320
14156TIP3   OH242410   5.346   1.957   6.552  0.2996  0.3265 -0.3443
14156TIP3    H142411   5.382   1.995   6.632 -1.4072  0.5806  0.3529
14156TIP3    H242412   5.273   2.015   6.528 -0.5102 -0.8788 -0.9139
14157TIP3   OH242413   2.633   6.947   0.876 -0.1100  0.9256  0.2356
14157TIP3    H142414   2.607   6.998   0.953 -2.2342  0.7252 -0.2841
14157TIP3    H242415   2.553   6.903   0.848  0.8969 -0.0008 -1.3723
14158TIP3   OH242416   0.656   1.605   3.448 -0.7996  0.7472  0.2112
14158TIP3    H142417   0.617   1.541   3.389 -0.0631  1.7949 -1.4600
14158TIP3    H242418   0.743   1.622   3.412 -0.1090  1.0491  1.8942
14159TIP3   OH242419   7.564   4.412   4.932 -0.2647 -0.1835  0.2036
14159TIP3    H142420   7.520   4.489   4.898 -0.0792  0.1104  0.6194
14159TIP3    H242421   7.657   4.437   4.935 -0.1032 -0.6807 -0.3601
14160TIP3   OH242422   1.859   1.345   2.811  0.5607 -0.0756 -0.2879
14160TIP3    H142423   1.934   1.302   2.852  0.1066 -0.4084  0.2101
14160TIP3    H242424   1.889   1.368   2.723  1.2259 -0.2552 -0.1114
14161TIP3   OH242425   1.036   7.463   5.721 -0.1283  0.1864 -0.1389
14161TIP3    H142426   1.047   7.558   5.722  1.6464  0.0186 -0.5018
14161TIP3    H242427   1.012   7.441   5.811 -3.5084  1.2133 -0.6470
14162TIP3   OH242428   8.158   2.717   6.340  0.1491  0.1061 -0.2524
14162TIP3    H142429   8.200   2.633   6.357  0.4300  0.5331  1.3200
14162TIP3    H242430   8.068   2.695   6.316  0.4839 -0.6770 -0.7997
14163TIP3   OH242431   5.893   2.686   4.238  0.3043  0.2173 -0.1646
14163TIP3    H142432   5.968   2.639   4.202  0.7784  0.8175  0.0204
14163TIP3    H242433   5.818   2.653   4.189  0.5189 -1.2635  0.4439
14164TIP3   OH242434   7.481   0.684   4.410  0.1849 -0.0977  0.6009
14164TIP3    H142435   7.389   0.704   4.396  0.6459  1.5695 -0.2512
14164TIP3    H242436   7.529   0.752   4.362  1.8903 -2.2649 -0.9752
14165TIP3   OH242437   6.738   7.015   5.960  0.3360  0.0853  0.1818
14165TIP3    H142438   6.725   6.920   5.961  0.0622  0.1241  1.2738
14165TIP3    H242439   6.649   7.052   5.954  0.3863  0.2790  0.6012
14166TIP3   OH242440   2.691   2.017   6.111 -0.2036 -0.0324  0.0398
14166TIP3    H142441   2.708   2.093   6.167 -2.4670 -0.9949  2.2052
14166TIP3    H242442   2.737   1.945   6.154 -0.3581 -0.4259 -0.4479
14167TIP3   OH242443   2.211   3.692   4.550 -0.4038 -0.1028  0.1023
14167TIP3    H142444   2.233   3.778   4.585 -1.9115 -0.3562  1.7812
14167TIP3    H242445   2.260   3.631   4.605 -2.5066 -0.4861  1.6565
14168TIP3   OH242446   1.003   6.882   3.099 -0.3957  0.2243 -0.2031
14168TIP3    H142447   1.067   6.940   3.058  0.5376 -0.0510  0.8048
14168TIP3    H242448   0.919   6.924   3.084  0.0374  0.6725 -1.4317
14169TIP3   OH242449   0.590   5.343   4.173  0.1178 -0.0003  0.0186
14169TIP3    H142450   0.597   5.364   4.266  1.5668 -0.9602  0.1600
14169TIP3    H242451   0.589   5.427   4.128  0.0890  0.4488  0.8584
14170TIP3   OH242452   6.452   1.729   0.571  0.1299 -0.1558 -0.3834
14170TIP3    H142453   6.462   1.824   0.579 -0.3437 -0.1766  0.6252
14170TIP3    H242454   6.423   1.700   0.657 -1.2840 -1.0173 -1.0983
14171TIP3   OH242455   1.249   0.780   6.698  0.1052  0.1987 -0.3252
14171TIP3    H142456   1.337   0.815   6.717 -1.2120  3.6409  0.1959
14171TIP3    H242457   1.224   0.822   6.615 -1.9542  1.3576  0.8033
14172TIP3   OH242458   7.561   0.947   4.305 -0.2717 -0.2204  0.2771
14172TIP3    H142459   7.500   0.974   4.236 -0.2428 -2.2696 -0.6256
14172TIP3    H242460   7.643   0.992   4.283 -0.7928  0.6650  0.1062
14173TIP3   OH242461   5.590   3.486   2.817  0.2214 -0.3419 -0.1902
14173TIP3    H142462   5.674   3.449   2.789  1.1394  0.9815  0.7337
14173TIP3    H242463   5.592   3.482   2.913  0.1397  1.5884 -0.0696
14174TIP3   OH242464   3.987   1.296   3.534 -0.2120  0.2702  0.4954
14174TIP3    H142465   3.992   1.349   3.614  0.3014  2.7397 -1.0622
14174TIP3    H242466   3.954   1.356   3.467  2.0532 -0.8506 -1.8147
14175TIP3   OH242467   6.984   4.727   3.734 -0.0357 -0.6233 -0.0722
14175TIP3    H142468   7.063   4.682   3.763 -0.5238 -0.6820  1.2369
14175TIP3    H242469   6.983   4.809   3.783 -0.5728 -0.4304 -0.3879
14176TIP3   OH242470   7.702   7.472   6.069 -0.1711  0.1167 -0.2591
14176TIP3    H142471   7.688   7.548   6.126 -0.3250 -0.2288  0.1623
14176TIP3    H242472   7.620   7.462   6.022  0.1464  0.7587 -0.9853
14177TIP3   OH242473   4.209   7.808   0.576 -0.2280  0.6687 -0.5247
14177TIP3    H142474   4.201   7.852   0.492 -0.3143 -0.0986 -0.9288
14177TIP3    H242475   4.120   7.781   0.598  0.1108 -1.4439 -1.4847
14178TIP3   OH242476   7.797   7.649   0.834  0.0022  0.0246  0.3624
14178TIP3    H142477   7.724   7.653   0.773  0.0961  1.0317  0.2866
14178TIP3    H242478   7.756   7.645   0.920 -0.1347 -0.3827  0.2797
14179TIP3   OH242479   8.209   4.098   1.113 -0.7480  0.3523 -0.7333
14179TIP3    H142480   8.220   4.059   1.200 -2.2396  1.8115  0.1616
14179TIP3    H242481   8.127   4.061   1.081 -2.1395  2.5702  0.0881
14180TIP3   OH242482   5.347   4.198   2.255  0.5749  0.3089  0.2074
14180TIP3    H142483   5.386   4.244   2.180  0.5978 -1.3216 -0.8328
14180TIP3    H242484   5.292   4.130   2.216  0.3015 -0.3550  1.6746
14181TIP3   OH242485   1.721   3.510   2.312  0.4159 -0.6951  0.3675
14181TIP3    H142486   1.710   3.530   2.219 -1.1479  0.5720  0.7702
14181TIP3    H242487   1.769   3.585   2.347 -2.1139  0.6793  1.1749
14182TIP3   OH242488   3.109   7.608   3.752 -0.2883  0.3244  0.0334
14182TIP3    H142489   3.135   7.615   3.660 -2.3265  1.2598 -0.5160
14182TIP3    H242490   3.059   7.688   3.769 -3.3180 -1.5705  0.8137
14183TIP3   OH242491   1.264   3.118   3.500  0.4774 -0.4648  0.0037
14183TIP3    H142492   1.219   3.116   3.416 -0.2519  3.1646  0.1485
14183TIP3    H242493   1.196   3.098   3.564  0.6445 -1.5514 -0.1467
14184TIP3   OH242494   3.450   5.333   1.682 -1.2044  0.0940 -0.4868
14184TIP3    H142495   3.442   5.427   1.668  1.7474  0.6141  0.5622
14184TIP3    H242496   3.533   5.310   1.639  0.1388 -1.2019  2.5521
14185TIP3   OH242497   3.006   5.034   4.326 -0.5430  0.3311  0.5105
14185TIP3    H142498   3.051   5.082   4.257 -2.3692  0.2040 -0.8331
14185TIP3    H242499   2.914   5.035   4.300 -1.1234 -0.7336  2.3538
14186TIP3   OH242500   0.505   1.786   2.989  0.1285  0.2611  0.9723
14186TIP3    H142501   0.429   1.757   2.939  1.3543 -0.0516 -0.8402
14186TIP3    H242502   0.477   1.867   3.031 -1.3361 -0.0979  0.7376
14187TIP3   OH242503   4.020   0.597   0.654  0.0483 -0.1763 -0.5608
14187TIP3    H142504   4.072   0.520   0.631 -0.3525 -0.4325 -0.6171
14187TIP3    H242505   3.930   0.571   0.637 -0.5428 -1.1336  3.2225
14188TIP3   OH242506   0.954   1.024   2.278 -0.5083  0.3474  0.0999
14188TIP3    H142507   0.989   1.078   2.349 -0.9930  0.3564  0.3347
14188TIP3    H242508   0.906   0.953   2.322 -1.3529  0.7080 -0.2133
14189TIP3   OH242509   3.592   5.175   5.338  0.0342  0.2075  0.0331
14189TIP3    H142510   3.607   5.135   5.423 -0.0318  1.2608  0.5561
14189TIP3    H242511   3.672   5.225   5.320 -0.6813  1.5367  0.3803
14190TIP3   OH242512   0.775   1.271   6.206 -0.2054 -0.0563  0.2610
14190TIP3    H142513   0.779   1.175   6.205  1.0491 -0.0210 -0.0037
14190TIP3    H242514   0.832   1.297   6.279 -2.7063  0.4475  2.1617
14191TIP3   OH242515   1.488   1.300   6.183  0.1254 -0.0918 -0.0655
14191TIP3    H142516   1.400   1.280   6.215  0.1906 -1.9037 -0.8825
14191TIP3    H242517   1.474   1.362   6.112 -0.2045  1.9892  1.6953
14192TIP3   OH242518   3.739   0.885   1.399  0.1673 -0.1228 -0.0096
14192TIP3    H142519   3.784   0.816   1.448  0.7499  0.6168  0.5113
14192TIP3    H242520   3.785   0.966   1.422 -1.1045  0.5865  0.1372
14193TIP3   OH242521   5.883   0.727   0.148 -0.3283  0.5138  0.0372
14193TIP3    H142522   5.840   0.766   0.072 -0.6778 -1.4152 -0.8130
14193TIP3    H242523   5.814   0.677   0.192  0.5736 -1.0072 -0.2167
14194TIP3   OH242524   5.943   1.756   2.005  0.1289  0.0145 -0.4448
14194TIP3    H142525   5.872   1.705   1.966 -1.3368  1.0161  0.8180
14194TIP3    H242526   5.956   1.716   2.091  2.1867 -1.1074 -1.1962
14195TIP3   OH242527   0.377   5.362   3.614  0.2595 -0.0413  0.0308
14195TIP3    H142528   0.382   5.376   3.709 -0.6967 -1.0650  0.2540
14195TIP3    H242529   0.293   5.319   3.601  0.2836  0.2892 -1.3210
14196TIP3   OH242530   5.956   0.997   6.477 -0.1863  0.1561  0.2711
14196TIP3    H142531   6.029   1.055   6.501 -0.2856  0.6005 -0.4471
14196TIP3    H242532   5.899   1.052   6.423 -1.4287  0.0112  1.3984
14197TIP3   OH242533   1.628   6.934   6.229 -0.2877  0.1846 -0.5080
14197TIP3    H142534   1.721   6.920   6.213 -0.0860  2.1552 -1.2890
14197TIP3    H242535   1.586   6.854   6.197  1.0586 -0.4342 -0.8140
14198TIP3   OH242536   6.399   4.722   6.490 -0.6289  0.1025 -0.5975
14198TIP3    H142537   6.447   4.736   6.572 -1.6228  0.7666 -0.1101
14198TIP3    H242538   6.427   4.635   6.461 -0.3244 -0.1819  0.4990
14199TIP3   OH242539   5.344  -0.017   0.265 -0.2915  0.1807  0.0240
14199TIP3    H142540   5.277   0.009   0.201 -1.1142 -1.1276  0.3199
14199TIP3    H242541   5.319   0.027   0.346 -0.8926 -0.4537  0.1798
14200TIP3   OH242542   1.773   5.468   1.785  0.3395  0.4646  0.2463
14200TIP3    H142543   1.812   5.398   1.731 -1.3994  0.2038 -0.7428
14200TIP3    H242544   1.828   5.471   1.863  0.9831 -1.4226 -0.0765
14201TIP3   OH242545   1.553   4.878   6.088 -0.0967 -0.4396 -0.2858
14201TIP3    H142546   1.642   4.898   6.057  0.4059  0.1499  1.4434
14201TIP3    H242547   1.559   4.885   6.183 -2.0614 -0.1737 -0.1551
14202TIP3   OH242548   1.997   4.001   4.740 -0.3485 -0.2558  0.0711
14202TIP3    H142549   1.917   3.970   4.781 -0.3582  1.3670  1.3703
14202TIP3    H242550   1.977   4.003   4.646 -1.9401  0.4159  0.3977
14203TIP3   OH242551   5.000   2.804   1.522  0.4034  0.3675  0.2515
14203TIP3    H142552   5.088   2.792   1.485  0.6646  2.0481  0.2389
14203TIP3    H242553   4.973   2.890   1.490 -1.1322  0.0113  0.5184
14204TIP3   OH242554   6.164   2.839   2.797  0.5249  0.2012  0.1886
14204TIP3    H142555   6.237   2.796   2.843  0.7234  1.0204  0.6600
14204TIP3    H242556   6.131   2.772   2.737  0.0770 -1.0199  1.7121
14205TIP3   OH242557   2.115   5.944   3.709 -0.3376  0.0329  0.2525
14205TIP3    H142558   2.198   5.983   3.683 -0.2036  0.6109  1.4908
14205TIP3    H242559   2.129   5.850   3.698  0.5992  0.0999  0.7465
14206TIP3   OH242560   5.869   1.285   2.356  0.0539 -0.4624 -0.0211
14206TIP3    H142561   5.867   1.371   2.397 -2.5831 -0.4881  0.0586
14206TIP3    H242562   5.905   1.227   2.424 -2.1560 -0.1258  1.5339
14207TIP3   OH242563   6.120   5.253   6.574 -0.2106  0.4507 -0.5983
14207TIP3    H142564   6.175   5.235   6.498  0.6652  2.2244 -0.4332
14207TIP3    H242565   6.108   5.168   6.616  0.5808 -0.3053 -1.8459
14208TIP3   OH242566   0.095   1.733   1.896 -0.0914 -0.2030  0.6843
14208TIP3    H142567   0.099   1.653   1.948  1.2472  0.3359  1.4588
14208TIP3    H242568   0.006   1.765   1.908  0.4506  0.4849  3.5849
14209TIP3   OH242569   6.596   7.208   0.657 -0.4895  0.4230 -0.1046
14209TIP3    H142570   6.619   7.120   0.627 -1.7886 -0.0857  0.3019
14209TIP3    H242571   6.638   7.266   0.594  2.0051 -0.3784  0.6868
14210TIP3   OH242572   2.343   6.049   3.093  0.4543 -0.3187 -0.1963
14210TIP3    H142573   2.313   5.989   3.025  1.4544 -1.7313  0.5761
14210TIP3    H242574   2.263   6.078   3.136 -0.1076 -0.2519 -1.2426
14211TIP3   OH242575   7.447   7.265   4.010  0.1296 -0.2786  0.0111
14211TIP3    H142576   7.518   7.234   3.955 -1.7288 -0.7915 -2.2386
14211TIP3    H242577   7.402   7.185   4.037  0.1282  0.0655  1.0721
14212TIP3   OH242578   4.591   4.661   0.793 -0.2792  0.3752  0.9247
14212TIP3    H142579   4.592   4.744   0.747 -0.7259 -0.9811 -1.7284
14212TIP3    H242580   4.498   4.645   0.810 -0.4060 -0.4411 -0.3750
14213TIP3   OH242581   6.735   5.586   2.574 -0.1661  0.2543  0.4418
14213TIP3    H142582   6.735   5.505   2.524 -0.2036  0.7785 -0.4386
14213TIP3    H242583   6.671   5.642   2.528 -0.1904  0.7530  1.0712
14214TIP3   OH242584   4.961   1.240   1.980 -0.4613 -0.1651 -0.3271
14214TIP3    H142585   4.981   1.201   2.065  1.3050 -1.3119 -1.1973
14214TIP3    H242586   4.950   1.165   1.921 -0.3559  0.6084 -1.3640
14215TIP3   OH242587   4.139   7.354   3.798 -0.0968  0.1986 -0.0766
14215TIP3    H142588   4.156   7.263   3.775 -0.0066  0.4826 -1.2026
14215TIP3    H242589   4.213   7.403   3.761  0.5185  0.6008  1.6145
14216TIP3   OH242590   5.649   3.414   2.323  0.4570  0.5561 -0.4011
14216TIP3    H142591   5.613   3.350   2.385 -0.1429 -0.0094 -1.3086
14216TIP3    H242592   5.631   3.376   2.237 -0.3812  2.1850 -0.9886
14217TIP3   OH242593   6.334   3.696   5.972  0.5296  0.5822 -0.3170
14217TIP3    H142594   6.299   3.772   6.020 -2.9114  0.0016 -1.6873
14217TIP3    H242595   6.264   3.671   5.912  1.9479 -3.0752 -0.6582
14218TIP3   OH242596   8.103   1.942   6.675 -0.6658  0.2246 -0.1211
14218TIP3    H142597   8.032   1.979   6.622  1.1162  2.4417 -1.0920
14218TIP3    H242598   8.132   1.865   6.626 -0.6713  0.8275 -1.0898
14219TIP3   OH242599   8.261   3.362   6.289 -0.2811 -0.2183 -0.0698
14219TIP3    H142600   8.213   3.300   6.235 -0.2680 -0.1339 -0.1783
14219TIP3    H242601   8.222   3.354   6.376 -1.5956  1.0004 -0.5025
14220TIP3   OH242602   2.908   0.582   1.655 -0.0584 -0.4726  0.3090
14220TIP3    H142603   2.908   0.678   1.652  2.9450 -0.3507 -2.8437
14220TIP3    H242604   2.968   0.561   1.726  1.0404  0.1191 -0.4085
14221TIP3   OH242605   2.231   0.573   6.363  0.0822  0.2027 -0.4146
14221TIP3    H142606   2.250   0.494   6.415  0.6759 -0.0138 -0.9569
14221TIP3    H242607   2.228   0.542   6.272 -0.4106  0.6788 -0.5699
14222TIP3   OH242608   7.390   2.753   6.157  0.3266 -0.0078 -0.3243
14222TIP3    H142609   7.438   2.811   6.098  0.6965  0.5967  0.5533
14222TIP3    H242610   7.452   2.683   6.177  0.8522  0.7252  0.7367
14223TIP3   OH242611   4.715   4.964   4.038 -0.0465  0.4764  0.0131
14223TIP3    H142612   4.645   5.020   4.003 -1.4417 -0.1727  1.5979
14223TIP3    H242613   4.741   5.007   4.120 -0.4034 -0.6072  0.7190
14224TIP3   OH242614   7.811   0.521   2.037  0.0774 -0.7141  0.5120
14224TIP3    H142615   7.724   0.561   2.044 -0.0628 -0.7306 -0.9891
14224TIP3    H242616   7.866   0.576   2.093 -0.3648  0.9353 -0.5894
14225TIP3   OH242617   4.344   0.572   2.819  0.0709  0.4555  0.2692
14225TIP3    H142618   4.263   0.608   2.853 -1.0349  0.0113 -1.7402
14225TIP3    H242619   4.349   0.604   2.728  2.3870  0.8469  0.4694
14226TIP3   OH242620   0.346   7.593   0.536  0.5890  0.5146 -0.1060
14226TIP3    H142621   0.420   7.628   0.584 -1.2253  2.1960  1.6769
14226TIP3    H242622   0.321   7.514   0.584  1.8815 -0.7616 -1.4274
14227TIP3   OH242623   4.096   4.432   3.008 -0.0526  0.0568  0.1183
14227TIP3    H142624   4.034   4.377   2.961  1.7588 -3.2501  1.2052
14227TIP3    H242625   4.042   4.495   3.056 -2.3108 -0.8740 -1.0829
14228TIP3   OH242626   1.436   7.840   6.134  0.5584  0.3838  0.2473
14228TIP3    H142627   1.415   7.835   6.040 -0.8482 -1.8694  0.5888
14228TIP3    H242628   1.499   7.769   6.148  0.9946  0.9072  0.9639
14229TIP3   OH242629   4.484   0.532   1.015 -0.0528  0.2364  1.2513
14229TIP3    H142630   4.398   0.495   0.995  0.3068 -0.8952  1.6908
14229TIP3    H242631   4.525   0.467   1.073  0.9269  0.9655  1.4045
14230TIP3   OH242632   2.196   6.235   3.345 -0.0030 -0.2847 -0.6995
14230TIP3    H142633   2.129   6.293   3.309 -0.0678  1.2656  1.6750
14230TIP3    H242634   2.275   6.289   3.348  0.0575 -0.3979  1.0993
14231TIP3   OH242635   6.505   7.418   5.976 -0.6713  0.1244 -0.1331
14231TIP3    H142636   6.523   7.403   6.069  1.7593  1.7878 -0.2596
14231TIP3    H242637   6.589   7.407   5.933 -1.6660 -0.1619 -2.1003
14232TIP3   OH242638   1.187   6.018   3.106  0.5091 -0.3378 -0.3879
14232TIP3    H142639   1.258   6.005   3.043  0.1969 -1.0782 -0.6008
14232TIP3    H242640   1.182   5.935   3.154  0.9322  0.3123  0.8282
14233TIP3   OH242641   3.186   4.293   2.872 -0.6585  0.0699 -0.5885
14233TIP3    H142642   3.131   4.266   2.798  0.2662  3.4311 -2.7489
14233TIP3    H242643   3.272   4.309   2.832  0.6104 -0.4528  1.7819
14234TIP3   OH242644   2.964   4.406   2.974 -0.0836  0.3759 -0.0302
14234TIP3    H142645   3.050   4.372   2.950 -0.1604  0.0137  0.2057
14234TIP3    H242646   2.931   4.345   3.040  0.0134  1.2130  0.8044
14235TIP3   OH242647   2.199   6.283   3.649 -0.0325 -0.2612  0.5114
14235TIP3    H142648   2.253   6.211   3.617  1.4695  0.9857  0.1613
14235TIP3    H242649   2.148   6.311   3.572  1.3043  0.7158 -0.0557
14236TIP3   OH242650   1.154   0.920   3.806 -0.6874 -0.0482 -0.3673
14236TIP3    H142651   1.181   0.980   3.875 -0.7197  0.6561 -0.9466
14236TIP3    H242652   1.234   0.875   3.779 -0.8572 -1.1160  0.8516
14237TIP3   OH242653   8.190   5.697   3.214  0.2841  0.1045  0.3411
14237TIP3    H142654   8.123   5.764   3.199 -0.2104 -0.2143  1.1163
14237TIP3    H242655   8.190   5.646   3.133 -1.2708 -0.6448  0.7819
14238TIP3   OH242656   6.116   5.488   3.673 -0.2324 -0.2121  0.4353
14238TIP3    H142657   6.119   5.581   3.651  2.4017 -0.3164 -0.0069
14238TIP3    H242658   6.100   5.487   3.767 -0.9100  0.6700  0.3405
14239TIP3   OH242659   3.089   6.613   3.749  0.1109 -0.7315 -0.0634
14239TIP3    H142660   3.137   6.622   3.832  1.3865  0.1026 -0.8450
14239TIP3    H242661   3.079   6.519   3.737  0.1976 -0.8728  0.8776
14240TIP3   OH242662   5.966   7.684   6.156  0.1106 -0.1259  0.1156
14240TIP3    H142663   5.940   7.691   6.248  0.6511 -0.7232  0.3195
14240TIP3    H242664   5.982   7.775   6.128 -0.7546  0.1259  0.3929
14241TIP3   OH242665   3.718   1.160   4.541 -0.3946 -0.4527 -0.0256
14241TIP3    H142666   3.634   1.148   4.585  0.3198 -0.9345  1.2660
14241TIP3    H242667   3.703   1.131   4.452 -1.7062 -0.1380  0.0727
14242TIP3   OH242668   6.492   4.452   6.423  0.1400  0.5383 -0.1266
14242TIP3    H142669   6.528   4.446   6.334  1.5762  1.0373  0.3964
14242TIP3    H242670   6.415   4.395   6.421  1.1367 -0.8485 -1.2168
14243TIP3   OH242671   6.465   2.685   4.835 -0.1016  0.2711 -0.4244
14243TIP3    H142672   6.415   2.766   4.831  0.8852  0.8625 -1.4300
14243TIP3    H242673   6.413   2.627   4.890 -1.1304  1.3709 -0.2022
14244TIP3   OH242674   7.252   0.276   6.719 -0.6909  0.1601 -0.5480
14244TIP3    H142675   7.163   0.270   6.755 -1.1928 -0.0008 -1.7809
14244TIP3    H242676   7.301   0.209   6.767 -1.3560 -0.1045 -0.2201
14245TIP3   OH242677   2.927   1.429   4.340  0.5584  0.1398 -0.0185
14245TIP3    H142678   2.952   1.345   4.301  2.3223  0.7100 -0.1899
14245TIP3    H242679   3.004   1.456   4.390 -0.3628  1.1643  0.9037
14246TIP3   OH242680   5.695   2.167   0.022 -0.2352 -0.0558 -0.5314
14246TIP3    H142681   5.606   2.133   0.015  0.5805 -2.6059  0.3181
14246TIP3    H242682   5.709   2.179   0.116  0.2898  0.4152 -0.6633
14247TIP3   OH242683   8.276   4.479   3.214 -0.3789 -0.0001  0.0497
14247TIP3    H142684   8.268   4.545   3.144  2.2438  0.6761  0.2899
14247TIP3    H242685   8.281   4.530   3.294 -1.3336 -0.6881  0.5654
14248TIP3   OH242686   6.838   2.864   1.269 -0.2306 -0.5154  0.2464
14248TIP3    H142687   6.802   2.858   1.181  0.4801  0.5601 -0.1328
14248TIP3    H242688   6.821   2.953   1.297 -0.6159 -0.8981  1.2849
14249TIP3   OH242689   1.038   5.156   2.697 -0.4490 -0.3149  0.4970
14249TIP3    H142690   0.982   5.232   2.684  0.0421 -0.0520 -0.1637
14249TIP3    H242691   1.119   5.192   2.733 -0.5458 -0.6439  1.0580
14250TIP3   OH242692   5.708   0.730   4.005  0.1423  0.7377 -0.4889
14250TIP3    H142693   5.691   0.789   3.932  1.5242  2.3499  0.4181
14250TIP3    H242694   5.803   0.733   4.017 -0.0075  0.1722  1.0945
14251TIP3   OH242695   6.937   6.920   4.659 -0.0054  0.1962 -0.3257
14251TIP3    H142696   6.995   6.887   4.727  0.5155  0.4280 -0.6590
14251TIP3    H242697   6.898   6.999   4.697  1.3940  1.1553 -0.8348
14252TIP3   OH242698   3.271   1.326   1.153  0.2208 -0.0688 -0.4301
14252TIP3    H142699   3.239   1.271   1.081 -0.5147  1.1250 -1.0538
14252TIP3    H242700   3.358   1.291   1.172 -0.1475 -1.3297 -0.9076
14253TIP3   OH242701   6.107   6.924   1.221 -0.5895  0.1997 -0.3494
14253TIP3    H142702   6.067   6.856   1.167  1.8915 -0.5643 -1.3539
14253TIP3    H242703   6.160   6.975   1.160  1.2184  0.1680  1.1134
14254TIP3   OH242704   2.615   1.235   2.844  0.5686 -0.1140 -0.9396
14254TIP3    H142705   2.681   1.190   2.792  0.8800 -1.4254  0.5403
14254TIP3    H242706   2.538   1.178   2.841  0.6863 -0.3638  0.2556
14255TIP3   OH242707   2.921   2.757   2.729 -0.1843 -0.0140 -0.2257
14255TIP3    H142708   2.861   2.773   2.802 -0.8963  3.2625 -1.3600
14255TIP3    H242709   2.922   2.840   2.680  2.0542 -1.3178 -2.6377
14256TIP3   OH242710   8.239   7.164   6.083 -0.1370  0.8732  0.1041
14256TIP3    H142711   8.259   7.146   5.991 -0.3492  2.1301 -0.2168
14256TIP3    H242712   8.239   7.260   6.088 -0.8231  0.8229  1.2583
14257TIP3   OH242713   5.966   2.303   4.490 -0.6939 -0.2050 -0.0929
14257TIP3    H142714   5.926   2.388   4.469  1.1683  0.7176 -0.1956
14257TIP3    H242715   5.943   2.288   4.582 -1.4589  0.1812 -0.2168
14258TIP3   OH242716   7.088   7.737   2.974 -0.4278  0.0986 -0.4383
14258TIP3    H142717   7.016   7.800   2.977 -0.3553  0.1580  0.8175
14258TIP3    H242718   7.161   7.783   3.017 -0.2669 -0.6988  0.1593
14259TIP3   OH242719   8.268   2.600   2.960 -0.5013  0.3699  0.2040
14259TIP3    H142720   8.280   2.670   2.896 -2.1680  1.3517  0.8993
14259TIP3    H242721   8.177   2.607   2.987 -0.9651 -2.6048 -0.2787
14260TIP3   OH242722   6.407   4.606   2.070  0.2169 -0.0748 -0.2386
14260TIP3    H142723   6.322   4.567   2.090  0.6267 -1.2702 -0.7285
14260TIP3    H242724   6.412   4.683   2.127 -1.5159  0.4783 -0.7886
14261TIP3   OH242725   7.716   2.547   3.448 -0.1170  0.3548  0.0234
14261TIP3    H142726   7.723   2.620   3.509 -1.0704 -0.5912  1.3029
14261TIP3    H242727   7.681   2.586   3.368  1.1065  1.6046  0.0651
14262TIP3   OH242728   2.658   1.106   1.500  0.2923  0.4732  0.5413
14262TIP3    H142729   2.571   1.144   1.491 -1.4408 -3.3239 -0.9707
14262TIP3    H242730   2.699   1.121   1.414 -0.9457 -2.0167 -0.5752
14263TIP3   OH242731   8.263   2.141   4.198 -0.1822 -0.4884  0.1633
14263TIP3    H142732   8.199   2.165   4.131 -0.9726 -1.7663  0.4174
14263TIP3    H242733   8.251   2.046   4.209  0.2124 -0.3807  1.8118
14264TIP3   OH242734   7.039   2.384   6.032 -0.5136 -0.2178 -0.1241
14264TIP3    H142735   7.063   2.471   5.999 -2.0400  0.5171  0.6110
14264TIP3    H242736   6.958   2.362   5.985 -0.9873 -0.5396  0.8192
14265TIP3   OH242737   7.927   0.416   4.076  0.2515 -0.0367 -0.1535
14265TIP3    H142738   8.008   0.457   4.106 -0.2681  0.7972  0.1608
14265TIP3    H242739   7.858   0.466   4.120 -0.4416 -0.4902 -0.7090
14266TIP3   OH242740   5.086   1.605   2.420  0.2002  0.2528  0.2555
14266TIP3    H142741   5.127   1.612   2.334 -0.9585  0.9878 -0.2709
14266TIP3    H242742   5.158   1.589   2.480  1.0808  0.1375 -0.8004
14267TIP3   OH242743   0.179   4.901   4.033  0.1326 -0.1719 -0.8990
14267TIP3    H142744   0.233   4.980   4.039  0.1269 -0.2859  1.0105
14267TIP3    H242745   0.126   4.916   3.954  0.9620  1.1862 -1.2460
14268TIP3   OH242746   2.347   3.573   0.032 -0.1664 -0.0084  0.1578
14268TIP3    H142747   2.267   3.521   0.026  0.3903 -1.5155  3.5591
14268TIP3    H242748   2.418   3.511   0.019  0.5980  1.1999 -2.1465
14269TIP3   OH242749   3.722   7.685   2.049  0.2464  0.3758  0.2015
14269TIP3    H142750   3.738   7.726   2.134 -1.4423 -0.6419  1.0852
14269TIP3    H242751   3.801   7.703   1.998  1.8916 -0.0898  2.4155
14270TIP3   OH242752   3.211   5.495   5.557  0.6653  0.2074 -0.0195
14270TIP3    H142753   3.179   5.417   5.511  0.8169 -0.1197  0.4223
14270TIP3    H242754   3.207   5.471   5.650 -0.2865  1.0972  0.1912
14271TIP3   OH242755   3.732   7.147   5.868 -0.0406 -0.4965 -0.1589
14271TIP3    H142756   3.660   7.200   5.835 -1.7596 -1.5959  1.5742
14271TIP3    H242757   3.700   7.112   5.951  2.2687 -1.5673  0.3758
14272TIP3   OH242758   2.288   4.639   4.652  0.1495  0.2142 -0.2568
14272TIP3    H142759   2.271   4.618   4.744 -1.0114 -0.7345 -0.6646
14272TIP3    H242760   2.324   4.558   4.616 -0.0224  0.3753 -0.7976
14273TIP3   OH242761   6.262   0.113   3.188 -0.4305  0.2452 -0.3160
14273TIP3    H142762   6.283   0.094   3.280  1.8384 -0.9849 -1.0077
14273TIP3    H242763   6.271   0.208   3.181 -1.9562  0.5398  0.9775
14274TIP3   OH242764   6.321   5.868   4.014 -0.6987  0.7065 -0.1285
14274TIP3    H142765   6.336   5.953   3.973 -1.1782  1.0960  0.4734
14274TIP3    H242766   6.380   5.867   4.089 -1.5712  1.0366  0.5787
14275TIP3   OH242767   5.330   4.754   3.846  0.0012 -0.2519 -0.4259
14275TIP3    H142768   5.388   4.772   3.921  0.9857  0.0706 -1.2415
14275TIP3    H242769   5.389   4.727   3.776 -0.8094  0.2825 -1.3460
14276TIP3   OH242770   3.930   6.089   5.428 -0.3334 -0.0142  0.7197
14276TIP3    H142771   3.908   6.085   5.335  0.7635 -0.6808  0.4771
14276TIP3    H242772   3.851   6.060   5.473 -1.0733  0.8667  0.0385
14277TIP3   OH242773   2.590   2.957   3.085  0.0228 -0.7728  0.3137
14277TIP3    H142774   2.514   2.898   3.091 -0.0239 -0.8405 -0.7431
14277TIP3    H242775   2.556   3.042   3.113 -0.6118 -0.6673 -0.7309
14278TIP3   OH242776   0.989   3.099   2.753  0.3424 -0.0845 -0.1915
14278TIP3    H142777   1.037   3.145   2.684  0.1615 -1.3203 -1.1645
14278TIP3    H242778   0.908   3.150   2.763  0.6090  0.4151 -0.5032
14279TIP3   OH242779   3.445   4.465   6.426  0.6192 -0.1005 -0.8842
14279TIP3    H142780   3.436   4.519   6.348  1.3772  1.8019  0.2856
14279TIP3    H242781   3.408   4.517   6.497  0.6039 -1.4690  0.1725
14280TIP3   OH242782   1.451   4.703   4.839 -0.3052 -0.2330 -0.8562
14280TIP3    H142783   1.426   4.795   4.831 -0.8351 -0.2137  0.7862
14280TIP3    H242784   1.378   4.656   4.798 -1.2023 -0.0045  0.4249
14281TIP3   OH242785   6.184   4.333   3.241  0.2816 -0.6717  0.1174
14281TIP3    H142786   6.264   4.363   3.197 -0.6316 -0.2185 -1.2596
14281TIP3    H242787   6.213   4.314   3.331  1.4353  1.9725  0.4094
14282TIP3   OH242788   2.664   2.459   5.124  0.7500  0.0843  0.1576
14282TIP3    H142789   2.637   2.494   5.039 -0.1977  0.0567  0.4396
14282TIP3    H242790   2.723   2.386   5.103 -0.8964 -1.1116 -0.5436
14283TIP3   OH242791   0.019   1.233   1.327  0.4611  0.1485 -0.0315
14283TIP3    H142792  -0.069   1.250   1.292  0.4691  1.9464  0.7659
14283TIP3    H242793   0.076   1.235   1.249 -0.3931 -3.2823 -0.9071
14284TIP3   OH242794   0.683   6.337   3.646  0.4215 -0.6410  0.2789
14284TIP3    H142795   0.697   6.384   3.564  2.0495  0.4413  1.1181
14284TIP3    H242796   0.606   6.379   3.685  0.9391  0.3079  0.2965
14285TIP3   OH242797   7.340   0.150   3.135  0.5749 -0.3362 -0.0473
14285TIP3    H142798   7.296   0.214   3.079  0.2998 -1.0952 -0.7333
14285TIP3    H242799   7.407   0.200   3.181 -0.6225  0.7422  0.5992
14286TIP3   OH242800   1.482   7.415   1.822 -0.0878  0.7930  0.8401
14286TIP3    H142801   1.431   7.384   1.897 -2.1462 -0.6490 -1.0136
14286TIP3    H242802   1.430   7.486   1.786  0.0250  0.3884 -0.1457
14287TIP3   OH242803   2.698   1.224   4.203 -0.5845  0.4908  0.8263
14287TIP3    H142804   2.719   1.222   4.297  0.1558  0.5804  0.6727
14287TIP3    H242805   2.667   1.313   4.188  1.8748  1.3832  0.4931
14288TIP3   OH242806   5.394   3.745   2.531 -0.8525  0.4867  0.2803
14288TIP3    H142807   5.326   3.730   2.466 -1.0587  1.5827  0.2315
14288TIP3    H242808   5.373   3.685   2.603 -0.7000 -0.6298 -0.5842
14289TIP3   OH242809   7.129   0.910   1.537  0.8360 -0.4107 -0.2092
14289TIP3    H142810   7.191   0.912   1.610  0.8088 -0.2171 -0.1898
14289TIP3    H242811   7.071   0.837   1.557  1.5023 -1.0646 -0.5965
14290TIP3   OH242812   5.430   0.547   2.026 -0.0023  0.5374  0.6276
14290TIP3    H142813   5.439   0.534   1.932 -0.1185  1.6213  0.4440
14290TIP3    H242814   5.520   0.562   2.057  0.0232  0.2989  0.6723
14291TIP3   OH242815   5.660   4.415   0.246  0.0429  0.2397 -0.1079
14291TIP3    H142816   5.669   4.465   0.327 -2.8971  1.0548 -0.1500
14291TIP3    H242817   5.606   4.471   0.189 -0.1143 -1.3781 -1.6388
14292TIP3   OH242818   2.840   6.640   5.905  0.4946  0.1259 -0.3969
14292TIP3    H142819   2.831   6.549   5.878  0.6785 -0.3834  1.1361
14292TIP3    H242820   2.916   6.672   5.856  1.6605 -1.1612  0.4496
14293TIP3   OH242821   5.053   2.754   2.289 -0.0426  0.2896 -0.1189
14293TIP3    H142822   5.076   2.816   2.221  1.8038 -1.0622 -0.7824
14293TIP3    H242823   5.015   2.808   2.359  3.1849  2.4773  0.1494
14294TIP3   OH242824   5.902   2.794   5.228  0.3245  0.3024  0.5020
14294TIP3    H142825   5.815   2.802   5.267  0.9890 -1.4269  2.5655
14294TIP3    H242826   5.956   2.857   5.276  0.3916  0.9036 -0.3266
14295TIP3   OH242827   7.051   0.271   6.422  0.3267 -0.4822 -0.1297
14295TIP3    H142828   7.033   0.191   6.471 -2.4779 -0.8611 -1.5664
14295TIP3    H242829   7.014   0.341   6.475  0.4784 -0.4497 -0.0661
14296TIP3   OH242830   7.155   2.425   0.811 -0.0632  0.0042 -0.3500
14296TIP3    H142831   7.066   2.448   0.838  0.9074  2.7727  0.9649
14296TIP3    H242832   7.191   2.507   0.777  2.5738 -0.4720  1.0310
14297TIP3   OH242833   1.158   2.066   3.567 -0.0570 -0.0199 -0.5645
14297TIP3    H142834   1.201   2.033   3.646 -3.5089 -1.5855  0.8622
14297TIP3    H242835   1.202   2.021   3.495  1.4351 -0.5897  0.6374
14298TIP3   OH242836   2.216   6.525   0.226  0.4201  0.5935  0.2296
14298TIP3    H142837   2.272   6.522   0.149  0.2875 -1.1974  0.1624
14298TIP3    H242838   2.159   6.601   0.211  0.7835  0.6249 -1.1426
14299TIP3   OH242839   2.401   0.656   6.637 -1.0101  0.0901  0.2923
14299TIP3    H142840   2.403   0.708   6.717 -1.7391 -2.0828  1.7899
14299TIP3    H242841   2.490   0.662   6.602 -0.7501  1.2543  1.1087
14300TIP3   OH242842   6.016   1.305   5.001 -1.1761  0.0495  0.5784
14300TIP3    H142843   5.981   1.374   5.058 -2.1008  0.5377 -0.5577
14300TIP3    H242844   6.104   1.289   5.035 -1.8170  0.0824  2.3621
14301TIP3   OH242845   0.238   5.745   0.283  0.0835 -0.2419  0.0092
14301TIP3    H142846   0.218   5.822   0.336 -0.1236 -0.5474  0.3781
14301TIP3    H242847   0.333   5.733   0.292  0.4311  0.9722 -1.4239
14302TIP3   OH242848   0.746   6.940   5.837 -0.6072 -0.2144 -0.1678
14302TIP3    H142849   0.790   6.880   5.777 -0.6929 -0.1970 -0.2474
14302TIP3    H242850   0.670   6.891   5.868 -1.1968  0.1886 -0.9474
14303TIP3   OH242851   6.014   4.309   5.473 -0.2273  0.2512 -0.1043
14303TIP3    H142852   5.950   4.380   5.478 -0.1122  0.4157 -0.8286
14303TIP3    H242853   6.093   4.350   5.439 -0.0817 -0.1688 -0.2817
14304TIP3   OH242854   6.824   7.357   1.136  0.2163 -0.1599  0.1718
14304TIP3    H142855   6.764   7.327   1.068 -0.8742  1.3134  0.4459
14304TIP3    H242856   6.911   7.353   1.095 -0.1949 -1.1373 -0.6424
14305TIP3   OH242857   2.391   6.692   1.943 -0.3441  0.5168 -0.5588
14305TIP3    H142858   2.469   6.748   1.936  0.6268 -0.1928  2.8009
14305TIP3    H242859   2.412   6.615   1.891  0.8812  0.6911 -0.3519
14306TIP3   OH242860   2.367   3.394   1.421 -0.0007  0.5414 -0.0446
14306TIP3    H142861   2.359   3.315   1.474  2.8330  0.9884  1.2577
14306TIP3    H242862   2.299   3.453   1.454 -2.0109 -1.1823 -0.8848
14307TIP3   OH242863   0.043   4.444   4.261  0.0204 -0.0996  0.5299
14307TIP3    H142864   0.127   4.482   4.287  0.4965 -0.1355 -0.8775
14307TIP3    H242865   0.006   4.507   4.199  0.3448 -1.3869 -1.0545
14308TIP3   OH242866   6.847   6.865   0.076  0.5062 -0.4204 -0.0063
14308TIP3    H142867   6.846   6.821   0.162  1.1019  2.3907  1.5499
14308TIP3    H242868   6.937   6.897   0.067  0.5070 -0.8246 -1.8338
14309TIP3   OH242869   0.563   5.466   4.418 -0.3046  0.1446 -0.3935
14309TIP3    H142870   0.535   5.555   4.396  1.4862  1.0080  0.5820
14309TIP3    H242871   0.576   5.469   4.513 -0.9576 -1.4050 -0.2296
14310TIP3   OH242872   5.123   5.771   2.395  0.3279  0.4075 -0.1954
14310TIP3    H142873   5.083   5.824   2.464 -0.2653  1.8047 -1.5369
14310TIP3    H242874   5.055   5.763   2.328  1.5994  1.1091 -1.6375
14311TIP3   OH242875   4.272   4.727   0.024  0.1238 -0.5407  0.1363
14311TIP3    H142876   4.326   4.650   0.006  0.2360 -1.1062  2.6541
14311TIP3    H242877   4.321   4.800  -0.016  0.8975 -1.4993 -0.7420
14312TIP3   OH242878   1.653   6.822   1.701  0.0842  0.6884  0.6695
14312TIP3    H142879   1.681   6.731   1.704 -0.1886  0.5742  0.0100
14312TIP3    H242880   1.558   6.819   1.697  0.0537  1.0181  1.0472
14313TIP3   OH242881   6.959   1.967   6.150  0.1036 -0.0802  0.1062
14313TIP3    H142882   6.905   1.926   6.218  0.7534  1.3813  1.5672
14313TIP3    H242883   6.926   2.057   6.144  0.7104  0.0987 -0.8400
14314TIP3   OH242884   4.373   2.142   2.875  0.2342  0.0093 -0.4312
14314TIP3    H142885   4.284   2.126   2.842  0.2970 -0.0181 -0.5867
14314TIP3    H242886   4.362   2.152   2.970  0.2548 -1.3829 -0.2623
14315TIP3   OH242887   2.981   0.543   6.187  0.6412 -0.4634 -0.2800
14315TIP3    H142888   2.894   0.576   6.164  0.6702 -0.2857 -0.1317
14315TIP3    H242889   3.019   0.515   6.104  0.4079 -0.6197 -0.3333
14316TIP3   OH242890   7.233   2.605   3.160  0.0145  0.1433  0.3772
14316TIP3    H142891   7.166   2.539   3.179 -1.1793  1.3552  0.5478
14316TIP3    H242892   7.223   2.623   3.066  0.8580 -0.4462  0.1599
14317TIP3   OH242893   4.070   1.755   3.810  0.4661  0.0555  0.1111
14317TIP3    H142894   4.122   1.741   3.889 -0.2127 -3.2818  0.1049
14317TIP3    H242895   4.116   1.705   3.742 -0.6181  0.3030 -0.8363
14318TIP3   OH242896   5.555   2.869   3.612 -0.3810  0.4714  0.5632
14318TIP3    H142897   5.632   2.848   3.665 -0.3940 -1.5866 -0.1205
14318TIP3    H242898   5.542   2.963   3.624  3.4377  1.3546 -0.8869
14319TIP3   OH242899   5.472   4.959   6.318 -0.2385 -0.4518  0.5612
14319TIP3    H142900   5.502   4.990   6.232 -1.0608 -0.7631  0.1565
14319TIP3    H242901   5.392   4.910   6.299  1.0767 -3.0292  1.1180
14320TIP3   OH242902   2.300   4.413   0.891  0.4171  0.1211  0.1116
14320TIP3    H142903   2.290   4.320   0.869  0.8356  0.1714 -0.2956
14320TIP3    H242904   2.225   4.431   0.949  1.0097 -0.7663  1.2019
14321TIP3   OH242905   5.707   5.817   1.850 -0.3828 -0.5167 -0.5930
14321TIP3    H142906   5.711   5.728   1.816  0.2463 -1.3779  1.5255
14321TIP3    H242907   5.793   5.854   1.830 -0.0540 -0.9751 -0.0686
14322TIP3   OH242908   7.075   2.884   2.356  0.1041  0.0424 -0.2587
14322TIP3    H142909   7.039   2.924   2.435 -1.6687 -1.5964 -0.1729
14322TIP3    H242910   7.093   2.958   2.298  0.7776  1.2223  1.3854
14323TIP3   OH242911   1.732   2.365   4.352 -0.1695 -0.2768  0.1510
14323TIP3    H142912   1.650   2.383   4.398  0.0935  0.5133  0.3399
14323TIP3    H242913   1.757   2.450   4.315  1.0744 -0.2856  0.9344
14324TIP3   OH242914   8.055   4.410   2.397  0.4444 -0.0122  0.0733
14324TIP3    H142915   8.145   4.385   2.420  1.0845  0.5676 -1.6690
14324TIP3    H242916   8.032   4.353   2.324  0.7540  2.1876 -1.8584
14325TIP3   OH242917   3.932   0.639   1.254  0.0008  0.5964  0.8396
14325TIP3    H142918   3.979   0.556   1.247  1.5538  1.3667  1.4822
14325TIP3    H242919   3.964   0.691   1.180 -0.5575  0.8156  0.7465
14326TIP3   OH242920   2.348   4.917   1.094  0.1488 -0.2613  0.0365
14326TIP3    H142921   2.397   4.928   1.012 -1.6712 -0.5761 -1.1626
14326TIP3    H242922   2.318   4.826   1.091 -1.7224  0.3178 -0.0233
14327TIP3   OH242923   2.283   2.877   0.348  0.3690 -0.2716 -0.1511
14327TIP3    H142924   2.352   2.860   0.283  0.1539 -1.1466 -0.1609
14327TIP3    H242925   2.250   2.790   0.371  1.0933 -0.0579  1.8620
14328TIP3   OH242926   8.214   5.757   4.653  0.2538 -0.2490  0.3219
14328TIP3    H142927   8.220   5.662   4.661  0.6420 -0.2735 -0.2021
14328TIP3    H242928   8.133   5.772   4.605  0.0076 -0.2921  0.7155
14329TIP3   OH242929   5.103   6.789   5.498 -0.7491 -0.1889 -0.5214
14329TIP3    H142930   5.126   6.751   5.413 -1.2915  0.2325 -0.8634
14329TIP3    H242931   5.114   6.883   5.486 -0.1284 -0.1726  0.0983
14330TIP3   OH242932   2.109   1.707   5.428  0.6769  0.0161 -0.3571
14330TIP3    H142933   2.033   1.660   5.395 -0.0361  1.2809 -0.6034
14330TIP3    H242934   2.125   1.776   5.364  2.0932 -0.2665 -0.3458
14331TIP3   OH242935   1.448   7.590   5.461 -0.3402 -0.2147  0.3720
14331TIP3    H142936   1.510   7.518   5.452  0.2100  0.1225  1.3482
14331TIP3    H242937   1.385   7.561   5.527 -1.7330 -0.8775 -1.1597
14332TIP3   OH242938   1.250   1.056   5.510  0.3489 -0.1337  0.0150
14332TIP3    H142939   1.256   1.121   5.580 -1.5876 -0.7060  0.7554
14332TIP3    H242940   1.305   0.983   5.540  0.1637 -0.0490  0.5640
14333TIP3   OH242941   5.327   4.723   4.494  0.5819 -0.4951 -0.0752
14333TIP3    H142942   5.328   4.640   4.445  1.1852 -0.2355 -0.5059
14333TIP3    H242943   5.326   4.696   4.586  0.4275 -0.9805 -0.2151
14334TIP3   OH242944   3.649   6.096   5.451 -0.1449  0.2738 -0.1277
14334TIP3    H142945   3.647   6.021   5.510 -0.4072  0.2011 -0.2267
14334TIP3    H242946   3.581   6.077   5.386  1.1345 -0.3635 -1.3275
14335TIP3   OH242947   8.147   2.389   0.096  0.4284 -0.4109  0.0377
14335TIP3    H142948   8.171   2.476   0.065  1.1002 -1.1204 -1.5103
14335TIP3    H242949   8.116   2.404   0.186 -1.4715  1.6901 -0.8638
14336TIP3   OH242950   2.288   2.168   2.015  0.5964  0.4473  0.1724
14336TIP3    H142951   2.362   2.153   1.955 -1.2140 -2.2695 -1.6283
14336TIP3    H242952   2.316   2.128   2.097  0.4997 -2.5627 -1.1088
14337TIP3   OH242953   7.057   3.249   2.620 -0.4229  0.3171 -0.1135
14337TIP3    H142954   7.123   3.317   2.630 -0.7822  0.6555 -0.0008
14337TIP3    H242955   6.974   3.296   2.619 -0.7890 -0.2325  1.5146
14338TIP3   OH242956   7.440   3.276   0.058  0.8853  0.5636 -0.0176
14338TIP3    H142957   7.525   3.318   0.052  1.9175 -1.3771  0.1474
14338TIP3    H242958   7.447   3.216   0.133 -0.7667  0.6534  0.2579
14339TIP3   OH242959   4.384   5.497   5.731 -0.3007  0.6598  0.2723
14339TIP3    H142960   4.479   5.491   5.741 -0.3294  1.4910  1.2669
14339TIP3    H242961   4.349   5.439   5.799 -0.4926  0.9927  0.4641
14340TIP3   OH242962   7.867   4.995   4.482  0.2223 -0.3653 -0.3792
14340TIP3    H142963   7.820   5.045   4.549  1.4760  0.3565  0.0015
14340TIP3    H242964   7.881   5.057   4.411  0.7954 -0.4840 -0.3808
14341TIP3   OH242965   1.439   5.606   2.288  0.2481  0.3268  0.1248
14341TIP3    H142966   1.395   5.605   2.373 -1.4639 -0.2602 -0.7264
14341TIP3    H242967   1.474   5.517   2.278 -0.6828 -0.0071 -0.3147
14342TIP3   OH242968   5.891   3.645   0.310  0.2713 -0.1534  0.2725
14342TIP3    H142969   5.800   3.617   0.309  1.2191 -3.7807  0.8662
14342TIP3    H242970   5.897   3.705   0.385 -1.1232 -2.0104  1.9702
14343TIP3   OH242971   7.212   5.292   5.182 -0.0534  0.1822 -0.0126
14343TIP3    H142972   7.152   5.269   5.253 -1.3067  0.1080 -1.0638
14343TIP3    H242973   7.231   5.385   5.196  0.5641 -0.0786  1.0110
14344TIP3   OH242974   1.492   3.969   5.169 -0.1512  0.1859  0.0802
14344TIP3    H142975   1.479   4.046   5.114  0.6881 -0.8671 -1.6649
14344TIP3    H242976   1.578   3.937   5.145  0.0686 -0.5477  1.7584
14345TIP3   OH242977   5.317   2.384   2.884  0.1700 -0.7279  0.2817
14345TIP3    H142978   5.283   2.433   2.959 -2.7604 -1.7012 -0.2958
14345TIP3    H242979   5.249   2.392   2.817  1.8068 -1.5601 -1.5794
14346TIP3   OH242980   3.397   7.596   4.304  0.0582  0.2881  0.1674
14346TIP3    H142981   3.422   7.673   4.253 -0.7881  0.7521  0.4276
14346TIP3    H242982   3.436   7.523   4.257  2.0847  0.9625  0.6919
14347TIP3   OH242983   7.497   0.234   0.031  0.1272 -0.4572  0.6634
14347TIP3    H142984   7.447   0.296   0.085  1.2505  0.9166  0.1809
14347TIP3    H242985   7.573   0.213   0.084  0.5978 -0.0915  0.1382
14348TIP3   OH242986   2.366   5.145   0.797  0.0573  0.0766  0.2325
14348TIP3    H142987   2.405   5.179   0.716 -2.5749  2.4187 -0.2032
14348TIP3    H242988   2.411   5.062   0.812  0.8466 -0.3542 -3.5052
14349TIP3   OH242989   5.919   2.484   3.616 -0.2464 -0.4496 -0.4148
14349TIP3    H142990   5.862   2.531   3.556  0.4452  0.0485 -0.6846
14349TIP3    H242991   5.943   2.404   3.569 -0.6004 -0.6041 -0.3469
14350TIP3   OH242992   5.245   1.984   3.171 -0.0021  0.0162 -0.6022
14350TIP3    H142993   5.170   1.924   3.178  0.7199 -1.0660 -1.7019
14350TIP3    H242994   5.261   1.990   3.077  1.5597 -0.1337 -0.3654
14351TIP3   OH242995   4.508   4.177   3.450  0.4716  0.4330 -0.1546
14351TIP3    H142996   4.421   4.136   3.445  1.5952 -1.9321 -2.1371
14351TIP3    H242997   4.532   4.168   3.542 -0.2779 -1.4219 -0.0905
14352TIP3   OH242998   8.044   7.309   5.645 -0.4676 -0.0532 -0.0825
14352TIP3    H142999   8.001   7.224   5.643  0.2850 -0.6424  2.9183
14352TIP3    H243000   8.047   7.332   5.738  3.6994  0.9229 -0.2696
14353TIP3   OH243001   2.346   1.152   2.797  0.2652 -0.2532 -0.3784
14353TIP3    H143002   2.275   1.202   2.838 -0.7421 -1.8602 -0.0479
14353TIP3    H243003   2.317   1.138   2.707  0.9328  0.4646 -0.7101
14354TIP3   OH243004   8.036   0.023   1.879  0.4027 -0.5866  0.3225
14354TIP3    H143005   8.023   0.102   1.931 -1.2577  0.5380 -1.6838
14354TIP3    H243006   7.948  -0.011   1.865  0.9821 -1.8896 -0.2241
14355TIP3   OH243007   6.820   7.009   0.999  0.0556 -0.2098  0.0919
14355TIP3    H143008   6.780   7.012   0.912 -0.0150  0.5884  0.1406
14355TIP3    H243009   6.877   6.932   0.997  0.3937  0.0477 -0.8156
14356TIP3   OH243010   2.519   5.038   0.242  0.5530  0.4008 -0.3165
14356TIP3    H143011   2.469   5.014   0.320  1.4896 -1.2241 -0.1712
14356TIP3    H243012   2.476   5.117   0.209  0.4091  1.3839  2.0676
14357TIP3   OH243013   4.416   1.818   4.706  0.3431 -0.3597  0.3246
14357TIP3    H143014   4.420   1.768   4.787  0.7820  0.9371  1.1442
14357TIP3    H243015   4.346   1.881   4.719  2.1279  1.6520  0.8381
14358TIP3   OH243016   2.250   5.764   0.146  0.0630 -0.1831  0.5337
14358TIP3    H143017   2.329   5.715   0.123  0.0879  0.8318 -1.7282
14358TIP3    H243018   2.189   5.745   0.075 -0.6535  1.4079  0.6977
14359TIP3   OH243019   4.100   5.979   2.594  0.8001  0.0163 -0.4604
14359TIP3    H143020   4.167   6.025   2.543 -0.1154  0.7933 -1.0103
14359TIP3    H243021   4.057   5.921   2.530 -0.4084  1.0554 -0.6277
14360TIP3   OH243022   6.335   1.837   6.286  0.6533 -0.8041 -0.5881
14360TIP3    H143023   6.429   1.835   6.268  0.5456  0.1270 -1.3885
14360TIP3    H243024   6.296   1.787   6.214  0.5238 -1.0435 -0.3513
14361TIP3   OH243025   3.385   1.300   5.539  0.0253 -0.2813  0.2080
14361TIP3    H143026   3.418   1.344   5.617  0.1145 -2.6088  1.5700
14361TIP3    H243027   3.451   1.319   5.472  1.9802 -1.3094  1.7288
14362TIP3   OH243028   4.954   4.146   0.079 -0.0685 -0.5839 -0.1773
14362TIP3    H143029   4.887   4.141   0.148  1.4405  0.6416  1.5021
14362TIP3    H243030   5.032   4.107   0.119  0.7473 -0.1974 -1.3503
14363TIP3   OH243031   7.205   5.281   6.399 -0.2151  0.6616  0.5625
14363TIP3    H143032   7.118   5.241   6.404 -0.2797  0.9027  1.5470
14363TIP3    H243033   7.212   5.333   6.480  0.5920  1.1520  0.1850
14364TIP3   OH243034   6.280   5.423   2.998  0.3187 -0.1680 -0.7288
14364TIP3    H143035   6.367   5.449   2.966  0.8885  1.3867  1.7489
14364TIP3    H243036   6.221   5.489   2.961 -0.0145 -1.6520 -3.0211
14365TIP3   OH243037   3.131   5.581   0.570  0.3251  0.0470 -0.3264
14365TIP3    H143038   3.062   5.575   0.637  0.8478 -1.2476  0.1208
14365TIP3    H243039   3.184   5.502   0.583  2.3365  1.3527 -0.1840
14366TIP3   OH243040   6.678   7.338   0.043  0.1289 -0.1127  0.3385
14366TIP3    H143041   6.647   7.278   0.110  0.8716 -0.0298  0.7675
14366TIP3    H243042   6.690   7.421   0.088 -0.5177  0.2652 -0.1673
14367TIP3   OH243043   3.748   1.046   6.313 -0.4789  0.4521 -0.7183
14367TIP3    H143044   3.686   1.111   6.346  0.6535  1.8072 -1.1760
14367TIP3    H243045   3.711   0.962   6.340 -1.9429  1.2765 -0.0426
14368TIP3   OH243046   3.930   5.551   1.225 -0.1282 -0.0267 -0.1844
14368TIP3    H143047   3.895   5.547   1.136  0.1106 -0.3420 -0.2689
14368TIP3    H243048   3.878   5.487   1.274 -0.0499 -0.0834 -0.1744
14369TIP3   OH243049   5.014   0.213   6.516  0.3959  0.2015  0.4768
14369TIP3    H143050   5.050   0.160   6.587  0.6553  0.4330  0.5219
14369TIP3    H243051   5.072   0.290   6.512 -0.1050  0.5894  0.5630
14370TIP3   OH243052   7.883   6.047   0.172 -0.0007  0.0360 -0.2068
14370TIP3    H143053   7.930   5.963   0.176 -1.9104 -1.0563  1.9360
14370TIP3    H243054   7.901   6.081   0.085  1.5342 -2.1941 -0.8485
14371TIP3   OH243055   2.357   4.121   3.553 -0.3696  0.4689  0.2730
14371TIP3    H143056   2.402   4.067   3.488  0.9797  1.7740  0.0872
14371TIP3    H243057   2.289   4.166   3.503 -0.6121  0.0084  0.1730
14372TIP3   OH243058   8.111   1.427   6.575  0.4065  0.1666 -0.3701
14372TIP3    H143059   8.155   1.415   6.659 -0.7846  1.9412  0.5649
14372TIP3    H243060   8.042   1.361   6.574 -0.5385  1.0850  0.7709
14373TIP3   OH243061   0.220   5.513   6.666 -0.1361  0.0390  0.4548
14373TIP3    H143062   0.304   5.516   6.620 -0.4260 -0.7048 -0.1432
14373TIP3    H243063   0.159   5.557   6.607 -0.0398  1.2155  1.2038
14374TIP3   OH243064   3.094   3.266   4.610 -0.1082  0.2893 -0.0050
14374TIP3    H143065   3.006   3.298   4.589  0.8767  4.6811  1.3089
14374TIP3    H243066   3.151   3.311   4.548  1.3711 -0.8477  0.4658
14375TIP3   OH243067   6.182   3.186   3.224 -0.1497 -0.0141 -0.2879
14375TIP3    H143068   6.265   3.185   3.175 -0.9827  0.9754 -1.8237
14375TIP3    H243069   6.147   3.098   3.213  0.1810 -0.1158 -0.5793
14376TIP3   OH243070   1.667   3.560   6.005  0.6898  0.3038 -0.2445
14376TIP3    H143071   1.669   3.632   6.068 -4.5060  0.4905  0.1169
14376TIP3    H243072   1.688   3.482   6.057  0.0801  0.8729  0.8780
14377TIP3   OH243073   2.696   0.933   1.216 -0.1137 -0.3654 -0.9904
14377TIP3    H143074   2.676   0.877   1.141 -0.3101  0.9518 -1.9575
14377TIP3    H243075   2.614   0.977   1.237 -0.3271 -1.4493  0.6874
14378TIP3   OH243076   0.962   4.517   6.776  0.3240 -0.0108  0.1462
14378TIP3    H143077   0.876   4.485   6.751  0.3162  1.2525 -1.5828
14378TIP3    H243078   1.021   4.444   6.759 -0.2311 -0.4894  0.2384
14379TIP3   OH243079   6.485   1.674   6.495 -0.2031 -0.0869  0.3596
14379TIP3    H143080   6.541   1.706   6.566  0.2001 -0.5251  0.2449
14379TIP3    H243081   6.445   1.752   6.458  0.3427  0.2314  0.4382
14380TIP3   OH243082   4.282   1.776   2.180  0.0799  0.2354 -0.0527
14380TIP3    H143083   4.322   1.771   2.093 -0.5497 -0.1272 -0.3253
14380TIP3    H243084   4.280   1.685   2.210 -0.4941  0.2516 -0.0267
14381TIP3   OH243085   1.604   1.151   3.142  0.0962 -0.5447 -0.2490
14381TIP3    H143086   1.629   1.215   3.209 -0.1302 -0.4244 -0.2793
14381TIP3    H243087   1.680   1.094   3.134  0.8405  0.5370 -1.2070
14382TIP3   OH243088   0.604   0.763   0.469 -0.1297  0.2783 -0.0634
14382TIP3    H143089   0.656   0.817   0.529 -0.7706  0.9406 -0.0863
14382TIP3    H243090   0.569   0.693   0.523  0.1184  0.2936  0.1201
14383TIP3   OH243091   3.172   0.122   1.769 -0.0368 -0.1477  0.2610
14383TIP3    H143092   3.112   0.122   1.694  0.5860 -1.0177 -0.2638
14383TIP3    H243093   3.138   0.053   1.827 -0.6676  0.6975  0.9295
14384TIP3   OH243094   5.943   4.136   2.321 -0.6528  0.0092 -0.2922
14384TIP3    H143095   6.003   4.183   2.263 -0.4861  1.5943  1.1090
14384TIP3    H243096   5.887   4.086   2.261  1.1846 -0.4998 -1.6921
14385TIP3   OH243097   7.929   7.398   3.436  0.1154  0.3964  0.3274
14385TIP3    H143098   7.850   7.350   3.412  1.0044 -1.4818  0.9425
14385TIP3    H243099   7.904   7.490   3.430 -1.5411 -0.0991 -1.3560
14386TIP3   OH243100   5.534   6.861   2.410 -0.3686 -0.3102  0.5547
14386TIP3    H143101   5.519   6.952   2.385 -3.0011 -0.6753  0.5341
14386TIP3    H243102   5.489   6.810   2.343  0.5033 -1.6454  0.9373
14387TIP3   OH243103   5.003   6.582   0.620  0.5560  0.3861 -0.3403
14387TIP3    H143104   5.077   6.532   0.585  1.2832  0.8320  0.5345
14387TIP3    H243105   5.004   6.564   0.714 -0.4082  0.4546 -0.3050
14388TIP3   OH243106   0.547   1.860   0.470 -0.3023 -0.2257  0.2254
14388TIP3    H143107   0.504   1.944   0.454  1.4015  1.0662  2.0815
14388TIP3    H243108   0.561   1.857   0.564  2.3586 -1.2104 -0.1121
14389TIP3   OH243109   1.340   0.347   5.730  0.0924 -0.1549 -0.3587
14389TIP3    H143110   1.268   0.410   5.740 -0.9127 -1.2992 -0.1317
14389TIP3    H243111   1.399   0.389   5.668 -1.4210  0.2827 -1.5727
14390TIP3   OH243112   1.854   7.288   3.941 -0.4023 -0.0118 -0.1500
14390TIP3    H143113   1.914   7.224   3.979 -0.3911  0.9736  1.5971
14390TIP3    H243114   1.767   7.257   3.966 -0.4957 -0.1996 -0.6970
14391TIP3   OH243115   7.187   5.483   1.879  0.1193  0.5226 -0.4102
14391TIP3    H143116   7.141   5.515   1.957 -0.5444 -0.6708 -0.2898
14391TIP3    H243117   7.117   5.459   1.818  0.5142 -1.6536 -0.0949
14392TIP3   OH243118   4.999   6.857   0.537 -0.2980 -0.2891  0.2367
14392TIP3    H143119   5.022   6.772   0.574 -0.7291 -0.8402 -0.7191
14392TIP3    H243120   4.905   6.865   0.555 -0.5598 -0.6599 -0.8769
14393TIP3   OH243121   3.270   7.470   0.350 -0.2360  0.0958 -0.0615
14393TIP3    H143122   3.321   7.392   0.328 -0.7214  0.2106 -1.7681
14393TIP3    H243123   3.191   7.436   0.390  1.2762 -0.0684  3.1043
14394TIP3   OH243124   0.701   3.627   5.649 -0.4978  0.1087  0.3941
14394TIP3    H143125   0.653   3.584   5.577  1.2362  0.2606 -0.9153
14394TIP3    H243126   0.756   3.558   5.685  1.6079  0.9187 -1.1089
14395TIP3   OH243127   3.909   3.417   3.627 -0.0121  0.4766 -0.2736
14395TIP3    H143128   3.981   3.472   3.597  0.5963  0.7940  1.6186
14395TIP3    H243129   3.916   3.418   3.723 -0.8926 -1.6650 -0.1251
14396TIP3   OH243130   0.976   7.025   5.164  0.4543 -0.0440  0.1919
14396TIP3    H143131   1.005   6.966   5.095  0.1170  0.2598 -0.2101
14396TIP3    H243132   1.034   7.101   5.157 -0.6604  0.7443 -0.8756
14397TIP3   OH243133   4.659   7.525   0.701 -0.2216 -0.0091 -0.5104
14397TIP3    H143134   4.674   7.442   0.655  0.6091  0.2763 -0.7737
14397TIP3    H243135   4.619   7.582   0.636 -0.2811 -0.0263 -0.4891
14398TIP3   OH243136   6.271   5.808   6.092 -0.2985  0.5060 -0.1721
14398TIP3    H143137   6.182   5.807   6.057 -0.6042  0.5620  0.5799
14398TIP3    H243138   6.289   5.717   6.115 -0.0704  0.4560 -0.5448
14399TIP3   OH243139   0.730   1.168   6.547 -0.3475 -0.2753  0.7012
14399TIP3    H143140   0.646   1.169   6.501  0.3627 -2.7471 -0.8574
14399TIP3    H243141   0.781   1.237   6.505 -0.6818 -0.6333 -0.3273
14400TIP3   OH243142   7.189   2.536   3.680 -0.3579 -0.8655  0.6320
14400TIP3    H143143   7.203   2.441   3.684 -0.4375 -0.9450 -0.6754
14400TIP3    H243144   7.202   2.558   3.588 -0.6897  0.3444  0.8651
14401TIP3   OH243145   5.407   6.771   4.923  0.2786 -0.5101  0.1031
14401TIP3    H143146   5.391   6.825   4.845 -0.5521 -1.0836 -0.1327
14401TIP3    H243147   5.385   6.682   4.895  0.2329 -0.7603  0.9236
14402TIP3   OH243148   4.966   6.352   4.825 -0.6321 -0.2812  0.0135
14402TIP3    H143149   4.932   6.432   4.785 -0.7067 -0.1925  0.2548
14402TIP3    H243150   5.057   6.373   4.845 -0.6429 -0.2663  0.0478
14403TIP3   OH243151   4.904   6.696   2.489  0.1842  0.1819 -0.8587
14403TIP3    H143152   4.971   6.636   2.458  1.0395 -0.5408  2.0576
14403TIP3    H243153   4.873   6.658   2.571 -1.2170  2.3478 -0.2773
14404TIP3   OH243154   6.821   7.660   2.459  0.1567  0.4258  0.0203
14404TIP3    H143155   6.870   7.737   2.486  2.0913 -0.1077 -1.7297
14404TIP3    H243156   6.888   7.594   2.441 -1.4450 -1.9369  2.0381
14405TIP3   OH243157   5.823   2.164   2.973 -0.2515 -0.0832  0.1746
14405TIP3    H143158   5.872   2.201   3.046 -0.7649 -0.2634  0.6128
14405TIP3    H243159   5.749   2.224   2.962 -0.2847 -0.1695 -0.0674
14406TIP3   OH243160   7.137   5.725   4.527  0.4066  0.4047  0.0639
14406TIP3    H143161   7.095   5.810   4.516  2.2862  1.0858 -3.3175
14406TIP3    H243162   7.143   5.689   4.438 -2.9287 -4.7641  1.4784
14407TIP3   OH243163   6.590   0.452   5.198  0.7379 -0.3932  0.1797
14407TIP3    H143164   6.578   0.384   5.265 -0.0850 -0.9669 -0.5296
14407TIP3    H243165   6.638   0.521   5.243  2.4077 -1.8050  0.6957
14408TIP3   OH243166   1.073   7.536   3.170 -0.0263 -0.9621 -0.0123
14408TIP3    H143167   1.078   7.631   3.156  0.4749 -1.0302 -0.3367
14408TIP3    H243168   1.006   7.506   3.109  0.7350 -0.9835 -0.8674
14409TIP3   OH243169   3.473   1.971   2.097  0.4085 -0.3194  0.0875
14409TIP3    H143170   3.513   1.941   2.016  1.8412  1.9549 -0.1504
14409TIP3    H243171   3.403   2.030   2.068  0.9611  0.5450  0.4753
14410TIP3   OH243172   5.157   7.289   5.740  0.6454 -0.3562  0.1528
14410TIP3    H143173   5.118   7.292   5.827 -1.7562 -0.5828 -0.8530
14410TIP3    H243174   5.115   7.214   5.697  0.0437  1.0927 -1.9405
14411TIP3   OH243175   2.969   4.929   3.038 -0.3095  0.2021 -0.1702
14411TIP3    H143176   3.062   4.945   3.025  0.0043 -0.9649  0.4719
14411TIP3    H243177   2.952   4.847   2.992 -0.9169  0.1876  0.0675
14412TIP3   OH243178   1.675   3.751   4.555  0.0420 -0.3974  0.1988
14412TIP3    H143179   1.738   3.684   4.582 -1.9229 -1.9784  1.2681
14412TIP3    H243180   1.694   3.826   4.611  1.7217 -0.3595 -0.3790
14413TIP3   OH243181   3.240   1.652   1.576  0.0292  0.2175 -0.5854
14413TIP3    H143182   3.151   1.677   1.598 -0.2552  0.1259 -1.5893
14413TIP3    H243183   3.264   1.585   1.640 -1.0773 -0.6741 -1.0884
14414TIP3   OH243184   2.789   3.657   5.821 -0.1569 -0.1775  0.5725
14414TIP3    H143185   2.723   3.690   5.760  1.2127  0.0982 -0.8231
14414TIP3    H243186   2.872   3.676   5.779  0.8044 -1.5929  1.7243
14415TIP3   OH243187   3.955   3.980   2.376 -0.2852  0.2766  0.0491
14415TIP3    H143188   3.972   3.894   2.414  0.6599  0.0226 -0.8833
14415TIP3    H243189   4.031   4.033   2.401 -0.6738  0.7346  0.2887
14416TIP3   OH243190   1.392   7.050   0.839  0.1318 -0.1488  0.1746
14416TIP3    H143191   1.379   6.983   0.772  0.9240  1.6548 -1.9265
14416TIP3    H243192   1.438   7.121   0.793  0.0973  1.4887  2.4843
14417TIP3   OH243193   2.331   3.126   4.579 -0.6109 -0.0391  0.5016
14417TIP3    H143194   2.285   3.091   4.503 -1.2630 -0.0926  0.9115
14417TIP3    H243195   2.421   3.094   4.570 -0.2985  1.1950 -1.0151
14418TIP3   OH243196   1.425   1.250   1.246  0.1701  0.1503 -0.4945
14418TIP3    H143197   1.505   1.243   1.299  0.1583  2.1291 -0.1159
14418TIP3    H243198   1.371   1.314   1.294 -1.7462 -1.2780 -0.6399
14419TIP3   OH243199   8.121   4.822   2.372 -0.6947  0.6378  0.0564
14419TIP3    H143200   8.095   4.794   2.284  0.8922  0.8640 -0.5174
14419TIP3    H243201   8.130   4.917   2.365 -1.1243  0.7199  0.6195
14420TIP3   OH243202   3.461   2.025   0.757 -0.4591  0.5077 -0.4248
14420TIP3    H143203   3.499   2.103   0.798 -0.1864 -0.1608  0.6383
14420TIP3    H243204   3.375   2.053   0.727 -1.8127  0.4467  2.9245
14421TIP3   OH243205   1.277   5.200   1.553  0.7228  0.4154  0.3903
14421TIP3    H143206   1.291   5.125   1.612 -2.2163 -3.0229 -2.7536
14421TIP3    H243207   1.189   5.231   1.574  0.1972  0.0535 -1.1812
14422TIP3   OH243208   1.017   6.594   3.018  0.3283 -0.2126 -0.3052
14422TIP3    H143209   1.055   6.680   3.031  2.0794 -0.9900 -0.0889
14422TIP3    H243210   0.924   6.611   2.999  0.4070  1.6287  0.8110
14423TIP3   OH243211   4.082   6.391   1.178 -0.4359  0.1734  0.4361
14423TIP3    H143212   4.044   6.312   1.139  0.6973 -0.5571  0.7358
14423TIP3    H243213   4.175   6.369   1.189 -0.1047  1.5560  0.5392
14424TIP3   OH243214   1.644   7.597   6.040  0.3988  0.3627  0.2082
14424TIP3    H143215   1.694   7.579   5.960 -0.8462  0.4136 -0.6012
14424TIP3    H243216   1.634   7.511   6.081 -1.7794 -0.2590 -1.4201
14425TIP3   OH243217   1.520   4.545   1.932  0.3226 -0.0945 -0.0464
14425TIP3    H143218   1.561   4.498   1.860  2.1582 -0.0400  0.9209
14425TIP3    H243219   1.453   4.485   1.965  2.2800 -1.8856  0.8438
14426TIP3   OH243220   4.312   7.531   6.565  0.1754 -0.5124 -0.5670
14426TIP3    H143221   4.287   7.524   6.657 -1.7757 -0.5150 -1.0528
14426TIP3    H243222   4.250   7.594   6.527 -0.1063 -1.6884 -2.1964
14427TIP3   OH243223   3.113   5.958   2.671  0.3476  0.0618  0.7451
14427TIP3    H143224   3.035   6.007   2.698 -0.3594 -0.6649  0.0920
14427TIP3    H243225   3.174   5.967   2.744 -0.0853  1.1999  0.9877
14428TIP3   OH243226   7.797   5.361   1.361 -0.1565  0.4007  0.2961
14428TIP3    H143227   7.753   5.445   1.371  1.5641  1.3184  0.5986
14428TIP3    H243228   7.804   5.326   1.449  1.8485  1.4530  0.6187
14429TIP3   OH243229   6.866   4.268   5.893  0.2743  0.7227 -0.6046
14429TIP3    H143230   6.919   4.271   5.973 -1.5396  3.9480  0.6712
14429TIP3    H243231   6.805   4.196   5.907 -0.2614  1.4659  1.1780
14430TIP3   OH243232   7.173   0.060   3.518  0.1970  0.2222 -0.2993
14430TIP3    H143233   7.172   0.022   3.430  0.8731  1.0554 -0.6813
14430TIP3    H243234   7.084   0.047   3.550  0.2704 -1.2068 -0.6048
14431TIP3   OH243235   0.905   5.480   3.694 -0.3521 -0.0381  0.3570
14431TIP3    H143236   0.947   5.395   3.679 -0.5397  0.4234 -4.0166
14431TIP3    H243237   0.814   5.467   3.667 -0.0761  1.7501 -1.7703
14432TIP3   OH243238   7.972   0.786   3.423 -0.4221 -0.0020  0.4320
14432TIP3    H143239   8.041   0.720   3.426 -0.1959  0.1675 -0.7615
14432TIP3    H243240   8.017   0.867   3.399 -1.0882  0.0186 -0.8220
14433TIP3   OH243241   4.966   4.057   3.197 -0.0477  0.4307 -0.3021
14433TIP3    H143242   4.951   4.076   3.105 -1.4830  1.0198  0.0432
14433TIP3    H243243   4.963   3.961   3.202  0.5798  0.3666 -0.9367
14434TIP3   OH243244   4.432   1.867   5.386 -0.0781 -0.0803 -0.1375
14434TIP3    H143245   4.468   1.944   5.343  0.4047 -0.5864 -0.6670
14434TIP3    H243246   4.380   1.901   5.459  1.4494  0.6765  0.6362
14435TIP3   OH243247   0.245   3.562   5.438  0.2676 -0.3969  0.1261
14435TIP3    H143248   0.197   3.568   5.355 -0.5674  0.1837  0.6350
14435TIP3    H243249   0.176   3.553   5.505  0.9022 -0.3171  0.8072
14436TIP3   OH243250   1.902   5.306   1.097  0.4613  0.2190 -0.0631
14436TIP3    H143251   1.947   5.227   1.129 -0.5347 -0.4661 -0.2913
14436TIP3    H243252   1.812   5.278   1.083  0.3880  1.0417 -1.4840
14437TIP3   OH243253   0.919   2.717   1.768  0.3973 -0.2014  0.6732
14437TIP3    H143254   0.869   2.765   1.834 -2.1118 -0.2380 -1.0580
14437TIP3    H243255   0.880   2.629   1.768 -0.6994  0.2224 -1.8137
14438TIP3   OH243256   2.445   4.522   3.320  0.0634 -0.3517 -0.3921
14438TIP3    H143257   2.485   4.435   3.329 -0.0498 -0.3045  0.6909
14438TIP3    H243258   2.515   4.583   3.344 -0.3546 -0.2332  0.5883
14439TIP3   OH243259   4.882   4.382   1.165  0.0267  0.0349  0.6663
14439TIP3    H143260   4.869   4.403   1.073 -0.0402  0.0823  0.6861
14439TIP3    H243261   4.797   4.349   1.194  0.1581 -0.3587  0.6118
14440TIP3   OH243262   2.200   7.338   4.119  0.3711  0.2303 -0.2387
14440TIP3    H143263   2.174   7.289   4.040  0.8290  0.6838 -0.6757
14440TIP3    H243264   2.295   7.326   4.124  0.2762 -0.2880  0.5873
14441TIP3   OH243265   5.539   6.269   2.991  0.2899  0.4124 -0.3862
14441TIP3    H143266   5.480   6.344   2.992 -1.6451 -1.0282 -0.4442
14441TIP3    H243267   5.542   6.239   3.082  2.5158  1.5656 -0.0014
14442TIP3   OH243268   5.224   1.330   5.456  0.4027 -0.2999 -0.0419
14442TIP3    H143269   5.263   1.244   5.439  1.3296  0.1720 -0.4132
14442TIP3    H243270   5.299   1.389   5.465 -0.2171  0.4853  0.1355
14443TIP3   OH243271   8.041   7.116   4.080  0.3137  0.0145 -0.0804
14443TIP3    H143272   7.973   7.126   4.013 -0.4997 -0.5406  0.6430
14443TIP3    H243273   8.119   7.089   4.032  0.3753  1.8418 -1.0821
14444TIP3   OH243274   1.362   6.275   2.026  0.0606  0.2173 -0.5243
14444TIP3    H143275   1.286   6.222   2.002  0.0887  0.6569 -1.6515
14444TIP3    H243276   1.404   6.226   2.096  0.6015 -1.7642 -2.1197
14445TIP3   OH243277   2.452   2.464   6.329  0.0645 -0.0248  0.1836
14445TIP3    H143278   2.373   2.479   6.381 -0.7447 -0.3845 -0.9137
14445TIP3    H243279   2.464   2.546   6.281 -0.6104 -0.5201 -0.8820
14446TIP3   OH243280   7.755   5.866   6.439  0.0614  0.3404 -0.1855
14446TIP3    H143281   7.725   5.948   6.478 -1.4032 -1.1484  2.0174
14446TIP3    H243282   7.745   5.879   6.345  0.2010  2.7796  0.0709
14447TIP3   OH243283   5.596   0.228   1.615 -0.4333  0.2318 -0.0657
14447TIP3    H143284   5.649   0.152   1.592 -0.0648  0.8805 -1.5137
14447TIP3    H243285   5.506   0.202   1.594 -0.0294  1.1102 -3.4880
14448TIP3   OH243286   1.621   5.259   3.846 -0.0363 -0.4144  0.1934
14448TIP3    H143287   1.597   5.216   3.765 -1.0733 -1.2580  0.9175
14448TIP3    H243288   1.545   5.247   3.903  0.0125  1.5618  0.7585
14449TIP3   OH243289   6.912   7.079   3.840  0.2208 -0.0761  0.0126
14449TIP3    H143290   6.880   7.160   3.878 -0.6497  0.0270 -0.9006
14449TIP3    H243291   6.840   7.048   3.784  1.7371  0.2291 -2.2326
14450TIP3   OH243292   2.823   1.571   3.309  0.0769 -0.2441  0.1738
14450TIP3    H143293   2.883   1.616   3.367 -2.2108 -0.4170  2.8704
14450TIP3    H243294   2.833   1.478   3.331  0.8078 -0.5708 -1.4030
14451TIP3   OH243295   5.666   3.827   0.634  0.1993 -0.0804 -0.0042
14451TIP3    H143296   5.682   3.819   0.728  1.5239 -0.5182 -0.2453
14451TIP3    H243297   5.753   3.819   0.594 -0.1137  1.7188 -1.1816
14452TIP3   OH243298   2.228   0.767   2.742  0.0227 -0.2564 -0.1778
14452TIP3    H143299   2.235   0.713   2.664  1.7635 -0.0695 -0.2002
14452TIP3    H243300   2.146   0.740   2.783  0.1184 -1.8505 -0.9555
14453TIP3   OH243301   1.878   3.816   2.032  0.2088 -0.1154 -0.0098
14453TIP3    H143302   1.971   3.791   2.025 -0.2577 -2.4210  0.9652
14453TIP3    H243303   1.841   3.794   1.946  0.6440  1.4410 -0.6344
14454TIP3   OH243304   7.322   6.587   1.271  0.0286 -0.1867  0.3636
14454TIP3    H143305   7.377   6.550   1.202  0.1259  0.8531 -0.1322
14454TIP3    H243306   7.251   6.524   1.281  0.9100 -1.1855  0.5083
14455TIP3   OH243307   6.808   5.559   4.317  0.3874  0.3254  0.4755
14455TIP3    H143308   6.727   5.518   4.286 -0.2209  1.0326  1.0845
14455TIP3    H243309   6.825   5.630   4.255 -0.8024  1.7086  1.6548
14456TIP3   OH243310   3.187   4.285   6.442  0.5285  0.4941  0.3517
14456TIP3    H143311   3.280   4.305   6.452  0.5723  0.4052  0.1280
14456TIP3    H243312   3.143   4.350   6.495  0.6880  0.9725 -0.0917
14457TIP3   OH243313   4.990   1.356   2.432 -0.1141 -0.2811 -0.0108
14457TIP3    H143314   4.915   1.351   2.372 -0.7865  3.0810  0.3611
14457TIP3    H243315   5.026   1.444   2.419  0.9242 -0.1086  3.1262
14458TIP3   OH243316   0.438   5.383   6.334  0.4397  0.1183 -0.1090
14458TIP3    H143317   0.532   5.401   6.321  0.3829  1.2178  0.8502
14458TIP3    H243318   0.433   5.347   6.422 -0.0723  0.3331 -0.0514
14459TIP3   OH243319   6.857   2.075   4.061 -0.6878 -0.6051 -0.1913
14459TIP3    H143320   6.903   2.066   3.978  0.0601 -1.5127  0.2979
14459TIP3    H243321   6.927   2.074   4.127 -1.2731  0.0457  0.4557
14460TIP3   OH243322   3.130   3.978   0.859  0.1303  0.3617 -0.0685
14460TIP3    H143323   3.216   4.002   0.895  0.4638  0.2222 -0.7430
14460TIP3    H243324   3.121   4.034   0.781 -0.0362 -0.1904 -0.4516
14461TIP3   OH243325   0.894   1.926   5.070  0.3401 -0.3436  0.0269
14461TIP3    H143326   0.819   1.959   5.118  1.2903 -0.6438  1.8077
14461TIP3    H243327   0.918   1.998   5.010 -1.7463 -0.5351 -1.1202
14462TIP3   OH243328   4.947   2.130   0.094  0.6422  0.0261  0.2527
14462TIP3    H143329   4.947   2.208   0.040  2.2329  0.1462  0.3852
14462TIP3    H243330   4.859   2.093   0.084  1.1444 -0.5379 -3.2258
14463TIP3   OH243331   4.364   3.126   1.200 -0.7583  0.4971  0.2091
14463TIP3    H143332   4.321   3.209   1.222 -0.1286  0.4979  1.5073
14463TIP3    H243333   4.292   3.068   1.174 -1.1149  1.7415 -1.8181
14464TIP3   OH243334   6.463   6.897   5.718 -0.0847 -0.1399  0.0451
14464TIP3    H143335   6.426   6.949   5.789 -1.0696  1.3909 -1.5011
14464TIP3    H243336   6.420   6.812   5.724  0.2685 -0.2342  1.5817
14465TIP3   OH243337   5.022   4.993   4.578  0.5812  0.5886  0.4038
14465TIP3    H143338   5.080   4.925   4.613  1.1020  0.1721 -1.1978
14465TIP3    H243339   4.957   5.007   4.647  0.7840 -1.1402  0.9771
14466TIP3   OH243340   7.487   4.785   0.630 -0.3167 -1.2496 -0.8045
14466TIP3    H143341   7.400   4.751   0.613 -1.3681  0.9901 -0.3234
14466TIP3    H243342   7.492   4.866   0.579  0.4289  0.0569  1.1885
14467TIP3   OH243343   2.902   3.534   0.254 -0.0254 -0.3970  0.0568
14467TIP3    H143344   2.828   3.497   0.302 -0.1378  0.3048  0.4345
14467TIP3    H243345   2.864   3.603   0.200  0.4180  0.2813  0.6049
14468TIP3   OH243346   3.101   2.405   2.404  0.3770  0.2119 -0.1507
14468TIP3    H143347   3.082   2.320   2.442  0.0332 -0.3901 -1.6326
14468TIP3    H243348   3.123   2.387   2.312  1.0086  1.6367 -0.3144
14469TIP3   OH243349   5.866   7.638   1.865  0.4577 -0.1073 -0.2722
14469TIP3    H143350   5.857   7.566   1.803 -0.4797  0.2446 -0.5616
14469TIP3    H243351   5.787   7.634   1.919  0.5798  0.4619 -0.0391
14470TIP3   OH243352   0.745   5.745   4.466 -0.1100 -0.2760  0.0490
14470TIP3    H143353   0.799   5.766   4.542  0.1627  0.1002 -0.2437
14470TIP3    H243354   0.666   5.799   4.477  0.0002 -0.0999 -0.0129
14471TIP3   OH243355   5.989   6.683   2.581 -0.7128 -0.2678  0.0267
14471TIP3    H143356   6.007   6.693   2.674 -0.4343 -0.0187 -0.0523
14471TIP3    H243357   5.994   6.589   2.565  0.3592 -0.2195  0.0447
14472TIP3   OH243358   6.874   2.936   5.255  0.5104 -0.6837 -0.6049
14472TIP3    H143359   6.796   2.885   5.236  0.2982 -0.6422  0.1153
14472TIP3    H243360   6.918   2.887   5.325  1.3135 -0.8936 -1.2465
14473TIP3   OH243361   2.760   7.558   2.724  0.2073  0.5552  0.9152
14473TIP3    H143362   2.768   7.521   2.636 -0.3182  1.2068  0.5761
14473TIP3    H243363   2.785   7.487   2.783 -0.9148 -0.3969  0.2992
14474TIP3   OH243364   0.189   6.254   4.869 -0.1102 -0.6317  0.4389
14474TIP3    H143365   0.271   6.299   4.849  0.0034 -1.5602 -1.3365
14474TIP3    H243366   0.124   6.325   4.870 -0.0896 -0.3505 -3.2156
14475TIP3   OH243367   4.530   5.503   0.972  0.0452  1.1336 -0.3905
14475TIP3    H143368   4.544   5.438   1.040  1.1543  0.4865 -1.2031
14475TIP3    H243369   4.454   5.553   1.002 -0.3038  0.0237  0.6636
14476TIP3   OH243370   5.806   0.365   1.122  0.3697 -0.1850 -0.3782
14476TIP3    H143371   5.774   0.405   1.041  0.8601  1.4157  0.1686
14476TIP3    H243372   5.821   0.440   1.180 -2.3615 -1.4172  2.1178
14477TIP3   OH243373   6.513   1.410   3.220  0.2091 -0.3061 -0.0467
14477TIP3    H143374   6.540   1.420   3.129  1.3071  1.8271  0.4552
14477TIP3    H243375   6.435   1.353   3.216  2.2476 -3.2441 -1.9346
14478TIP3   OH243376   6.672   2.021   2.399  0.4013 -0.3921  0.1986
14478TIP3    H143377   6.687   2.015   2.493 -1.3952 -2.3403  0.4319
14478TIP3    H243378   6.760   2.032   2.362  1.2771 -0.8109  2.0101
14479TIP3   OH243379   7.948   5.054   6.112  0.3013 -0.3257  0.1327
14479TIP3    H143380   7.880   5.041   6.046 -0.3785  2.4173  0.1912
14479TIP3    H243381   7.907   5.025   6.193 -1.3475  2.2725  0.3615
14480TIP3   OH243382   3.434   0.782   6.681 -0.5619 -0.2882  0.1005
14480TIP3    H143383   3.376   0.711   6.708  1.0388 -1.1196  1.5072
14480TIP3    H243384   3.427   0.847   6.751 -0.7791  0.2132 -0.3782
14481TIP3   OH243385   1.680   3.892   0.050  0.3463  0.2574 -0.0295
14481TIP3    H143386   1.666   3.943   0.130 -0.2990  0.3460 -0.1939
14481TIP3    H243387   1.761   3.844   0.066 -0.9000 -1.4582  1.6100
14482TIP3   OH243388   4.182   5.307   4.781  0.4867  0.2572  0.8193
14482TIP3    H143389   4.220   5.288   4.866  4.4200  2.8197 -0.0544
14482TIP3    H243390   4.197   5.228   4.729 -0.0072 -0.5583  1.8927
14483TIP3   OH243391   2.423   1.055   1.311  0.1307 -0.0397 -0.3392
14483TIP3    H143392   2.444   1.141   1.346  0.8498 -0.6159  0.7011
14483TIP3    H243393   2.332   1.061   1.283 -0.4191  0.5161  1.4775
14484TIP3   OH243394   2.403   3.928   4.097 -0.3261  0.1548 -0.4629
14484TIP3    H143395   2.479   3.987   4.089 -0.5522  0.3469 -1.3646
14484TIP3    H243396   2.433   3.857   4.154  0.3062  0.5848 -0.2497
14485TIP3   OH243397   7.572   0.139   4.935 -0.3815  0.0683  0.2726
14485TIP3    H143398   7.485   0.113   4.965 -1.0606 -0.5572 -2.0321
14485TIP3    H243399   7.579   0.231   4.959 -3.0769  1.0793 -2.2622
14486TIP3   OH243400   3.941   4.836   0.282 -0.5951 -0.3224 -0.1564
14486TIP3    H143401   3.889   4.891   0.340 -1.8359 -0.8166 -0.7668
14486TIP3    H243402   3.877   4.788   0.230  0.4678 -0.1278 -1.7191
14487TIP3   OH243403   1.540   1.181   6.738  0.4427  0.6951  0.1253
14487TIP3    H143404   1.459   1.187   6.790  0.6946  1.0971  0.4810
14487TIP3    H243405   1.566   1.272   6.726  0.4903  0.5931 -0.5525
14488TIP3   OH243406   1.538   3.439   3.173 -0.2788 -0.3414  0.4901
14488TIP3    H143407   1.574   3.520   3.137  1.6628 -0.5878  1.7665
14488TIP3    H243408   1.594   3.370   3.137  0.7489 -0.7217  2.6868
14489TIP3   OH243409   3.974   2.562   2.655 -0.0187  0.4908 -0.1793
14489TIP3    H143410   4.013   2.567   2.568 -0.8759  1.0371 -0.5405
14489TIP3    H243411   4.031   2.502   2.703  2.1049  2.2719 -0.2506
14490TIP3   OH243412   5.134   0.776   1.483  0.5073 -0.0392  0.0995
14490TIP3    H143413   5.223   0.741   1.485  0.8420  0.8221  1.0948
14490TIP3    H243414   5.079   0.702   1.509  0.9393 -0.5312 -0.3633
14491TIP3   OH243415   5.604   5.728   6.037 -0.2836 -0.1567  0.3059
14491TIP3    H143416   5.531   5.758   5.984  0.6019  1.7803  0.1086
14491TIP3    H243417   5.659   5.806   6.049  0.7016 -1.0718  2.1510
14492TIP3   OH243418   2.100   2.663   0.106  0.6953 -0.2628  0.2828
14492TIP3    H143419   2.027   2.675   0.045  0.3057 -1.5895  0.4567
14492TIP3    H243420   2.066   2.688   0.191  1.7471  3.3201 -0.1849
14493TIP3   OH243421   4.169   0.419   4.775 -0.1012  0.2655 -0.0206
14493TIP3    H143422   4.130   0.342   4.734  1.3210  0.0295 -0.9932
14493TIP3    H243423   4.153   0.407   4.869  0.4767 -1.4548 -0.1065
14494TIP3   OH243424   1.902   4.633   3.300  0.1187  0.0608 -0.0245
14494TIP3    H143425   1.990   4.598   3.314 -0.4886 -1.3124  0.5029
14494TIP3    H243426   1.872   4.591   3.220  0.0690  0.8391 -0.4314
14495TIP3   OH243427   3.649   3.213   4.742 -0.6368 -0.2024  0.1704
14495TIP3    H143428   3.599   3.255   4.813  0.7278 -0.0081  1.0519
14495TIP3    H243429   3.675   3.128   4.777  0.0873 -0.0871 -0.0633
14496TIP3   OH243430   7.584   1.087   5.395  1.0925  0.6388  0.5719
14496TIP3    H143431   7.510   1.144   5.372  1.2429  0.4277 -0.4624
14496TIP3    H243432   7.604   1.039   5.315  2.0705  0.3617  0.9637
14497TIP3   OH243433   5.473   4.972   4.450 -0.1088  0.2522 -0.0349
14497TIP3    H143434   5.459   5.028   4.527  0.9153 -0.0107  0.3602
14497TIP3    H243435   5.428   4.890   4.473  1.2144 -0.2698  0.8435
14498TIP3   OH243436   2.145   1.754   2.140 -0.6567  0.2054 -0.0718
14498TIP3    H143437   2.117   1.843   2.118 -1.1887  0.1022  0.1793
14498TIP3    H243438   2.067   1.700   2.127 -0.1702 -0.3236 -0.8107
14499TIP3   OH243439   4.336   3.621   5.792  0.3298  0.2116  0.0880
14499TIP3    H143440   4.269   3.644   5.727 -0.0647  0.3483  0.5362
14499TIP3    H243441   4.358   3.530   5.772 -0.8722 -0.2395  0.6654
14500TIP3   OH243442   2.912   3.705   0.828 -0.1960  0.4916 -0.0046
14500TIP3    H143443   2.979   3.771   0.812  2.5563 -1.4864  2.4684
14500TIP3    H243444   2.939   3.629   0.776 -0.1937 -0.4585  1.3084
14501TIP3   OH243445   8.184   2.290   3.644 -0.0613 -0.1933  0.0228
14501TIP3    H143446   8.111   2.313   3.703 -0.7376 -0.0210 -0.8612
14501TIP3    H243447   8.241   2.366   3.646 -2.1110  1.6218 -2.6163
14502TIP3   OH243448   0.546   3.712   0.176  0.3766 -0.5817 -0.2170
14502TIP3    H143449   0.595   3.752   0.249  1.6284 -1.1461 -0.7355
14502TIP3    H243450   0.592   3.631   0.157 -1.3627 -1.6560 -0.0677
14503TIP3   OH243451   3.972   3.054   3.976  0.0281 -0.8819  0.1772
14503TIP3    H143452   4.058   3.012   3.980 -0.7509 -2.5570  0.0027
14503TIP3    H243453   3.925   3.007   3.907 -0.7221  0.6695 -0.4395
14504TIP3   OH243454   2.244   4.045   2.281  0.5624  0.1165 -0.3973
14504TIP3    H143455   2.315   4.082   2.334  0.1502  1.3674 -0.6833
14504TIP3    H243456   2.286   4.026   2.196  0.2676  2.2650 -1.0752
14505TIP3   OH243457   5.096   2.571   4.080  0.0517  0.0002  0.1856
14505TIP3    H143458   5.048   2.494   4.049 -2.0343  1.1144  0.4744
14505TIP3    H243459   5.086   2.569   4.176 -2.4272  1.9844  0.0901
14506TIP3   OH243460   3.407   7.280   6.649  0.7429 -0.2031  0.4191
14506TIP3    H143461   3.436   7.339   6.718  0.0571 -1.2479  1.6550
14506TIP3    H243462   3.484   7.268   6.593  1.6553 -0.1929  1.6378
14507TIP3   OH243463   6.544   5.915   3.371  0.1952  0.3188  0.4653
14507TIP3    H143464   6.639   5.921   3.375  0.2814 -0.8648  0.6244
14507TIP3    H243465   6.525   5.882   3.283  0.0113 -0.4321  0.7743
14508TIP3   OH243466   5.633   7.314   6.042 -0.0015  0.0637  0.9874
14508TIP3    H143467   5.669   7.299   6.130  0.8073  0.2881  0.7080
14508TIP3    H243468   5.583   7.394   6.050  0.6643  0.4803  1.0881
14509TIP3   OH243469   4.496   6.697   4.035 -0.3593 -0.3033  0.3047
14509TIP3    H143470   4.470   6.679   3.944  0.8013  0.7229 -0.2690
14509TIP3    H243471   4.586   6.663   4.041 -0.1066  0.4165  0.7912
14510TIP3   OH243472   1.804   3.912   5.153  0.4870 -0.1447  0.4350
14510TIP3    H143473   1.785   3.910   5.247 -3.0765 -0.8293 -0.1491
14510TIP3    H243474   1.855   3.833   5.138  3.1360  1.1278  2.0470
14511TIP3   OH243475   2.632   5.585   1.592  0.1563 -0.1279  0.1773
14511TIP3    H143476   2.664   5.674   1.608  2.8442 -1.0789  0.5572
14511TIP3    H243477   2.649   5.568   1.500 -1.7624  0.2186 -0.2865
14512TIP3   OH243478   0.640   6.620   0.501 -0.5736  0.4044 -0.3617
14512TIP3    H143479   0.674   6.709   0.489  1.7256 -0.4978 -0.9500
14512TIP3    H243480   0.571   6.612   0.434 -0.6806  1.6638 -0.4240
14513TIP3   OH243481   4.116   0.852   2.078  0.0432 -0.4269 -0.4442
14513TIP3    H143482   4.133   0.767   2.119  0.7249  0.7322  1.8037
14513TIP3    H243483   4.081   0.829   1.992  0.4256 -2.9806 -0.0218
14514TIP3   OH243484   3.075   7.775   4.567 -0.0630  0.3229  0.0248
14514TIP3    H143485   3.018   7.817   4.632 -1.2538  2.3309 -2.1367
14514TIP3    H243486   3.153   7.830   4.565  0.0815  0.1137 -0.0836
14515TIP3   OH243487   5.943   5.569   0.257  0.1281 -0.3552 -0.0934
14515TIP3    H143488   6.032   5.540   0.276  1.0724  0.1096 -3.2593
14515TIP3    H243489   5.950   5.664   0.246 -0.6356 -0.3790 -0.8783
14516TIP3   OH243490   7.238   3.639   3.309  0.3700 -0.4367 -0.3221
14516TIP3    H143491   7.270   3.711   3.364 -0.4801 -0.0400 -0.3280
14516TIP3    H243492   7.148   3.624   3.339  0.4613 -1.3495 -0.4767
14517TIP3   OH243493   6.903   1.721   5.085  0.1864 -0.5672  0.2220
14517TIP3    H143494   6.831   1.779   5.063  0.4877 -0.9171 -1.9460
14517TIP3    H243495   6.865   1.633   5.085  0.3444 -0.6367  0.3435
14518TIP3   OH243496   4.404   1.649   0.951 -0.1434 -0.3316  0.3124
14518TIP3    H143497   4.372   1.700   0.877 -1.4219 -1.4172  0.0886
14518TIP3    H243498   4.445   1.572   0.912  1.3758  0.2673  0.6645
14519TIP3   OH243499   5.533   5.437   6.132 -0.4074  0.0311 -0.5098
14519TIP3    H143500   5.580   5.372   6.186 -1.3137 -1.3453 -1.3035
14519TIP3    H243501   5.602   5.480   6.082  0.1414 -1.1123 -0.7731
14520TIP3   OH243502   1.738   3.781   0.655 -0.7447 -0.2201 -0.5326
14520TIP3    H143503   1.726   3.827   0.572 -1.0712 -2.1554 -1.6447
14520TIP3    H243504   1.670   3.816   0.713 -2.2398 -0.6478 -1.9560
14521TIP3   OH243505   6.966   6.834   4.922 -0.1844 -0.2602 -1.2529
14521TIP3    H143506   6.880   6.872   4.940 -0.9437 -2.7640  0.8834
14521TIP3    H243507   6.947   6.746   4.890  1.5929 -0.6291 -1.3576
14522TIP3   OH243508   7.258   7.742   3.453  0.2222  0.8358 -0.5199
14522TIP3    H143509   7.261   7.693   3.535  0.8989 -0.0267 -1.0458
14522TIP3    H243510   7.334   7.711   3.403  0.5226  2.2259 -0.9787
14523TIP3   OH243511   5.353   7.121   5.302 -0.3784  0.1516 -0.4218
14523TIP3    H143512   5.406   7.191   5.262 -0.0188 -0.6970 -1.4812
14523TIP3    H243513   5.272   7.164   5.328  0.7203  1.4481  1.0468
14524TIP3   OH243514   4.434   6.227   2.279 -0.9822 -0.1382 -0.1962
14524TIP3    H143515   4.437   6.316   2.244 -1.0704 -0.1628 -0.2641
14524TIP3    H243516   4.353   6.224   2.330 -1.7556 -0.6492 -1.4223
14525TIP3   OH243517   0.715   6.703   3.343 -0.0159 -0.2641 -0.3804
14525TIP3    H143518   0.660   6.755   3.400 -1.7271 -1.9492 -0.4075
14525TIP3    H243519   0.681   6.718   3.255  0.1404 -0.6346 -0.5091
14526TIP3   OH243520   1.149   1.867   4.434  0.0252  0.8076  0.6157
14526TIP3    H143521   1.214   1.844   4.501  0.1746  1.4425  0.6969
14526TIP3    H243522   1.133   1.786   4.387  1.1507  0.7117  0.3657
14527TIP3   OH243523   6.649   0.733   0.991 -0.2260  0.7837  0.0920
14527TIP3    H143524   6.608   0.806   0.944  2.1269  2.2280  0.1540
14527TIP3    H243525   6.649   0.661   0.927 -1.0502  1.3494 -0.5649
14528TIP3   OH243526   7.677   0.613   1.696  0.1473 -0.1224  0.0186
14528TIP3    H143527   7.677   0.527   1.739 -1.5395 -0.1866 -0.0743
14528TIP3    H243528   7.754   0.610   1.639  1.0592 -0.9372  1.2301
14529TIP3   OH243529   8.158   6.592   0.552  0.3734  0.3266 -0.3990
14529TIP3    H143530   8.119   6.562   0.634  1.3324  1.4608  0.5015
14529TIP3    H243531   8.120   6.535   0.485 -2.2249  0.8320  0.5095
14530TIP3   OH243532   7.203   1.534   4.042  0.8070 -0.0233 -0.8329
14530TIP3    H143533   7.148   1.466   4.003  0.4234 -0.9911  1.2811
14530TIP3    H243534   7.267   1.485   4.095  0.8825  1.2256  0.2780
14531TIP3   OH243535   8.155   6.457   2.282  0.4895  0.2024 -0.3801
14531TIP3    H143536   8.232   6.453   2.225  0.0629 -0.0019 -0.9544
14531TIP3    H243537   8.098   6.387   2.249  0.6354 -0.5389  0.8904
14532TIP3   OH243538   6.306   1.419   0.509 -0.0054  0.3610 -0.4887
14532TIP3    H143539   6.321   1.415   0.604  1.2006  1.0307 -0.6261
14532TIP3    H243540   6.355   1.496   0.480 -2.3085  1.5720 -1.3375
14533TIP3   OH243541   0.964   0.297   2.211 -0.5674  0.3917  0.3837
14533TIP3    H143542   1.036   0.328   2.266  1.1803 -2.5774  0.0162
14533TIP3    H243543   0.956   0.364   2.143  2.6901  0.3476 -0.2034
14534TIP3   OH243544   5.607   7.169   5.234  0.2114 -0.0275  0.2891
14534TIP3    H143545   5.573   7.108   5.300  1.6854 -1.5864 -0.3099
14534TIP3    H243546   5.702   7.162   5.243  0.4233  0.5742 -1.2672
14535TIP3   OH243547   3.216   2.535   3.267  0.0577 -0.1683  0.1784
14535TIP3    H143548   3.138   2.591   3.272  0.1736 -0.0465  0.6725
14535TIP3    H243549   3.215   2.500   3.178  0.5508  1.4475 -0.5090
14536TIP3   OH243550   7.062   1.823   3.847  0.0094  0.7728 -0.3164
14536TIP3    H143551   7.011   1.754   3.804  0.3747  0.3644 -0.1088
14536TIP3    H243552   7.033   1.819   3.938  2.1773 -1.1885  0.3848
14537TIP3   OH243553   6.565   5.577   4.831 -0.2816 -0.3167  0.2846
14537TIP3    H143554   6.626   5.609   4.897 -0.8009 -1.2239  1.2168
14537TIP3    H243555   6.493   5.641   4.833 -0.2073 -0.2371  0.4617
14538TIP3   OH243556   0.203   7.429   5.699  0.0453 -0.3511  0.1099
14538TIP3    H143557   0.221   7.337   5.715 -2.3238 -0.7989  0.6066
14538TIP3    H243558   0.262   7.477   5.756  0.5950 -1.5966  0.5983
14539TIP3   OH243559   4.046   1.671   2.798  0.1966 -0.2801 -0.2761
14539TIP3    H143560   4.087   1.731   2.861 -1.0582 -0.3183  0.5946
14539TIP3    H243561   4.080   1.585   2.820  0.3392 -0.1909 -0.1479
14540TIP3   OH243562   5.855   4.096   5.506 -0.7598  0.5196 -0.4945
14540TIP3    H143563   5.902   4.019   5.472 -0.8091 -0.7575  2.0648
14540TIP3    H243564   5.924   4.159   5.527 -0.6558  0.8728 -1.7994
14541TIP3   OH243565   4.968   0.849   2.385 -0.3090 -0.4973 -0.4166
14541TIP3    H143566   4.978   0.902   2.306 -0.6715 -1.7198 -1.3032
14541TIP3    H243567   4.959   0.913   2.456  1.2016  0.6303 -1.1894
14542TIP3   OH243568   2.904   0.728   3.425  0.1652 -0.1857 -0.3875
14542TIP3    H143569   2.981   0.681   3.393  1.4097  0.0292  2.0966
14542TIP3    H243570   2.856   0.664   3.476  0.7298  0.6120  1.2055
14543TIP3   OH243571   7.043   6.893   6.283 -0.5282  0.3701 -0.8694
14543TIP3    H143572   7.069   6.845   6.204  0.4753  0.3078 -0.5234
14543TIP3    H243573   7.119   6.949   6.302 -0.2832 -0.4178  0.6750
14544TIP3   OH243574   7.387   1.239   1.008  0.1167 -0.1119  0.2210
14544TIP3    H143575   7.361   1.222   0.917  0.3473 -0.1325  0.1597
14544TIP3    H243576   7.315   1.290   1.044 -0.1636 -0.4441  0.1407
14545TIP3   OH243577   0.902   2.315   4.655  0.3324 -0.1166 -0.1500
14545TIP3    H143578   0.966   2.336   4.587 -0.1149 -0.8629 -0.8219
14545TIP3    H243579   0.866   2.399   4.682 -1.2123  0.0980 -2.5556
14546TIP3   OH243580   4.657   2.829   1.037 -0.1603  0.1599  0.2785
14546TIP3    H143581   4.646   2.825   1.132  1.0512  1.7965  0.5332
14546TIP3    H243582   4.607   2.906   1.011  1.9326  1.5465  0.0699
14547TIP3   OH243583   5.077   4.011   4.959 -0.3186  0.2097 -0.3450
14547TIP3    H143584   5.089   3.969   4.874  2.2950 -0.6198  0.3460
14547TIP3    H243585   5.028   3.948   5.011  0.0778 -0.2606 -0.5385
14548TIP3   OH243586   4.334   7.367   1.128 -0.2515  0.0481 -0.0331
14548TIP3    H143587   4.264   7.337   1.187 -1.4475  0.0625 -1.3980
14548TIP3    H243588   4.323   7.462   1.124 -1.3942 -0.1136 -1.6995
14549TIP3   OH243589   4.461   7.740   5.311 -0.5950 -0.5101 -0.5942
14549TIP3    H143590   4.547   7.782   5.324 -0.8429 -0.4575  1.2450
14549TIP3    H243591   4.475   7.677   5.241  1.0384 -0.6805 -0.1586
14550TIP3   OH243592   5.500   4.499   5.994  0.6424  0.1464 -0.2493
14550TIP3    H143593   5.432   4.554   5.955  1.8793  1.0497 -1.2241
14550TIP3    H243594   5.548   4.557   6.053 -0.8819 -1.0811  2.3757
14551TIP3   OH243595   0.186   4.926   0.038  0.2792  0.2759  0.6546
14551TIP3    H143596   0.276   4.894   0.044  0.6403  0.8902 -0.8411
14551TIP3    H243597   0.133   4.848   0.024  0.8007  0.0563 -0.1574
14552TIP3   OH243598   6.275   6.593   3.684 -0.3164  0.2271  0.2275
14552TIP3    H143599   6.357   6.548   3.702 -0.6558 -0.3924  0.2539
14552TIP3    H243600   6.285   6.679   3.726  0.6768  0.5239 -0.5656
14553TIP3   OH243601   1.498   7.753   5.097 -0.3009 -0.0053  0.1584
14553TIP3    H143602   1.435   7.824   5.084 -0.8918 -0.6515 -0.5897
14553TIP3    H243603   1.463   7.680   5.046  2.3835  0.3571 -2.4461
14554TIP3   OH243604   2.176   2.301   1.562  0.5715 -0.4831 -0.0976
14554TIP3    H143605   2.266   2.329   1.581  0.3484 -0.0801  0.3535
14554TIP3    H243606   2.174   2.209   1.588  0.0880  0.2109  2.5144
14555TIP3   OH243607   5.037   0.259   2.138 -0.7612  0.4648 -0.0142
14555TIP3    H143608   5.111   0.319   2.141  0.0719 -0.5454  0.9674
14555TIP3    H243609   5.019   0.246   2.045  1.0352 -0.1099 -0.3132
14556TIP3   OH243610   8.131   6.686   0.123 -0.4678  0.2351  0.0098
14556TIP3    H143611   8.188   6.641   0.185  0.1034 -0.1232 -0.7582
14556TIP3    H243612   8.108   6.768   0.166  0.3539  0.2259  0.4740
14557TIP3   OH243613   1.004   7.622   4.194  0.2641  0.6796  0.4875
14557TIP3    H143614   1.056   7.702   4.182 -0.3576  0.8328 -1.5913
14557TIP3    H243615   0.926   7.636   4.141  0.7274 -1.7903 -1.0150
14558TIP3   OH243616   0.644   0.613   2.476 -0.5713 -0.2144 -0.0550
14558TIP3    H143617   0.590   0.632   2.552 -0.9681  3.6543 -1.1094
14558TIP3    H243618   0.585   0.620   2.401  0.6654  0.7178 -0.9979
14559TIP3   OH243619   2.490   3.589   2.085 -0.2140  1.0177 -0.1341
14559TIP3    H143620   2.414   3.643   2.064 -0.3753  0.7627 -0.2162
14559TIP3    H243621   2.454   3.501   2.098 -0.0166  1.0271  0.4794
14560TIP3   OH243622   0.897   0.305   4.877  0.1925  0.4031  0.1269
14560TIP3    H143623   0.813   0.281   4.838  0.2076 -1.2187  1.0152
14560TIP3    H243624   0.894   0.269   4.966  2.2705 -0.7469 -0.2030
14561TIP3   OH243625   8.023   2.306   1.521 -0.4835 -0.2732  0.1383
14561TIP3    H143626   8.024   2.276   1.430  1.4570  0.0972 -0.0017
14561TIP3    H243627   7.955   2.253   1.563  0.9737 -3.0245 -0.7282
14562TIP3   OH243628   6.361   1.054   0.380  0.0437  0.0518 -0.4016
14562TIP3    H143629   6.444   1.019   0.414 -0.2864  2.1648  3.0236
14562TIP3    H243630   6.365   1.147   0.398 -3.0788  0.2316 -0.1380
14563TIP3   OH243631   6.770   3.028   3.019  0.5546 -0.4152  0.4136
14563TIP3    H143632   6.698   2.965   3.022  0.8846 -0.8177  0.0749
14563TIP3    H243633   6.767   3.064   2.930  1.0623 -0.7887  0.2394
14564TIP3   OH243634   0.921   7.614   0.710 -0.3064  0.0435 -0.1006
14564TIP3    H143635   0.921   7.702   0.672 -0.0001 -0.0919 -0.4170
14564TIP3    H243636   0.966   7.560   0.645  0.7288 -0.0881  0.6920
14565TIP3   OH243637   5.745   3.993   5.185  0.2338 -0.2947 -0.5958
14565TIP3    H143638   5.768   3.918   5.239  0.9398  0.0701 -0.3830
14565TIP3    H243639   5.736   4.066   5.246  2.2321  0.3939 -1.0564
14566TIP3   OH243640   3.067   7.010   1.296  0.9054  0.3178 -0.2747
14566TIP3    H143641   3.061   6.942   1.363  0.2117  0.0779 -0.5766
14566TIP3    H243642   3.025   7.086   1.335 -0.2304 -0.0618 -0.7344
14567TIP3   OH243643   2.965   1.910   3.405  0.1501  0.3896  0.3512
14567TIP3    H143644   2.983   1.830   3.455  1.3487 -0.4377 -1.2939
14567TIP3    H243645   2.987   1.982   3.464  2.8202 -0.5428  0.6234
14568TIP3   OH243646   5.581   3.306   2.048 -0.1200 -0.6180  0.3397
14568TIP3    H143647   5.672   3.274   2.047 -0.1350 -0.6376 -0.3814
14568TIP3    H243648   5.532   3.242   1.997 -0.6653 -0.9508  1.2587
14569TIP3   OH243649   4.175   5.635   2.212 -0.3308 -0.5316 -0.1133
14569TIP3    H143650   4.144   5.725   2.212  0.2700 -0.3200  0.3130
14569TIP3    H243651   4.190   5.614   2.120  1.5562  0.5181 -0.0824
14570TIP3   OH243652   1.725   3.775   6.178  0.0900  0.3914  0.5586
14570TIP3    H143653   1.734   3.789   6.273  0.9812  0.5808  0.4565
14570TIP3    H243654   1.747   3.859   6.139 -1.4213  0.6568  0.2045
14571TIP3   OH243655   1.225   6.626   3.617  0.1839 -0.9069 -0.1453
14571TIP3    H143656   1.197   6.695   3.677  1.0302 -1.9539  1.5228
14571TIP3    H243657   1.182   6.647   3.534 -0.2710  1.1113  0.5583
14572TIP3   OH243658   7.138   4.017   2.821 -0.2933  0.5846 -0.1564
14572TIP3    H143659   7.231   3.994   2.810 -0.1166  0.1413  1.8413
14572TIP3    H243660   7.091   3.937   2.796 -0.1582  0.7851 -1.0978
14573TIP3   OH243661   5.907   3.589   5.865  0.0735  0.4680  0.1943
14573TIP3    H143662   5.945   3.634   5.941  1.3337  1.1536 -0.7917
14573TIP3    H243663   5.982   3.572   5.809 -0.7484 -0.6659 -0.5792
14574TIP3   OH243664   6.064   4.351   1.445 -0.6223 -0.1393 -0.2587
14574TIP3    H143665   5.999   4.367   1.376 -0.2908  1.1357 -0.3029
14574TIP3    H243666   6.091   4.260   1.432 -0.4498  0.1193 -1.9401
14575TIP3   OH243667   5.166   4.243   6.035  0.2664  0.8700 -0.8123
14575TIP3    H143668   5.087   4.254   5.984 -1.5901 -0.3781  1.5740
14575TIP3    H243669   5.155   4.302   6.109  1.9443  1.2305 -0.8136
14576TIP3   OH243670   4.252   0.875   4.966  0.0772  0.3698 -0.0163
14576TIP3    H143671   4.181   0.814   4.982 -0.0540  0.4926 -0.1193
14576TIP3    H243672   4.332   0.825   4.983 -0.0086 -0.0276 -0.7523
14577TIP3   OH243673   2.745   4.517   1.819 -0.2082 -0.0850  0.3340
14577TIP3    H143674   2.731   4.537   1.912  1.5168  1.3420  0.3488
14577TIP3    H243675   2.829   4.471   1.817 -0.2729 -0.1810 -0.4993
14578TIP3   OH243676   5.510   1.473   2.178  0.1908  0.2830  0.5020
14578TIP3    H143677   5.537   1.387   2.212 -0.0248 -0.0049 -0.0383
14578TIP3    H243678   5.506   1.460   2.084 -1.9976  0.2601  0.5562
14579TIP3   OH243679   7.649   1.737   4.027  0.0140  0.3546 -0.2093
14579TIP3    H143680   7.596   1.796   4.080 -2.1628 -1.4662 -0.2276
14579TIP3    H243681   7.617   1.749   3.938  0.0120 -0.3823 -0.3112
14580TIP3   OH243682   0.408   7.783   0.081  1.0490 -0.3948  0.6006
14580TIP3    H143683   0.324   7.738   0.078 -0.0375  1.5192  0.0901
14580TIP3    H243684   0.434   7.782   0.173  0.7510 -1.4689  0.6780
14581TIP3   OH243685   4.529   4.478   1.894  0.0096 -0.0844  0.0495
14581TIP3    H143686   4.457   4.533   1.865  0.7070 -0.0555 -1.7812
14581TIP3    H243687   4.492   4.423   1.962 -1.4300  0.7136 -0.0580
14582TIP3   OH243688   1.752   7.377   2.869  0.0479  0.3481 -0.1771
14582TIP3    H143689   1.739   7.462   2.910 -0.3931  0.4668 -0.5580
14582TIP3    H243690   1.814   7.393   2.798  1.9748 -0.1159  1.2901
14583TIP3   OH243691   1.420   1.094   3.726 -0.8213  0.1073 -0.6244
14583TIP3    H143692   1.394   1.145   3.649  1.9174 -2.0950 -3.2420
14583TIP3    H243693   1.381   1.008   3.711 -1.3226 -0.0066  1.1791
14584TIP3   OH243694   5.246   0.597   4.407 -0.0441  0.1412  0.0808
14584TIP3    H143695   5.212   0.593   4.318 -2.2594 -0.5621  0.8751
14584TIP3    H243696   5.191   0.662   4.451  2.5158  2.2405  0.4203
14585TIP3   OH243697   0.222   1.893   0.704  0.0438 -0.5572  0.0607
14585TIP3    H143698   0.238   1.801   0.680 -1.1708 -0.8250  0.2098
14585TIP3    H243699   0.242   1.941   0.623  1.0413 -0.8903  0.0830
14586TIP3   OH243700   8.022   4.739   1.941  0.4785  0.4373 -0.6253
14586TIP3    H143701   7.981   4.682   1.876 -0.4854 -1.1095  1.2326
14586TIP3    H243702   8.110   4.754   1.907  1.0564 -2.7853 -0.9245
14587TIP3   OH243703   0.596   0.934   1.234 -0.4860 -0.1108 -0.1496
14587TIP3    H143704   0.622   0.889   1.314  0.5754  1.3603  0.3757
14587TIP3    H243705   0.542   1.008   1.264  1.4735  1.5824 -0.5668
14588TIP3   OH243706   2.873   0.089   2.741  0.1681 -0.7387  0.1384
14588TIP3    H143707   2.949   0.046   2.780  0.0544 -0.4856  0.6422
14588TIP3    H243708   2.880   0.180   2.768  2.7585  0.7201 -4.3487
14589TIP3   OH243709   7.130   5.826   4.829  0.3523 -0.0774  0.1839
14589TIP3    H143710   7.067   5.878   4.880 -1.3403 -1.5745 -0.2572
14589TIP3    H243711   7.150   5.752   4.886  0.0926 -0.6755 -0.4929
14590TIP3   OH243712   3.991   5.146   3.778  0.2916 -0.3075 -0.0884
14590TIP3    H143713   4.058   5.134   3.712  1.3070  0.1493  0.8253
14590TIP3    H243714   3.932   5.212   3.742  0.2831 -0.7735 -0.9331
14591TIP3   OH243715   0.661   2.605   2.988  0.2825 -0.1168 -0.4907
14591TIP3    H143716   0.704   2.533   3.033 -0.2890  0.0544  0.3678
14591TIP3    H243717   0.690   2.598   2.898  1.7078 -0.2936 -0.0429
14592TIP3   OH243718   2.359   5.211   6.252  0.2690 -0.3701 -0.0058
14592TIP3    H143719   2.451   5.227   6.274  0.3898 -2.0035  0.8266
14592TIP3    H243720   2.312   5.227   6.333 -0.5127  2.4430 -0.9056
14593TIP3   OH243721   5.466   2.326   3.387  0.4559  0.3113 -0.2396
14593TIP3    H143722   5.517   2.285   3.458  0.0692 -1.1249 -0.7508
14593TIP3    H243723   5.413   2.392   3.432  0.6998 -0.1193  0.7281
14594TIP3   OH243724   4.243   7.740   0.096  0.3875 -0.5783  0.3618
14594TIP3    H143725   4.206   7.658   0.129 -0.0271  0.3028  2.2791
14594TIP3    H243726   4.235   7.734   0.001 -0.1335 -2.5079  0.4810
14595TIP3   OH243727   2.226   2.670   5.032  0.0328 -0.1713  0.0288
14595TIP3    H143728   2.306   2.714   5.060  0.6363 -0.1607 -1.6132
14595TIP3    H243729   2.257   2.594   4.982 -0.9839 -0.0333 -0.8325
14596TIP3   OH243730   5.171   5.541   5.538  0.1884  0.6415 -0.0009
14596TIP3    H143731   5.105   5.478   5.570  0.4244 -0.2423 -1.1896
14596TIP3    H243732   5.135   5.627   5.561 -0.8486  0.1267  0.3714
14597TIP3   OH243733   2.024   1.126   4.097 -0.3235 -0.6680 -0.3190
14597TIP3    H143734   1.981   1.206   4.127 -0.1370  0.0497 -1.9089
14597TIP3    H243735   2.076   1.098   4.173 -2.0743 -0.5339  1.0150
14598TIP3   OH243736   5.936   6.682   1.143 -0.2142 -0.3272  0.1196
14598TIP3    H143737   5.973   6.686   1.055  2.0757  0.4999  1.0435
14598TIP3    H243738   5.888   6.600   1.145  0.7387 -0.9738 -1.5007
14599TIP3   OH243739   0.126   1.490   1.407  0.6551  0.2124 -0.0464
14599TIP3    H143740   0.153   1.511   1.497 -0.3390 -1.8230  0.7942
14599TIP3    H243741   0.108   1.396   1.409 -1.5897  0.5259 -1.8034
14600TIP3   OH243742   7.775   0.872   4.882 -0.5763  0.2664 -0.3214
14600TIP3    H143743   7.795   0.962   4.858 -0.6468 -0.0392 -1.5926
14600TIP3    H243744   7.848   0.821   4.848 -0.6023 -0.1704  0.2719
14601TIP3   OH243745   4.286   3.787   1.918  0.0375 -0.0052 -0.3837
14601TIP3    H143746   4.191   3.796   1.909  0.0095  0.9418  0.6267
14601TIP3    H243747   4.298   3.698   1.952 -0.7401  0.7919  2.2132
14602TIP3   OH243748   3.709   2.671   3.501  0.1130  0.1181  0.3443
14602TIP3    H143749   3.712   2.670   3.405  0.3612  0.0205  0.3508
14602TIP3    H243750   3.799   2.691   3.527  0.7511 -2.5891  0.5765
14603TIP3   OH243751   1.685   1.124   6.105 -0.0347  0.6037  0.1157
14603TIP3    H143752   1.642   1.058   6.159 -0.8348  0.5207 -0.6053
14603TIP3    H243753   1.631   1.203   6.115 -0.3406  0.5144 -0.7494
14604TIP3   OH243754   5.055   7.659   1.913 -0.0339 -0.5189  0.1494
14604TIP3    H143755   5.056   7.621   1.825  0.9420 -1.6117  0.6035
14604TIP3    H243756   4.977   7.622   1.954 -0.5401  0.0641 -0.2762
14605TIP3   OH243757   0.116   2.661   0.752 -0.3405 -0.1587  0.5877
14605TIP3    H143758   0.172   2.738   0.764 -1.7881  1.3040 -1.2127
14605TIP3    H243759   0.027   2.697   0.748 -1.2313 -2.1373  1.1876
14606TIP3   OH243760   2.053   1.821   6.002 -0.2039  0.4339  0.4740
14606TIP3    H143761   2.138   1.778   6.012  0.5626  1.1624 -2.1179
14606TIP3    H243762   2.069   1.911   6.032  0.0998  0.7087 -0.4948
14607TIP3   OH243763   4.710   3.327   0.661 -0.9379 -0.0627 -1.0595
14607TIP3    H143764   4.615   3.331   0.666 -0.8898  0.7455 -0.7395
14607TIP3    H243765   4.737   3.289   0.745 -0.7540  3.7572  0.8127
14608TIP3   OH243766   1.487   2.981   0.974 -0.0140  0.1773 -0.0308
14608TIP3    H143767   1.565   2.972   0.920 -0.7819 -0.2779 -1.1072
14608TIP3    H243768   1.426   2.915   0.940  0.3805 -2.0614  3.1096
14609TIP3   OH243769   4.150   5.360   5.627  0.1672 -0.3147  0.1721
14609TIP3    H143770   4.228   5.378   5.574  0.9140 -0.7501  1.0938
14609TIP3    H243771   4.162   5.270   5.657 -0.4984 -0.2433  0.6588
14610TIP3   OH243772   4.541   3.980   2.868  0.2750 -0.0480 -0.4776
14610TIP3    H143773   4.490   3.916   2.918  0.5525 -0.2611 -0.4657
14610TIP3    H243774   4.632   3.951   2.876  0.3889  0.2612 -0.5995
14611TIP3   OH243775   3.383   2.198   3.057 -0.0636 -0.2004  0.0197
14611TIP3    H143776   3.472   2.210   3.022 -0.9096 -0.6488 -2.4857
14611TIP3    H243777   3.351   2.118   3.014 -1.3474 -0.6507  1.6845
14612TIP3   OH243778   5.040   4.349   1.637  0.0409  0.1595  0.0269
14612TIP3    H143779   5.074   4.335   1.549  0.2604  2.3697 -0.3094
14612TIP3    H243780   5.118   4.359   1.692 -0.0961 -1.0462  0.4735
14613TIP3   OH243781   6.400   7.797   6.300  0.3578 -0.3460  0.2900
14613TIP3    H143782   6.485   7.821   6.263  0.7282 -0.6479  0.9243
14613TIP3    H243783   6.371   7.723   6.247  1.3732 -1.4582  1.2364
14614TIP3   OH243784   0.432   2.813   1.115  0.0113 -0.0281 -0.3250
14614TIP3    H143785   0.496   2.867   1.162  1.3191 -1.6394 -0.1497
14614TIP3    H243786   0.404   2.748   1.180  1.3377 -1.8696 -1.5061
14615TIP3   OH243787   0.960   7.504   3.462  0.1885  0.0309 -0.1077
14615TIP3    H143788   0.925   7.563   3.395  0.9831  0.4587 -0.1706
14615TIP3    H243789   1.054   7.499   3.442  0.5059  0.4449  1.1663
14616TIP3   OH243790   2.500   6.809   4.390  0.1934  0.0097  0.3952
14616TIP3    H143791   2.528   6.723   4.358  0.6138  0.7725 -1.3922
14616TIP3    H243792   2.532   6.871   4.324 -2.3506  1.3055  0.2673
14617TIP3   OH243793   5.607   3.028   4.355  0.6153  0.4378 -0.8596
14617TIP3    H143794   5.647   3.093   4.413  0.3789 -0.5617  0.4575
14617TIP3    H243795   5.554   3.080   4.294  0.4632  1.4890  0.1446
14618TIP3   OH243796   1.564   3.379   0.841 -0.8594  0.0466  0.4691
14618TIP3    H143797   1.565   3.288   0.869  1.5853 -0.1599 -0.0860
14618TIP3    H243798   1.619   3.425   0.905  1.7622  0.2210 -1.6984
14619TIP3   OH243799   1.633   6.142   0.603  0.4424 -0.0003 -0.2226
14619TIP3    H143800   1.712   6.091   0.619  0.0447 -0.3035  0.8187
14619TIP3    H243801   1.652   6.191   0.522  1.4854 -0.4579 -0.2671
14620TIP3   OH243802   6.574   3.248   5.634 -0.4317 -0.2029 -0.0248
14620TIP3    H143803   6.562   3.159   5.600 -2.4136  0.4799 -1.3460
14620TIP3    H243804   6.537   3.304   5.565 -0.4977  1.5488  1.3781
14621TIP3   OH243805   2.691   4.066   1.212 -0.1384 -0.4111 -0.9469
14621TIP3    H143806   2.749   4.000   1.174  0.0986  0.1821 -1.6260
14621TIP3    H243807   2.693   4.048   1.306 -0.0397 -1.3425 -1.1116
14622TIP3   OH243808   7.498   3.316   2.709 -0.4694  0.0917  0.7181
14622TIP3    H143809   7.435   3.358   2.768 -0.2088  1.7543 -0.1180
14622TIP3    H243810   7.575   3.374   2.712  0.7556 -1.4956  1.1309
14623TIP3   OH243811   6.920   0.733   0.074 -0.1381 -0.3515 -0.0202
14623TIP3    H143812   6.982   0.689   0.132  0.4153  1.3547  0.7539
14623TIP3    H243813   6.858   0.775   0.134  1.5121  3.0461 -0.4494
14624TIP3   OH243814   2.284   0.184   3.116  0.0606  0.4293 -0.3145
14624TIP3    H143815   2.378   0.187   3.100 -0.2006 -0.4063 -2.4492
14624TIP3    H243816   2.255   0.104   3.070 -1.3865 -0.5808  2.1825
14625TIP3   OH243817   0.880   4.100   2.316  0.5234 -0.7629 -0.5443
14625TIP3    H143818   0.889   4.150   2.235  0.6608 -0.8382 -0.5757
14625TIP3    H243819   0.964   4.111   2.360 -0.1671  0.8137  0.4724
14626TIP3   OH243820   7.351   3.700   4.077 -0.5676 -0.5678  0.1395
14626TIP3    H143821   7.421   3.654   4.031 -0.7007  0.8950 -1.6673
14626TIP3    H243822   7.299   3.631   4.118  0.4619 -1.8514 -0.6376
14627TIP3   OH243823   0.780   0.312   1.661  0.2765  0.4858 -0.0048
14627TIP3    H143824   0.710   0.268   1.709  1.1777 -3.2233 -1.7482
14627TIP3    H243825   0.859   0.261   1.682  1.3286  0.8853 -2.5866
14628TIP3   OH243826   3.977   5.568   2.789  0.0043 -0.2796  0.2991
14628TIP3    H143827   4.004   5.646   2.742 -0.3296  0.8661  1.9181
14628TIP3    H243828   4.058   5.534   2.827 -0.0982  0.4378  1.2118
14629TIP3   OH243829   2.247   4.529   3.079  1.3094 -0.0666  0.1920
14629TIP3    H143830   2.285   4.616   3.089 -1.3740  1.1994  0.3953
14629TIP3    H243831   2.202   4.513   3.162 -1.5304  0.1695 -1.1680
14630TIP3   OH243832   2.795   4.217   0.304  0.3096 -0.2382  0.1079
14630TIP3    H143833   2.745   4.143   0.269  0.6897 -0.1536 -0.6243
14630TIP3    H243834   2.741   4.293   0.287  0.4544 -0.2082 -0.2320
14631TIP3   OH243835   0.846   2.195   0.345  0.2637  0.0462 -0.6750
14631TIP3    H143836   0.796   2.203   0.426  0.8868  0.6081 -0.3330
14631TIP3    H243837   0.905   2.121   0.360 -0.6046 -0.7595 -1.1630
14632TIP3   OH243838   5.976   3.802   5.538 -0.1067 -0.0118  0.0568
14632TIP3    H143839   5.892   3.788   5.582 -0.1702 -0.4828 -0.2098
14632TIP3    H243840   5.958   3.787   5.446  0.1634  0.3801 -0.0629
14633TIP3   OH243841   4.187   7.052   1.934 -0.1766 -0.2063  0.2569
14633TIP3    H143842   4.163   7.141   1.908  1.5424  0.7368  1.6624
14633TIP3    H243843   4.259   7.028   1.876 -1.0965 -1.0109 -0.5941
14634TIP3   OH243844   5.247   5.369   1.382 -0.2280 -0.1161  0.3112
14634TIP3    H143845   5.242   5.465   1.381 -0.7837 -0.1313 -1.7234
14634TIP3    H243846   5.162   5.341   1.417 -0.0673  0.1226  0.9028
14635TIP3   OH243847   2.457   3.936   4.909  0.2349  0.3965 -0.1414
14635TIP3    H143848   2.381   3.955   4.853  1.0212  0.7876 -1.1198
14635TIP3    H243849   2.518   4.007   4.890  0.9388 -0.0391  0.4603
14636TIP3   OH243850   6.681   5.306   1.203  0.2182 -0.1331 -0.0675
14636TIP3    H143851   6.727   5.364   1.142 -3.1421  1.0280 -1.7762
14636TIP3    H243852   6.665   5.360   1.280  0.0744  0.0920 -0.2537
14637TIP3   OH243853   0.429   6.818   4.742 -0.0914  0.1592 -0.5257
14637TIP3    H143854   0.462   6.823   4.652  2.5398 -1.8542  0.2110
14637TIP3    H243855   0.467   6.894   4.786 -0.4206  0.4911 -0.8027
14638TIP3   OH243856   3.425   1.031   5.914 -0.3301  0.0217 -0.6303
14638TIP3    H143857   3.417   0.997   6.004  1.6009  0.6268 -0.1727
14638TIP3    H243858   3.512   1.070   5.912 -0.7965  1.0412 -2.4582
14639TIP3   OH243859   6.207   4.374   4.167  0.7317 -0.2728 -0.2646
14639TIP3    H143860   6.219   4.344   4.258  0.9230 -0.8185 -0.4640
14639TIP3    H243861   6.142   4.313   4.131 -0.1459  0.5941 -0.1877
14640TIP3   OH243862   7.068   4.108   0.574  0.0214 -0.0837 -0.5403
14640TIP3    H143863   7.141   4.144   0.524 -0.3898  1.0750 -0.3353
14640TIP3    H243864   7.091   4.124   0.665 -0.1692 -0.3495 -0.4424
14641TIP3   OH243865   8.042   5.421   1.439  0.4877 -0.3826 -0.1742
14641TIP3    H143866   8.079   5.360   1.502  0.1578 -0.3508  0.0508
14641TIP3    H243867   7.973   5.373   1.395  0.0783 -0.1057  0.1584
14642TIP3   OH243868   3.509   5.169   0.163  0.0333  0.2269  0.6142
14642TIP3    H143869   3.434   5.205   0.210 -0.3803  1.5406 -0.9696
14642TIP3    H243870   3.573   5.239   0.162  0.3735 -0.0836 -0.0323
14643TIP3   OH243871   3.884   6.267   1.011 -0.7625  0.0181  0.3434
14643TIP3    H143872   3.931   6.289   0.931  2.2036  0.3227  2.0245
14643TIP3    H243873   3.799   6.309   1.002 -0.0907  0.9701 -2.1366
14644TIP3   OH243874   6.845   2.524   1.131 -0.0881  0.2701 -0.7615
14644TIP3    H143875   6.898   2.445   1.117 -2.4364 -1.2716 -1.6482
14644TIP3    H243876   6.843   2.536   1.226 -0.2912 -1.2179 -0.5577
14645TIP3   OH243877   6.684   1.859   5.552 -0.1384  0.5449 -0.1429
14645TIP3    H143878   6.740   1.814   5.615  0.1939  0.2682 -0.6209
14645TIP3    H243879   6.634   1.922   5.603  0.8078  0.9874  0.2552
14646TIP3   OH243880   1.909   4.079   3.792  0.2913  0.4150 -0.4737
14646TIP3    H143881   1.881   3.988   3.806  1.7532 -0.6257 -3.4303
14646TIP3    H243882   1.879   4.100   3.704  0.1905  2.7846  0.0559
14647TIP3   OH243883   7.289   0.332   0.183  0.4185  0.1543  0.1773
14647TIP3    H143884   7.200   0.347   0.214 -0.6369 -1.7452 -1.6075
14647TIP3    H243885   7.319   0.255   0.232  1.3049  1.0766  1.1253
14648TIP3   OH243886   1.378   3.757   1.135  0.2131 -0.1204  0.1464
14648TIP3    H143887   1.329   3.803   1.067  0.3993  2.4605  1.6237
14648TIP3    H243888   1.313   3.699   1.175  0.0963 -1.6720 -2.1295
14649TIP3   OH243889   3.858   3.757   1.682  0.2190 -0.3618  0.1638
14649TIP3    H143890   3.848   3.839   1.730 -1.4604  0.1183 -0.9188
14649TIP3    H243891   3.787   3.702   1.713 -0.0111 -0.5730 -0.7212
14650TIP3   OH243892   4.292   3.349   3.117 -0.4509  0.0711 -0.1853
14650TIP3    H143893   4.378   3.389   3.101 -1.0133  0.8237 -1.5465
14650TIP3    H243894   4.277   3.361   3.210  1.0672 -0.3900  0.1505
14651TIP3   OH243895   0.705   1.108   5.071 -0.5286  0.1385  0.6653
14651TIP3    H143896   0.659   1.191   5.055 -1.7576 -0.5332  0.5399
14651TIP3    H243897   0.734   1.080   4.984 -1.3679 -0.2415  0.4909
14652TIP3   OH243898   4.656   3.416   0.180 -0.2189 -0.6432  0.0022
14652TIP3    H143899   4.566   3.408   0.212  0.0706 -2.4675  0.4676
14652TIP3    H243900   4.649   3.404   0.086 -0.5947  0.6060 -0.1506
14653TIP3   OH243901   1.648   0.191   2.713  0.1834 -0.4601 -0.2726
14653TIP3    H143902   1.717   0.257   2.714  0.5775 -0.8621 -0.4503
14653TIP3    H243903   1.582   0.223   2.775 -0.2178  0.7139 -1.2546
14654TIP3   OH243904   0.738   2.299   2.641 -0.2563  0.1342  0.2570
14654TIP3    H143905   0.654   2.317   2.685  0.3852 -0.1553  1.6524
14654TIP3    H243906   0.731   2.208   2.613 -0.1256 -0.1285  1.0572
14655TIP3   OH243907   0.772   5.907   5.263  0.2041  0.1256  0.3812
14655TIP3    H143908   0.689   5.899   5.217  0.4692 -1.7187  0.1465
14655TIP3    H243909   0.756   5.974   5.330 -0.4655  2.1588 -1.7131
14656TIP3   OH243910   1.051   2.846   0.741  0.3926  0.4693  0.1711
14656TIP3    H143911   0.975   2.821   0.793  1.1071  0.7295  1.3781
14656TIP3    H243912   1.040   2.800   0.658 -0.8573  0.1729  0.4820
14657TIP3   OH243913   1.288   1.071   4.627  0.0385 -0.0518  0.7400
14657TIP3    H143914   1.340   1.028   4.695 -0.1176 -0.5201  0.5672
14657TIP3    H243915   1.203   1.086   4.668 -0.1536 -0.6096  0.5566
14658TIP3   OH243916   6.360   4.763   2.624  0.5469  0.2830  0.3988
14658TIP3    H143917   6.444   4.773   2.578  0.3004  0.2813 -0.0588
14658TIP3    H243918   6.360   4.835   2.688  0.5156  0.8258 -0.1970
14659TIP3   OH243919   1.572   3.589   5.759  0.0229  0.2076  0.1646
14659TIP3    H143920   1.594   3.585   5.853  0.4837  1.6357  0.1417
14659TIP3    H243921   1.520   3.668   5.750 -1.0318 -0.5513 -0.6203
14660TIP3   OH243922   4.870   1.572   0.029 -0.4537 -0.0125 -0.1760
14660TIP3    H143923   4.896   1.481   0.039 -2.2382 -0.9083 -2.7034
14660TIP3    H243924   4.812   1.589   0.103  0.2194 -0.7829  0.5398
14661TIP3   OH243925   4.891   2.675   6.392 -0.0748 -0.2396 -0.5253
14661TIP3    H143926   4.835   2.673   6.315  0.9843  1.7726 -1.4208
14661TIP3    H243927   4.867   2.755   6.438  0.5096 -0.5126  0.2949
14662TIP3   OH243928   6.499   2.027   5.665 -0.1189 -0.0838  0.9505
14662TIP3    H143929   6.422   2.059   5.617  0.3395 -1.3412 -0.7433
14662TIP3    H243930   6.552   2.104   5.682 -1.2593  0.6591  1.2186
14663TIP3   OH243931   1.314   4.869   1.627  0.1618  0.1182  0.1626
14663TIP3    H143932   1.352   4.925   1.695 -0.1086 -1.5525  1.7698
14663TIP3    H243933   1.371   4.793   1.625 -1.2390 -0.9640  0.3006
14664TIP3   OH243934   5.852   6.188   5.483 -0.0838 -0.4516  0.2507
14664TIP3    H143935   5.831   6.264   5.538 -2.3029  0.2795 -1.4446
14664TIP3    H243936   5.767   6.156   5.454  0.9373 -1.8054 -1.4277
14665TIP3   OH243937   2.696   6.073   5.178  0.2252 -0.1732 -0.6605
14665TIP3    H143938   2.714   6.167   5.172  2.4546 -0.5268 -0.5336
14665TIP3    H243939   2.761   6.033   5.120 -0.2685 -1.6760 -0.2159
14666TIP3   OH243940   6.627   2.957   3.745 -0.5051 -0.3194 -0.1675
14666TIP3    H143941   6.663   2.960   3.656 -0.6504 -1.1533 -0.2625
14666TIP3    H243942   6.700   2.985   3.801  0.1763 -1.5663 -0.3954
14667TIP3   OH243943   5.281   7.057   1.404  0.3325  0.3250  0.3014
14667TIP3    H143944   5.343   7.103   1.461  2.6304  0.6010 -2.2066
14667TIP3    H243945   5.267   6.972   1.445  1.1494  0.8558  1.7215
14668TIP3   OH243946   2.147   5.062   5.888  0.4328 -0.0604  0.2314
14668TIP3    H143947   2.143   4.990   5.826  2.5080 -1.4727  1.6014
14668TIP3    H243948   2.086   5.038   5.957  0.1091  0.1858  0.0335
14669TIP3   OH243949   4.787   0.178   5.118  0.0841  0.3105  0.4728
14669TIP3    H143950   4.788   0.083   5.112  0.3644  0.0809  3.1049
14669TIP3    H243951   4.833   0.198   5.200  0.1370  2.7241 -0.0571
14670TIP3   OH243952   6.608   3.349   4.827 -0.8150  0.4365  0.4503
14670TIP3    H143953   6.596   3.443   4.823 -1.0327  0.4183  0.6810
14670TIP3    H243954   6.699   3.338   4.856  0.2894  0.5715 -2.6519
14671TIP3   OH243955   2.721   7.398   1.130 -0.2042 -0.1974  0.5303
14671TIP3    H143956   2.672   7.345   1.067 -1.3493 -0.9619  2.0045
14671TIP3    H243957   2.676   7.482   1.131  2.4060  1.4789 -2.8130
14672TIP3   OH243958   8.166   2.885   2.328 -0.0698  0.1754 -0.1196
14672TIP3    H143959   8.238   2.823   2.316 -0.7260 -0.7029  0.3395
14672TIP3    H243960   8.134   2.867   2.417 -1.0386  0.3449 -0.4250
14673TIP3   OH243961   6.617   3.742   4.605  0.6561 -0.2131  0.4779
14673TIP3    H143962   6.702   3.728   4.563  0.4799 -1.3263  0.4572
14673TIP3    H243963   6.584   3.824   4.567  0.2937 -1.4032 -1.9677
14674TIP3   OH243964   7.067   3.933   6.516  0.5360  0.0961  0.1801
14674TIP3    H143965   7.156   3.925   6.550  0.9190 -1.8288 -1.0942
14674TIP3    H243966   7.050   3.849   6.474 -2.4180 -0.1194  1.5568
14675TIP3   OH243967   5.210   7.315   0.699 -0.1612  0.3710  0.3686
14675TIP3    H143968   5.149   7.306   0.772  1.2263  0.2908  1.5611
14675TIP3    H243969   5.176   7.255   0.632 -0.4019 -1.0512  1.7044
14676TIP3   OH243970   3.220   0.173   0.594 -0.2890 -0.1138 -0.1688
14676TIP3    H143971   3.139   0.171   0.646 -0.4954  0.3992 -0.4688
14676TIP3    H243972   3.234   0.265   0.574 -0.8208 -0.3867 -1.9712
14677TIP3   OH243973   2.251   2.903   3.599  0.3901 -0.1759  0.4196
14677TIP3    H143974   2.251   2.996   3.579  2.4750  0.0306  1.0637
14677TIP3    H243975   2.318   2.894   3.667  2.1445 -2.4800 -1.4415
14678TIP3   OH243976   6.475   0.977   2.006  0.1399  0.2930  0.7471
14678TIP3    H143977   6.406   0.923   2.045 -0.1665  0.1821  0.0629
14678TIP3    H243978   6.556   0.929   2.024 -0.2217 -0.9647 -0.7580
14679TIP3   OH243979   3.152   1.865   3.224  0.6085  0.7446 -0.3277
14679TIP3    H143980   3.083   1.884   3.288 -0.1877 -2.7595  0.0748
14679TIP3    H243981   3.105   1.850   3.142  0.9220 -0.6896 -0.2770
14680TIP3   OH243982   8.036   2.595   4.894  0.5540 -0.4356 -0.2045
14680TIP3    H143983   8.007   2.682   4.867 -0.9117 -0.9628 -0.3752
14680TIP3    H243984   8.091   2.611   4.971 -1.3467  0.5022  1.0243
14681TIP3   OH243985   3.713   3.856   2.121  0.0580 -0.2663  0.6628
14681TIP3    H143986   3.621   3.828   2.119  0.6323 -2.4769  2.1532
14681TIP3    H243987   3.718   3.914   2.197 -0.2873  0.7697 -0.0733
14682TIP3   OH243988   1.384   5.077   1.822  0.5263  0.0852  0.0992
14682TIP3    H143989   1.367   5.011   1.889  0.4074 -0.5017 -0.4993
14682TIP3    H243990   1.404   5.156   1.871  0.1413 -0.2586  0.8273
14683TIP3   OH243991   2.344   0.204   6.270 -0.0628 -0.5208  0.3207
14683TIP3    H143992   2.418   0.187   6.329  0.2952  0.6216  0.2149
14683TIP3    H243993   2.268   0.178   6.321  0.3775 -1.3501  0.5771
14684TIP3   OH243994   7.585   0.565   1.234 -0.1223 -0.8877 -0.0561
14684TIP3    H143995   7.677   0.592   1.234 -0.5242  0.7899  2.4265
14684TIP3    H243996   7.543   0.627   1.174  0.3441 -1.8224 -1.4048
14685TIP3   OH243997   2.462   5.422   0.341  0.6645 -0.2082  0.1082
14685TIP3    H143998   2.539   5.441   0.287  1.0349 -1.7849  0.0241
14685TIP3    H243999   2.455   5.497   0.399  1.6508  0.4503 -0.5858
14686TIP3   OH244000   4.593   6.821   2.018  0.3689  0.7991 -0.5240
14686TIP3    H144001   4.533   6.753   2.047 -0.1238  1.1519 -0.7042
14686TIP3    H244002   4.663   6.821   2.083  0.2422  0.2952 -0.3875
14687TIP3   OH244003   1.781   1.744   0.335 -0.6281 -0.8180 -0.4633
14687TIP3    H144004   1.739   1.775   0.416  1.0521  0.6052 -0.0774
14687TIP3    H244005   1.855   1.692   0.365  0.8762  0.9122 -1.0101
14688TIP3   OH244006   2.521   4.968   0.892 -0.1674  0.2945 -0.0871
14688TIP3    H144007   2.573   5.047   0.909  0.7066 -0.2413 -0.1591
14688TIP3    H244008   2.579   4.913   0.839  0.1692 -1.3639  1.8610
14689TIP3   OH244009   3.820   1.199   5.515 -0.1438 -0.0513 -0.1289
14689TIP3    H144010   3.889   1.193   5.581 -1.2061 -0.1898  1.0067
14689TIP3    H244011   3.831   1.285   5.475  0.3426  0.1486  0.4372
14690TIP3   OH244012   1.418   2.815   0.641 -0.6487 -0.2076  0.1467
14690TIP3    H144013   1.446   2.724   0.630 -0.8047 -0.2776  0.3333
14690TIP3    H244014   1.388   2.820   0.731 -1.8904 -0.3064 -0.2469
14691TIP3   OH244015   0.421   7.361   1.550  0.6432 -0.1865 -0.1790
14691TIP3    H144016   0.383   7.422   1.487 -1.4639 -1.6092 -0.3563
14691TIP3    H244017   0.375   7.279   1.536  2.2793 -1.4068  1.1548
14692TIP3   OH244018   3.854   7.674   6.677  0.0185 -0.4208 -0.4181
14692TIP3    H144019   3.937   7.720   6.667 -0.1562 -0.3179 -1.5839
14692TIP3    H244020   3.839   7.632   6.592 -1.1097 -0.4580 -0.2214
14693TIP3   OH244021   3.254   3.974   6.657 -0.5403  0.1875 -0.4094
14693TIP3    H144022   3.267   3.968   6.563  0.5398  1.2238 -0.3564
14693TIP3    H244023   3.338   4.007   6.690 -0.7320 -0.6283  0.9694
14694TIP3   OH244024   2.138   0.666   1.473 -0.0980 -0.4948 -0.6829
14694TIP3    H144025   2.191   0.587   1.470 -1.5218 -1.5188 -0.1568
14694TIP3    H244026   2.054   0.640   1.435 -0.6256  0.7505 -0.4271
14695TIP3   OH244027   8.042   2.334   6.312  0.1025 -0.7210 -0.5450
14695TIP3    H144028   8.129   2.367   6.288 -0.1936 -1.1537 -2.3833
14695TIP3    H244029   7.991   2.412   6.333  0.1834 -0.1980 -2.1674
14696TIP3   OH244030   6.878   1.696   2.106  0.1138 -0.3513  0.0782
14696TIP3    H144031   6.820   1.649   2.165  2.2100 -0.9446  1.8092
14696TIP3    H244032   6.949   1.634   2.088  1.0868  0.8928 -0.5690
14697TIP3   OH244033   3.114   0.720   5.919 -0.3385 -0.3751  0.1315
14697TIP3    H144034   3.063   0.696   5.842  1.9123 -1.3486 -1.1466
14697TIP3    H244035   3.189   0.769   5.885 -0.2612  0.8529  1.9052
14698TIP3   OH244036   1.328   4.914   4.175  0.1035 -0.2729  0.5011
14698TIP3    H144037   1.407   4.863   4.157  0.1590 -0.4696  1.2697
14698TIP3    H244038   1.270   4.895   4.101  0.9411  0.2444 -0.3196
14699TIP3   OH244039   7.071   3.947   0.236 -0.3852  0.1368  0.0112
14699TIP3    H144040   6.983   3.939   0.273 -0.3267 -2.1075 -0.1782
14699TIP3    H244041   7.077   3.874   0.174  0.7018  1.7882 -1.9641
14700TIP3   OH244042   3.008   0.593   6.600 -0.0028 -0.5324  0.6540
14700TIP3    H144043   3.076   0.592   6.532 -0.8770  3.3973 -0.4941
14700TIP3    H244044   2.930   0.560   6.556 -0.2019  0.5283  0.2050
14701TIP3   OH244045   2.448   0.850   5.032 -0.1018  0.1018  0.1398
14701TIP3    H144046   2.468   0.885   5.119 -0.3238  0.4721  0.0465
14701TIP3    H244047   2.445   0.755   5.043 -0.5130  0.1699  0.6177
14702TIP3   OH244048   1.756   5.919   6.155  0.0673 -0.0552  0.4774
14702TIP3    H144049   1.821   5.968   6.205  0.5740  1.1512 -1.2706
14702TIP3    H244050   1.805   5.847   6.116 -0.0665 -0.2462  0.6538
14703TIP3   OH244051   5.359   2.722   3.471 -0.0118  0.1550 -0.4160
14703TIP3    H144052   5.325   2.796   3.422  0.6480  1.5522  1.1430
14703TIP3    H244053   5.437   2.756   3.515 -2.1052 -0.0433  3.9700
14704TIP3   OH244054   5.858   1.004   1.142  0.1801  0.8525  0.3731
14704TIP3    H144055   5.802   1.014   1.065  0.5679  1.5248  0.1646
14704TIP3    H244056   5.909   1.085   1.144  1.0514  0.3076  0.6250
14705TIP3   OH244057   0.528   2.722   0.879 -0.1865 -0.0838 -0.4343
14705TIP3    H144058   0.469   2.762   0.943  2.8507  2.3541  1.0664
14705TIP3    H244059   0.545   2.634   0.914 -1.7821 -0.3384 -0.1977
14706TIP3   OH244060   2.864   0.096   3.824  0.2025 -0.6157  0.0609
14706TIP3    H144061   2.772   0.075   3.808 -0.1987  1.1771 -0.1948
14706TIP3    H244062   2.912   0.020   3.792 -1.0578 -0.5534 -2.1667
14707TIP3   OH244063   7.453   3.751   6.404  1.0678 -0.6676 -0.4702
14707TIP3    H144064   7.359   3.754   6.422  1.0908  0.9168 -0.4434
14707TIP3    H244065   7.493   3.748   6.491  1.0635  1.6749 -0.3163
14708TIP3   OH244066   0.708   7.712   5.526 -0.2455 -0.0720  0.0545
14708TIP3    H144067   0.731   7.795   5.484  0.9009 -0.5855 -0.3799
14708TIP3    H244068   0.729   7.725   5.618  1.4212 -0.3567 -0.2525
14709TIP3   OH244069   4.945   7.286   1.771  0.0585 -0.7980  0.3460
14709TIP3    H144070   4.901   7.275   1.687 -0.2142 -0.3894  0.4325
14709TIP3    H244071   5.033   7.316   1.748  0.2516 -1.4741  0.1794
14710TIP3   OH244072   3.724   5.663   2.541 -0.5451 -0.1654  0.2131
14710TIP3    H144073   3.789   5.595   2.554 -0.7076 -0.3919 -0.1365
14710TIP3    H244074   3.759   5.716   2.470 -0.3642  0.1861  0.5616
14711TIP3   OH244075   6.037   1.238   3.551  0.2361 -0.5544 -0.0569
14711TIP3    H144076   5.956   1.202   3.514  0.3260 -1.0712  0.2455
14711TIP3    H244077   6.051   1.319   3.502 -0.1410 -0.7641 -0.5261
14712TIP3   OH244078   1.198   6.268   0.897 -0.3412 -0.0320  0.2469
14712TIP3    H144079   1.202   6.187   0.845 -1.3038 -0.1793  0.3723
14712TIP3    H244080   1.183   6.238   0.987  1.7323  0.2034  0.7270
14713TIP3   OH244081   6.099   2.434   2.345  0.7776 -0.5707  0.0902
14713TIP3    H144082   6.101   2.510   2.287 -0.7719  0.4006  1.2170
14713TIP3    H244083   6.158   2.457   2.417 -0.7412  0.2413  1.1394
14714TIP3   OH244084   7.142   0.944   5.762  0.2419  0.1774 -0.0681
14714TIP3    H144085   7.154   0.911   5.851 -0.0938 -0.1197 -0.1303
14714TIP3    H244086   7.047   0.945   5.750 -0.0372  4.0812  1.0327
14715TIP3   OH244087   6.926   5.417   3.612  0.0912 -0.4930  0.0755
14715TIP3    H144088   6.863   5.488   3.608  1.0333  0.4430  1.2622
14715TIP3    H244089   6.878   5.341   3.579 -2.1157 -0.1294  2.1736
14716TIP3   OH244090   5.077   2.115   0.418 -0.2065 -0.3350  0.2743
14716TIP3    H144091   5.088   2.194   0.471  0.8420 -0.1206 -0.2403
14716TIP3    H244092   5.102   2.142   0.330  0.0266 -1.2088  0.0677
14717TIP3   OH244093   2.423   3.070   1.084 -0.0218 -0.1600 -0.0377
14717TIP3    H144094   2.479   3.061   1.007  0.7296  1.8850  0.1928
14717TIP3    H244095   2.422   3.164   1.102  0.4725 -0.6099  2.8919
14718TIP3   OH244096   3.488   6.458   1.234  0.4540  0.6392 -0.4660
14718TIP3    H144097   3.414   6.480   1.290  1.0386  0.0141  0.5904
14718TIP3    H244098   3.522   6.542   1.204  1.8323  1.2385  2.4066
14719TIP3   OH244099   4.041   2.014   5.085 -0.0260  0.3809 -0.2625
14719TIP3    H144100   4.055   2.108   5.078 -0.1395  0.7751  3.0607
14719TIP3    H244101   3.961   2.006   5.137 -1.9797 -1.6724 -3.2482
14720TIP3   OH244102   7.043   0.277   4.549 -0.1386 -0.5578  0.2040
14720TIP3    H144103   7.138   0.291   4.551  0.0820 -1.9292  0.8337
14720TIP3    H244104   7.012   0.317   4.631 -0.1340  0.0164 -0.0693
14721TIP3   OH244105   4.608   5.452   4.655 -0.3463 -0.3070  0.1499
14721TIP3    H144106   4.522   5.440   4.615 -0.9378  0.6100  1.0821
14721TIP3    H244107   4.665   5.477   4.583 -0.4827 -2.3795 -0.7400
14722TIP3   OH244108   6.703   0.261   1.981 -0.5708 -0.8027 -0.6017
14722TIP3    H144109   6.753   0.331   2.022 -0.2353 -0.6186 -1.3276
14722TIP3    H244110   6.641   0.305   1.924 -0.6052 -1.0805 -0.7805
14723TIP3   OH244111   3.479   7.138   0.175 -0.7341 -0.0297  0.0310
14723TIP3    H144112   3.404   7.175   0.222 -2.1981 -1.9946 -0.5922
14723TIP3    H244113   3.514   7.071   0.234  0.2845  0.5782  0.1372
14724TIP3   OH244114   7.606   0.314   5.857 -0.5049 -0.1354 -0.1478
14724TIP3    H144115   7.544   0.352   5.795 -2.3038 -1.4583  0.7855
14724TIP3    H244116   7.572   0.227   5.876  0.7016 -0.2466  1.7258
14725TIP3   OH244117   0.765   4.417   4.057 -0.5744  0.2125 -0.2906
14725TIP3    H144118   0.730   4.420   3.968 -0.4009  0.5174 -0.3491
14725TIP3    H244119   0.738   4.331   4.090 -2.0510  0.7387 -0.0538
14726TIP3   OH244120   6.841   4.528   2.952 -0.8172  0.2156  0.4089
14726TIP3    H144121   6.909   4.568   2.897 -0.9699  1.0541  0.8157
14726TIP3    H244122   6.840   4.436   2.925  1.6577 -0.2249  1.5529
14727TIP3   OH244123   3.229   1.111   0.963  0.1602 -0.2653 -0.3377
14727TIP3    H144124   3.283   1.056   0.905  0.6389 -1.8468  1.5077
14727TIP3    H244125   3.237   1.070   1.049  0.4981  2.7028  1.1609
14728TIP3   OH244126   0.710   3.575   2.060  0.3364  0.3708  0.0868
14728TIP3    H144127   0.786   3.520   2.042  0.4732  1.0593 -1.6364
14728TIP3    H244128   0.667   3.584   1.975 -1.1996  0.7075  0.8658
14729TIP3   OH244129   3.465   4.421   4.269  0.1329  0.5528 -0.4040
14729TIP3    H144130   3.511   4.342   4.240 -0.0015  0.9540 -1.8256
14729TIP3    H244131   3.374   4.394   4.276  0.1476  0.4754 -0.5031
14730TIP3   OH244132   2.602   2.677   2.918 -0.5392  0.2032 -0.1646
14730TIP3    H144133   2.627   2.662   2.826 -1.5692  0.6617 -0.5302
14730TIP3    H244134   2.535   2.745   2.913 -0.3443  0.4890  0.9678
14731TIP3   OH244135   7.450   3.646   4.501  0.2782 -0.2036  0.0163
14731TIP3    H144136   7.384   3.710   4.530 -1.0224 -0.7257 -1.6256
14731TIP3    H244137   7.420   3.563   4.537  1.7673 -0.0300  1.8296
14732TIP3   OH244138   6.145   4.680   3.942 -0.2337  0.4190  0.2427
14732TIP3    H144139   6.205   4.746   3.974  0.5533  0.3838 -1.0654
14732TIP3    H244140   6.112   4.637   4.020 -1.4539  2.8971  1.2104
14733TIP3   OH244141   3.684   4.689   6.438 -0.1557 -0.7571 -0.7681
14733TIP3    H144142   3.650   4.652   6.519  0.3876  0.9593  0.2995
14733TIP3    H244143   3.609   4.732   6.397  0.1101  0.7934  0.2824
14734TIP3   OH244144   6.690   4.904   5.522 -0.3011 -0.0598 -0.4693
14734TIP3    H144145   6.764   4.844   5.521  0.1439  0.4723 -1.6410
14734TIP3    H244146   6.663   4.909   5.614 -0.2195 -1.8677 -0.3204
14735TIP3   OH244147   7.751   3.895   2.249 -0.0835  0.4135  0.2525
14735TIP3    H144148   7.671   3.925   2.207 -0.6383  0.9768  1.6647
14735TIP3    H244149   7.810   3.874   2.176 -1.8629 -1.0808 -0.8287
14736TIP3   OH244150   3.653   6.989   4.499 -0.2775 -0.6381  0.2412
14736TIP3    H144151   3.726   7.044   4.529 -0.2544 -0.5641  0.0503
14736TIP3    H244152   3.581   7.051   4.487 -0.2532 -0.6507  0.0330
14737TIP3   OH244153   8.100   4.295   0.938  0.3853  0.1077 -0.0308
14737TIP3    H144154   8.171   4.326   0.881  0.8832  0.2507  0.6526
14737TIP3    H244155   8.142   4.230   0.995 -0.2120 -0.3748 -0.1342
14738TIP3   OH244156   3.563   1.544   1.332  0.1124 -0.0830 -0.0330
14738TIP3    H144157   3.527   1.466   1.373  0.4985  0.3164  1.1104
14738TIP3    H244158   3.573   1.607   1.404  0.1494  0.8945 -0.8594
14739TIP3   OH244159   7.223   7.306   0.521  0.1257  0.6849  0.6387
14739TIP3    H144160   7.222   7.220   0.562 -0.8875  0.7050  0.6690
14739TIP3    H244161   7.254   7.290   0.432 -0.6889  0.1876  0.4364
14740TIP3   OH244162   6.099   6.324   3.177 -0.2941  0.1603 -0.1755
14740TIP3    H144163   6.104   6.373   3.259 -2.3330  0.4737 -0.1845
14740TIP3    H244164   6.069   6.389   3.112 -1.0434 -0.6328 -0.6351
14741TIP3   OH244165   6.921   4.784   5.136 -0.2119 -0.2584  1.1188
14741TIP3    H144166   6.995   4.777   5.075 -2.3195  0.5498 -1.7721
14741TIP3    H244167   6.949   4.849   5.200  1.1904  0.8680 -0.5384
14742TIP3   OH244168   4.853   3.170   6.145 -0.3057 -0.2782 -0.3188
14742TIP3    H144169   4.927   3.164   6.206  0.4372  1.0103 -1.0597
14742TIP3    H244170   4.823   3.261   6.151 -0.3636 -0.1831 -1.6941
14743TIP3   OH244171   5.772   3.217   1.391 -0.9522 -0.5627  0.1461
14743TIP3    H144172   5.737   3.215   1.480 -1.8262 -0.9401 -0.2035
14743TIP3    H244173   5.736   3.297   1.352  0.4567  0.2956  0.5264
14744TIP3   OH244174   1.426   0.274   3.168  0.1647 -0.6823 -0.3143
14744TIP3    H144175   1.343   0.239   3.137  0.2752 -0.7886 -0.4964
14744TIP3    H244176   1.441   0.231   3.252 -0.9457  0.8300  0.7109
14745TIP3   OH244177   4.135   2.380   2.149 -0.3597 -0.2057 -0.5963
14745TIP3    H144178   4.209   2.436   2.126  0.0347 -0.6269 -0.3532
14745TIP3    H244179   4.068   2.441   2.180  0.6887  0.0173  1.3690
14746TIP3   OH244180   5.579   0.097   0.918  0.2111 -0.1545  0.4745
14746TIP3    H144181   5.567   0.005   0.896 -1.0341  0.2475 -0.6799
14746TIP3    H244182   5.592   0.140   0.834 -2.2713  1.1088  0.6418
14747TIP3   OH244183   1.354   4.360   2.046 -0.2356  0.3689  0.1616
14747TIP3    H144184   1.312   4.297   1.987 -0.0858  0.3958  0.0257
14747TIP3    H244185   1.314   4.343   2.131  0.5086 -0.5772  0.3376
14748TIP3   OH244186   1.140   4.237   6.232 -0.1826  0.0123 -0.0227
14748TIP3    H144187   1.205   4.260   6.298  0.8476 -1.8208 -0.3262
14748TIP3    H244188   1.177   4.161   6.187 -1.8967 -0.2043 -1.1757
14749TIP3   OH244189   4.219   2.627   0.589 -0.0321  0.2495  0.0594
14749TIP3    H144190   4.131   2.603   0.617  0.4523  0.2753  1.7256
14749TIP3    H244191   4.206   2.699   0.528 -1.2173 -0.5573 -0.6725
14750TIP3   OH244192   5.228   0.865   1.151 -0.3781 -0.0239 -0.6847
14750TIP3    H144193   5.209   0.866   1.245 -0.5062 -0.2356 -0.7088
14750TIP3    H244194   5.144   0.849   1.110 -0.2680 -0.2524 -0.8221
14751TIP3   OH244195   4.340   5.234   0.305  0.1342 -0.5777  0.0273
14751TIP3    H144196   4.309   5.262   0.391 -0.8812 -0.8405 -0.2345
14751TIP3    H244197   4.321   5.140   0.303 -0.9630 -0.3629 -0.9129
14752TIP3   OH244198   5.666   6.938   5.018  0.4633 -0.2290 -1.0404
14752TIP3    H144199   5.725   6.932   4.943  0.1280  0.8893 -1.4194
14752TIP3    H244200   5.681   7.026   5.053  0.8977 -0.8691  0.4485
14753TIP3   OH244201   3.903   3.820   2.649  0.0482 -0.1654 -0.4699
14753TIP3    H144202   3.937   3.782   2.730  0.6093 -0.3552 -0.7895
14753TIP3    H244203   3.808   3.823   2.662  0.2521  1.9744  1.1522
14754TIP3   OH244204   4.191   1.988   0.990 -0.2841  0.2076 -0.1229
14754TIP3    H144205   4.278   2.027   1.004 -0.2093 -0.0147  0.0485
14754TIP3    H244206   4.170   2.009   0.899  0.8984 -1.5642 -0.8690
14755TIP3   OH244207   2.640   6.928   2.922 -0.3891  0.5847 -0.0651
14755TIP3    H144208   2.609   7.001   2.868 -0.9375  1.0080  0.7863
14755TIP3    H244209   2.596   6.851   2.886 -0.6551  0.8423 -0.2983
14756TIP3   OH244210   3.679   3.118   4.420  0.1884  0.4007  0.0787
14756TIP3    H144211   3.587   3.137   4.402  0.1904  0.1681 -0.1806
14756TIP3    H244212   3.727   3.192   4.382  0.0210  1.2764  1.4947
14757TIP3   OH244213   4.880   6.415   1.528 -0.1378  0.3125  0.5741
14757TIP3    H144214   4.789   6.393   1.506  0.2514  0.4520 -1.4422
14757TIP3    H244215   4.916   6.335   1.565 -0.4631 -0.5292 -0.8209
14758TIP3   OH244216   6.307   2.898   0.092 -0.3164 -0.3461  0.1343
14758TIP3    H144217   6.377   2.942   0.044 -0.1505 -0.6679  0.0796
14758TIP3    H244218   6.328   2.805   0.085 -0.4798 -0.4137  0.5365
14759TIP3   OH244219   4.573   1.069   6.142 -0.3872 -0.0639  0.1484
14759TIP3    H144220   4.523   1.143   6.107  0.1453  0.0784 -0.3359
14759TIP3    H244221   4.601   1.020   6.064  1.6172  0.7670  0.2676
14760TIP3   OH244222   7.610   1.824   3.759 -0.7707  0.7512  0.1066
14760TIP3    H144223   7.645   1.805   3.672  1.8308  0.6888  1.0857
14760TIP3    H244224   7.655   1.904   3.786  1.5249 -1.2823  2.8777
14761TIP3   OH244225   7.924   6.965   5.796  0.0093  0.3328 -0.1745
14761TIP3    H144226   7.888   7.048   5.829 -0.8127  0.3546 -1.0731
14761TIP3    H244227   7.969   6.927   5.872 -0.1899  1.2782  0.4388
14762TIP3   OH244228   5.081   7.587   0.339 -0.6557 -0.2802 -0.1939
14762TIP3    H144229   5.070   7.493   0.328 -0.8265 -0.1761 -0.9380
14762TIP3    H244230   5.167   7.596   0.382 -0.2235 -0.7318 -0.9468
14763TIP3   OH244231   0.072   4.645   2.303  0.1373  0.0255 -0.4274
14763TIP3    H144232   0.127   4.717   2.274  1.1668 -0.9896 -1.0578
14763TIP3    H244233  -0.001   4.687   2.348  1.1695  1.4157 -0.0020
14764TIP3   OH244234   2.246   2.030   5.081  0.2062  0.1304 -0.0061
14764TIP3    H144235   2.266   2.031   4.987  3.9360  3.0418  0.5897
14764TIP3    H244236   2.287   1.950   5.114 -0.7869 -0.7056 -0.7324
14765TIP3   OH244237   1.061   5.949   4.537 -0.0651 -0.0205  0.0105
14765TIP3    H144238   1.136   5.990   4.580  0.5875 -2.0928  1.0207
14765TIP3    H244239   1.099   5.894   4.469 -0.4193 -2.2270  1.4616
14766TIP3   OH244240   0.540   5.878   2.305 -0.6779  0.2561  0.4816
14766TIP3    H144241   0.525   5.837   2.220 -0.7362  1.4419 -0.1062
14766TIP3    H244242   0.464   5.934   2.319  0.6744  2.4050 -0.1461
14767TIP3   OH244243   3.933   1.213   4.358  0.1925 -0.1618 -0.2812
14767TIP3    H144244   3.988   1.200   4.435  1.2407 -0.3704 -1.0458
14767TIP3    H244245   3.991   1.196   4.284 -0.0099  2.7141 -1.2207
14768TIP3   OH244246   2.195   5.178   4.900 -0.1954 -0.2113 -0.3717
14768TIP3    H144247   2.266   5.131   4.857 -1.2356 -0.3458 -2.0490
14768TIP3    H244248   2.235   5.215   4.979  2.1041  0.7974 -1.8723
14769TIP3   OH244249   4.339   3.110   1.517  0.0931  0.4052 -0.1139
14769TIP3    H144250   4.316   3.057   1.440  1.0393 -1.2664  0.7063
14769TIP3    H244251   4.266   3.096   1.577  0.3050  0.0749  0.0707
14770TIP3   OH244252   5.247   2.675   2.117  0.2127  0.2865  0.1770
14770TIP3    H144253   5.174   2.674   2.178 -0.1695 -0.7179 -0.2777
14770TIP3    H244254   5.288   2.589   2.126 -0.2276 -0.1224 -1.4011
14771TIP3   OH244255   5.039   7.366   4.716  0.5629 -0.1261 -0.3203
14771TIP3    H144256   5.033   7.301   4.646 -0.8048  1.4812 -1.7522
14771TIP3    H244257   5.127   7.402   4.708  0.1709  0.5721 -1.7288
14772TIP3   OH244258   0.108   4.302   1.182  0.2590 -0.0020  0.0505
14772TIP3    H144259   0.048   4.373   1.204  0.1744  0.1179 -0.5299
14772TIP3    H244260   0.050   4.227   1.166  0.4383 -0.7624  2.5284
14773TIP3   OH244261   4.009   2.715   1.619  0.1474 -0.1933 -0.3411
14773TIP3    H144262   3.939   2.779   1.630 -0.7991 -1.1092 -0.9338
14773TIP3    H244263   4.087   2.760   1.652 -0.7690  0.7170  0.6758
14774TIP3   OH244264   4.701   4.755   1.886 -0.8601 -0.0181 -0.2624
14774TIP3    H144265   4.784   4.717   1.858 -0.4567  1.1354 -0.6747
14774TIP3    H244266   4.689   4.723   1.976  0.3486  0.3143  0.0333
14775TIP3   OH244267   5.671   5.868   1.281  0.3256  0.6095  0.4778
14775TIP3    H144268   5.748   5.812   1.291 -0.3927 -0.3098  0.9318
14775TIP3    H244269   5.707   5.957   1.282  1.7157  0.1935 -2.2184
14776TIP3   OH244270   7.964   5.749   1.750  0.0575  0.4375  0.4975
14776TIP3    H144271   7.939   5.785   1.834 -1.5644  1.0961 -0.2217
14776TIP3    H244272   7.893   5.688   1.728  1.4375 -1.2463  0.4798
14777TIP3   OH244273   2.812   7.380   4.098 -0.2780 -0.3495  0.3093
14777TIP3    H144274   2.880   7.317   4.073  0.1948 -0.5040  1.8783
14777TIP3    H244275   2.857   7.442   4.155 -1.4587 -0.5368  1.4972
14778TIP3   OH244276   7.423   0.999   1.296 -0.3166  0.6377 -0.5577
14778TIP3    H144277   7.492   1.036   1.240 -1.3704  2.1766 -0.8954
14778TIP3    H244278   7.347   0.991   1.239 -0.3797 -1.3847 -0.2733
14779TIP3   OH244279   6.150   6.439   3.451 -0.2994  0.9937  0.2393
14779TIP3    H144280   6.058   6.463   3.454 -0.0519  2.0902 -0.5423
14779TIP3    H244281   6.192   6.494   3.517  0.0750  1.8743 -0.7037
14780TIP3   OH244282   0.962   0.725  -0.011 -0.2042 -0.1262 -0.1604
14780TIP3    H144283   0.994   0.807   0.024  1.2021  0.2726 -2.2095
14780TIP3    H244284   0.896   0.696   0.052 -0.6685  2.4900  0.6797
14781TIP3   OH244285   5.481  -0.001   2.098  0.3411  0.3877 -0.2011
14781TIP3    H144286   5.551  -0.037   2.043 -1.3125 -0.2912 -1.9551
14781TIP3    H244287   5.450   0.076   2.050 -1.4055 -0.4492 -0.4929
14782TIP3   OH244288   2.690   5.565   0.985  0.5628  0.3299  0.1873
14782TIP3    H144289   2.600   5.541   1.003  0.3441  2.1485  1.8882
14782TIP3    H244290   2.685   5.651   0.942  1.4569 -0.0945 -0.8212
14783TIP3   OH244291   2.763   1.961   5.355 -0.3570 -0.2243 -0.2807
14783TIP3    H144292   2.702   1.969   5.428 -0.7191  0.3324 -0.6380
14783TIP3    H244293   2.819   1.886   5.379  0.6105  0.9525  1.3460
14784TIP3   OH244294   4.901   0.660   2.137  0.2229  0.0844 -0.1340
14784TIP3    H144295   4.993   0.675   2.161  0.3264  0.0483 -0.5032
14784TIP3    H244296   4.854   0.663   2.220  0.6090 -0.2559  0.1019
14785TIP3   OH244297   1.549   3.190   2.116  0.1496  0.5645  0.5597
14785TIP3    H144298   1.496   3.116   2.083  0.6729 -0.0181  1.0023
14785TIP3    H244299   1.546   3.254   2.045 -0.8068  0.3738  0.4015
14786TIP3   OH244300   7.156   2.099   1.095 -0.1185  0.0269  0.5721
14786TIP3    H144301   7.190   2.073   1.009 -0.2771 -1.5500  0.9412
14786TIP3    H244302   7.232   2.128   1.144  0.0592  0.4023  0.0741
14787TIP3   OH244303   5.490   7.462   2.199 -0.3732  0.8110  0.2111
14787TIP3    H144304   5.558   7.422   2.145 -0.5409  0.3422  0.3475
14787TIP3    H244305   5.429   7.500   2.136 -0.4785  0.4156  0.0739
14788TIP3   OH244306   7.719   5.833   1.317  0.3977  0.1136  0.4084
14788TIP3    H144307   7.700   5.783   1.238  1.7031 -1.0788  0.8067
14788TIP3    H244308   7.753   5.769   1.379 -0.5486  1.0187  1.9469
14789TIP3   OH244309   8.232   6.716   3.268  0.0849 -0.0585 -0.5028
14789TIP3    H144310   8.191   6.630   3.275  0.8586 -0.2847  2.1097
14789TIP3    H244311   8.324   6.697   3.251 -0.1180  0.3573 -2.2333
14790TIP3   OH244312   5.131   6.484   2.773 -0.0251  0.1694  0.2709
14790TIP3    H144313   5.037   6.499   2.759 -0.5854 -0.9780  2.4279
14790TIP3    H244314   5.146   6.509   2.865  1.6347 -0.3796  0.1846
14791TIP3   OH244315   4.213   1.237   5.769 -0.3933 -0.0764  0.5370
14791TIP3    H144316   4.203   1.332   5.762  1.8279  0.3055  1.6498
14791TIP3    H244317   4.251   1.210   5.685 -0.0418  0.1912  0.6090
14792TIP3   OH244318   5.140   6.549   5.630 -0.0378 -0.3737  0.3957
14792TIP3    H144319   5.126   6.643   5.615 -2.0622 -0.5648  0.7849
14792TIP3    H244320   5.226   6.544   5.671  0.0431  1.3284  0.5118
14793TIP3   OH244321   7.184   4.163   5.800 -0.3212  0.4619  0.5687
14793TIP3    H144322   7.198   4.106   5.876  0.9577 -2.0085 -1.3719
14793TIP3    H244323   7.127   4.112   5.743  2.4711  0.0906 -2.1393
14794TIP3   OH244324   2.827   4.519   0.450 -0.0617 -0.7223  0.1175
14794TIP3    H144325   2.764   4.572   0.400  0.2324  0.4127  0.8989
14794TIP3    H244326   2.911   4.562   0.433  0.3249 -1.4987  0.0481
14795TIP3   OH244327   5.361   2.207   2.116 -0.1957  0.0251  0.3590
14795TIP3    H144328   5.378   2.242   2.029  0.3025 -0.7585  0.1242
14795TIP3    H244329   5.379   2.113   2.108 -1.0114 -0.2043  1.0826
14796TIP3   OH244330   7.711   6.039   2.899 -0.1541 -0.3508 -0.3293
14796TIP3    H144331   7.657   6.082   2.965  0.0798 -0.1928 -0.2395
14796TIP3    H244332   7.758   5.971   2.947  1.3002  0.8463  0.0289
14797TIP3   OH244333   1.372   4.057   4.184 -0.0720 -0.1910  0.3529
14797TIP3    H144334   1.319   4.085   4.259 -0.4740  1.1525 -0.3951
14797TIP3    H244335   1.462   4.076   4.211 -0.2818  1.2502  0.1582
14798TIP3   OH244336   2.377   3.094   6.775 -0.3949  0.1476  0.2740
14798TIP3    H144337   2.344   3.136   6.695 -1.2527 -0.2138  0.4249
14798TIP3    H244338   2.339   3.006   6.773 -0.2652  0.0682  0.9783
14799TIP3   OH244339   2.092   0.277   2.760 -0.7491  0.2434  0.5899
14799TIP3    H144340   2.138   0.339   2.815  0.1002 -0.9260  1.2455
14799TIP3    H244341   2.014   0.324   2.729 -1.1217  1.0020  2.5830
14800TIP3   OH244342   6.980   6.166   6.218 -0.5229  0.5350  0.3427
14800TIP3    H144343   7.024   6.082   6.234  0.5394  1.4548  2.6869
14800TIP3    H244344   7.033   6.209   6.151 -0.1814 -0.0382  0.2385
14801TIP3   OH244345   5.590   0.114   4.666 -0.6375  0.2950 -0.2377
14801TIP3    H144346   5.531   0.183   4.633  1.1767  0.7175 -2.9797
14801TIP3    H244347   5.561   0.035   4.621 -1.0697 -0.1977  0.8810
14802TIP3   OH244348   1.568   5.988   0.298  0.0760 -0.0179  0.2834
14802TIP3    H144349   1.524   6.063   0.339 -0.5541 -0.9515  1.3875
14802TIP3    H244350   1.661   6.011   0.299 -0.0251  0.4195  1.3624
14803TIP3   OH244351   7.921   1.575   3.248 -0.0447 -0.2189 -0.0992
14803TIP3    H144352   7.922   1.662   3.208  1.5571  0.0066  0.3462
14803TIP3    H244353   8.006   1.568   3.292 -0.3314 -1.8305  0.2689
14804TIP3   OH244354   2.569   3.687   1.134 -0.3855 -0.4218 -0.5279
14804TIP3    H144355   2.479   3.678   1.102  0.1131 -0.2535 -2.0277
14804TIP3    H244356   2.559   3.712   1.226 -1.8525 -1.7790 -0.2820
14805TIP3   OH244357   5.761   6.406   5.620 -0.5753 -0.0662 -0.0153
14805TIP3    H144358   5.684   6.398   5.562 -0.0816 -1.4398 -0.5208
14805TIP3    H244359   5.752   6.493   5.659 -3.1459 -0.6885  1.0302
14806TIP3   OH244360   1.881   1.345   5.525  0.1530  0.2512 -0.3032
14806TIP3    H144361   1.815   1.299   5.473  0.1369 -0.3705  0.2527
14806TIP3    H244362   1.835   1.372   5.604  0.0708  1.5536 -0.7669
14807TIP3   OH244363   5.308   5.294   4.424  0.0414  0.3779  0.4154
14807TIP3    H144364   5.383   5.246   4.387  0.3831  1.1943  0.0333
14807TIP3    H244365   5.313   5.277   4.518  0.1843 -0.2975  0.2941
14808TIP3   OH244366   3.210   1.685   6.639 -0.8132 -0.9937 -0.1200
14808TIP3    H144367   3.237   1.703   6.548 -0.2300 -0.5216  0.1409
14808TIP3    H244368   3.290   1.699   6.690 -1.5839  0.5487  0.6917
14809TIP3   OH244369   5.895   7.763   5.645 -0.3340  0.1430 -0.4412
14809TIP3    H144370   5.988   7.783   5.644 -0.3578  0.2167 -1.4127
14809TIP3    H244371   5.864   7.797   5.730  0.6124 -0.3753  0.1255
14810TIP3   OH244372   7.531   3.015   0.284 -0.2721 -0.0587 -0.5662
14810TIP3    H144373   7.446   3.009   0.327  0.0904  0.1336  0.1844
14810TIP3    H244374   7.578   3.083   0.331  0.3092 -0.1689 -0.9692
14811TIP3   OH244375   0.001   2.896   6.668 -0.0136  0.0105  0.5752
14811TIP3    H144376   0.009   2.828   6.735  0.4517 -0.4907  0.0220
14811TIP3    H244377   0.053   2.863   6.595 -3.2513 -1.1802 -1.4316
14812TIP3   OH244378   8.104   0.699   6.220 -0.0355  0.3434 -0.2738
14812TIP3    H144379   8.195   0.694   6.249 -0.5461 -0.6878  1.2721
14812TIP3    H244380   8.052   0.685   6.300 -1.5490 -1.0122 -1.4207
14813TIP3   OH244381   3.668   1.817   4.492  0.3054  0.3042  0.0001
14813TIP3    H144382   3.685   1.836   4.400 -0.7073  2.0968  0.1383
14813TIP3    H244383   3.750   1.835   4.537  0.7545 -0.4144 -0.5245
14814TIP3   OH244384   7.752   1.031   6.254  1.1556 -0.3822 -0.1739
14814TIP3    H144385   7.773   1.122   6.231  1.7290 -0.5977 -0.5367
14814TIP3    H244386   7.828   1.002   6.305  0.7485 -0.5011  0.3585
14815TIP3   OH244387   8.103   4.876   1.245  0.1641 -0.3439 -0.2411
14815TIP3    H144388   8.195   4.853   1.239  0.6285  1.6255 -1.7349
14815TIP3    H244389   8.057   4.803   1.205  1.1038 -1.1363  0.0888
14816TIP3   OH244390   7.590   2.040   5.087 -0.0217  0.1196  0.0100
14816TIP3    H144391   7.613   2.123   5.047  0.1896 -0.2471 -0.6417
14816TIP3    H244392   7.496   2.029   5.069  0.0793 -0.0581 -0.4059
14817TIP3   OH244393   0.994   0.975   0.091  0.6994 -0.0750  0.1176
14817TIP3    H144394   1.083   0.999   0.117  0.6407  0.1620  0.0989
14817TIP3    H244395   0.981   1.018   0.007  1.0870 -1.2897 -0.5878
14818TIP3   OH244396   0.094   3.517   4.515  0.1720  0.1450 -0.4772
14818TIP3    H144397   0.105   3.611   4.504  1.7490  0.1943  1.0570
14818TIP3    H244398   0.074   3.506   4.608 -0.3407 -1.0121 -0.7058
14819TIP3   OH244399   0.930   5.667   5.599 -0.1342  0.0260  0.5955
14819TIP3    H144400   0.859   5.605   5.618 -0.3843 -0.3298 -1.3099
14819TIP3    H244401   0.953   5.649   5.508  0.6664  1.8812  0.4002
14820TIP3   OH244402   2.894   3.770   6.082  0.5654  0.2622  0.6693
14820TIP3    H144403   2.842   3.806   6.154  1.0423  2.7205 -0.1169
14820TIP3    H244404   2.834   3.766   6.008 -0.1691 -3.0821  1.2710
14821TIP3   OH244405   1.485   2.333   2.739 -0.0664 -0.0954  0.1220
14821TIP3    H144406   1.563   2.331   2.796 -0.4634 -1.5054  0.6554
14821TIP3    H244407   1.489   2.251   2.691 -0.5575  0.4120 -0.8061
14822TIP3   OH244408   6.375   2.375   0.908 -0.1320 -0.3479  0.1638
14822TIP3    H144409   6.413   2.312   0.969  1.1300 -0.0234 -0.2586
14822TIP3    H244410   6.428   2.366   0.829 -0.6020  0.5147 -0.2551
14823TIP3   OH244411   1.606   0.667   2.559 -0.1880 -0.0007  0.3097
14823TIP3    H144412   1.519   0.693   2.527 -1.0278 -2.8037  0.1009
14823TIP3    H244413   1.591   0.639   2.649  0.4548 -0.6779  0.2140
14824TIP3   OH244414   1.892   4.701   6.283  0.5899 -0.2176 -0.1608
14824TIP3    H144415   1.959   4.644   6.322 -1.4245 -2.5604  0.0858
14824TIP3    H244416   1.848   4.740   6.358  0.7555  0.2251 -0.2905
14825TIP3   OH244417   2.332   7.107   4.888 -0.0712  0.1005 -0.2608
14825TIP3    H144418   2.396   7.038   4.868 -0.4157 -0.0407 -0.9219
14825TIP3    H244419   2.382   7.188   4.885  0.0727  0.0010 -0.8703
14826TIP3   OH244420   5.781   4.297   0.038  0.3532 -0.0513 -0.5532
14826TIP3    H144421   5.777   4.373  -0.020 -0.1452  0.3282 -0.0370
14826TIP3    H244422   5.744   4.328   0.121  0.0176 -0.8902 -0.3738
14827TIP3   OH244423   5.537   4.614   3.718 -0.3155  0.2718  0.4484
14827TIP3    H144424   5.605   4.612   3.785  0.4169  1.8513 -0.1910
14827TIP3    H244425   5.498   4.527   3.720 -1.6253  0.7794  4.2363
14828TIP3   OH244426   3.576   4.953   4.018  0.0965  0.3264 -0.5048
14828TIP3    H144427   3.623   4.874   4.046 -0.7994 -0.0618 -0.0401
14828TIP3    H244428   3.560   4.939   3.925 -1.1603 -0.6429 -0.1649
14829TIP3   OH244429   4.931   1.419   3.952  0.0445  0.2260  0.1295
14829TIP3    H144430   4.934   1.406   3.857 -1.4321 -0.3552  0.1266
14829TIP3    H244431   4.941   1.331   3.988  0.7582  0.4651  0.5320
14830TIP3   OH244432   2.180   1.323   0.257 -0.5491  0.1976 -0.2933
14830TIP3    H144433   2.271   1.307   0.280 -0.4409 -0.9005 -1.3991
14830TIP3    H244434   2.182   1.402   0.203 -0.5127  1.2968  1.2335
   8.29129   7.81711   6.76981   0.00000   0.00000  -2.76376   0.00000  -2.76376  -3.90856
